<?xml version="1.0" encoding="UTF-8"?>

<!-- generated on Thu Jan 26 09:25:11 2017 by SUMO Version dev-SVN-r22703
<?xml version="1.0" encoding="UTF-8"?>

<configuration xmlns:xsi="http://www.w3.org/2001/XMLSchema-instance" xsi:noNamespaceSchemaLocation="http://sumo.dlr.de/xsd/sumoConfiguration.xsd">

    <input>
        <net-file value="net.net.xml"/>
        <route-files value="input_routes.rou.xml"/>
        <additional-files value="input_additional.add.xml"/>
    </input>

    <output>
        <tripinfo-output value="tripinfos.xml"/>
    </output>

    <report>
        <verbose value="true"/>
        <xml-validation value="never"/>
        <no-step-log value="true"/>
    </report>

</configuration>
-->

<tripinfos xmlns:xsi="http://www.w3.org/2001/XMLSchema-instance" xsi:noNamespaceSchemaLocation="http://sumo.dlr.de/xsd/tripinfo_file.xsd">
    <containerinfo id="container0" depart="0.00">
        <tranship arrival="54.00"/>
        <transport depart="155.00" arrival="174.00"/>
    </containerinfo>
    <tripinfo id="truck0" depart="50.00" departLane="1/4to1/3_0" departPos="25.10" departSpeed="0.00" departDelay="0.00" arrival="196.00" arrivalLane="1/4to1/3_0" arrivalPos="90.50" arrivalSpeed="13.90" duration="146.00" routeLength="447.98" waitSteps="0" timeLoss="11.12" rerouteNo="0" devices="tripinfo_truck0 container_truck0" vType="truck" speedFactor="1.00" vaporized=""/>
    <containerinfo id="container1" depart="0.00">
        <tranship arrival="54.00"/>
        <transport depart="252.00" arrival="271.00"/>
    </containerinfo>
    <tripinfo id="truck1" depart="55.00" departLane="1/4to1/3_0" departPos="25.10" departSpeed="0.00" departDelay="5.00" arrival="293.00" arrivalLane="1/4to1/3_0" arrivalPos="90.50" arrivalSpeed="13.90" duration="238.00" routeLength="447.98" waitSteps="89" timeLoss="103.12" rerouteNo="0" devices="tripinfo_truck1 container_truck1" vType="truck" speedFactor="1.00" vaporized=""/>
</tripinfos>
