<?xml version="1.0" encoding="UTF-8"?>

<!-- generated on 2026-04-23T14:29:34.849359+01:00 by Eclipse SUMO sumo v1_26_0+1357-4cb6fe19152
This data file and the accompanying materials
are made available under the terms of the Eclipse Public License v2.0
which accompanies this distribution, and is available at
http://www.eclipse.org/legal/epl-v20.html
This file may also be made available under the following Secondary
Licenses when the conditions for such availability set forth in the Eclipse
Public License 2.0 are satisfied: GNU General Public License, version 2
or later which is available at
https://www.gnu.org/licenses/old-licenses/gpl-2.0-standalone.html
SPDX-License-Identifier: EPL-2.0 OR GPL-2.0-or-later
<sumoConfiguration xmlns:xsi="http://www.w3.org/2001/XMLSchema-instance" xsi:noNamespaceSchemaLocation="http://sumo.dlr.de/xsd/sumoConfiguration.xsd">

    <input>
        <net-file value="net.net.xml"/>
        <route-files value="input_routes.rou.xml"/>
        <additional-files value="input_additional.add.xml"/>
    </input>

    <output>
        <write-license value="true"/>
        <tripinfo-output value="tripinfos.xml"/>
        <tripinfo-output.write-unfinished value="true"/>
        <vehroute-output value="vehroutes.xml"/>
        <vehroute-output.write-unfinished value="true"/>
    </output>

    <time>
        <end value="7200"/>
    </time>

    <processing>
        <default.departspeed value="0"/>
        <default.departlane value="first"/>
        <default.speeddev value="0"/>
    </processing>

    <report>
        <xml-validation value="never"/>
        <duration-log.disable value="true"/>
        <no-step-log value="true"/>
    </report>

    <taxi_device>
        <device.taxi.idle-algorithm value="taxistand"/>
    </taxi_device>

</sumoConfiguration>
-->

<tripinfos xmlns:xsi="http://www.w3.org/2001/XMLSchema-instance" xsi:noNamespaceSchemaLocation="http://sumo.dlr.de/xsd/tripinfo_file.xsd">
    <personinfo id="p.0" depart="100.00" type="DEFAULT_PEDTYPE" speedFactor="1.00" duration="240.00" waitingTime="71.00" timeLoss="12.10" traveltime="169.00">
        <ride waitingTime="71.00" vehicle="taxi.0" depart="171.00" arrival="340.00" arrivalPos="285.60" duration="169.00" routeLength="1280.19" timeLoss="12.10"/>
    </personinfo>
    <personinfo id="p.1" depart="300.00" type="DEFAULT_PEDTYPE" speedFactor="1.00" duration="217.00" waitingTime="49.00" timeLoss="11.01" traveltime="168.00">
        <ride waitingTime="49.00" vehicle="taxi.1" depart="349.00" arrival="517.00" arrivalPos="285.60" duration="168.00" routeLength="1280.24" timeLoss="11.01"/>
    </personinfo>
    <personinfo id="p.2" depart="500.00" type="DEFAULT_PEDTYPE" speedFactor="1.00" duration="259.00" waitingTime="90.00" timeLoss="12.40" traveltime="169.00">
        <ride waitingTime="90.00" vehicle="taxi.2" depart="590.00" arrival="759.00" arrivalPos="285.60" duration="169.00" routeLength="1280.21" timeLoss="12.40"/>
    </personinfo>
    <personinfo id="p.3" depart="700.00" type="DEFAULT_PEDTYPE" speedFactor="1.00" duration="242.00" waitingTime="70.00" timeLoss="14.37" traveltime="172.00">
        <ride waitingTime="70.00" vehicle="taxi.3" depart="770.00" arrival="942.00" arrivalPos="285.60" duration="172.00" routeLength="1280.24" timeLoss="14.37"/>
    </personinfo>
    <personinfo id="p.4" depart="900.00" type="DEFAULT_PEDTYPE" speedFactor="1.00" duration="223.00" waitingTime="51.00" timeLoss="14.69" traveltime="172.00">
        <ride waitingTime="51.00" vehicle="taxi.4" depart="951.00" arrival="1123.00" arrivalPos="285.60" duration="172.00" routeLength="1280.20" timeLoss="14.69"/>
    </personinfo>
    <personinfo id="p.5" depart="1100.00" type="DEFAULT_PEDTYPE" speedFactor="1.00" duration="260.00" waitingTime="90.00" timeLoss="12.79" traveltime="170.00">
        <ride waitingTime="90.00" vehicle="taxi.0" depart="1190.00" arrival="1360.00" arrivalPos="285.60" duration="170.00" routeLength="1280.19" timeLoss="12.79"/>
    </personinfo>
    <personinfo id="p.6" depart="1300.00" type="DEFAULT_PEDTYPE" speedFactor="1.00" duration="239.00" waitingTime="70.00" timeLoss="11.86" traveltime="169.00">
        <ride waitingTime="70.00" vehicle="taxi.1" depart="1370.00" arrival="1539.00" arrivalPos="285.60" duration="169.00" routeLength="1280.20" timeLoss="11.86"/>
    </personinfo>
    <personinfo id="p.7" depart="1500.00" type="DEFAULT_PEDTYPE" speedFactor="1.00" duration="219.00" waitingTime="51.00" timeLoss="11.20" traveltime="168.00">
        <ride waitingTime="51.00" vehicle="taxi.2" depart="1551.00" arrival="1719.00" arrivalPos="285.60" duration="168.00" routeLength="1280.19" timeLoss="11.20"/>
    </personinfo>
    <personinfo id="p.8" depart="1700.00" type="DEFAULT_PEDTYPE" speedFactor="1.00" duration="259.00" waitingTime="91.00" timeLoss="10.92" traveltime="168.00">
        <ride waitingTime="91.00" vehicle="taxi.3" depart="1791.00" arrival="1959.00" arrivalPos="285.60" duration="168.00" routeLength="1280.27" timeLoss="10.92"/>
    </personinfo>
    <personinfo id="p.9" depart="1900.00" type="DEFAULT_PEDTYPE" speedFactor="1.00" duration="239.00" waitingTime="69.00" timeLoss="12.58" traveltime="170.00">
        <ride waitingTime="69.00" vehicle="taxi.4" depart="1969.00" arrival="2139.00" arrivalPos="285.60" duration="170.00" routeLength="1280.21" timeLoss="12.58"/>
    </personinfo>
    <tripinfo id="taxi.0" depart="0.00" departLane="A0B0_1" departPos="5.10" departSpeed="0.00" departDelay="0.00" arrival="-1.00" arrivalLane="" arrivalPos="-1.00" arrivalSpeed="-1.00" duration="7200.00" routeLength="4864.05" waitingTime="9.00" waitingCount="4" stopTime="6734.00" timeLoss="75.40" rerouteNo="6" devices="vehroute_taxi.0 tripinfo_taxi.0 routing_taxi.0 taxi_taxi.0 person_taxi.0" vType="taxi" speedFactor="1.00" vaporized="end">
        <taxi customers="2" occupiedDistance="2560.37" occupiedTime="341.00"/>
    </tripinfo>
    <tripinfo id="taxi.1" depart="3.00" departLane="A0B0_1" departPos="5.10" departSpeed="0.00" departDelay="2.80" arrival="-1.00" arrivalLane="" arrivalPos="-1.00" arrivalSpeed="-1.00" duration="7197.00" routeLength="4856.05" waitingTime="8.00" waitingCount="2" stopTime="6732.00" timeLoss="76.33" rerouteNo="7" devices="vehroute_taxi.1 tripinfo_taxi.1 routing_taxi.1 taxi_taxi.1 person_taxi.1" vType="taxi" speedFactor="1.00" vaporized="end">
        <taxi customers="2" occupiedDistance="2560.44" occupiedTime="339.00"/>
    </tripinfo>
    <tripinfo id="taxi.2" depart="6.00" departLane="A0B0_1" departPos="5.10" departSpeed="0.00" departDelay="5.60" arrival="-1.00" arrivalLane="" arrivalPos="-1.00" arrivalSpeed="-1.00" duration="7194.00" routeLength="4848.06" waitingTime="10.00" waitingCount="5" stopTime="6728.00" timeLoss="76.42" rerouteNo="7" devices="vehroute_taxi.2 tripinfo_taxi.2 routing_taxi.2 taxi_taxi.2 person_taxi.2" vType="taxi" speedFactor="1.00" vaporized="end">
        <taxi customers="2" occupiedDistance="2560.40" occupiedTime="339.00"/>
    </tripinfo>
    <tripinfo id="taxi.3" depart="9.00" departLane="A0B0_1" departPos="5.10" departSpeed="0.00" departDelay="8.40" arrival="-1.00" arrivalLane="" arrivalPos="-1.00" arrivalSpeed="-1.00" duration="7191.00" routeLength="4840.03" waitingTime="11.00" waitingCount="5" stopTime="6723.00" timeLoss="79.89" rerouteNo="7" devices="vehroute_taxi.3 tripinfo_taxi.3 routing_taxi.3 taxi_taxi.3 person_taxi.3" vType="taxi" speedFactor="1.00" vaporized="end">
        <taxi customers="2" occupiedDistance="2560.51" occupiedTime="342.00"/>
    </tripinfo>
    <tripinfo id="taxi.4" depart="12.00" departLane="A0B0_1" departPos="5.10" departSpeed="0.00" departDelay="11.20" arrival="-1.00" arrivalLane="" arrivalPos="-1.00" arrivalSpeed="-1.00" duration="7188.00" routeLength="4832.05" waitingTime="11.00" waitingCount="4" stopTime="6709.00" timeLoss="88.36" rerouteNo="7" devices="vehroute_taxi.4 tripinfo_taxi.4 routing_taxi.4 taxi_taxi.4 person_taxi.4" vType="taxi" speedFactor="1.00" vaporized="end">
        <taxi customers="2" occupiedDistance="2560.41" occupiedTime="344.00"/>
    </tripinfo>
</tripinfos>
