<?xml version="1.0" encoding="UTF-8"?>

<!-- generated on 2026-04-12T22:58:22.778070+01:00 by Eclipse SUMO sumo v1_26_0+1104-2821dd5be05
This data file and the accompanying materials
are made available under the terms of the Eclipse Public License v2.0
which accompanies this distribution, and is available at
http://www.eclipse.org/legal/epl-v20.html
This file may also be made available under the following Secondary
Licenses when the conditions for such availability set forth in the Eclipse
Public License 2.0 are satisfied: GNU General Public License, version 2
or later which is available at
https://www.gnu.org/licenses/old-licenses/gpl-2.0-standalone.html
SPDX-License-Identifier: EPL-2.0 OR GPL-2.0-or-later
<sumoConfiguration xmlns:xsi="http://www.w3.org/2001/XMLSchema-instance" xsi:noNamespaceSchemaLocation="http://sumo.dlr.de/xsd/sumoConfiguration.xsd">

    <input>
        <net-file value="net.net.xml"/>
        <route-files value="input_routes.rou.xml"/>
    </input>

    <output>
        <write-license value="true"/>
        <tripinfo-output value="tripinfos.xml"/>
        <railsignal-block-output value="railsignal_blocks.xml"/>
        <railsignal-vehicle-output value="railsignal_vehicles.xml"/>
    </output>

    <processing>
        <time-to-teleport.railsignal-deadlock value="200"/>
        <default.departspeed value="0"/>
        <default.departlane value="first"/>
        <default.speeddev value="0"/>
    </processing>

    <report>
        <xml-validation value="never"/>
        <duration-log.disable value="true"/>
        <no-step-log value="true"/>
    </report>

</sumoConfiguration>
-->

<tripinfos xmlns:xsi="http://www.w3.org/2001/XMLSchema-instance" xsi:noNamespaceSchemaLocation="http://sumo.dlr.de/xsd/tripinfo_file.xsd">
    <tripinfo id="v_0" depart="0.00" departLane="E0_0" departPos="100.00" departSpeed="0.00" departDelay="0.00" arrival="28.00" arrivalLane="E1_0" arrivalPos="100.00" arrivalSpeed="7.00" duration="28.00" routeLength="100.10" waitingTime="0.00" waitingCount="0" stopTime="0.00" timeLoss="20.69" rerouteNo="0" devices="tripinfo_v_0" vType="DEFAULT_RAILTYPE" speedFactor="1.00" vaporized=""/>
    <tripinfo id="v_1" depart="100.00" departLane="E0_0" departPos="5.10" departSpeed="0.00" departDelay="0.00" arrival="118.00" arrivalLane="E1_0" arrivalPos="100.00" arrivalSpeed="12.90" duration="18.00" routeLength="195.00" waitingTime="0.00" waitingCount="0" stopTime="0.00" timeLoss="3.68" rerouteNo="0" devices="tripinfo_v_1" vType="DEFAULT_VEHTYPE" speedFactor="1.00" vaporized=""/>
    <tripinfo id="v_2" depart="103.00" departLane="E0_0" departPos="5.10" departSpeed="0.00" departDelay="0.00" arrival="121.00" arrivalLane="E1_0" arrivalPos="100.00" arrivalSpeed="13.76" duration="18.00" routeLength="195.00" waitingTime="0.00" waitingCount="0" stopTime="0.00" timeLoss="3.92" rerouteNo="0" devices="tripinfo_v_2" vType="DEFAULT_VEHTYPE" speedFactor="1.00" vaporized=""/>
</tripinfos>
