<?xml version="1.0" encoding="UTF-8"?>

<!-- generated on 2023-06-12 16:26:53 by Eclipse SUMO sumo Version v1_17_0+0921-8745a30
This data file and the accompanying materials
are made available under the terms of the Eclipse Public License v2.0
which accompanies this distribution, and is available at
http://www.eclipse.org/legal/epl-v20.html
This file may also be made available under the following Secondary
Licenses when the conditions for such availability set forth in the Eclipse
Public License 2.0 are satisfied: GNU General Public License, version 2
or later which is available at
https://www.gnu.org/licenses/old-licenses/gpl-2.0-standalone.html
SPDX-License-Identifier: EPL-2.0 OR GPL-2.0-or-later
<configuration xmlns:xsi="http://www.w3.org/2001/XMLSchema-instance" xsi:noNamespaceSchemaLocation="http://sumo.dlr.de/xsd/sumoConfiguration.xsd">

    <input>
        <net-file value="net.net.xml"/>
        <route-files value="input_routes.rou.xml"/>
        <additional-files value="input_additional.add.xml"/>
    </input>

    <output>
        <write-license value="true"/>
    </output>

    <processing>
        <tls.actuated.show-detectors value="true"/>
        <default.speeddev value="0"/>
    </processing>

    <report>
        <xml-validation value="never"/>
        <duration-log.disable value="true"/>
        <no-step-log value="true"/>
    </report>

</configuration>
-->

<detector xmlns:xsi="http://www.w3.org/2001/XMLSchema-instance" xsi:noNamespaceSchemaLocation="http://sumo.dlr.de/xsd/det_e1_file.xsd">
    <interval begin="0.00" end="120.00" id="customLoop1" nVehContrib="0" flow="0.00" occupancy="0.00" speed="-1.00" harmonicMeanSpeed="-1.00" length="-1.00" nVehEntered="0"/>
    <interval begin="0.00" end="120.00" id="customLoop2" nVehContrib="6" flow="180.00" occupancy="14.54" speed="9.07" harmonicMeanSpeed="8.88" length="5.00" nVehEntered="7"/>
    <interval begin="120.00" end="240.00" id="customLoop1" nVehContrib="0" flow="0.00" occupancy="0.00" speed="-1.00" harmonicMeanSpeed="-1.00" length="-1.00" nVehEntered="0"/>
    <interval begin="120.00" end="240.00" id="customLoop2" nVehContrib="6" flow="180.00" occupancy="82.67" speed="7.07" harmonicMeanSpeed="0.47" length="5.00" nVehEntered="6"/>
    <interval begin="240.00" end="360.00" id="customLoop1" nVehContrib="0" flow="0.00" occupancy="0.00" speed="-1.00" harmonicMeanSpeed="-1.00" length="-1.00" nVehEntered="0"/>
    <interval begin="240.00" end="360.00" id="customLoop2" nVehContrib="11" flow="330.00" occupancy="87.11" speed="6.86" harmonicMeanSpeed="0.50" length="5.00" nVehEntered="11"/>
    <interval begin="360.00" end="480.00" id="customLoop1" nVehContrib="0" flow="0.00" occupancy="0.00" speed="-1.00" harmonicMeanSpeed="-1.00" length="-1.00" nVehEntered="0"/>
    <interval begin="360.00" end="480.00" id="customLoop2" nVehContrib="12" flow="360.00" occupancy="85.87" speed="6.30" harmonicMeanSpeed="0.41" length="5.00" nVehEntered="12"/>
    <interval begin="480.00" end="567.00" id="customLoop1" nVehContrib="0" flow="0.00" occupancy="0.00" speed="-1.00" harmonicMeanSpeed="-1.00" length="-1.00" nVehEntered="0"/>
    <interval begin="480.00" end="567.00" id="customLoop2" nVehContrib="11" flow="455.17" occupancy="30.97" speed="7.20" harmonicMeanSpeed="2.02" length="5.00" nVehEntered="10"/>
</detector>
