<?xml version="1.0" encoding="UTF-8"?>

<!-- generated on Wed May 30 09:50:12 2018 by Eclipse SUMO Version b2daee9
This data file and the accompanying materials
are made available under the terms of the Eclipse Public License v2.0
which accompanies this distribution, and is available at
http://www.eclipse.org/legal/epl-v20.html
SPDX-License-Identifier: EPL-2.0
<configuration xmlns:xsi="http://www.w3.org/2001/XMLSchema-instance" xsi:noNamespaceSchemaLocation="http://sumo.dlr.de/xsd/sumoConfiguration.xsd">

    <input>
        <net-file value="net.net.xml"/>
        <route-files value="input_routes.rou.xml"/>
        <additional-files value="input_additional.add.xml"/>
    </input>

    <output>
        <write-license value="true"/>
        <vehroute-output value="vehroutes.xml"/>
        <vehroute-output.skip-ptlines value="true"/>
    </output>

    <processing>
        <lateral-resolution value="0.8"/>
    </processing>

    <report>
        <xml-validation value="never"/>
        <no-step-log value="true"/>
    </report>

</configuration>
-->

<routes xmlns:xsi="http://www.w3.org/2001/XMLSchema-instance" xsi:noNamespaceSchemaLocation="http://sumo.dlr.de/xsd/routes_file.xsd">
    <person id="p0" depart="0.00" arrival="941.00">
        <walk edges="beg" busStop="beg_0"/>
        <ride from="beg" to="left" busStop="left_0" lines="bus" intended="bus.1" depart="310.00"/>
        <ride from="left" to="end" busStop="end_0" lines="bus2" intended="bus2.1" depart="370.00"/>
        <walk edges="end"/>
    </person>

    <person id="p1" depart="2000.00" arrival="3400.00">
        <walk edges="beg middle end"/>
    </person>

</routes>
