<?xml version="1.0" encoding="UTF-8"?>

<!-- generated on 2021-08-19 16:10:25 by Eclipse SUMO sumo Version v1_10_0+0097-31bb3de
This data file and the accompanying materials
are made available under the terms of the Eclipse Public License v2.0
which accompanies this distribution, and is available at
http://www.eclipse.org/legal/epl-v20.html
SPDX-License-Identifier: EPL-2.0
<configuration xmlns:xsi="http://www.w3.org/2001/XMLSchema-instance" xsi:noNamespaceSchemaLocation="http://sumo.dlr.de/xsd/sumoConfiguration.xsd">

    <input>
        <net-file value="net.net.xml"/>
        <route-files value="input_routes.rou.xml"/>
    </input>

    <output>
        <write-license value="true"/>
        <netstate-dump value="rawdump.xml"/>
        <tripinfo-output value="tripinfos.xml"/>
        <lanechange-output value="lanechanges.xml"/>
    </output>

    <processing>
        <lateral-resolution value="0.8"/>
        <default.speeddev value="0"/>
    </processing>

    <report>
        <xml-validation value="never"/>
        <xml-validation.routes value="never"/>
        <no-step-log value="true"/>
    </report>

</configuration>
-->

<lanechanges>
    <change id="leader" type="t0" time="34.00" from="beg_0" to="beg_1" dir="1" speed="2.80" pos="177.00" reason="strategic|urgent" leaderGap="None" leaderSecureGap="None" leaderSpeed="None" followerGap="8.60" followerSecureGap="1.50" followerSpeed="1.50" origLeaderGap="None" origLeaderSecureGap="None" origLeaderSpeed="None" latGap="None"/>
    <change id="ego" type="t0" time="36.00" from="beg_0" to="beg_1" dir="1" speed="1.90" pos="167.00" reason="strategic|urgent" leaderGap="11.20" leaderSecureGap="1.90" leaderSpeed="3.20" followerGap="None" followerSecureGap="None" followerSpeed="None" origLeaderGap="None" origLeaderSecureGap="None" origLeaderSpeed="None" latGap="None"/>
</lanechanges>
