<?xml version="1.0"?>

<!-- generated on 09/30/10 23:05:08 by SUMO sumo Version dev-SVN-r9145
<?xml version="1.0" encoding="iso-8859-1"?>

<configuration>

    <input>
        <net-file value="net.net.xml"/>
        <route-files value="input_routes.rou.xml"/>
    </input>

    <output>
        <netstate-dump value="rawdump.xml"/>
    </output>

    <report>
        <no-duration-log value="true"/>
        <no-step-log value="true"/>
    </report>

</configuration>
-->

<sumo-netstate>
    <timestep time="0.00">
    </timestep>
    <timestep time="1.00">
        <edge id="1fi">
            <lane id="1fi_0">
                <vehicle id="veh0" pos="7.60" speed="0.00"/>
            </lane>
            <lane id="1fi_1"/>
        </edge>
    </timestep>
    <timestep time="2.00">
        <edge id="1fi">
            <lane id="1fi_0">
                <vehicle id="veh0" pos="7.60" speed="0.00"/>
            </lane>
            <lane id="1fi_1"/>
        </edge>
    </timestep>
    <timestep time="3.00">
        <edge id="1fi">
            <lane id="1fi_0">
                <vehicle id="veh0" pos="7.60" speed="0.00"/>
            </lane>
            <lane id="1fi_1"/>
        </edge>
    </timestep>
    <timestep time="4.00">
        <edge id="1fi">
            <lane id="1fi_0">
                <vehicle id="veh0" pos="7.60" speed="0.00"/>
            </lane>
            <lane id="1fi_1"/>
        </edge>
    </timestep>
    <timestep time="5.00">
        <edge id="1fi">
            <lane id="1fi_0">
                <vehicle id="veh0" pos="7.60" speed="0.00"/>
            </lane>
            <lane id="1fi_1"/>
        </edge>
    </timestep>
    <timestep time="6.00">
        <edge id="1fi">
            <lane id="1fi_0">
                <vehicle id="veh0" pos="7.60" speed="0.00"/>
            </lane>
            <lane id="1fi_1"/>
        </edge>
    </timestep>
    <timestep time="7.00">
        <edge id="1fi">
            <lane id="1fi_0">
                <vehicle id="veh0" pos="7.60" speed="0.00"/>
            </lane>
            <lane id="1fi_1"/>
        </edge>
    </timestep>
    <timestep time="8.00">
        <edge id="1fi">
            <lane id="1fi_0">
                <vehicle id="veh0" pos="7.60" speed="0.00"/>
            </lane>
            <lane id="1fi_1"/>
        </edge>
    </timestep>
    <timestep time="9.00">
        <edge id="1fi">
            <lane id="1fi_0">
                <vehicle id="veh0" pos="7.60" speed="0.00"/>
            </lane>
            <lane id="1fi_1"/>
        </edge>
    </timestep>
    <timestep time="10.00">
        <edge id="1fi">
            <lane id="1fi_0">
                <vehicle id="veh0" pos="7.60" speed="0.00"/>
            </lane>
            <lane id="1fi_1"/>
        </edge>
    </timestep>
    <timestep time="11.00">
        <edge id="1fi">
            <lane id="1fi_0">
                <vehicle id="veh0" pos="7.60" speed="0.00"/>
            </lane>
            <lane id="1fi_1"/>
        </edge>
    </timestep>
    <timestep time="12.00">
        <edge id="1fi">
            <lane id="1fi_0">
                <vehicle id="veh0" pos="7.60" speed="0.00"/>
            </lane>
            <lane id="1fi_1"/>
        </edge>
    </timestep>
    <timestep time="13.00">
        <edge id="1fi">
            <lane id="1fi_0">
                <vehicle id="veh0" pos="7.60" speed="0.00"/>
            </lane>
            <lane id="1fi_1"/>
        </edge>
    </timestep>
    <timestep time="14.00">
        <edge id="1fi">
            <lane id="1fi_0">
                <vehicle id="veh0" pos="9.62" speed="2.02"/>
            </lane>
            <lane id="1fi_1"/>
        </edge>
    </timestep>
    <timestep time="15.00">
        <edge id="1fi">
            <lane id="1fi_0">
                <vehicle id="veh0" pos="13.61" speed="3.99"/>
            </lane>
            <lane id="1fi_1"/>
        </edge>
    </timestep>
    <timestep time="16.00">
        <edge id="1fi">
            <lane id="1fi_0">
                <vehicle id="veh0" pos="19.38" speed="5.78"/>
            </lane>
            <lane id="1fi_1"/>
        </edge>
    </timestep>
    <timestep time="17.00">
        <edge id="1fi">
            <lane id="1fi_0">
                <vehicle id="veh0" pos="27.24" speed="7.86"/>
            </lane>
            <lane id="1fi_1"/>
        </edge>
    </timestep>
    <timestep time="18.00">
        <edge id="1fi">
            <lane id="1fi_0">
                <vehicle id="veh0" pos="37.34" speed="10.10"/>
            </lane>
            <lane id="1fi_1"/>
        </edge>
    </timestep>
    <timestep time="19.00">
        <edge id="1fi">
            <lane id="1fi_0">
                <vehicle id="veh0" pos="47.49" speed="10.15"/>
            </lane>
            <lane id="1fi_1"/>
        </edge>
    </timestep>
    <timestep time="20.00">
        <edge id="1fi">
            <lane id="1fi_0">
                <vehicle id="veh0" pos="58.25" speed="10.76"/>
            </lane>
            <lane id="1fi_1"/>
        </edge>
    </timestep>
    <timestep time="21.00">
        <edge id="1fi">
            <lane id="1fi_0">
                <vehicle id="veh0" pos="68.61" speed="10.36"/>
            </lane>
            <lane id="1fi_1"/>
        </edge>
    </timestep>
    <timestep time="22.00">
        <edge id="1fi">
            <lane id="1fi_0">
                <vehicle id="veh0" pos="79.67" speed="11.06"/>
            </lane>
            <lane id="1fi_1"/>
        </edge>
    </timestep>
    <timestep time="23.00">
        <edge id="1fi">
            <lane id="1fi_0">
                <vehicle id="veh0" pos="90.22" speed="10.55"/>
            </lane>
            <lane id="1fi_1"/>
        </edge>
    </timestep>
    <timestep time="24.00">
        <edge id="1fi">
            <lane id="1fi_0">
                <vehicle id="veh0" pos="100.99" speed="10.77"/>
            </lane>
            <lane id="1fi_1"/>
        </edge>
    </timestep>
    <timestep time="25.00">
        <edge id="1fi">
            <lane id="1fi_0">
                <vehicle id="veh0" pos="111.41" speed="10.42"/>
            </lane>
            <lane id="1fi_1"/>
        </edge>
    </timestep>
    <timestep time="26.00">
        <edge id="1fi">
            <lane id="1fi_0">
                <vehicle id="veh0" pos="121.49" speed="10.08"/>
            </lane>
            <lane id="1fi_1"/>
        </edge>
    </timestep>
    <timestep time="27.00">
        <edge id="1fi">
            <lane id="1fi_0">
                <vehicle id="veh0" pos="131.70" speed="10.21"/>
            </lane>
            <lane id="1fi_1"/>
        </edge>
    </timestep>
    <timestep time="28.00">
        <edge id="1fi">
            <lane id="1fi_0">
                <vehicle id="veh0" pos="141.84" speed="10.14"/>
            </lane>
            <lane id="1fi_1"/>
        </edge>
    </timestep>
    <timestep time="29.00">
        <edge id="1fi">
            <lane id="1fi_0">
                <vehicle id="veh0" pos="152.52" speed="10.68"/>
            </lane>
            <lane id="1fi_1"/>
        </edge>
    </timestep>
    <timestep time="30.00">
        <edge id="1fi">
            <lane id="1fi_0">
                <vehicle id="veh0" pos="163.03" speed="10.51"/>
            </lane>
            <lane id="1fi_1"/>
        </edge>
    </timestep>
    <timestep time="31.00">
        <edge id="1fi">
            <lane id="1fi_0">
                <vehicle id="veh0" pos="173.88" speed="10.85"/>
            </lane>
            <lane id="1fi_1"/>
        </edge>
    </timestep>
    <timestep time="32.00">
        <edge id="1fi">
            <lane id="1fi_0">
                <vehicle id="veh0" pos="184.96" speed="11.07"/>
            </lane>
            <lane id="1fi_1"/>
        </edge>
    </timestep>
    <timestep time="33.00">
        <edge id="1fi">
            <lane id="1fi_0">
                <vehicle id="veh0" pos="195.74" speed="10.78"/>
            </lane>
            <lane id="1fi_1"/>
        </edge>
    </timestep>
    <timestep time="34.00">
        <edge id="1fi">
            <lane id="1fi_0">
                <vehicle id="veh0" pos="206.01" speed="10.27"/>
            </lane>
            <lane id="1fi_1"/>
        </edge>
    </timestep>
    <timestep time="35.00">
        <edge id="1fi">
            <lane id="1fi_0">
                <vehicle id="veh0" pos="216.95" speed="10.94"/>
            </lane>
            <lane id="1fi_1"/>
        </edge>
    </timestep>
    <timestep time="36.00">
        <edge id="1fi">
            <lane id="1fi_0">
                <vehicle id="veh0" pos="227.01" speed="10.06"/>
            </lane>
            <lane id="1fi_1"/>
        </edge>
    </timestep>
    <timestep time="37.00">
        <edge id="1fi">
            <lane id="1fi_0">
                <vehicle id="veh0" pos="238.09" speed="11.08"/>
            </lane>
            <lane id="1fi_1"/>
        </edge>
    </timestep>
    <timestep time="38.00">
        <edge id="1fi">
            <lane id="1fi_0">
                <vehicle id="veh0" pos="246.60" speed="8.51"/>
            </lane>
            <lane id="1fi_1"/>
        </edge>
    </timestep>
    <timestep time="39.00">
        <edge id=":m1_0">
            <lane id=":m1_0_0">
                <vehicle id="veh0" pos="3.86" speed="5.76"/>
            </lane>
        </edge>
    </timestep>
    <timestep time="40.00">
        <edge id="1si">
            <lane id="1si_0">
                <vehicle id="veh0" pos="2.59" speed="3.19"/>
            </lane>
            <lane id="1si_1"/>
            <lane id="1si_2"/>
        </edge>
    </timestep>
    <timestep time="41.00">
        <edge id="1si">
            <lane id="1si_0">
                <vehicle id="veh0" pos="3.75" speed="1.16"/>
            </lane>
            <lane id="1si_1"/>
            <lane id="1si_2"/>
        </edge>
    </timestep>
    <timestep time="42.00">
        <edge id="1si">
            <lane id="1si_0">
                <vehicle id="veh0" pos="3.94" speed="0.19"/>
            </lane>
            <lane id="1si_1"/>
            <lane id="1si_2"/>
        </edge>
    </timestep>
    <timestep time="43.00">
        <edge id="1si">
            <lane id="1si_0">
                <vehicle id="veh0" pos="3.94" speed="0.00"/>
            </lane>
            <lane id="1si_1"/>
            <lane id="1si_2"/>
        </edge>
    </timestep>
    <timestep time="44.00">
        <edge id="1si">
            <lane id="1si_0">
                <vehicle id="veh0" pos="3.94" speed="0.00"/>
            </lane>
            <lane id="1si_1"/>
            <lane id="1si_2"/>
        </edge>
    </timestep>
    <timestep time="45.00">
        <edge id="1si">
            <lane id="1si_0">
                <vehicle id="veh0" pos="3.94" speed="0.00"/>
            </lane>
            <lane id="1si_1"/>
            <lane id="1si_2"/>
        </edge>
    </timestep>
    <timestep time="46.00">
        <edge id="1si">
            <lane id="1si_0">
                <vehicle id="veh0" pos="3.94" speed="0.00"/>
            </lane>
            <lane id="1si_1"/>
            <lane id="1si_2"/>
        </edge>
    </timestep>
    <timestep time="47.00">
        <edge id="1si">
            <lane id="1si_0">
                <vehicle id="veh0" pos="3.94" speed="0.00"/>
            </lane>
            <lane id="1si_1"/>
            <lane id="1si_2"/>
        </edge>
    </timestep>
    <timestep time="48.00">
        <edge id="1si">
            <lane id="1si_0">
                <vehicle id="veh0" pos="3.94" speed="0.00"/>
            </lane>
            <lane id="1si_1"/>
            <lane id="1si_2"/>
        </edge>
    </timestep>
    <timestep time="49.00">
        <edge id="1si">
            <lane id="1si_0">
                <vehicle id="veh0" pos="3.94" speed="0.00"/>
            </lane>
            <lane id="1si_1"/>
            <lane id="1si_2"/>
        </edge>
    </timestep>
    <timestep time="50.00">
        <edge id="1si">
            <lane id="1si_0">
                <vehicle id="veh0" pos="3.94" speed="0.00"/>
            </lane>
            <lane id="1si_1"/>
            <lane id="1si_2"/>
        </edge>
    </timestep>
    <timestep time="51.00">
        <edge id="1si">
            <lane id="1si_0">
                <vehicle id="veh0" pos="3.94" speed="0.00"/>
            </lane>
            <lane id="1si_1"/>
            <lane id="1si_2"/>
        </edge>
    </timestep>
    <timestep time="52.00">
        <edge id="1si">
            <lane id="1si_0">
                <vehicle id="veh0" pos="3.94" speed="0.00"/>
            </lane>
            <lane id="1si_1"/>
            <lane id="1si_2"/>
        </edge>
    </timestep>
    <timestep time="53.00">
        <edge id="1si">
            <lane id="1si_0"/>
            <lane id="1si_1">
                <vehicle id="veh0" pos="3.98" speed="0.04"/>
            </lane>
            <lane id="1si_2"/>
        </edge>
    </timestep>
    <timestep time="54.00">
        <edge id="1si">
            <lane id="1si_0"/>
            <lane id="1si_1"/>
            <lane id="1si_2">
                <vehicle id="veh0" pos="5.76" speed="1.77"/>
            </lane>
        </edge>
    </timestep>
    <timestep time="55.00">
        <edge id="1si">
            <lane id="1si_0"/>
            <lane id="1si_1"/>
            <lane id="1si_2">
                <vehicle id="veh0" pos="8.92" speed="3.17"/>
            </lane>
        </edge>
    </timestep>
    <timestep time="56.00">
        <edge id="1si">
            <lane id="1si_0"/>
            <lane id="1si_1"/>
            <lane id="1si_2">
                <vehicle id="veh0" pos="13.42" speed="4.50"/>
            </lane>
        </edge>
    </timestep>
    <timestep time="57.00">
        <edge id="1si">
            <lane id="1si_0"/>
            <lane id="1si_1"/>
            <lane id="1si_2">
                <vehicle id="veh0" pos="20.00" speed="6.57"/>
            </lane>
        </edge>
    </timestep>
    <timestep time="58.00">
        <edge id="1si">
            <lane id="1si_0"/>
            <lane id="1si_1"/>
            <lane id="1si_2">
                <vehicle id="veh0" pos="28.37" speed="8.37"/>
            </lane>
        </edge>
    </timestep>
    <timestep time="59.00">
        <edge id="1si">
            <lane id="1si_0"/>
            <lane id="1si_1"/>
            <lane id="1si_2">
                <vehicle id="veh0" pos="38.39" speed="10.02"/>
            </lane>
        </edge>
    </timestep>
    <timestep time="60.00">
        <edge id="1si">
            <lane id="1si_0"/>
            <lane id="1si_1"/>
            <lane id="1si_2">
                <vehicle id="veh0" pos="50.45" speed="12.07"/>
            </lane>
        </edge>
    </timestep>
    <timestep time="61.00">
        <edge id="1si">
            <lane id="1si_0"/>
            <lane id="1si_1"/>
            <lane id="1si_2">
                <vehicle id="veh0" pos="63.35" speed="12.89"/>
            </lane>
        </edge>
    </timestep>
    <timestep time="62.00">
        <edge id="1si">
            <lane id="1si_0"/>
            <lane id="1si_1"/>
            <lane id="1si_2">
                <vehicle id="veh0" pos="77.05" speed="13.70"/>
            </lane>
        </edge>
    </timestep>
    <timestep time="63.00">
        <edge id="1si">
            <lane id="1si_0"/>
            <lane id="1si_1"/>
            <lane id="1si_2">
                <vehicle id="veh0" pos="90.27" speed="13.22"/>
            </lane>
        </edge>
    </timestep>
    <timestep time="64.00">
        <edge id="1si">
            <lane id="1si_0"/>
            <lane id="1si_1"/>
            <lane id="1si_2">
                <vehicle id="veh0" pos="104.00" speed="13.73"/>
            </lane>
        </edge>
    </timestep>
    <timestep time="65.00">
        <edge id="1si">
            <lane id="1si_0"/>
            <lane id="1si_1"/>
            <lane id="1si_2">
                <vehicle id="veh0" pos="117.86" speed="13.86"/>
            </lane>
        </edge>
    </timestep>
    <timestep time="66.00">
        <edge id="1si">
            <lane id="1si_0"/>
            <lane id="1si_1"/>
            <lane id="1si_2">
                <vehicle id="veh0" pos="131.46" speed="13.60"/>
            </lane>
        </edge>
    </timestep>
    <timestep time="67.00">
        <edge id="1si">
            <lane id="1si_0"/>
            <lane id="1si_1"/>
            <lane id="1si_2">
                <vehicle id="veh0" pos="144.78" speed="13.32"/>
            </lane>
        </edge>
    </timestep>
    <timestep time="68.00">
        <edge id="1si">
            <lane id="1si_0"/>
            <lane id="1si_1"/>
            <lane id="1si_2">
                <vehicle id="veh0" pos="157.70" speed="12.92"/>
            </lane>
        </edge>
    </timestep>
    <timestep time="69.00">
        <edge id="1si">
            <lane id="1si_0"/>
            <lane id="1si_1"/>
            <lane id="1si_2">
                <vehicle id="veh0" pos="171.52" speed="13.82"/>
            </lane>
        </edge>
    </timestep>
    <timestep time="70.00">
        <edge id="1si">
            <lane id="1si_0"/>
            <lane id="1si_1"/>
            <lane id="1si_2">
                <vehicle id="veh0" pos="185.23" speed="13.70"/>
            </lane>
        </edge>
    </timestep>
    <timestep time="71.00">
        <edge id="1si">
            <lane id="1si_0"/>
            <lane id="1si_1"/>
            <lane id="1si_2">
                <vehicle id="veh0" pos="198.08" speed="12.86"/>
            </lane>
        </edge>
    </timestep>
    <timestep time="72.00">
        <edge id="1si">
            <lane id="1si_0"/>
            <lane id="1si_1"/>
            <lane id="1si_2">
                <vehicle id="veh0" pos="211.65" speed="13.56"/>
            </lane>
        </edge>
    </timestep>
    <timestep time="73.00">
        <edge id="1si">
            <lane id="1si_0"/>
            <lane id="1si_1"/>
            <lane id="1si_2">
                <vehicle id="veh0" pos="222.58" speed="10.93"/>
            </lane>
        </edge>
    </timestep>
    <timestep time="74.00">
        <edge id="1si">
            <lane id="1si_0"/>
            <lane id="1si_1"/>
            <lane id="1si_2">
                <vehicle id="veh0" pos="230.29" speed="7.70"/>
            </lane>
        </edge>
    </timestep>
    <timestep time="75.00">
        <edge id="1si">
            <lane id="1si_0"/>
            <lane id="1si_1"/>
            <lane id="1si_2">
                <vehicle id="veh0" pos="234.15" speed="3.87"/>
            </lane>
        </edge>
    </timestep>
    <timestep time="76.00">
        <edge id=":0_23">
            <lane id=":0_23_0">
                <vehicle id="veh0" pos="2.98" speed="6.08"/>
            </lane>
        </edge>
    </timestep>
    <timestep time="77.00">
        <edge id="1o">
            <lane id="1o_0">
                <vehicle id="veh0" pos="6.51" speed="8.25"/>
            </lane>
        </edge>
    </timestep>
    <timestep time="78.00">
        <edge id="1o">
            <lane id="1o_0">
                <vehicle id="veh0" pos="17.00" speed="10.49"/>
            </lane>
        </edge>
    </timestep>
    <timestep time="79.00">
        <edge id="1o">
            <lane id="1o_0">
                <vehicle id="veh0" pos="28.02" speed="11.02"/>
            </lane>
        </edge>
    </timestep>
    <timestep time="80.00">
        <edge id="1o">
            <lane id="1o_0">
                <vehicle id="veh0" pos="38.34" speed="10.32"/>
            </lane>
        </edge>
    </timestep>
    <timestep time="81.00">
        <edge id="1o">
            <lane id="1o_0">
                <vehicle id="veh0" pos="49.07" speed="10.73"/>
            </lane>
        </edge>
    </timestep>
    <timestep time="82.00">
        <edge id="1o">
            <lane id="1o_0">
                <vehicle id="veh0" pos="59.86" speed="10.79"/>
            </lane>
        </edge>
    </timestep>
    <timestep time="83.00">
        <edge id="1o">
            <lane id="1o_0">
                <vehicle id="veh0" pos="70.74" speed="10.88"/>
            </lane>
        </edge>
    </timestep>
    <timestep time="84.00">
        <edge id="1o">
            <lane id="1o_0">
                <vehicle id="veh0" pos="81.10" speed="10.37"/>
            </lane>
        </edge>
    </timestep>
    <timestep time="85.00">
        <edge id="1o">
            <lane id="1o_0">
                <vehicle id="veh0" pos="91.75" speed="10.65"/>
            </lane>
        </edge>
    </timestep>
    <timestep time="86.00">
        <edge id="1o">
            <lane id="1o_0">
                <vehicle id="veh0" pos="102.19" speed="10.44"/>
            </lane>
        </edge>
    </timestep>
    <timestep time="87.00">
        <edge id="1o">
            <lane id="1o_0">
                <vehicle id="veh0" pos="112.87" speed="10.68"/>
            </lane>
        </edge>
    </timestep>
    <timestep time="88.00">
        <edge id="1o">
            <lane id="1o_0">
                <vehicle id="veh0" pos="123.42" speed="10.55"/>
            </lane>
        </edge>
    </timestep>
    <timestep time="89.00">
        <edge id="1o">
            <lane id="1o_0">
                <vehicle id="veh0" pos="133.63" speed="10.21"/>
            </lane>
        </edge>
    </timestep>
    <timestep time="90.00">
        <edge id="1o">
            <lane id="1o_0">
                <vehicle id="veh0" pos="144.10" speed="10.47"/>
            </lane>
        </edge>
    </timestep>
    <timestep time="91.00">
        <edge id="1o">
            <lane id="1o_0">
                <vehicle id="veh0" pos="154.75" speed="10.65"/>
            </lane>
        </edge>
    </timestep>
    <timestep time="92.00">
        <edge id="1o">
            <lane id="1o_0">
                <vehicle id="veh0" pos="165.46" speed="10.71"/>
            </lane>
        </edge>
    </timestep>
    <timestep time="93.00">
        <edge id="1o">
            <lane id="1o_0">
                <vehicle id="veh0" pos="175.51" speed="10.04"/>
            </lane>
        </edge>
    </timestep>
    <timestep time="94.00">
        <edge id="1o">
            <lane id="1o_0">
                <vehicle id="veh0" pos="186.59" speed="11.08"/>
            </lane>
        </edge>
    </timestep>
    <timestep time="95.00">
        <edge id="1o">
            <lane id="1o_0">
                <vehicle id="veh0" pos="197.37" speed="10.78"/>
            </lane>
        </edge>
    </timestep>
    <timestep time="96.00">
        <edge id="1o">
            <lane id="1o_0">
                <vehicle id="veh0" pos="208.36" speed="11.00"/>
            </lane>
        </edge>
    </timestep>
    <timestep time="97.00">
        <edge id="1o">
            <lane id="1o_0">
                <vehicle id="veh0" pos="218.52" speed="10.15"/>
            </lane>
        </edge>
    </timestep>
    <timestep time="98.00">
        <edge id="1o">
            <lane id="1o_0">
                <vehicle id="veh0" pos="228.94" speed="10.43"/>
            </lane>
        </edge>
    </timestep>
    <timestep time="99.00">
        <edge id="1o">
            <lane id="1o_0">
                <vehicle id="veh0" pos="239.04" speed="10.10"/>
            </lane>
        </edge>
    </timestep>
    <timestep time="100.00">
        <edge id="1o">
            <lane id="1o_0">
                <vehicle id="veh0" pos="249.61" speed="10.57"/>
            </lane>
        </edge>
    </timestep>
    <timestep time="101.00">
        <edge id="1o">
            <lane id="1o_0">
                <vehicle id="veh0" pos="260.26" speed="10.65"/>
            </lane>
        </edge>
    </timestep>
    <timestep time="102.00">
        <edge id="1o">
            <lane id="1o_0">
                <vehicle id="veh0" pos="270.59" speed="10.33"/>
            </lane>
        </edge>
    </timestep>
    <timestep time="103.00">
        <edge id="1o">
            <lane id="1o_0">
                <vehicle id="veh0" pos="281.20" speed="10.61"/>
            </lane>
        </edge>
    </timestep>
    <timestep time="104.00">
        <edge id="1o">
            <lane id="1o_0">
                <vehicle id="veh0" pos="291.36" speed="10.15"/>
            </lane>
        </edge>
    </timestep>
    <timestep time="105.00">
        <edge id="1o">
            <lane id="1o_0">
                <vehicle id="veh0" pos="301.84" speed="10.48"/>
            </lane>
        </edge>
    </timestep>
    <timestep time="106.00">
        <edge id="1o">
            <lane id="1o_0">
                <vehicle id="veh0" pos="311.89" speed="10.05"/>
            </lane>
        </edge>
    </timestep>
    <timestep time="107.00">
        <edge id="1o">
            <lane id="1o_0">
                <vehicle id="veh0" pos="322.67" speed="10.79"/>
            </lane>
        </edge>
    </timestep>
    <timestep time="108.00">
        <edge id="1o">
            <lane id="1o_0">
                <vehicle id="veh0" pos="333.33" speed="10.66"/>
            </lane>
        </edge>
    </timestep>
    <timestep time="109.00">
        <edge id="1o">
            <lane id="1o_0">
                <vehicle id="veh0" pos="344.07" speed="10.74"/>
            </lane>
        </edge>
    </timestep>
    <timestep time="110.00">
        <edge id="1o">
            <lane id="1o_0">
                <vehicle id="veh0" pos="354.41" speed="10.34"/>
            </lane>
        </edge>
    </timestep>
    <timestep time="111.00">
        <edge id="1o">
            <lane id="1o_0">
                <vehicle id="veh0" pos="365.41" speed="11.00"/>
            </lane>
        </edge>
    </timestep>
    <timestep time="112.00">
        <edge id="1o">
            <lane id="1o_0">
                <vehicle id="veh0" pos="376.01" speed="10.60"/>
            </lane>
        </edge>
    </timestep>
    <timestep time="113.00">
        <edge id="1o">
            <lane id="1o_0">
                <vehicle id="veh0" pos="386.40" speed="10.39"/>
            </lane>
        </edge>
    </timestep>
    <timestep time="114.00">
        <edge id="1o">
            <lane id="1o_0">
                <vehicle id="veh0" pos="396.65" speed="10.26"/>
            </lane>
        </edge>
    </timestep>
    <timestep time="115.00">
        <edge id="1o">
            <lane id="1o_0">
                <vehicle id="veh0" pos="407.46" speed="10.80"/>
            </lane>
        </edge>
    </timestep>
    <timestep time="116.00">
        <edge id="1o">
            <lane id="1o_0">
                <vehicle id="veh0" pos="417.79" speed="10.33"/>
            </lane>
        </edge>
    </timestep>
    <timestep time="117.00">
        <edge id="1o">
            <lane id="1o_0">
                <vehicle id="veh0" pos="428.76" speed="10.97"/>
            </lane>
        </edge>
    </timestep>
    <timestep time="118.00">
        <edge id="1o">
            <lane id="1o_0">
                <vehicle id="veh0" pos="439.09" speed="10.33"/>
            </lane>
        </edge>
    </timestep>
    <timestep time="119.00">
        <edge id="1o">
            <lane id="1o_0">
                <vehicle id="veh0" pos="450.05" speed="10.96"/>
            </lane>
        </edge>
    </timestep>
    <timestep time="120.00">
        <edge id="1o">
            <lane id="1o_0">
                <vehicle id="veh0" pos="460.19" speed="10.15"/>
            </lane>
        </edge>
    </timestep>
    <timestep time="121.00">
        <edge id="1o">
            <lane id="1o_0">
                <vehicle id="veh0" pos="470.89" speed="10.70"/>
            </lane>
        </edge>
    </timestep>
    <timestep time="122.00">
        <edge id="1o">
            <lane id="1o_0">
                <vehicle id="veh0" pos="481.48" speed="10.59"/>
            </lane>
        </edge>
    </timestep>
    <timestep time="123.00">
        <edge id=":1_0">
            <lane id=":1_0_0">
                <vehicle id="veh0" pos="2.37" speed="9.54"/>
            </lane>
        </edge>
    </timestep>
    <timestep time="124.00">
        <edge id=":1_0">
            <lane id=":1_0_0">
                <vehicle id="veh0" pos="8.02" speed="5.65"/>
            </lane>
        </edge>
    </timestep>
    <timestep time="125.00">
        <edge id="1fi">
            <lane id="1fi_0">
                <vehicle id="veh0" pos="0.91" speed="2.53"/>
            </lane>
            <lane id="1fi_1"/>
        </edge>
    </timestep>
    <timestep time="126.00">
        <edge id="1fi">
            <lane id="1fi_0">
                <vehicle id="veh0" pos="1.80" speed="0.89"/>
            </lane>
            <lane id="1fi_1"/>
        </edge>
    </timestep>
    <timestep time="127.00">
        <edge id="1fi">
            <lane id="1fi_0">
                <vehicle id="veh0" pos="2.42" speed="0.62"/>
            </lane>
            <lane id="1fi_1"/>
        </edge>
    </timestep>
    <timestep time="128.00">
        <edge id="1fi">
            <lane id="1fi_0">
                <vehicle id="veh0" pos="2.92" speed="0.50"/>
            </lane>
            <lane id="1fi_1"/>
        </edge>
    </timestep>
    <timestep time="129.00">
        <edge id="1fi">
            <lane id="1fi_0">
                <vehicle id="veh0" pos="2.97" speed="0.04"/>
            </lane>
            <lane id="1fi_1"/>
        </edge>
    </timestep>
    <timestep time="130.00">
        <edge id="1fi">
            <lane id="1fi_0">
                <vehicle id="veh0" pos="2.97" speed="0.00"/>
            </lane>
            <lane id="1fi_1"/>
        </edge>
    </timestep>
    <timestep time="131.00">
        <edge id="1fi">
            <lane id="1fi_0">
                <vehicle id="veh0" pos="2.97" speed="0.00"/>
            </lane>
            <lane id="1fi_1"/>
        </edge>
    </timestep>
    <timestep time="132.00">
        <edge id="1fi">
            <lane id="1fi_0">