<?xml version="1.0" encoding="UTF-8"?>

<!-- generated on Fri Jun  6 13:06:45 2014 by SUMO sumo Version dev-SVN-r16550
<?xml version="1.0" encoding="UTF-8"?>

<configuration xmlns:xsi="http://www.w3.org/2001/XMLSchema-instance" xsi:noNamespaceSchemaLocation="http://sumo.dlr.de/xsd/sumoConfiguration.xsd">

    <input>
        <net-file value="net.net.xml"/>
        <additional-files value="input_routes.rou.xml,input_additional.add.xml,input_additional2.add.xml"/>
    </input>

    <time>
        <begin value="0"/>
        <end value="150"/>
    </time>

    <report>
        <xml-validation value="never"/>
        <no-duration-log value="true"/>
        <no-step-log value="true"/>
    </report>

    <mesoscopic>
        <mesosim value="true"/>
    </mesoscopic>

</configuration>
-->

<meandata xmlns:xsi="http://www.w3.org/2001/XMLSchema-instance" xsi:noNamespaceSchemaLocation="http://sumo.dlr.de/xsd/meandata_file.xsd">
    <interval begin="0.00" end="15.00" id="dump_15">
        <edge id="4/1to3/1" sampledSeconds="23.00" traveltime="40.00" density="3.83" occupancy="1.15" waitingTime="0.00" speed="10.00" departed="2" arrived="0" entered="0" left="0" laneChangedFrom="0" laneChangedTo="0"/>
    </interval>
    <interval begin="15.00" end="30.00" id="dump_15">
        <edge id="4/1to3/1" sampledSeconds="30.00" traveltime="40.00" density="5.00" occupancy="1.50" waitingTime="0.00" speed="10.00" departed="0" arrived="0" entered="0" left="0" laneChangedFrom="0" laneChangedTo="0"/>
    </interval>
    <interval begin="30.00" end="45.00" id="dump_15">
        <edge id="3/1to2/1" sampledSeconds="4.00" traveltime="40.00" density="0.67" occupancy="0.20" waitingTime="0.00" speed="10.00" departed="0" arrived="0" entered="1" left="0" laneChangedFrom="0" laneChangedTo="0"/>
        <edge id="4/1to3/1" sampledSeconds="26.00" traveltime="40.00" density="4.33" occupancy="1.30" waitingTime="0.00" speed="10.00" departed="0" arrived="0" entered="0" left="1" laneChangedFrom="0" laneChangedTo="0"/>
    </interval>
    <interval begin="45.00" end="60.00" id="dump_15">
        <edge id="3/1to2/1" sampledSeconds="29.00" traveltime="40.00" density="4.83" occupancy="1.45" waitingTime="0.00" speed="10.00" departed="0" arrived="0" entered="1" left="0" laneChangedFrom="0" laneChangedTo="0"/>
        <edge id="4/1to3/1" sampledSeconds="1.00" traveltime="40.00" density="0.17" occupancy="0.05" waitingTime="0.00" speed="10.00" departed="0" arrived="0" entered="0" left="1" laneChangedFrom="0" laneChangedTo="0"/>
    </interval>
    <interval begin="60.00" end="75.00" id="dump_15">
        <edge id="3/1to2/1" sampledSeconds="30.00" traveltime="40.00" density="5.00" occupancy="1.50" waitingTime="0.00" speed="10.00" departed="0" arrived="0" entered="0" left="0" laneChangedFrom="0" laneChangedTo="0"/>
    </interval>
    <interval begin="75.00" end="90.00" id="dump_15">
        <edge id="2/1to1/1" sampledSeconds="13.00" traveltime="40.00" density="2.17" occupancy="0.65" waitingTime="0.00" speed="10.00" departed="0" arrived="0" entered="2" left="0" laneChangedFrom="0" laneChangedTo="0"/>
        <edge id="3/1to2/1" sampledSeconds="17.00" traveltime="40.00" density="2.83" occupancy="0.85" waitingTime="0.00" speed="10.00" departed="0" arrived="0" entered="0" left="2" laneChangedFrom="0" laneChangedTo="0"/>
    </interval>
    <interval begin="90.00" end="105.00" id="dump_15">
        <edge id="2/1to1/1" sampledSeconds="30.00" traveltime="40.00" density="5.00" occupancy="1.50" waitingTime="0.00" speed="10.00" departed="0" arrived="0" entered="0" left="0" laneChangedFrom="0" laneChangedTo="0"/>
    </interval>
    <interval begin="105.00" end="120.00" id="dump_15">
        <edge id="2/1to1/1" sampledSeconds="30.00" traveltime="40.00" density="5.00" occupancy="1.50" waitingTime="0.00" speed="10.00" departed="0" arrived="0" entered="0" left="0" laneChangedFrom="0" laneChangedTo="0"/>
    </interval>
    <interval begin="120.00" end="135.00" id="dump_15">
        <edge id="1/1to0/1" sampledSeconds="23.00" traveltime="40.00" density="3.83" occupancy="1.15" waitingTime="0.00" speed="10.00" departed="0" arrived="0" entered="2" left="0" laneChangedFrom="0" laneChangedTo="0"/>
        <edge id="2/1to1/1" sampledSeconds="7.00" traveltime="40.00" density="1.17" occupancy="0.35" waitingTime="0.00" speed="10.00" departed="0" arrived="0" entered="0" left="2" laneChangedFrom="0" laneChangedTo="0"/>
    </interval>
    <interval begin="135.00" end="150.00" id="dump_15">
        <edge id="1/1to0/1" sampledSeconds="30.00" traveltime="40.00" density="5.00" occupancy="1.50" waitingTime="0.00" speed="10.00" departed="0" arrived="0" entered="0" left="0" laneChangedFrom="0" laneChangedTo="0"/>
    </interval>
</meandata>
