<?xml version="1.0" encoding="UTF-8"?>

<!-- generated on Wed May 30 09:51:23 2018 by Eclipse SUMO Version b2daee9
This data file and the accompanying materials
are made available under the terms of the Eclipse Public License v2.0
which accompanies this distribution, and is available at
http://www.eclipse.org/legal/epl-v20.html
SPDX-License-Identifier: EPL-2.0
<configuration xmlns:xsi="http://www.w3.org/2001/XMLSchema-instance" xsi:noNamespaceSchemaLocation="https://sumo.dlr.de/xsd/sumoConfiguration.xsd">

    <input>
        <net-file value="net.net.xml"/>
        <route-files value="input_routes.rou.xml"/>
        <additional-files value="input_additional.add.xml"/>
    </input>

    <output>
        <write-license value="true"/>
        <netstate-dump value="rawdump.xml"/>
    </output>

    <processing>
        <lateral-resolution value="0.8"/>
    </processing>

    <report>
        <xml-validation value="never"/>
        <duration-log.disable value="true"/>
        <no-step-log value="true"/>
    </report>

</configuration>
-->

<netstate xmlns:xsi="http://www.w3.org/2001/XMLSchema-instance" xsi:noNamespaceSchemaLocation="https://sumo.dlr.de/xsd/netstate_file.xsd">
    <timestep time="0.00">
        <edge id="beg">
            <lane id="beg_0"/>
            <lane id="beg_1"/>
            <lane id="beg_2">
                <vehicle id="veh" pos="5.10" speed="0.00" posLat="0.00"/>
            </lane>
        </edge>
    </timestep>
    <timestep time="1.00">
        <edge id="beg">
            <lane id="beg_0"/>
            <lane id="beg_1"/>
            <lane id="beg_2">
                <vehicle id="veh" pos="7.70" speed="2.60" posLat="0.00"/>
            </lane>
        </edge>
    </timestep>
    <timestep time="2.00">
        <edge id="beg">
            <lane id="beg_0"/>
            <lane id="beg_1"/>
            <lane id="beg_2">
                <vehicle id="veh" pos="12.90" speed="5.20" posLat="0.00"/>
            </lane>
        </edge>
    </timestep>
    <timestep time="3.00">
        <edge id="beg">
            <lane id="beg_0"/>
            <lane id="beg_1"/>
            <lane id="beg_2">
                <vehicle id="veh" pos="20.70" speed="7.80" posLat="0.00"/>
            </lane>
        </edge>
    </timestep>
    <timestep time="4.00">
        <edge id="beg">
            <lane id="beg_0"/>
            <lane id="beg_1"/>
            <lane id="beg_2">
                <vehicle id="veh" pos="31.10" speed="10.40" posLat="-1.00"/>
            </lane>
        </edge>
    </timestep>
    <timestep time="5.00">
        <edge id="beg">
            <lane id="beg_0"/>
            <lane id="beg_1">
                <vehicle id="veh" pos="44.10" speed="13.00" posLat="1.20"/>
            </lane>
            <lane id="beg_2"/>
        </edge>
    </timestep>
    <timestep time="6.00">
        <edge id="beg">
            <lane id="beg_0"/>
            <lane id="beg_1">
                <vehicle id="veh" pos="59.70" speed="15.60" posLat="0.20"/>
            </lane>
            <lane id="beg_2"/>
        </edge>
    </timestep>
    <timestep time="7.00">
        <edge id="beg">
            <lane id="beg_0"/>
            <lane id="beg_1">
                <vehicle id="veh" pos="77.90" speed="18.20" posLat="-0.80"/>
            </lane>
            <lane id="beg_2"/>
        </edge>
    </timestep>
    <timestep time="8.00">
        <edge id="beg">
            <lane id="beg_0">
                <vehicle id="veh" pos="98.70" speed="20.80" posLat="1.40"/>
            </lane>
            <lane id="beg_1"/>
            <lane id="beg_2"/>
        </edge>
    </timestep>
    <timestep time="9.00">
        <edge id="beg">
            <lane id="beg_0">
                <vehicle id="veh" pos="122.10" speed="23.40" posLat="0.40"/>
            </lane>
            <lane id="beg_1"/>
            <lane id="beg_2"/>
        </edge>
    </timestep>
    <timestep time="10.00">
        <edge id="beg">
            <lane id="beg_0">
                <vehicle id="veh" pos="148.10" speed="26.00" posLat="0.00"/>
            </lane>
            <lane id="beg_1"/>
            <lane id="beg_2"/>
        </edge>
    </timestep>
    <timestep time="11.00">
        <edge id="beg">
            <lane id="beg_0">
                <vehicle id="veh" pos="176.70" speed="28.60" posLat="0.00"/>
            </lane>
            <lane id="beg_1"/>
            <lane id="beg_2"/>
        </edge>
    </timestep>
    <timestep time="12.00">
        <edge id="middle">
            <lane id="middle_0"/>
            <lane id="middle_1"/>
            <lane id="middle_2">
                <vehicle id="veh" pos="2.05" speed="25.35" posLat="-1.00"/>
            </lane>
            <lane id="middle_3"/>
            <lane id="middle_4"/>
        </edge>
    </timestep>
    <timestep time="13.00">
        <edge id="middle">
            <lane id="middle_0"/>
            <lane id="middle_1">
                <vehicle id="veh" pos="22.91" speed="20.85" posLat="1.20"/>
            </lane>
            <lane id="middle_2"/>
            <lane id="middle_3"/>
            <lane id="middle_4"/>
        </edge>
    </timestep>
    <timestep time="14.00">
        <edge id="middle">
            <lane id="middle_0"/>
            <lane id="middle_1">
                <vehicle id="veh" pos="42.12" speed="19.21" posLat="0.20"/>
            </lane>
            <lane id="middle_2"/>
            <lane id="middle_3"/>
            <lane id="middle_4"/>
        </edge>
    </timestep>
    <timestep time="15.00">
        <edge id="middle">
            <lane id="middle_0"/>
            <lane id="middle_1">
                <vehicle id="veh" pos="56.83" speed="14.71" posLat="-0.80"/>
            </lane>
            <lane id="middle_2"/>
            <lane id="middle_3"/>
            <lane id="middle_4"/>
        </edge>
    </timestep>
    <timestep time="16.00">
        <edge id="middle">
            <lane id="middle_0">
                <vehicle id="veh" pos="61.33" speed="0.00" posLat="1.40"/>
            </lane>
            <lane id="middle_1"/>
            <lane id="middle_2"/>
            <lane id="middle_3"/>
            <lane id="middle_4"/>
        </edge>
    </timestep>
    <timestep time="17.00">
        <edge id="middle">
            <lane id="middle_0">
                <vehicle id="veh" pos="61.33" speed="0.00" posLat="0.70"/>
            </lane>
            <lane id="middle_1"/>
            <lane id="middle_2"/>
            <lane id="middle_3"/>
            <lane id="middle_4"/>
        </edge>
    </timestep>
    <timestep time="18.00">
        <edge id="end">
            <lane id="end_0">
                <vehicle id="veh" pos="2.60" speed="2.60" posLat="0.00"/>
            </lane>
        </edge>
    </timestep>
    <timestep time="19.00">
        <edge id="end">
            <lane id="end_0">
                <vehicle id="veh" pos="7.80" speed="5.20" posLat="0.00"/>
            </lane>
        </edge>
    </timestep>
    <timestep time="20.00">
        <edge id="end">
            <lane id="end_0">
                <vehicle id="veh" pos="15.60" speed="7.80" posLat="0.00"/>
            </lane>
        </edge>
    </timestep>
    <timestep time="21.00">
        <edge id="end">
            <lane id="end_0">
                <vehicle id="veh" pos="26.00" speed="10.40" posLat="0.00"/>
            </lane>
        </edge>
    </timestep>
    <timestep time="22.00">
        <edge id="end">
            <lane id="end_0">
                <vehicle id="veh" pos="39.00" speed="13.00" posLat="0.00"/>
            </lane>
        </edge>
    </timestep>
    <timestep time="23.00">
        <edge id="end">
            <lane id="end_0">
                <vehicle id="veh" pos="54.60" speed="15.60" posLat="0.00"/>
            </lane>
        </edge>
    </timestep>
    <timestep time="24.00">
        <edge id="end">
            <lane id="end_0">
                <vehicle id="veh" pos="72.80" speed="18.20" posLat="0.00"/>
            </lane>
        </edge>
    </timestep>
    <timestep time="25.00">
        <edge id="end">
            <lane id="end_0">
                <vehicle id="veh" pos="93.60" speed="20.80" posLat="0.00"/>
            </lane>
        </edge>
    </timestep>
    <timestep time="26.00">
        <edge id="end">
            <lane id="end_0">
                <vehicle id="veh" pos="117.00" speed="23.40" posLat="0.00"/>
            </lane>
        </edge>
    </timestep>
    <timestep time="27.00">
        <edge id="end">
            <lane id="end_0">
                <vehicle id="veh" pos="143.00" speed="26.00" posLat="0.00"/>
            </lane>
        </edge>
    </timestep>
    <timestep time="28.00"/>
</netstate>
