<?xml version="1.0" encoding="UTF-8"?>

<!-- generated on 2026-04-09T16:38:01.128434+01:00 by Eclipse SUMO sumo v1_26_0+1034-8d7c6592743
This data file and the accompanying materials
are made available under the terms of the Eclipse Public License v2.0
which accompanies this distribution, and is available at
http://www.eclipse.org/legal/epl-v20.html
This file may also be made available under the following Secondary
Licenses when the conditions for such availability set forth in the Eclipse
Public License 2.0 are satisfied: GNU General Public License, version 2
or later which is available at
https://www.gnu.org/licenses/old-licenses/gpl-2.0-standalone.html
SPDX-License-Identifier: EPL-2.0 OR GPL-2.0-or-later
<sumoConfiguration xmlns:xsi="http://www.w3.org/2001/XMLSchema-instance" xsi:noNamespaceSchemaLocation="http://sumo.dlr.de/xsd/sumoConfiguration.xsd">

    <input>
        <net-file value="net.net.xml"/>
        <route-files value="input_routes.rou.xml"/>
    </input>

    <output>
        <write-license value="true"/>
        <fcd-output value="fcd.xml"/>
    </output>

    <time>
        <begin value="80"/>
        <end value="90"/>
        <step-length value="0.5"/>
    </time>

    <processing>
        <default.speeddev value="0"/>
    </processing>

    <report>
        <xml-validation value="never"/>
        <duration-log.statistics value="true"/>
        <no-step-log value="true"/>
    </report>

    <mesoscopic>
        <mesosim value="true"/>
        <meso-junction-control value="true"/>
    </mesoscopic>

</sumoConfiguration>
-->

<fcd-export xmlns:xsi="http://www.w3.org/2001/XMLSchema-instance" xsi:noNamespaceSchemaLocation="http://sumo.dlr.de/xsd/fcd_file.xsd">
    <timestep time="80.00"/>
    <timestep time="80.50"/>
    <timestep time="81.00">
        <vehicle id="1" x="-120.00" y="-1.60" angle="90.00" type="DEFAULT_VEHTYPE" speed="14.00" pos="0.00" edge="beg" slope="0.00"/>
    </timestep>
    <timestep time="81.50">
        <vehicle id="1" x="-120.00" y="-1.60" angle="90.00" type="DEFAULT_VEHTYPE" speed="14.00" pos="0.00" edge="beg" slope="0.00"/>
    </timestep>
    <timestep time="82.00">
        <vehicle id="1" x="-120.00" y="-1.60" angle="90.00" type="DEFAULT_VEHTYPE" speed="14.00" pos="0.00" edge="beg" slope="0.00"/>
    </timestep>
    <timestep time="82.50">
        <vehicle id="1" x="-120.00" y="-1.60" angle="90.00" type="DEFAULT_VEHTYPE" speed="14.00" pos="0.00" edge="beg" slope="0.00"/>
    </timestep>
    <timestep time="83.00">
        <vehicle id="1" x="-120.00" y="-1.60" angle="90.00" type="DEFAULT_VEHTYPE" speed="14.00" pos="0.00" edge="beg" slope="0.00"/>
        <vehicle id="2" x="-120.00" y="-1.60" angle="90.00" type="DEFAULT_VEHTYPE" speed="14.00" pos="0.00" edge="beg" slope="0.00"/>
    </timestep>
    <timestep time="83.50">
        <vehicle id="1" x="-120.00" y="-1.60" angle="90.00" type="DEFAULT_VEHTYPE" speed="14.00" pos="0.00" edge="beg" slope="0.00"/>
        <vehicle id="2" x="-120.00" y="-1.60" angle="90.00" type="DEFAULT_VEHTYPE" speed="14.00" pos="0.00" edge="beg" slope="0.00"/>
    </timestep>
    <timestep time="84.00">
        <vehicle id="1" x="-120.00" y="-1.60" angle="90.00" type="DEFAULT_VEHTYPE" speed="14.00" pos="0.00" edge="beg" slope="0.00"/>
        <vehicle id="2" x="-120.00" y="-1.60" angle="90.00" type="DEFAULT_VEHTYPE" speed="14.00" pos="0.00" edge="beg" slope="0.00"/>
    </timestep>
    <timestep time="84.50">
        <vehicle id="1" x="-120.00" y="-1.60" angle="90.00" type="DEFAULT_VEHTYPE" speed="14.00" pos="0.00" edge="beg" slope="0.00"/>
        <vehicle id="2" x="-120.00" y="-1.60" angle="90.00" type="DEFAULT_VEHTYPE" speed="14.00" pos="0.00" edge="beg" slope="0.00"/>
    </timestep>
    <timestep time="85.00">
        <vehicle id="1" x="-120.00" y="-1.60" angle="90.00" type="DEFAULT_VEHTYPE" speed="14.00" pos="0.00" edge="beg" slope="0.00"/>
        <vehicle id="2" x="-120.00" y="-1.60" angle="90.00" type="DEFAULT_VEHTYPE" speed="14.00" pos="0.00" edge="beg" slope="0.00"/>
    </timestep>
    <timestep time="85.50">
        <vehicle id="1" x="-120.00" y="-1.60" angle="90.00" type="DEFAULT_VEHTYPE" speed="14.00" pos="0.00" edge="beg" slope="0.00"/>
        <vehicle id="2" x="-120.00" y="-1.60" angle="90.00" type="DEFAULT_VEHTYPE" speed="14.00" pos="0.00" edge="beg" slope="0.00"/>
    </timestep>
    <timestep time="86.00">
        <vehicle id="1" x="-120.00" y="-1.60" angle="90.00" type="DEFAULT_VEHTYPE" speed="14.00" pos="0.00" edge="beg" slope="0.00"/>
        <vehicle id="2" x="-120.00" y="-1.60" angle="90.00" type="DEFAULT_VEHTYPE" speed="14.00" pos="0.00" edge="beg" slope="0.00"/>
    </timestep>
    <timestep time="86.50">
        <vehicle id="1" x="-120.00" y="-1.60" angle="90.00" type="DEFAULT_VEHTYPE" speed="14.00" pos="0.00" edge="beg" slope="0.00"/>
        <vehicle id="2" x="-120.00" y="-1.60" angle="90.00" type="DEFAULT_VEHTYPE" speed="14.00" pos="0.00" edge="beg" slope="0.00"/>
    </timestep>
    <timestep time="87.00">
        <vehicle id="1" x="-120.00" y="-1.60" angle="90.00" type="DEFAULT_VEHTYPE" speed="14.00" pos="0.00" edge="beg" slope="0.00"/>
        <vehicle id="2" x="-120.00" y="-1.60" angle="90.00" type="DEFAULT_VEHTYPE" speed="14.00" pos="0.00" edge="beg" slope="0.00"/>
    </timestep>
    <timestep time="87.50">
        <vehicle id="1" x="-120.00" y="-1.60" angle="90.00" type="DEFAULT_VEHTYPE" speed="14.00" pos="0.00" edge=":A_2" slope="0.00"/>
        <vehicle id="2" x="-120.00" y="-1.60" angle="90.00" type="DEFAULT_VEHTYPE" speed="14.00" pos="0.00" edge="beg" slope="0.00"/>
    </timestep>
    <timestep time="88.00">
        <vehicle id="1" x="-120.00" y="-1.60" angle="90.00" type="DEFAULT_VEHTYPE" speed="14.00" pos="0.00" edge=":A_2" slope="0.00"/>
        <vehicle id="2" x="-120.00" y="-1.60" angle="90.00" type="DEFAULT_VEHTYPE" speed="14.00" pos="0.00" edge="beg" slope="0.00"/>
    </timestep>
    <timestep time="88.50">
        <vehicle id="1" x="-20.30" y="-1.60" angle="90.00" type="DEFAULT_VEHTYPE" speed="14.00" pos="0.00" edge="beg2" slope="0.00"/>
        <vehicle id="2" x="-120.00" y="-1.60" angle="90.00" type="DEFAULT_VEHTYPE" speed="14.00" pos="0.00" edge="beg" slope="0.00"/>
    </timestep>
    <timestep time="89.00">
        <vehicle id="1" x="-5.00" y="-1.60" angle="90.00" type="DEFAULT_VEHTYPE" speed="14.00" pos="0.00" edge="beg3" slope="0.00"/>
        <vehicle id="2" x="-120.00" y="-1.60" angle="90.00" type="DEFAULT_VEHTYPE" speed="14.00" pos="0.00" edge="beg" slope="0.00"/>
    </timestep>
    <timestep time="89.50">
        <vehicle id="1" x="-5.00" y="-1.60" angle="90.00" type="DEFAULT_VEHTYPE" speed="14.00" pos="0.00" edge="beg3" slope="0.00"/>
        <vehicle id="2" x="-120.00" y="-1.60" angle="90.00" type="DEFAULT_VEHTYPE" speed="14.00" pos="0.00" edge=":A_2" slope="0.00"/>
    </timestep>
</fcd-export>
