<?xml version="1.0" encoding="UTF-8"?>

<!-- generated on Tue Oct 25 14:14:17 2016 by SUMO Version dev-SVN-r21650
<?xml version="1.0" encoding="UTF-8"?>

<configuration xmlns:xsi="http://www.w3.org/2001/XMLSchema-instance" xsi:noNamespaceSchemaLocation="http://sumo.dlr.de/xsd/sumoConfiguration.xsd">

    <input>
        <net-file value="motorway.net.xml"/>
        <route-files value="input_routes.rou.xml"/>
        <additional-files value="input_additional.add.xml"/>
    </input>

    <processing>
        <max-depart-delay value="1"/>
    </processing>

    <report>
        <verbose value="true"/>
        <xml-validation value="never"/>
        <duration-log.statistics value="true"/>
        <no-step-log value="true"/>
    </report>

</configuration>
-->

<detector xmlns:xsi="http://www.w3.org/2001/XMLSchema-instance" xsi:noNamespaceSchemaLocation="http://sumo.dlr.de/xsd/det_e1_file.xsd">
    <interval begin="0.00" end="900.00" id="beg2_0" nVehContrib="480" flow="1920.00" occupancy="9.30" speed="29.19" length="5.00" nVehEntered="480"/>
    <interval begin="0.00" end="900.00" id="beg2_1" nVehContrib="558" flow="2232.00" occupancy="9.55" speed="32.56" length="5.00" nVehEntered="558"/>
    <interval begin="900.00" end="1800.00" id="beg2_0" nVehContrib="538" flow="2152.00" occupancy="10.54" speed="28.75" length="5.00" nVehEntered="538"/>
    <interval begin="900.00" end="1800.00" id="beg2_1" nVehContrib="603" flow="2412.00" occupancy="10.51" speed="31.95" length="5.00" nVehEntered="603"/>
    <interval begin="1800.00" end="1902.00" id="beg2_0" nVehContrib="56" flow="1976.47" occupancy="9.54" speed="28.85" length="5.00" nVehEntered="56"/>
    <interval begin="1800.00" end="1902.00" id="beg2_1" nVehContrib="62" flow="2188.24" occupancy="9.64" speed="31.63" length="5.00" nVehEntered="62"/>
</detector>
