<?xml version="1.0" encoding="UTF-8"?>

<!-- generated on Fri Nov  4 11:17:04 2016 by SUMO Version dev-SVN-r21897
<?xml version="1.0" encoding="UTF-8"?>

<configuration xmlns:xsi="http://www.w3.org/2001/XMLSchema-instance" xsi:noNamespaceSchemaLocation="http://sumo.dlr.de/xsd/sumoConfiguration.xsd">

    <input>
        <net-file value="motorway.net.xml"/>
        <route-files value="input_routes.rou.xml"/>
        <additional-files value="input_additional.add.xml"/>
    </input>

    <processing>
        <max-depart-delay value="1"/>
    </processing>

    <report>
        <verbose value="true"/>
        <xml-validation value="never"/>
        <duration-log.statistics value="true"/>
        <no-step-log value="true"/>
    </report>

    <mesoscopic>
        <mesosim value="true"/>
        <meso-jam-threshold value="-0.9"/>
        <meso-junction-control value="true"/>
    </mesoscopic>

</configuration>
-->

<detector>
    <interval begin="0.00" end="900.00" id="beg2_0" sampledSeconds="3017.50" density="34.65" occupancy="8.66" waitingTime="0.00" speed="32.32" departed="58" arrived="0" entered="953" left="1005"/>
    <interval begin="0.00" end="900.00" id="beg2_1" sampledSeconds="3017.50" density="34.65" occupancy="8.66" waitingTime="0.00" speed="32.32" departed="58" arrived="0" entered="953" left="1005"/>
    <interval begin="900.00" end="1800.00" id="beg2_0" sampledSeconds="4958.02" density="56.93" occupancy="14.23" waitingTime="0.00" speed="26.72" departed="196" arrived="0" entered="1172" left="1369"/>
    <interval begin="900.00" end="1800.00" id="beg2_1" sampledSeconds="4958.02" density="56.93" occupancy="14.23" waitingTime="0.00" speed="26.72" departed="196" arrived="0" entered="1172" left="1369"/>
    <interval begin="1800.00" end="2466.00" id="beg2_0" sampledSeconds="2071.48" density="32.14" occupancy="8.04" waitingTime="0.00" speed="33.37" departed="1" arrived="0" entered="711" left="717"/>
    <interval begin="1800.00" end="2466.00" id="beg2_1" sampledSeconds="2071.48" density="32.14" occupancy="8.04" waitingTime="0.00" speed="33.37" departed="1" arrived="0" entered="711" left="717"/>
</detector>
