<?xml version="1.0" encoding="UTF-8"?>

<!-- generated on Mon Oct 17 16:02:24 2016 by SUMO Version dev-SVN-r21661
<?xml version="1.0" encoding="UTF-8"?>

<configuration xmlns:xsi="http://www.w3.org/2001/XMLSchema-instance" xsi:noNamespaceSchemaLocation="http://sumo.dlr.de/xsd/sumoConfiguration.xsd">

    <input>
        <net-file value="motorway.net.xml"/>
        <route-files value="input_routes.rou.xml"/>
        <additional-files value="input_additional.add.xml"/>
    </input>

    <processing>
        <max-depart-delay value="1"/>
    </processing>

    <report>
        <verbose value="true"/>
        <xml-validation value="never"/>
        <duration-log.statistics value="true"/>
        <no-step-log value="true"/>
    </report>

</configuration>
-->

<detector xmlns:xsi="http://www.w3.org/2001/XMLSchema-instance" xsi:noNamespaceSchemaLocation="http://sumo.dlr.de/xsd/det_e1_file.xsd">
    <interval begin="0.00" end="900.00" id="beg2_0" nVehContrib="482" flow="1928.00" occupancy="9.20" speed="29.29" length="5.00" nVehEntered="483"/>
    <interval begin="0.00" end="900.00" id="beg2_1" nVehContrib="548" flow="2192.00" occupancy="9.48" speed="32.59" length="5.00" nVehEntered="548"/>
    <interval begin="900.00" end="1800.00" id="beg2_0" nVehContrib="522" flow="2088.00" occupancy="10.12" speed="28.80" length="5.00" nVehEntered="522"/>
    <interval begin="900.00" end="1800.00" id="beg2_1" nVehContrib="577" flow="2308.00" occupancy="9.87" speed="32.57" length="5.00" nVehEntered="577"/>
    <interval begin="1800.00" end="1907.00" id="beg2_0" nVehContrib="56" flow="1884.11" occupancy="9.32" speed="28.14" length="5.00" nVehEntered="56"/>
    <interval begin="1800.00" end="1907.00" id="beg2_1" nVehContrib="71" flow="2388.79" occupancy="10.34" speed="32.17" length="5.00" nVehEntered="71"/>
</detector>
