<?xml version="1.0" encoding="UTF-8"?>

<!-- generated on Fri Jan 15 14:26:26 2016 by SUMO Version dev-SVN-r19716I
<?xml version="1.0" encoding="UTF-8"?>

<configuration xmlns:xsi="http://www.w3.org/2001/XMLSchema-instance" xsi:noNamespaceSchemaLocation="http://sumo.dlr.de/xsd/sumoConfiguration.xsd">

    <input>
        <net-file value="motorway.net.xml"/>
        <route-files value="input_routes.rou.xml"/>
        <additional-files value="input_additional.add.xml"/>
    </input>

    <processing>
        <max-depart-delay value="1"/>
    </processing>

    <report>
        <xml-validation value="never"/>
        <duration-log.disable value="true"/>
        <no-step-log value="true"/>
    </report>

</configuration>
-->

<detector xmlns:xsi="http://www.w3.org/2001/XMLSchema-instance" xsi:noNamespaceSchemaLocation="http://sumo.dlr.de/xsd/det_e1_file.xsd">
   <interval begin="0.00" end="900.00" id="beg2_0" nVehContrib="516" flow="2064.00" occupancy="10.07" speed="28.93" length="5.00" nVehEntered="516"/>
   <interval begin="0.00" end="900.00" id="beg2_1" nVehContrib="561" flow="2244.00" occupancy="9.57" speed="32.68" length="5.00" nVehEntered="561"/>
   <interval begin="900.00" end="1800.00" id="beg2_0" nVehContrib="518" flow="2072.00" occupancy="10.11" speed="28.85" length="5.00" nVehEntered="518"/>
   <interval begin="900.00" end="1800.00" id="beg2_1" nVehContrib="583" flow="2332.00" occupancy="10.07" speed="32.26" length="5.00" nVehEntered="584"/>
   <interval begin="1800.00" end="1905.00" id="beg2_0" nVehContrib="58" flow="1988.57" occupancy="9.84" speed="28.14" length="5.00" nVehEntered="58"/>
   <interval begin="1800.00" end="1905.00" id="beg2_1" nVehContrib="68" flow="2331.43" occupancy="10.11" speed="32.06" length="5.00" nVehEntered="68"/>
</detector>
