<?xml version="1.0" encoding="UTF-8"?>

<!-- generated on Tue May 31 12:55:28 2016 by SUMO Version dev-SVN-r20823
<?xml version="1.0" encoding="UTF-8"?>

<configuration xmlns:xsi="http://www.w3.org/2001/XMLSchema-instance" xsi:noNamespaceSchemaLocation="http://sumo.dlr.de/xsd/sumoConfiguration.xsd">

    <input>
        <net-file value="motorway.net.xml"/>
        <route-files value="input_routes.rou.xml"/>
        <additional-files value="input_additional.add.xml"/>
    </input>

    <processing>
        <max-depart-delay value="1"/>
    </processing>

    <report>
        <verbose value="true"/>
        <xml-validation value="never"/>
        <duration-log.statistics value="true"/>
        <no-step-log value="true"/>
    </report>

    <mesoscopic>
        <mesosim value="true"/>
        <meso-jam-threshold value="-0.9"/>
        <meso-junction-control value="true"/>
    </mesoscopic>

</configuration>
-->

<detector>
    <interval begin="0.00" end="900.00" id="beg2_0" sampledSeconds="3099.44" density="35.59" occupancy="8.90" waitingTime="0.00" speed="32.51" departed="61" arrived="0" entered="983" left="1038"/>
    <interval begin="0.00" end="900.00" id="beg2_1" sampledSeconds="3099.44" density="35.59" occupancy="8.90" waitingTime="0.00" speed="32.51" departed="61" arrived="0" entered="983" left="1038"/>
    <interval begin="900.00" end="1800.00" id="beg2_0" sampledSeconds="5690.20" density="65.33" occupancy="16.33" waitingTime="0.00" speed="26.89" departed="695" arrived="0" entered="887" left="1581"/>
    <interval begin="900.00" end="1800.00" id="beg2_1" sampledSeconds="5690.20" density="65.33" occupancy="16.33" waitingTime="0.00" speed="26.89" departed="695" arrived="0" entered="887" left="1581"/>
    <interval begin="1800.00" end="2437.00" id="beg2_0" sampledSeconds="2145.17" density="34.80" occupancy="8.70" waitingTime="0.00" speed="33.38" departed="1" arrived="0" entered="735" left="743"/>
    <interval begin="1800.00" end="2437.00" id="beg2_1" sampledSeconds="2145.17" density="34.80" occupancy="8.70" waitingTime="0.00" speed="33.38" departed="1" arrived="0" entered="735" left="743"/>
</detector>
