<?xml version="1.0" encoding="UTF-8"?>

<!-- generated on 2022-02-11 11:28:52 by Eclipse SUMO sumo Version v1_12_0+0490-00f3a0f
This data file and the accompanying materials
are made available under the terms of the Eclipse Public License v2.0
which accompanies this distribution, and is available at
http://www.eclipse.org/legal/epl-v20.html
This file may also be made available under the following Secondary
Licenses when the conditions for such availability set forth in the Eclipse
Public License 2.0 are satisfied: GNU General Public License, version 2
or later which is available at
https://www.gnu.org/licenses/old-licenses/gpl-2.0-standalone.html
SPDX-License-Identifier: EPL-2.0 OR GPL-2.0-or-later
<configuration xmlns:xsi="http://www.w3.org/2001/XMLSchema-instance" xsi:noNamespaceSchemaLocation="http://sumo.dlr.de/xsd/sumoConfiguration.xsd">

    <input>
        <net-file value="net2.net.xml"/>
        <route-files value="input_routes.rou.xml"/>
    </input>

    <output>
        <write-license value="true"/>
        <precision value="4"/>
        <netstate-dump.precision value="4"/>
        <emission-output.precision value="4"/>
        <battery-output.precision value="4"/>
        <elechybrid-output.precision value="4"/>
        <substations-output.precision value="4"/>
        <link-output value="linkstate.xml"/>
    </output>

    <processing>
        <collision.check-junctions value="true"/>
        <time-to-teleport value="20"/>
        <default.speeddev value="0"/>
        <pedestrian.model value="nonInteracting"/>
    </processing>

    <report>
        <xml-validation value="never"/>
        <xml-validation.routes value="never"/>
        <duration-log.disable value="true"/>
        <no-step-log value="true"/>
    </report>

    <mesoscopic>
        <mesosim value="true"/>
        <meso-junction-control value="true"/>
    </mesoscopic>

</configuration>
-->

<link-output>
    <timestep id="0.0000">
        <link from="NC_1" via="" to="CE_0">
            <approaching id="NE" impatience="0.0000" arrivalTime="6.479" leaveTime="7.887" arrivalSpeed="13.8910" arrivalSpeedBraking="13.8910" leaveSpeed="13.8910" willPass="1"/>
        </link>
        <link from="SC_1" via="" to="CW_0">
            <approaching id="SW" impatience="0.0000" arrivalTime="6.479" leaveTime="7.887" arrivalSpeed="13.8910" arrivalSpeedBraking="13.8910" leaveSpeed="13.8910" willPass="1"/>
        </link>
    </timestep>
    <timestep id="1.0000">
        <link from="NC_1" via="" to="CE_0">
            <approaching id="NE" impatience="0.0000" arrivalTime="6.479" leaveTime="7.887" arrivalSpeed="13.8910" arrivalSpeedBraking="13.8910" leaveSpeed="13.8910" willPass="1"/>
        </link>
        <link from="SC_1" via="" to="CW_0">
            <approaching id="SW" impatience="0.0000" arrivalTime="6.479" leaveTime="7.887" arrivalSpeed="13.8910" arrivalSpeedBraking="13.8910" leaveSpeed="13.8910" willPass="1"/>
        </link>
    </timestep>
    <timestep id="2.0000">
        <link from="NC_1" via="" to="CE_0">
            <approaching id="NE" impatience="0.0000" arrivalTime="6.479" leaveTime="7.887" arrivalSpeed="13.8910" arrivalSpeedBraking="13.8910" leaveSpeed="13.8910" willPass="1"/>
        </link>
        <link from="SC_1" via="" to="CW_0">
            <approaching id="SW" impatience="0.0000" arrivalTime="6.479" leaveTime="7.887" arrivalSpeed="13.8910" arrivalSpeedBraking="13.8910" leaveSpeed="13.8910" willPass="1"/>
        </link>
    </timestep>
    <timestep id="3.0000">
        <link from="NC_1" via="" to="CE_0">
            <approaching id="NE" impatience="0.0000" arrivalTime="6.479" leaveTime="7.887" arrivalSpeed="13.8910" arrivalSpeedBraking="13.8910" leaveSpeed="13.8910" willPass="1"/>
        </link>
        <link from="SC_1" via="" to="CW_0">
            <approaching id="SW" impatience="0.0000" arrivalTime="6.479" leaveTime="7.887" arrivalSpeed="13.8910" arrivalSpeedBraking="13.8910" leaveSpeed="13.8910" willPass="1"/>
        </link>
    </timestep>
    <timestep id="4.0000">
        <link from="NC_1" via="" to="CE_0">
            <approaching id="NE" impatience="0.0000" arrivalTime="6.479" leaveTime="7.887" arrivalSpeed="13.8910" arrivalSpeedBraking="13.8910" leaveSpeed="13.8910" willPass="1"/>
        </link>
        <link from="SC_1" via="" to="CW_0">
            <approaching id="SW" impatience="0.0000" arrivalTime="6.479" leaveTime="7.887" arrivalSpeed="13.8910" arrivalSpeedBraking="13.8910" leaveSpeed="13.8910" willPass="1"/>
        </link>
    </timestep>
    <timestep id="5.0000">
        <link from="NC_1" via="" to="CE_0">
            <approaching id="NE" impatience="0.0000" arrivalTime="6.479" leaveTime="7.887" arrivalSpeed="13.8910" arrivalSpeedBraking="13.8910" leaveSpeed="13.8910" willPass="1"/>
        </link>
        <link from="SC_1" via="" to="CW_0">
            <approaching id="SW" impatience="0.0000" arrivalTime="6.479" leaveTime="7.887" arrivalSpeed="13.8910" arrivalSpeedBraking="13.8910" leaveSpeed="13.8910" willPass="1"/>
        </link>
    </timestep>
    <timestep id="6.0000">
        <link from="NC_1" via="" to="CE_0">
            <approaching id="NE" impatience="0.0000" arrivalTime="6.479" leaveTime="7.887" arrivalSpeed="13.8910" arrivalSpeedBraking="13.8910" leaveSpeed="13.8910" willPass="1"/>
        </link>
        <link from="SC_1" via="" to="CW_0">
            <approaching id="SW" impatience="0.0000" arrivalTime="6.479" leaveTime="7.887" arrivalSpeed="13.8910" arrivalSpeedBraking="13.8910" leaveSpeed="13.8910" willPass="1"/>
        </link>
    </timestep>
    <timestep id="7.0000">
        <link from="NC_1" via="" to="CE_0">
            <approaching id="NE" impatience="0.0056" arrivalTime="6.479" leaveTime="7.887" arrivalSpeed="13.8910" arrivalSpeedBraking="13.8910" leaveSpeed="13.8910" willPass="1"/>
        </link>
        <link from="SC_1" via="" to="CE_0">
            <approaching id="SE" impatience="0.0000" arrivalTime="8.148" leaveTime="9.515" arrivalSpeed="11.0457" arrivalSpeedBraking="11.0457" leaveSpeed="11.0457" willPass="1"/>
        </link>
    </timestep>
    <timestep id="8.0000">
        <link from="NC_1" via="" to="CE_0">
            <approaching id="NE" impatience="0.0111" arrivalTime="6.479" leaveTime="7.887" arrivalSpeed="13.8910" arrivalSpeedBraking="13.8910" leaveSpeed="13.8910" willPass="1"/>
        </link>
        <link from="SC_1" via="" to="CE_0">
            <approaching id="SE" impatience="0.0000" arrivalTime="8.148" leaveTime="9.515" arrivalSpeed="11.0457" arrivalSpeedBraking="11.0457" leaveSpeed="11.0457" willPass="1"/>
        </link>
    </timestep>
    <timestep id="9.0000">
        <link from="NC_1" via="" to="CE_0">
            <approaching id="NE" impatience="0.0177" arrivalTime="6.479" leaveTime="7.887" arrivalSpeed="13.8910" arrivalSpeedBraking="13.8910" leaveSpeed="13.8910" willPass="1"/>
        </link>
    </timestep>
    <timestep id="10.0000">
        <link from="NC_1" via="" to="CW_0">
            <approaching id="NW" impatience="0.0000" arrivalTime="11.341" leaveTime="13.243" arrivalSpeed="7.9358" arrivalSpeedBraking="7.9358" leaveSpeed="7.9358" willPass="1"/>
        </link>
    </timestep>
    <timestep id="11.0000">
        <link from="NC_1" via="" to="CW_0">
            <approaching id="NW" impatience="0.0000" arrivalTime="11.341" leaveTime="13.243" arrivalSpeed="7.9358" arrivalSpeedBraking="7.9358" leaveSpeed="7.9358" willPass="1"/>
        </link>
    </timestep>
    <timestep id="12.0000"/>
    <timestep id="13.0000"/>
    <timestep id="14.0000"/>
    <timestep id="15.0000"/>
    <timestep id="16.0000"/>
    <timestep id="17.0000"/>
    <timestep id="18.0000"/>
    <timestep id="19.0000"/>
</link-output>
