<?xml version="1.0" encoding="UTF-8"?>

<!-- generated on 2026-04-09T16:37:56.051119+01:00 by Eclipse SUMO sumo v1_26_0+1034-8d7c6592743
This data file and the accompanying materials
are made available under the terms of the Eclipse Public License v2.0
which accompanies this distribution, and is available at
http://www.eclipse.org/legal/epl-v20.html
This file may also be made available under the following Secondary
Licenses when the conditions for such availability set forth in the Eclipse
Public License 2.0 are satisfied: GNU General Public License, version 2
or later which is available at
https://www.gnu.org/licenses/old-licenses/gpl-2.0-standalone.html
SPDX-License-Identifier: EPL-2.0 OR GPL-2.0-or-later
<sumoConfiguration xmlns:xsi="http://www.w3.org/2001/XMLSchema-instance" xsi:noNamespaceSchemaLocation="http://sumo.dlr.de/xsd/sumoConfiguration.xsd">

    <input>
        <net-file value="net.net.xml"/>
        <route-files value="input_routes.rou.xml"/>
        <additional-files value="input_additional.add.xml"/>
    </input>

    <output>
        <write-license value="true"/>
        <tripinfo-output value="tripinfos.xml"/>
        <vehroute-output value="vehroutes.xml"/>
    </output>

    <processing>
        <default.speeddev value="0"/>
    </processing>

    <report>
        <verbose value="true"/>
        <xml-validation value="never"/>
        <no-step-log value="true"/>
    </report>

    <mesoscopic>
        <mesosim value="true"/>
    </mesoscopic>

</sumoConfiguration>
-->

<tripinfos xmlns:xsi="http://www.w3.org/2001/XMLSchema-instance" xsi:noNamespaceSchemaLocation="http://sumo.dlr.de/xsd/tripinfo_file.xsd">
    <tripinfo id="train0" depart="50.00" departLane="1/4to1/3_0" departPos="0.00" departSpeed="13.90" departDelay="0.00" arrival="194.00" arrivalLane="1/4to1/3_0" arrivalPos="90.50" arrivalSpeed="13.90" duration="144.00" routeLength="473.08" waitingTime="0.00" waitingCount="0" stopTime="109.45" timeLoss="109.45" rerouteNo="0" devices="vehroute_train0 tripinfo_train0 container_train0" vType="DEFAULT_VEHTYPE" speedFactor="1.00" vaporized=""/>
    <containerinfo id="container0" depart="0.00" type="DEFAULT_CONTAINERTYPE" duration="290.00" waitingTime="66.49" timeLoss="0.00" traveltime="203.51">
        <tranship depart="0.00" departPos="80.00" arrival="54.00" arrivalPos="55.00" duration="54.00" routeLength="75.00" maxSpeed="1.39"/>
        <transport waitingTime="66.49" vehicle="train0" depart="120.49" arrival="134.00" arrivalPos="0.00" duration="13.51" routeLength="365.00" timeLoss="0.00"/>
        <tranship depart="134.00" departPos="0.00" arrival="228.00" arrivalPos="30.00" duration="94.00" routeLength="130.55" maxSpeed="1.39"/>
        <stop duration="20.00" arrival="248.00" arrivalPos="30.00" actType="waiting"/>
        <transport waitingTime="0.00" vehicle="car0" depart="248.00" arrival="290.00" arrivalPos="92.00" duration="42.00" routeLength="362.00" timeLoss="0.00"/>
    </containerinfo>
    <tripinfo id="car0" depart="248.00" departLane="1/4to2/4_0" departPos="0.00" departSpeed="0.00" departDelay="0.00" arrival="290.00" arrivalLane="3/4to4/4_0" arrivalPos="92.00" arrivalSpeed="13.90" duration="42.00" routeLength="292.00" waitingTime="0.00" waitingCount="0" stopTime="20.00" timeLoss="20.00" rerouteNo="0" devices="vehroute_car0 tripinfo_car0 container_car0" vType="DEFAULT_VEHTYPE" speedFactor="1.00" vaporized=""/>
</tripinfos>
