<?xml version="1.0"?>

<!-- generated on 10/08/09 09:06:21 by SUMO sumo Version dev-SVN-r7822
<configuration>

    <input>
        <net-file value="three_split.net.xml"/>
        <route-files value="input_routes.rou.xml"/>
    </input>

    <output>
        <vehroute-output value="vehroutes.xml"/>
    </output>

    <report>
        <no-step-log value="true"/>
    </report>

    <traci_server>
        <remote-port value="8813"/>
        <penetration value="1"/>
    </traci_server>

</configuration>
-->

<routes>
    <vehicle id="0" depart="0" arrival="200.00">
        <replacedRoute replacedOnEdge="beg" replacedAtTime="2.00" edges="beg middle end rend"/>
        <route edges="beg beg2left left left2end end rend"/>
   </vehicle>

</routes>
