<?xml version="1.0" encoding="UTF-8"?>
<tripinfos xmlns:xsi="http://www.w3.org/2001/XMLSchema-instance" xsi:noNamespaceSchemaLocation="http://sumo.dlr.de/xsd/tripinfo_file.xsd">
    <personinfo id="ped35" depart="152.98" type="ped_pedestrian">
        <walk depart="153.00" departPos="0.00" arrival="240.00" arrivalPos="42.95" duration="87.00" routeLength="105.35" timeLoss="12.19" maxSpeed="1.41"/>
        <access stop="963600646" duration="6.00" routeLength="9.49"/>
        <ride waitingTime="37.00" vehicle="pt_tram_M5:1.0" depart="283.00" arrival="349.00" arrivalPos="61.03" duration="66.00" routeLength="490.39"/>
        <access stop="1633759760" duration="3.00" routeLength="4.71"/>
        <walk depart="352.00" departPos="5.35" arrival="491.00" arrivalPos="10.12" duration="139.00" routeLength="171.69" timeLoss="17.09" maxSpeed="1.41"/>
    </personinfo>
    <personinfo id="ped55" depart="240.39" type="ped_pedestrian">
        <walk depart="256.00" departPos="1.40" arrival="339.00" arrivalPos="18.69" duration="83.00" routeLength="96.92" timeLoss="11.15" maxSpeed="1.35"/>
        <access stop="30731508" duration="9.00" routeLength="13.66"/>
        <ride waitingTime="26.00" vehicle="pt_tram_M4:3.0" depart="374.00" arrival="432.00" arrivalPos="72.53" duration="58.00" routeLength="299.33"/>
        <access stop="30731497" duration="9.00" routeLength="13.60"/>
        <walk depart="441.00" departPos="2.00" arrival="497.00" arrivalPos="4.08" duration="56.00" routeLength="56.16" timeLoss="14.36" maxSpeed="1.35"/>
    </personinfo>
</tripinfos>
