<?xml version="1.0" encoding="UTF-8"?>

<!-- generated on 2022-05-06 13:09:59 by Eclipse SUMO sumo Version v1_13_0+0080-acf42d6
<configuration xmlns:xsi="http://www.w3.org/2001/XMLSchema-instance" xsi:noNamespaceSchemaLocation="http://sumo.dlr.de/xsd/sumoConfiguration.xsd">

    <input>
        <net-file value="input_net.net.xml"/>
        <route-files value="input_routes.rou.xml"/>
    </input>

    <output>
        <vehroute-output value="vr.xml"/>
        <vehroute-output.sorted value="true"/>
        <vehroute-output.intended-depart value="false"/>
        <vehroute-output.speedfactor value="true"/>
        <statistic-output value="statistics.xml"/>
    </output>

    <routing>
        <device.rerouting.period value="60"/>
    </routing>

    <report>
        <verbose value="true"/>
        <duration-log.statistics value="true"/>
        <no-step-log value="true"/>
    </report>

</configuration>
-->

<statistics xmlns:xsi="http://www.w3.org/2001/XMLSchema-instance" xsi:noNamespaceSchemaLocation="http://sumo.dlr.de/xsd/statistic_file.xsd">
    <vehicles loaded="2000" inserted="2000" running="0" waiting="0"/>
    <teleports total="2" jam="0" yield="1" wrongLane="1"/>
    <safety collisions="0" emergencyStops="0"/>
    <persons loaded="0" running="0" jammed="0"/>
    <vehicleTripStatistics routeLength="463.72" speed="4.21" duration="136.51" waitingTime="67.22" timeLoss="100.25" departDelay="4.80" departDelayWaiting="-1.00" totalTravelTime="273022.00" totalDepartDelay="9597.00"/>
    <pedestrianStatistics number="0" routeLength="0.00" duration="0.00" timeLoss="0.00"/>
    <rideStatistics number="0"/>
    <transportStatistics number="0"/>
</statistics>
