<?xml version="1.0" encoding="UTF-8"?>

<!-- generated on 2025-10-14T10:02:46.868240+01:00 by Eclipse SUMO sumo v1_24_0+1412-284a4f7aa5c
<sumoConfiguration xmlns:xsi="http://www.w3.org/2001/XMLSchema-instance" xsi:noNamespaceSchemaLocation="http://sumo.dlr.de/xsd/sumoConfiguration.xsd">

    <input>
        <net-file value="input_net.net.xml"/>
        <route-files value="input_routes.rou.xml"/>
    </input>

    <output>
        <vehroute-output value="vr.xml"/>
        <vehroute-output.sorted value="true"/>
        <vehroute-output.intended-depart value="false"/>
        <vehroute-output.speedfactor value="true"/>
        <statistic-output value="statistics.xml"/>
    </output>

    <routing>
        <device.rerouting.period value="60"/>
    </routing>

    <report>
        <duration-log.statistics value="true"/>
        <no-step-log value="true"/>
    </report>

</sumoConfiguration>
-->

<statistics xmlns:xsi="http://www.w3.org/2001/XMLSchema-instance" xsi:noNamespaceSchemaLocation="http://sumo.dlr.de/xsd/statistic_file.xsd">
    <performance clockBegin="1760428966.87" clockEnd="1760428967.63" clockDuration="0.76" traciDuration="0.00" realTimeFactor="1676.70" vehicleUpdatesPerSecond="355151.83" personUpdatesPerSecond="0.00" begin="0.00" end="1281.00" duration="1281.00"/>
    <vehicles loaded="2000" inserted="2000" running="0" waiting="0"/>
    <teleports total="0" jam="0" yield="0" wrongLane="0"/>
    <safety collisions="0" emergencyStops="0" emergencyBraking="0"/>
    <persons loaded="0" running="0" jammed="0"/>
    <personTeleports total="0" abortWait="0" wrongDest="0"/>
    <vehicleTripStatistics count="2000" routeLength="466.04" speed="4.28" duration="135.67" waitingTime="66.55" timeLoss="99.25" departDelay="3.71" departDelayWaiting="-1.00" totalTravelTime="271336.00" totalDepartDelay="7426.00"/>
    <pedestrianStatistics number="0" routeLength="0.00" duration="0.00" timeLoss="0.00"/>
    <rideStatistics number="0"/>
    <transportStatistics number="0"/>
</statistics>
