<?xml version="1.0" encoding="UTF-8"?>

<!-- generated on 2025-05-19 14:50:31 by Eclipse SUMO sumo Version v1_23_1+0108-be297c9538a
<sumoConfiguration xmlns:xsi="http://www.w3.org/2001/XMLSchema-instance" xsi:noNamespaceSchemaLocation="http://sumo.dlr.de/xsd/sumoConfiguration.xsd">

    <input>
        <net-file value="input_net.net.xml"/>
        <route-files value="input_routes.rou.xml"/>
    </input>

    <output>
        <vehroute-output value="vr.xml"/>
        <vehroute-output.sorted value="true"/>
        <vehroute-output.intended-depart value="false"/>
        <vehroute-output.speedfactor value="true"/>
        <statistic-output value="statistics.xml"/>
    </output>

    <routing>
        <device.rerouting.period value="60"/>
    </routing>

    <report>
        <duration-log.statistics value="true"/>
        <no-step-log value="true"/>
    </report>

</sumoConfiguration>
-->

<statistics xmlns:xsi="http://www.w3.org/2001/XMLSchema-instance" xsi:noNamespaceSchemaLocation="http://sumo.dlr.de/xsd/statistic_file.xsd">
    <performance clockBegin="1747659031.72" clockEnd="1747659034.87" clockDuration="3.15" traciDuration="0.59" realTimeFactor="393.02" vehicleUpdatesPerSecond="82613.02" personUpdatesPerSecond="0.00" begin="0.00" end="1238.00" duration="1238.00"/>
    <vehicles loaded="2000" inserted="2000" running="0" waiting="0"/>
    <teleports total="0" jam="0" yield="0" wrongLane="0"/>
    <safety collisions="0" emergencyStops="0" emergencyBraking="0"/>
    <persons loaded="0" running="0" jammed="0"/>
    <personTeleports total="0" abortWait="0" wrongDest="0"/>
    <vehicleTripStatistics count="2000" routeLength="463.96" speed="4.36" duration="130.12" waitingTime="62.14" timeLoss="93.88" departDelay="3.60" departDelayWaiting="-1.00" totalTravelTime="260231.00" totalDepartDelay="7201.00"/>
    <pedestrianStatistics number="0" routeLength="0.00" duration="0.00" timeLoss="0.00"/>
    <rideStatistics number="0"/>
    <transportStatistics number="0"/>
</statistics>
