<?xml version="1.0" encoding="UTF-8"?>

<!-- generated on 2022-02-01 12:13:23 by Eclipse SUMO sumo Version v1_12_0+0175-e62a4bc
<configuration xmlns:xsi="http://www.w3.org/2001/XMLSchema-instance" xsi:noNamespaceSchemaLocation="http://sumo.dlr.de/xsd/sumoConfiguration.xsd">

    <input>
        <net-file value="input_net.net.xml"/>
        <route-files value="input_routes.rou.xml"/>
    </input>

    <output>
        <vehroute-output value="vr.xml"/>
        <vehroute-output.sorted value="true"/>
        <vehroute-output.intended-depart value="true"/>
        <statistic-output value="statistics.xml"/>
    </output>

    <routing>
        <device.rerouting.period value="60"/>
    </routing>

    <report>
        <verbose value="true"/>
        <duration-log.statistics value="true"/>
        <no-step-log value="true"/>
    </report>

</configuration>
-->

<statistics xmlns:xsi="http://www.w3.org/2001/XMLSchema-instance" xsi:noNamespaceSchemaLocation="http://sumo.dlr.de/xsd/statistic_file.xsd">
    <vehicles loaded="2000" inserted="2000" running="0" waiting="0"/>
    <teleports total="0" jam="0" yield="0" wrongLane="0"/>
    <safety collisions="0" emergencyStops="0"/>
    <persons loaded="0" running="0" jammed="0"/>
    <vehicleTripStatistics routeLength="490.13" speed="3.81" duration="184.84" waitingTime="105.72" timeLoss="146.41" departDelay="7.14" departDelayWaiting="-1.00" totalTravelTime="369682.00" totalDepartDelay="14287.00"/>
    <pedestrianStatistics number="0" routeLength="0.00" duration="0.00" timeLoss="0.00"/>
    <rideStatistics number="0"/>
    <transportStatistics number="0"/>
</statistics>
