<?xml version="1.0" encoding="UTF-8"?>

<!-- generated on 2023-06-07 15:46:48 by Eclipse SUMO sumo Version v1_17_0+0804-da7df96
<configuration xmlns:xsi="http://www.w3.org/2001/XMLSchema-instance" xsi:noNamespaceSchemaLocation="http://sumo.dlr.de/xsd/sumoConfiguration.xsd">

    <input>
        <net-file value="input_net.net.xml"/>
        <route-files value="input_routes.rou.xml"/>
    </input>

    <output>
        <vehroute-output value="vr.xml"/>
        <vehroute-output.sorted value="true"/>
        <vehroute-output.intended-depart value="false"/>
        <vehroute-output.speedfactor value="true"/>
        <statistic-output value="statistics.xml"/>
    </output>

    <routing>
        <device.rerouting.period value="60"/>
    </routing>

    <report>
        <duration-log.statistics value="true"/>
        <no-step-log value="true"/>
    </report>

</configuration>
-->

<statistics xmlns:xsi="http://www.w3.org/2001/XMLSchema-instance" xsi:noNamespaceSchemaLocation="http://sumo.dlr.de/xsd/statistic_file.xsd">
    <performance clockBegin="1686145608.92" clockEnd="1686145611.47" clockDuration="2.54" traciDuration="1.49" realTimeFactor="587.50" vehicleUpdatesPerSecond="156025.17" personUpdatesPerSecond="0.00" begin="0.00" end="1494.00" duration="1494.00"/>
    <vehicles loaded="2000" inserted="2000" running="0" waiting="0"/>
    <teleports total="2" jam="1" yield="1" wrongLane="0"/>
    <safety collisions="0" emergencyStops="0" emergencyBraking="0"/>
    <persons loaded="0" running="0" jammed="0"/>
    <personTeleports total="0" abortWait="0" wrongDest="0"/>
    <vehicleTripStatistics count="2000" routeLength="491.30" speed="3.70" duration="198.39" waitingTime="119.35" timeLoss="159.91" departDelay="10.32" departDelayWaiting="-1.00" totalTravelTime="396772.00" totalDepartDelay="20646.00"/>
    <pedestrianStatistics number="0" routeLength="0.00" duration="0.00" timeLoss="0.00"/>
    <rideStatistics number="0"/>
    <transportStatistics number="0"/>
</statistics>
