<?xml version="1.0" encoding="UTF-8"?>

<!-- generated on 2024-06-26 13:46:42 by Eclipse SUMO sumo Version v1_20_0+0840-6edfc792969
<sumoConfiguration xmlns:xsi="http://www.w3.org/2001/XMLSchema-instance" xsi:noNamespaceSchemaLocation="http://sumo.dlr.de/xsd/sumoConfiguration.xsd">

    <input>
        <net-file value="input_net.net.xml"/>
        <route-files value="input_routes.rou.xml"/>
    </input>

    <output>
        <vehroute-output value="vr.xml"/>
        <vehroute-output.sorted value="true"/>
        <vehroute-output.intended-depart value="false"/>
        <vehroute-output.speedfactor value="true"/>
        <statistic-output value="statistics.xml"/>
    </output>

    <routing>
        <device.rerouting.period value="60"/>
    </routing>

    <report>
        <duration-log.statistics value="true"/>
        <no-step-log value="true"/>
    </report>

</sumoConfiguration>
-->

<statistics xmlns:xsi="http://www.w3.org/2001/XMLSchema-instance" xsi:noNamespaceSchemaLocation="http://sumo.dlr.de/xsd/statistic_file.xsd">
    <performance clockBegin="1719402402.08" clockEnd="1719402403.62" clockDuration="1.54" traciDuration="0.00" realTimeFactor="867.27" vehicleUpdatesPerSecond="191534.81" personUpdatesPerSecond="0.00" begin="0.00" end="1333.00" duration="1333.00"/>
    <vehicles loaded="2000" inserted="2000" running="0" waiting="0"/>
    <teleports total="0" jam="0" yield="0" wrongLane="0"/>
    <safety collisions="0" emergencyStops="0" emergencyBraking="0"/>
    <persons loaded="0" running="0" jammed="0"/>
    <personTeleports total="0" abortWait="0" wrongDest="0"/>
    <vehicleTripStatistics count="2000" routeLength="472.56" speed="4.17" duration="147.19" waitingTime="76.12" timeLoss="110.22" departDelay="4.67" departDelayWaiting="-1.00" totalTravelTime="294389.00" totalDepartDelay="9351.00"/>
    <pedestrianStatistics number="0" routeLength="0.00" duration="0.00" timeLoss="0.00"/>
    <rideStatistics number="0"/>
    <transportStatistics number="0"/>
</statistics>
