<?xml version="1.0" encoding="UTF-8"?>

<!-- generated on Fri Aug 24 13:47:56 2018 by Eclipse SUMO Version ad1c44c
This data file and the accompanying materials
are made available under the terms of the Eclipse Public License v2.0
which accompanies this distribution, and is available at
http://www.eclipse.org/legal/epl-v20.html
SPDX-License-Identifier: EPL-2.0
<configuration xmlns:xsi="http://www.w3.org/2001/XMLSchema-instance" xsi:noNamespaceSchemaLocation="http://sumo.dlr.de/xsd/sumoConfiguration.xsd">

    <input>
        <net-file value="net.net.xml"/>
        <route-files value="input_routes.rou.xml"/>
    </input>

    <output>
        <write-license value="true"/>
        <tripinfo-output value="tripinfos.xml"/>
    </output>

    <processing>
        <default.speeddev value="0"/>
    </processing>

    <report>
        <xml-validation value="never"/>
        <duration-log.disable value="true"/>
        <no-step-log value="true"/>
    </report>

</configuration>
-->

<tripinfos xmlns:xsi="http://www.w3.org/2001/XMLSchema-instance" xsi:noNamespaceSchemaLocation="http://sumo.dlr.de/xsd/tripinfo_file.xsd">
    <tripinfo id="SN.0" depart="1.00" departLane="SC_0" departPos="5.10" departSpeed="13.89" departDelay="0.00" arrival="16.00" arrivalLane="CN_0" arrivalPos="95.25" arrivalSpeed="13.89" duration="15.00" routeLength="194.90" waitingTime="0.00" waitingCount="0" stopTime="0.00" timeLoss="0.00" rerouteNo="0" devices="tripinfo_SN.0 routing_SN.0" vType="DEFAULT_VEHTYPE" speedFactor="1.00" vaporized=""/>
    <tripinfo id="SN.1" depart="5.00" departLane="SC_0" departPos="5.10" departSpeed="13.89" departDelay="0.00" arrival="20.00" arrivalLane="CN_0" arrivalPos="95.25" arrivalSpeed="13.89" duration="15.00" routeLength="194.90" waitingTime="0.00" waitingCount="0" stopTime="0.00" timeLoss="0.00" rerouteNo="0" devices="tripinfo_SN.1 routing_SN.1" vType="DEFAULT_VEHTYPE" speedFactor="1.00" vaporized=""/>
    <tripinfo id="SN.2" depart="8.00" departLane="SC_0" departPos="5.10" departSpeed="13.89" departDelay="0.00" arrival="23.00" arrivalLane="CN_0" arrivalPos="95.25" arrivalSpeed="13.89" duration="15.00" routeLength="194.90" waitingTime="0.00" waitingCount="0" stopTime="0.00" timeLoss="0.00" rerouteNo="0" devices="tripinfo_SN.2 routing_SN.2" vType="DEFAULT_VEHTYPE" speedFactor="1.00" vaporized=""/>
    <tripinfo id="SN.3" depart="10.00" departLane="SC_0" departPos="5.10" departSpeed="13.89" departDelay="0.00" arrival="25.00" arrivalLane="CN_0" arrivalPos="95.25" arrivalSpeed="13.89" duration="15.00" routeLength="194.90" waitingTime="0.00" waitingCount="0" stopTime="0.00" timeLoss="0.00" rerouteNo="0" devices="tripinfo_SN.3 routing_SN.3" vType="DEFAULT_VEHTYPE" speedFactor="1.00" vaporized=""/>
    <tripinfo id="EN.0" depart="2.00" departLane="EC_0" departPos="5.10" departSpeed="13.89" departDelay="0.00" arrival="28.00" arrivalLane="CN_0" arrivalPos="95.25" arrivalSpeed="13.89" duration="26.00" routeLength="190.40" waitingTime="8.00" waitingCount="1" stopTime="0.00" timeLoss="11.71" rerouteNo="0" devices="tripinfo_EN.0 routing_EN.0" vType="DEFAULT_VEHTYPE" speedFactor="1.00" vaporized=""/>
    <tripinfo id="SN.4" depart="15.00" departLane="SC_0" departPos="5.10" departSpeed="13.89" departDelay="0.00" arrival="30.00" arrivalLane="CN_0" arrivalPos="95.25" arrivalSpeed="13.89" duration="15.00" routeLength="194.90" waitingTime="0.00" waitingCount="0" stopTime="0.00" timeLoss="0.23" rerouteNo="0" devices="tripinfo_SN.4 routing_SN.4" vType="DEFAULT_VEHTYPE" speedFactor="1.00" vaporized=""/>
    <tripinfo id="SN.5" depart="19.00" departLane="SC_0" departPos="5.10" departSpeed="13.89" departDelay="0.00" arrival="34.00" arrivalLane="CN_0" arrivalPos="95.25" arrivalSpeed="13.89" duration="15.00" routeLength="194.90" waitingTime="0.00" waitingCount="0" stopTime="0.00" timeLoss="0.00" rerouteNo="0" devices="tripinfo_SN.5 routing_SN.5" vType="DEFAULT_VEHTYPE" speedFactor="1.00" vaporized=""/>
    <tripinfo id="SN.6" depart="22.00" departLane="SC_0" departPos="5.10" departSpeed="13.89" departDelay="0.00" arrival="37.00" arrivalLane="CN_0" arrivalPos="95.25" arrivalSpeed="13.89" duration="15.00" routeLength="194.90" waitingTime="0.00" waitingCount="0" stopTime="0.00" timeLoss="0.00" rerouteNo="0" devices="tripinfo_SN.6 routing_SN.6" vType="DEFAULT_VEHTYPE" speedFactor="1.00" vaporized=""/>
    <tripinfo id="SN.7" depart="24.00" departLane="SC_0" departPos="5.10" departSpeed="13.89" departDelay="0.00" arrival="39.00" arrivalLane="CN_0" arrivalPos="95.25" arrivalSpeed="13.89" duration="15.00" routeLength="194.90" waitingTime="0.00" waitingCount="0" stopTime="0.00" timeLoss="0.00" rerouteNo="0" devices="tripinfo_SN.7 routing_SN.7" vType="DEFAULT_VEHTYPE" speedFactor="1.00" vaporized=""/>
    <tripinfo id="EN.1" depart="3.00" departLane="EC_0" departPos="5.10" departSpeed="11.52" departDelay="0.00" arrival="42.00" arrivalLane="CN_0" arrivalPos="95.25" arrivalSpeed="13.89" duration="39.00" routeLength="190.40" waitingTime="18.00" waitingCount="2" stopTime="0.00" timeLoss="24.71" rerouteNo="0" devices="tripinfo_EN.1 routing_EN.1" vType="DEFAULT_VEHTYPE" speedFactor="1.00" vaporized=""/>
    <tripinfo id="EN.2" depart="7.00" departLane="EC_0" departPos="5.10" departSpeed="13.89" departDelay="0.00" arrival="47.00" arrivalLane="CN_0" arrivalPos="95.25" arrivalSpeed="13.89" duration="40.00" routeLength="190.40" waitingTime="17.00" waitingCount="3" stopTime="0.00" timeLoss="25.71" rerouteNo="0" devices="tripinfo_EN.2 routing_EN.2" vType="DEFAULT_VEHTYPE" speedFactor="1.00" vaporized=""/>
    <tripinfo id="EN.3" depart="14.00" departLane="EC_0" departPos="5.10" departSpeed="13.89" departDelay="0.00" arrival="52.00" arrivalLane="CN_0" arrivalPos="95.25" arrivalSpeed="13.89" duration="38.00" routeLength="190.40" waitingTime="13.00" waitingCount="4" stopTime="0.00" timeLoss="23.71" rerouteNo="0" devices="tripinfo_EN.3 routing_EN.3" vType="DEFAULT_VEHTYPE" speedFactor="1.00" vaporized=""/>
    <tripinfo id="EN.4" depart="16.00" departLane="EC_0" departPos="5.10" departSpeed="13.89" departDelay="0.00" arrival="53.00" arrivalLane="CN_0" arrivalPos="95.25" arrivalSpeed="13.89" duration="37.00" routeLength="190.40" waitingTime="12.00" waitingCount="3" stopTime="0.00" timeLoss="23.25" rerouteNo="0" devices="tripinfo_EN.4 routing_EN.4" vType="DEFAULT_VEHTYPE" speedFactor="1.00" vaporized=""/>
    <tripinfo id="EN.5" depart="17.00" departLane="EC_0" departPos="5.10" departSpeed="11.52" departDelay="0.00" arrival="55.00" arrivalLane="CN_0" arrivalPos="95.25" arrivalSpeed="13.89" duration="38.00" routeLength="190.40" waitingTime="12.00" waitingCount="3" stopTime="0.00" timeLoss="23.79" rerouteNo="0" devices="tripinfo_EN.5 routing_EN.5" vType="DEFAULT_VEHTYPE" speedFactor="1.00" vaporized=""/>
    <tripinfo id="EN.6" depart="19.00" departLane="EC_0" departPos="5.10" departSpeed="13.61" departDelay="0.00" arrival="57.00" arrivalLane="CN_0" arrivalPos="95.25" arrivalSpeed="13.89" duration="38.00" routeLength="190.40" waitingTime="12.00" waitingCount="3" stopTime="0.00" timeLoss="23.33" rerouteNo="0" devices="tripinfo_EN.6 routing_EN.6" vType="DEFAULT_VEHTYPE" speedFactor="1.00" vaporized=""/>
    <tripinfo id="EN.7" depart="21.00" departLane="EC_0" departPos="5.10" departSpeed="13.89" departDelay="0.00" arrival="58.00" arrivalLane="CN_0" arrivalPos="95.25" arrivalSpeed="13.89" duration="37.00" routeLength="190.40" waitingTime="12.00" waitingCount="3" stopTime="0.00" timeLoss="22.87" rerouteNo="0" devices="tripinfo_EN.7 routing_EN.7" vType="DEFAULT_VEHTYPE" speedFactor="1.00" vaporized=""/>
    <tripinfo id="WE.0" depart="49.00" departLane="WC_0" departPos="5.10" departSpeed="13.89" departDelay="0.00" arrival="64.00" arrivalLane="CE_0" arrivalPos="95.25" arrivalSpeed="13.89" duration="15.00" routeLength="194.90" waitingTime="0.00" waitingCount="0" stopTime="0.00" timeLoss="0.00" rerouteNo="0" devices="tripinfo_WE.0 routing_WE.0" vType="DEFAULT_VEHTYPE" speedFactor="1.00" vaporized=""/>
    <tripinfo id="WE.1" depart="50.00" departLane="WC_0" departPos="5.10" departSpeed="11.52" departDelay="0.00" arrival="65.00" arrivalLane="CE_0" arrivalPos="95.25" arrivalSpeed="13.89" duration="15.00" routeLength="194.90" waitingTime="0.00" waitingCount="0" stopTime="0.00" timeLoss="0.53" rerouteNo="0" devices="tripinfo_WE.1 routing_WE.1" vType="DEFAULT_VEHTYPE" speedFactor="1.00" vaporized=""/>
    <tripinfo id="WE.2" depart="51.00" departLane="WC_0" departPos="5.10" departSpeed="9.02" departDelay="0.00" arrival="67.00" arrivalLane="CE_0" arrivalPos="95.25" arrivalSpeed="13.89" duration="16.00" routeLength="194.90" waitingTime="0.00" waitingCount="0" stopTime="0.00" timeLoss="1.07" rerouteNo="0" devices="tripinfo_WE.2 routing_WE.2" vType="DEFAULT_VEHTYPE" speedFactor="1.00" vaporized=""/>
    <tripinfo id="WE.3" depart="54.00" departLane="WC_0" departPos="5.10" departSpeed="13.89" departDelay="0.00" arrival="69.00" arrivalLane="CE_0" arrivalPos="95.25" arrivalSpeed="13.89" duration="15.00" routeLength="194.90" waitingTime="0.00" waitingCount="0" stopTime="0.00" timeLoss="0.00" rerouteNo="0" devices="tripinfo_WE.3 routing_WE.3" vType="DEFAULT_VEHTYPE" speedFactor="1.00" vaporized=""/>
    <tripinfo id="WE.4" depart="56.00" departLane="WC_0" departPos="5.10" departSpeed="13.89" departDelay="0.00" arrival="71.00" arrivalLane="CE_0" arrivalPos="95.25" arrivalSpeed="13.89" duration="15.00" routeLength="194.90" waitingTime="0.00" waitingCount="0" stopTime="0.00" timeLoss="0.00" rerouteNo="0" devices="tripinfo_WE.4 routing_WE.4" vType="DEFAULT_VEHTYPE" speedFactor="1.00" vaporized=""/>
    <tripinfo id="WE.5" depart="58.00" departLane="WC_0" departPos="5.10" departSpeed="13.89" departDelay="0.00" arrival="73.00" arrivalLane="CE_0" arrivalPos="95.25" arrivalSpeed="13.89" duration="15.00" routeLength="194.90" waitingTime="0.00" waitingCount="0" stopTime="0.00" timeLoss="0.00" rerouteNo="0" devices="tripinfo_WE.5 routing_WE.5" vType="DEFAULT_VEHTYPE" speedFactor="1.00" vaporized=""/>
    <tripinfo id="SE.0" depart="51.00" departLane="SC_0" departPos="5.10" departSpeed="13.89" departDelay="0.00" arrival="76.00" arrivalLane="CE_0" arrivalPos="95.25" arrivalSpeed="13.89" duration="25.00" routeLength="190.40" waitingTime="7.00" waitingCount="1" stopTime="0.00" timeLoss="10.71" rerouteNo="0" devices="tripinfo_SE.0 routing_SE.0" vType="DEFAULT_VEHTYPE" speedFactor="1.00" vaporized=""/>
    <tripinfo id="WE.6" depart="66.00" departLane="WC_0" departPos="5.10" departSpeed="13.89" departDelay="0.00" arrival="81.00" arrivalLane="CE_0" arrivalPos="95.25" arrivalSpeed="13.89" duration="15.00" routeLength="194.90" waitingTime="0.00" waitingCount="0" stopTime="0.00" timeLoss="0.00" rerouteNo="0" devices="tripinfo_WE.6 routing_WE.6" vType="DEFAULT_VEHTYPE" speedFactor="1.00" vaporized=""/>
    <tripinfo id="WE.7" depart="67.00" departLane="WC_0" departPos="5.10" departSpeed="11.52" departDelay="0.00" arrival="82.00" arrivalLane="CE_0" arrivalPos="95.25" arrivalSpeed="13.89" duration="15.00" routeLength="194.90" waitingTime="0.00" waitingCount="0" stopTime="0.00" timeLoss="0.53" rerouteNo="0" devices="tripinfo_WE.7 routing_WE.7" vType="DEFAULT_VEHTYPE" speedFactor="1.00" vaporized=""/>
    <tripinfo id="SE.1" depart="53.00" departLane="SC_0" departPos="5.10" departSpeed="13.89" departDelay="0.00" arrival="85.00" arrivalLane="CE_0" arrivalPos="95.25" arrivalSpeed="13.89" duration="32.00" routeLength="190.40" waitingTime="12.00" waitingCount="2" stopTime="0.00" timeLoss="17.71" rerouteNo="0" devices="tripinfo_SE.1 routing_SE.1" vType="DEFAULT_VEHTYPE" speedFactor="1.00" vaporized=""/>
    <tripinfo id="SE.2" depart="57.00" departLane="SC_0" departPos="5.10" departSpeed="13.89" departDelay="0.00" arrival="90.00" arrivalLane="CE_0" arrivalPos="95.25" arrivalSpeed="13.89" duration="33.00" routeLength="190.40" waitingTime="10.00" waitingCount="3" stopTime="0.00" timeLoss="18.71" rerouteNo="0" devices="tripinfo_SE.2 routing_SE.2" vType="DEFAULT_VEHTYPE" speedFactor="1.00" vaporized=""/>
    <tripinfo id="SE.3" depart="58.00" departLane="SC_0" departPos="5.10" departSpeed="11.52" departDelay="0.00" arrival="95.00" arrivalLane="CE_0" arrivalPos="95.25" arrivalSpeed="13.89" duration="37.00" routeLength="190.40" waitingTime="11.00" waitingCount="4" stopTime="0.00" timeLoss="22.71" rerouteNo="0" devices="tripinfo_SE.3 routing_SE.3" vType="DEFAULT_VEHTYPE" speedFactor="1.00" vaporized=""/>
    <tripinfo id="SE.4" depart="60.00" departLane="SC_0" departPos="5.10" departSpeed="13.61" departDelay="0.00" arrival="99.00" arrivalLane="CE_0" arrivalPos="95.25" arrivalSpeed="13.89" duration="39.00" routeLength="190.40" waitingTime="11.00" waitingCount="4" stopTime="0.00" timeLoss="24.64" rerouteNo="0" devices="tripinfo_SE.4 routing_SE.4" vType="DEFAULT_VEHTYPE" speedFactor="1.00" vaporized=""/>
</tripinfos>
