<?xml version="1.0" encoding="UTF-8"?>

<!-- generated on 2026-04-09T10:05:11.934531+01:00 by Eclipse SUMO sumo v1_26_0+1029-2aae9be17b6
This data file and the accompanying materials
are made available under the terms of the Eclipse Public License v2.0
which accompanies this distribution, and is available at
http://www.eclipse.org/legal/epl-v20.html
This file may also be made available under the following Secondary
Licenses when the conditions for such availability set forth in the Eclipse
Public License 2.0 are satisfied: GNU General Public License, version 2
or later which is available at
https://www.gnu.org/licenses/old-licenses/gpl-2.0-standalone.html
SPDX-License-Identifier: EPL-2.0 OR GPL-2.0-or-later
<sumoConfiguration xmlns:xsi="http://www.w3.org/2001/XMLSchema-instance" xsi:noNamespaceSchemaLocation="http://sumo.dlr.de/xsd/sumoConfiguration.xsd">

    <input>
        <net-file value="net.net.xml"/>
        <route-files value="input_routes.rou.xml"/>
    </input>

    <output>
        <write-license value="true"/>
        <tripinfo-output value="tripinfos.xml"/>
        <railsignal-block-output value="railsignal_blocks.xml"/>
    </output>

    <processing>
        <time-to-teleport.railsignal-deadlock value="200"/>
        <default.speeddev value="0"/>
    </processing>

    <report>
        <xml-validation value="never"/>
        <duration-log.disable value="true"/>
        <duration-log.statistics value="true"/>
        <no-step-log value="true"/>
    </report>

</sumoConfiguration>
-->

<tripinfos xmlns:xsi="http://www.w3.org/2001/XMLSchema-instance" xsi:noNamespaceSchemaLocation="http://sumo.dlr.de/xsd/tripinfo_file.xsd">
    <tripinfo id="v_0" depart="0.00" departLane="E0_0" departPos="50.10" departSpeed="0.00" departDelay="0.00" arrival="220.00" arrivalLane="-E0_0" arrivalPos="100.00" arrivalSpeed="13.89" duration="220.00" routeLength="1832.10" waitingTime="2.00" waitingCount="1" stopTime="0.00" timeLoss="94.79" rerouteNo="0" devices="tripinfo_v_0" vType="train" speedFactor="1.00" vaporized=""/>
    <tripinfo id="v_1" depart="28.00" departLane="E0_0" departPos="50.10" departSpeed="0.00" departDelay="28.00" arrival="301.00" arrivalLane="-E0_0" arrivalPos="100.00" arrivalSpeed="13.89" duration="273.00" routeLength="1832.10" waitingTime="18.00" waitingCount="3" stopTime="0.00" timeLoss="147.72" rerouteNo="0" devices="tripinfo_v_1" vType="train" speedFactor="1.00" vaporized=""/>
    <tripinfo id="v_2" depart="116.00" departLane="E0_0" departPos="50.10" departSpeed="0.00" departDelay="116.00" arrival="375.00" arrivalLane="-E0_0" arrivalPos="100.00" arrivalSpeed="13.89" duration="259.00" routeLength="1832.10" waitingTime="23.00" waitingCount="2" stopTime="0.00" timeLoss="133.73" rerouteNo="0" devices="tripinfo_v_2" vType="train" speedFactor="1.00" vaporized=""/>
</tripinfos>
