<?xml version="1.0" encoding="UTF-8"?>

<!-- generated on Thu Mar 12 09:42:27 2020 by Eclipse SUMO Version v1_5_0+0671-ab1576c
This data file and the accompanying materials
are made available under the terms of the Eclipse Public License v2.0
which accompanies this distribution, and is available at
http://www.eclipse.org/legal/epl-v20.html
SPDX-License-Identifier: EPL-2.0
<configuration xmlns:xsi="http://www.w3.org/2001/XMLSchema-instance" xsi:noNamespaceSchemaLocation="http://sumo.dlr.de/xsd/sumoConfiguration.xsd">

    <input>
        <net-file value="net.net.xml"/>
        <route-files value="input_routes.rou.xml,input_routes2.rou.xml"/>
    </input>

    <output>
        <write-license value="true"/>
        <tripinfo-output value="tripinfos.xml"/>
        <tripinfo-output.write-unfinished value="true"/>
    </output>

    <processing>
        <default.speeddev value="0"/>
    </processing>

    <report>
        <verbose value="true"/>
        <xml-validation value="never"/>
        <duration-log.statistics value="true"/>
        <no-step-log value="true"/>
    </report>

    <taxi_device>
        <device.taxi.dispatch-algorithm value="greedyShared"/>
        <device.taxi.dispatch-algorithm.output value="dispatchinfos.xml"/>
        <device.taxi.dispatch-algorithm.params value="relLossThreshold:0.35"/>
    </taxi_device>

</configuration>
-->

<tripinfos xmlns:xsi="http://www.w3.org/2001/XMLSchema-instance" xsi:noNamespaceSchemaLocation="http://sumo.dlr.de/xsd/tripinfo_file.xsd">
    <personinfo id="0" depart="0.00" type="DEFAULT_PEDTYPE">
        <ride waitingTime="63.00" vehicle="trip_1" depart="63.00" arrival="150.00" arrivalPos="285.60" duration="87.00" routeLength="865.13"/>
    </personinfo>
    <personinfo id="1" depart="10.00" type="DEFAULT_PEDTYPE">
        <ride waitingTime="78.00" vehicle="trip_0" depart="88.00" arrival="191.00" arrivalPos="285.60" duration="103.00" routeLength="945.05"/>
    </personinfo>
    <personinfo id="2" depart="20.00" type="DEFAULT_PEDTYPE">
        <ride waitingTime="120.00" vehicle="trip_0" depart="140.00" arrival="304.00" arrivalPos="85.60" duration="164.00" routeLength="950.47"/>
    </personinfo>
    <personinfo id="3" depart="30.00" type="DEFAULT_PEDTYPE">
        <ride waitingTime="192.00" vehicle="trip_1" depart="222.00" arrival="324.00" arrivalPos="85.60" duration="102.00" routeLength="946.08"/>
    </personinfo>
    <personinfo id="8" depart="80.00" type="DEFAULT_PEDTYPE">
        <ride waitingTime="210.00" vehicle="trip_1" depart="290.00" arrival="324.00" arrivalPos="85.60" duration="34.00" routeLength="270.91"/>
    </personinfo>
    <personinfo id="6" depart="60.00" type="DEFAULT_PEDTYPE">
        <ride waitingTime="335.00" vehicle="trip_0" depart="395.00" arrival="499.00" arrivalPos="285.60" duration="104.00" routeLength="1161.16"/>
    </personinfo>
    <personinfo id="4" depart="40.00" type="DEFAULT_PEDTYPE">
        <ride waitingTime="355.00" vehicle="trip_1" depart="395.00" arrival="538.00" arrivalPos="85.60" duration="143.00" routeLength="1570.23"/>
    </personinfo>
    <personinfo id="7" depart="70.00" type="DEFAULT_PEDTYPE">
        <ride waitingTime="497.00" vehicle="trip_0" depart="567.00" arrival="627.00" arrivalPos="85.60" duration="60.00" routeLength="560.16"/>
    </personinfo>
    <personinfo id="5" depart="50.00" type="DEFAULT_PEDTYPE">
        <ride waitingTime="430.00" vehicle="trip_1" depart="480.00" arrival="638.00" arrivalPos="87.60" duration="158.00" routeLength="966.29"/>
    </personinfo>
    <personinfo id="9" depart="90.00" type="DEFAULT_PEDTYPE">
        <ride waitingTime="579.00" vehicle="trip_0" depart="669.00" arrival="805.00" arrivalPos="285.60" duration="136.00" routeLength="1570.49"/>
    </personinfo>
    <tripinfo id="trip_0" depart="0.00" departLane="A0B0_1" departPos="5.10" departSpeed="0.00" departDelay="0.00" arrival="-1.00" arrivalLane="" arrivalPos="-1.00" arrivalSpeed="-1.00" duration="807.00" routeLength="5746.64" waitingTime="15.00" waitingCount="5" stopTime="238.00" timeLoss="137.21" rerouteNo="9" devices="tripinfo_trip_0 routing_trip_0 taxi_trip_0 person_trip_0" vType="taxi" speedFactor="1.00" vaporized="">
        <taxi customers="5" occupiedDistance="4721.77" occupiedTime="465.00"/>
    </tripinfo>
    <tripinfo id="trip_1" depart="0.00" departLane="A2B2_1" departPos="5.10" departSpeed="0.00" departDelay="0.00" arrival="-1.00" arrivalLane="" arrivalPos="-1.00" arrivalSpeed="-1.00" duration="807.00" routeLength="5182.49" waitingTime="12.00" waitingCount="4" stopTime="305.00" timeLoss="114.23" rerouteNo="7" devices="tripinfo_trip_1 routing_trip_1 taxi_trip_1 person_trip_1" vType="taxi" speedFactor="1.00" vaporized="">
        <taxi customers="5" occupiedDistance="3777.86" occupiedTime="379.00"/>
    </tripinfo>
</tripinfos>
