<?xml version="1.0" encoding="UTF-8"?>

<!-- generated on Fri Jan 24 13:58:42 2020 by Eclipse SUMO Version v1_4_0+0771-0b04545
This data file and the accompanying materials
are made available under the terms of the Eclipse Public License v2.0
which accompanies this distribution, and is available at
http://www.eclipse.org/legal/epl-v20.html
SPDX-License-Identifier: EPL-2.0
<configuration xmlns:xsi="http://www.w3.org/2001/XMLSchema-instance" xsi:noNamespaceSchemaLocation="http://sumo.dlr.de/xsd/sumoConfiguration.xsd">

    <input>
        <net-file value="net.net.xml"/>
        <route-files value="input_routes.rou.xml,input_routes2.rou.xml"/>
    </input>

    <output>
        <write-license value="true"/>
        <tripinfo-output value="tripinfos.xml"/>
        <tripinfo-output.write-unfinished value="true"/>
    </output>

    <processing>
        <default.speeddev value="0"/>
    </processing>

    <report>
        <verbose value="true"/>
        <xml-validation value="never"/>
        <duration-log.statistics value="true"/>
        <no-step-log value="true"/>
    </report>

    <taxi_device>
        <device.taxi.dispatch-algorithm value="greedyShared"/>
        <device.taxi.dispatch-algorithm.output value="dispatchinfos.xml"/>
    </taxi_device>

</configuration>
-->

<tripinfos xmlns:xsi="http://www.w3.org/2001/XMLSchema-instance" xsi:noNamespaceSchemaLocation="http://sumo.dlr.de/xsd/tripinfo_file.xsd">
    <personinfo id="0" depart="0.00" type="DEFAULT_PEDTYPE">
        <ride waitingTime="80.00" vehicle="trip_1" depart="80.00" arrival="211.00" arrivalPos="285.60" duration="131.00" routeLength="1465.09"/>
    </personinfo>
    <personinfo id="1" depart="10.00" type="DEFAULT_PEDTYPE">
        <ride waitingTime="110.00" vehicle="trip_0" depart="120.00" arrival="225.00" arrivalPos="285.60" duration="105.00" routeLength="1165.51"/>
    </personinfo>
    <personinfo id="2" depart="20.00" type="DEFAULT_PEDTYPE">
        <ride waitingTime="256.00" vehicle="trip_0" depart="276.00" arrival="380.00" arrivalPos="285.60" duration="104.00" routeLength="1180.21"/>
    </personinfo>
    <personinfo id="3" depart="30.00" type="DEFAULT_PEDTYPE">
        <ride waitingTime="269.00" vehicle="trip_1" depart="299.00" arrival="405.00" arrivalPos="285.60" duration="106.00" routeLength="1165.27"/>
    </personinfo>
    <personinfo id="6" depart="60.00" type="DEFAULT_PEDTYPE">
        <ride waitingTime="396.00" vehicle="trip_0" depart="456.00" arrival="559.00" arrivalPos="285.60" duration="103.00" routeLength="1161.17"/>
    </personinfo>
    <personinfo id="5" depart="50.00" type="DEFAULT_PEDTYPE">
        <ride waitingTime="509.00" vehicle="trip_1" depart="559.00" arrival="663.00" arrivalPos="287.60" duration="104.00" routeLength="1171.86"/>
    </personinfo>
    <personinfo id="7" depart="70.00" type="DEFAULT_PEDTYPE">
        <ride waitingTime="588.00" vehicle="trip_0" depart="658.00" arrival="763.00" arrivalPos="285.60" duration="105.00" routeLength="1160.18"/>
    </personinfo>
    <personinfo id="4" depart="40.00" type="DEFAULT_PEDTYPE">
        <ride waitingTime="416.00" vehicle="trip_1" depart="456.00" arrival="830.00" arrivalPos="285.60" duration="374.00" routeLength="3550.54"/>
    </personinfo>
    <personinfo id="8" depart="80.00" type="DEFAULT_PEDTYPE">
        <ride waitingTime="760.00" vehicle="trip_0" depart="840.00" arrival="919.00" arrivalPos="285.60" duration="79.00" routeLength="870.90"/>
    </personinfo>
    <personinfo id="9" depart="90.00" type="DEFAULT_PEDTYPE">
        <ride waitingTime="809.00" vehicle="trip_1" depart="899.00" arrival="1051.00" arrivalPos="285.60" duration="152.00" routeLength="1770.46"/>
    </personinfo>
    <tripinfo id="trip_0" depart="0.00" departLane="A0B0_1" departPos="5.10" departSpeed="0.00" departDelay="0.00" arrival="-1.00" arrivalLane="" arrivalPos="-1.00" arrivalSpeed="-1.00" duration="1053.00" routeLength="8252.00" waitingTime="18.00" waitingCount="6" stopTime="305.00" timeLoss="137.74" rerouteNo="11" devices="tripinfo_trip_0 routing_trip_0 taxi_trip_0 person_trip_0" vType="taxi" speedFactor="1.00" vaporized="">
        <taxi customers="5" occupiedDistance="5537.97" occupiedTime="501.00"/>
    </tripinfo>
    <tripinfo id="trip_1" depart="0.00" departLane="A2B2_1" departPos="5.10" departSpeed="0.00" departDelay="0.00" arrival="-1.00" arrivalLane="" arrivalPos="-1.00" arrivalSpeed="-1.00" duration="1053.00" routeLength="10370.10" waitingTime="16.00" waitingCount="5" stopTime="140.00" timeLoss="149.28" rerouteNo="9" devices="tripinfo_trip_1 routing_trip_1 taxi_trip_1 person_trip_1" vType="taxi" speedFactor="1.00" vaporized="">
        <taxi customers="5" occupiedDistance="7951.36" occupiedTime="704.00"/>
    </tripinfo>
</tripinfos>
