<?xml version="1.0" encoding="UTF-8"?>

<!-- generated on 05/02/13 15:09:44 by SUMO sumo Version 0.17.0
<?xml version="1.0" encoding="UTF-8"?>

<configuration xmlns:xsi="http://www.w3.org/2001/XMLSchema-instance" xsi:noNamespaceSchemaLocation="http://sumo.dlr.de/xsd/sumoConfiguration.xsd">

    <input>
        <net-file value="net.net.xml"/>
        <additional-files value="input_routes.rou.xml,input_additional.add.xml"/>
    </input>

    <output>
        <netstate-dump value="rawdump.xml"/>
    </output>

    <time>
        <begin value="0"/>
        <end value="1"/>
    </time>

    <report>
        <no-duration-log value="true"/>
        <no-step-log value="true"/>
    </report>

    <mesoscopic>
        <mesosim value="true"/>
    </mesoscopic>

</configuration>
-->

<netstate xmlns:xsi="http://www.w3.org/2001/XMLSchema-instance" xsi:noNamespaceSchemaLocation="http://sumo.dlr.de/xsd/netstate_file.xsd">
    <timestep time="0.00">
        <edge id="beg">
            <vehicle id="f1.9" pos="0.00" speed="12.84"/>
            <vehicle id="f1.8" pos="0.00" speed="13.65"/>
            <vehicle id="f1.7" pos="0.00" speed="14.58"/>
            <vehicle id="f1.6" pos="0.00" speed="15.64"/>
            <vehicle id="f1.5" pos="0.00" speed="16.87"/>
            <vehicle id="f1.4" pos="0.00" speed="18.31"/>
            <vehicle id="f1.3" pos="0.00" speed="20.02"/>
            <vehicle id="f1.2" pos="0.00" speed="22.08"/>
            <vehicle id="f1.1" pos="0.00" speed="24.61"/>
            <vehicle id="f1.0" pos="0.00" speed="27.80"/>
        </edge>
    </timestep>
</netstate>
