<?xml version="1.0"?>

<!-- generated on 02/20/10 22:19:49 by SUMO sumo Version dev-SVN-r8292
<configuration>

    <input>
        <net-file value="net.net.xml"/>
        <additional-files value="input_routes.rou.xml,input_additional.add.xml"/>
    </input>

    <output>
        <netstate-dump value="rawdump.xml"/>
    </output>

    <time>
        <begin value="0"/>
        <end value="1"/>
    </time>

    <report>
        <no-duration-log value="true"/>
        <no-step-log value="true"/>
    </report>

    <mesoscopic>
        <mesosim value="true"/>
    </mesoscopic>

</configuration>
-->

<sumo-netstate>
   <timestep time="0">
      <edge id="beg">
         <vehicle id="f1.9" pos="0.00" speed="12.83"/>
         <vehicle id="f1.8" pos="0.00" speed="13.64"/>
         <vehicle id="f1.7" pos="0.00" speed="14.57"/>
         <vehicle id="f1.6" pos="0.00" speed="15.63"/>
         <vehicle id="f1.5" pos="0.00" speed="16.86"/>
         <vehicle id="f1.4" pos="0.00" speed="18.30"/>
         <vehicle id="f1.3" pos="0.00" speed="20.01"/>
         <vehicle id="f1.2" pos="0.00" speed="22.07"/>
         <vehicle id="f1.1" pos="0.00" speed="24.61"/>
         <vehicle id="f1.0" pos="0.00" speed="27.80"/>
      </edge>
   </timestep>
</sumo-netstate>
