<?xml version="1.0" encoding="UTF-8"?>

<!-- generated on Tue Apr  3 14:51:12 2018 by SUMO Version v0_32_0+0987-d026ef6
This data file and the accompanying materials
are made available under the terms of the Eclipse Public License v2.0
which accompanies this distribution, and is available at
http://www.eclipse.org/legal/epl-v20.html
SPDX-License-Identifier: EPL-2.0
<configuration xmlns:xsi="http://www.w3.org/2001/XMLSchema-instance" xsi:noNamespaceSchemaLocation="http://sumo.dlr.de/xsd/sumoConfiguration.xsd">

    <input>
        <net-file value="net.net.xml"/>
        <route-files value="input_routes.rou.xml"/>
    </input>

    <output>
        <write-license value="true"/>
        <fcd-output value="fcd.xml"/>
    </output>

    <time>
        <begin value="0"/>
        <end value="3000"/>
    </time>

    <report>
        <xml-validation value="never"/>
        <duration-log.disable value="true"/>
        <no-step-log value="true"/>
    </report>

</configuration>
-->

<fcd-export xmlns:xsi="http://www.w3.org/2001/XMLSchema-instance" xsi:noNamespaceSchemaLocation="http://sumo.dlr.de/xsd/fcd_file.xsd">
    <timestep time="0.00">
        <vehicle id="r0" x="200.09" y="0.24" z="1.00" angle="89.46" type="0" speed="0.00" pos="200.10" lane="e0_0" slope="0.29"/>
    </timestep>
    <timestep time="1.00">
        <vehicle id="r0" x="200.72" y="0.25" z="1.00" angle="89.46" type="0" speed="0.62" pos="200.72" lane="e0_0" slope="0.29"/>
    </timestep>
    <timestep time="2.00">
        <vehicle id="r0" x="201.96" y="0.26" z="1.01" angle="89.46" type="0" speed="1.24" pos="201.97" lane="e0_0" slope="0.29"/>
    </timestep>
    <timestep time="3.00">
        <vehicle id="r0" x="203.83" y="0.28" z="1.02" angle="89.46" type="0" speed="1.86" pos="203.83" lane="e0_0" slope="0.29"/>
    </timestep>
    <timestep time="4.00">
        <vehicle id="r0" x="206.31" y="0.30" z="1.03" angle="89.46" type="0" speed="2.48" pos="206.32" lane="e0_0" slope="0.29"/>
    </timestep>
    <timestep time="5.00">
        <vehicle id="r0" x="209.41" y="0.33" z="1.05" angle="89.46" type="0" speed="3.10" pos="209.42" lane="e0_0" slope="0.29"/>
    </timestep>
    <timestep time="6.00">
        <vehicle id="r0" x="213.13" y="0.36" z="1.07" angle="89.46" type="0" speed="3.72" pos="213.14" lane="e0_0" slope="0.29"/>
    </timestep>
    <timestep time="7.00">
        <vehicle id="r0" x="217.47" y="0.40" z="1.09" angle="89.46" type="0" speed="4.34" pos="217.47" lane="e0_0" slope="0.29"/>
    </timestep>
    <timestep time="8.00">
        <vehicle id="r0" x="222.42" y="0.45" z="1.11" angle="89.46" type="0" speed="4.95" pos="222.43" lane="e0_0" slope="0.29"/>
    </timestep>
    <timestep time="9.00">
        <vehicle id="r0" x="227.98" y="0.50" z="1.14" angle="89.46" type="0" speed="5.57" pos="227.99" lane="e0_0" slope="0.29"/>
    </timestep>
    <timestep time="10.00">
        <vehicle id="r0" x="234.16" y="0.56" z="1.17" angle="89.46" type="0" speed="6.18" pos="234.17" lane="e0_0" slope="0.29"/>
    </timestep>
    <timestep time="11.00">
        <vehicle id="r0" x="240.96" y="0.63" z="1.21" angle="89.46" type="0" speed="6.79" pos="240.97" lane="e0_0" slope="0.29"/>
    </timestep>
    <timestep time="12.00">
        <vehicle id="r0" x="248.36" y="0.70" z="1.24" angle="89.46" type="0" speed="7.41" pos="248.37" lane="e0_0" slope="0.29"/>
    </timestep>
    <timestep time="13.00">
        <vehicle id="r0" x="256.38" y="0.77" z="1.28" angle="89.46" type="0" speed="8.02" pos="256.39" lane="e0_0" slope="0.29"/>
    </timestep>
    <timestep time="14.00">
        <vehicle id="r0" x="265.01" y="0.85" z="1.33" angle="89.46" type="0" speed="8.63" pos="265.02" lane="e0_0" slope="0.29"/>
    </timestep>
    <timestep time="15.00">
        <vehicle id="r0" x="274.24" y="0.94" z="1.37" angle="89.46" type="0" speed="9.24" pos="274.25" lane="e0_0" slope="0.29"/>
    </timestep>
    <timestep time="16.00">
        <vehicle id="r0" x="284.08" y="1.03" z="1.42" angle="89.46" type="0" speed="9.84" pos="284.10" lane="e0_0" slope="0.29"/>
    </timestep>
    <timestep time="17.00">
        <vehicle id="r0" x="294.53" y="1.13" z="1.47" angle="89.46" type="0" speed="10.45" pos="294.54" lane="e0_0" slope="0.29"/>
    </timestep>
    <timestep time="18.00">
        <vehicle id="r0" x="305.58" y="1.24" z="1.53" angle="89.46" type="0" speed="11.05" pos="305.60" lane="e0_0" slope="0.29"/>
    </timestep>
    <timestep time="19.00">
        <vehicle id="r0" x="317.23" y="1.35" z="1.59" angle="89.46" type="0" speed="11.65" pos="317.25" lane="e0_0" slope="0.29"/>
    </timestep>
    <timestep time="20.00">
        <vehicle id="r0" x="329.49" y="1.46" z="1.65" angle="89.46" type="0" speed="12.26" pos="329.51" lane="e0_0" slope="0.29"/>
    </timestep>
    <timestep time="21.00">
        <vehicle id="r0" x="342.34" y="1.58" z="1.71" angle="89.46" type="0" speed="12.86" pos="342.37" lane="e0_0" slope="0.29"/>
    </timestep>
    <timestep time="22.00">
        <vehicle id="r0" x="355.80" y="1.71" z="1.78" angle="89.46" type="0" speed="13.46" pos="355.83" lane="e0_0" slope="0.29"/>
    </timestep>
    <timestep time="23.00">
        <vehicle id="r0" x="369.86" y="1.84" z="1.85" angle="89.46" type="0" speed="14.06" pos="369.88" lane="e0_0" slope="0.29"/>
    </timestep>
    <timestep time="24.00">
        <vehicle id="r0" x="384.51" y="1.98" z="1.92" angle="89.46" type="0" speed="14.66" pos="384.54" lane="e0_0" slope="0.29"/>
    </timestep>
    <timestep time="25.00">
        <vehicle id="r0" x="399.76" y="2.13" z="2.00" angle="89.46" type="0" speed="15.25" pos="399.79" lane="e0_0" slope="0.29"/>
    </timestep>
    <timestep time="26.00">
        <vehicle id="r0" x="415.61" y="2.28" z="2.08" angle="89.46" type="0" speed="15.85" pos="415.64" lane="e0_0" slope="0.29"/>
    </timestep>
    <timestep time="27.00">
        <vehicle id="r0" x="432.05" y="2.43" z="2.16" angle="89.46" type="0" speed="16.44" pos="432.09" lane="e0_0" slope="0.29"/>
    </timestep>
    <timestep time="28.00">
        <vehicle id="r0" x="449.09" y="2.59" z="2.25" angle="89.46" type="0" speed="17.04" pos="449.12" lane="e0_0" slope="0.29"/>
    </timestep>
    <timestep time="29.00">
        <vehicle id="r0" x="466.71" y="2.76" z="2.34" angle="89.46" type="0" speed="17.63" pos="466.75" lane="e0_0" slope="0.29"/>
    </timestep>
    <timestep time="30.00">
        <vehicle id="r0" x="484.93" y="2.93" z="2.43" angle="89.46" type="0" speed="18.22" pos="484.97" lane="e0_0" slope="0.29"/>
    </timestep>
    <timestep time="31.00">
        <vehicle id="r0" x="503.73" y="3.11" z="2.52" angle="89.46" type="0" speed="18.81" pos="503.77" lane="e0_0" slope="0.29"/>
    </timestep>
    <timestep time="32.00">
        <vehicle id="r0" x="523.12" y="3.29" z="2.62" angle="89.46" type="0" speed="19.39" pos="523.16" lane="e0_0" slope="0.29"/>
    </timestep>
    <timestep time="33.00">
        <vehicle id="r0" x="543.10" y="3.48" z="2.72" angle="89.46" type="0" speed="19.98" pos="543.14" lane="e0_0" slope="0.29"/>
    </timestep>
    <timestep time="34.00">
        <vehicle id="r0" x="563.65" y="3.68" z="2.82" angle="89.46" type="0" speed="20.56" pos="563.71" lane="e0_0" slope="0.29"/>
    </timestep>
    <timestep time="35.00">
        <vehicle id="r0" x="584.80" y="3.87" z="2.93" angle="89.46" type="0" speed="21.15" pos="584.85" lane="e0_0" slope="0.29"/>
    </timestep>
    <timestep time="36.00">
        <vehicle id="r0" x="606.52" y="4.08" z="3.03" angle="89.46" type="0" speed="21.73" pos="606.58" lane="e0_0" slope="0.29"/>
    </timestep>
    <timestep time="37.00">
        <vehicle id="r0" x="628.83" y="4.29" z="3.15" angle="89.46" type="0" speed="22.31" pos="628.89" lane="e0_0" slope="0.29"/>
    </timestep>
    <timestep time="38.00">
        <vehicle id="r0" x="651.71" y="4.51" z="3.26" angle="89.46" type="0" speed="22.89" pos="651.77" lane="e0_0" slope="0.29"/>
    </timestep>
    <timestep time="39.00">
        <vehicle id="r0" x="675.17" y="4.73" z="3.38" angle="89.46" type="0" speed="23.46" pos="675.24" lane="e0_0" slope="0.29"/>
    </timestep>
    <timestep time="40.00">
        <vehicle id="r0" x="699.21" y="4.96" z="3.50" angle="89.46" type="0" speed="24.04" pos="699.28" lane="e0_0" slope="0.29"/>
    </timestep>
    <timestep time="41.00">
        <vehicle id="r0" x="723.82" y="5.19" z="3.62" angle="89.46" type="0" speed="24.62" pos="723.89" lane="e0_0" slope="0.29"/>
    </timestep>
    <timestep time="42.00">
        <vehicle id="r0" x="749.01" y="5.43" z="3.75" angle="89.46" type="0" speed="25.19" pos="749.08" lane="e0_0" slope="0.29"/>
    </timestep>
    <timestep time="43.00">
        <vehicle id="r0" x="774.77" y="5.67" z="3.88" angle="89.46" type="0" speed="25.76" pos="774.85" lane="e0_0" slope="0.29"/>
    </timestep>
    <timestep time="44.00">
        <vehicle id="r0" x="801.10" y="5.92" z="4.01" angle="89.46" type="0" speed="26.33" pos="801.18" lane="e0_0" slope="0.29"/>
    </timestep>
    <timestep time="45.00">
        <vehicle id="r0" x="828.00" y="6.17" z="4.14" angle="89.46" type="0" speed="26.90" pos="828.08" lane="e0_0" slope="0.29"/>
    </timestep>
    <timestep time="46.00">
        <vehicle id="r0" x="855.47" y="6.43" z="4.28" angle="89.46" type="0" speed="27.47" pos="855.55" lane="e0_0" slope="0.29"/>
    </timestep>
    <timestep time="47.00">
        <vehicle id="r0" x="883.50" y="6.70" z="4.42" angle="89.46" type="0" speed="28.04" pos="883.59" lane="e0_0" slope="0.29"/>
    </timestep>
    <timestep time="48.00">
        <vehicle id="r0" x="912.09" y="6.97" z="4.56" angle="89.46" type="0" speed="28.60" pos="912.19" lane="e0_0" slope="0.29"/>
    </timestep>
    <timestep time="49.00">
        <vehicle id="r0" x="941.24" y="7.24" z="4.71" angle="89.46" type="0" speed="29.15" pos="941.34" lane="e0_0" slope="0.29"/>
    </timestep>
    <timestep time="50.00">
        <vehicle id="r0" x="970.92" y="7.52" z="4.86" angle="89.46" type="0" speed="29.69" pos="971.02" lane="e0_0" slope="0.29"/>
    </timestep>
    <timestep time="51.00">
        <vehicle id="r0" x="1001.13" y="7.81" z="5.01" angle="89.46" type="0" speed="30.22" pos="1001.24" lane="e0_0" slope="0.29"/>
    </timestep>
    <timestep time="52.00">
        <vehicle id="r0" x="1031.87" y="8.10" z="5.16" angle="89.46" type="0" speed="30.74" pos="1031.97" lane="e0_0" slope="0.29"/>
    </timestep>
    <timestep time="53.00">
        <vehicle id="r0" x="1063.11" y="8.39" z="5.32" angle="89.46" type="0" speed="31.25" pos="1063.22" lane="e0_0" slope="0.29"/>
    </timestep>
    <timestep time="54.00">
        <vehicle id="r0" x="1094.85" y="8.69" z="5.48" angle="89.46" type="0" speed="31.75" pos="1094.97" lane="e0_0" slope="0.29"/>
    </timestep>
    <timestep time="55.00">
        <vehicle id="r0" x="1127.08" y="9.00" z="5.64" angle="89.46" type="0" speed="32.24" pos="1127.20" lane="e0_0" slope="0.29"/>
    </timestep>
    <timestep time="56.00">
        <vehicle id="r0" x="1159.80" y="9.31" z="5.80" angle="89.46" type="0" speed="32.72" pos="1159.92" lane="e0_0" slope="0.29"/>
    </timestep>
    <timestep time="57.00">
        <vehicle id="r0" x="1192.98" y="9.62" z="5.97" angle="89.46" type="0" speed="33.19" pos="1193.11" lane="e0_0" slope="0.29"/>
    </timestep>
    <timestep time="58.00">
        <vehicle id="r0" x="1226.63" y="9.94" z="6.14" angle="89.46" type="0" speed="33.65" pos="1226.76" lane="e0_0" slope="0.29"/>
    </timestep>
    <timestep time="59.00">
        <vehicle id="r0" x="1260.73" y="10.26" z="6.31" angle="89.46" type="0" speed="34.10" pos="1260.86" lane="e0_0" slope="0.29"/>
    </timestep>
    <timestep time="60.00">
        <vehicle id="r0" x="1295.27" y="10.59" z="6.48" angle="89.46" type="0" speed="34.55" pos="1295.41" lane="e0_0" slope="0.29"/>
    </timestep>
    <timestep time="61.00">
        <vehicle id="r0" x="1330.26" y="10.92" z="6.66" angle="89.46" type="0" speed="34.99" pos="1330.40" lane="e0_0" slope="0.29"/>
    </timestep>
    <timestep time="62.00">
        <vehicle id="r0" x="1365.67" y="11.25" z="6.83" angle="89.46" type="0" speed="35.42" pos="1365.82" lane="e0_0" slope="0.29"/>
    </timestep>
    <timestep time="63.00">
        <vehicle id="r0" x="1401.51" y="11.59" z="7.01" angle="89.46" type="0" speed="35.84" pos="1401.67" lane="e0_0" slope="0.29"/>
    </timestep>
    <timestep time="64.00">
        <vehicle id="r0" x="1437.76" y="11.93" z="7.19" angle="89.46" type="0" speed="36.26" pos="1437.92" lane="e0_0" slope="0.29"/>
    </timestep>
    <timestep time="65.00">
        <vehicle id="r0" x="1474.43" y="12.28" z="7.38" angle="89.46" type="0" speed="36.67" pos="1474.59" lane="e0_0" slope="0.29"/>
    </timestep>
    <timestep time="66.00">
        <vehicle id="r0" x="1511.50" y="12.63" z="7.56" angle="89.46" type="0" speed="37.07" pos="1511.67" lane="e0_0" slope="0.29"/>
    </timestep>
    <timestep time="67.00">
        <vehicle id="r0" x="1548.96" y="12.98" z="7.75" angle="89.46" type="0" speed="37.47" pos="1549.14" lane="e0_0" slope="0.29"/>
    </timestep>
    <timestep time="68.00">
        <vehicle id="r0" x="1586.82" y="13.34" z="7.94" angle="89.46" type="0" speed="37.86" pos="1587.00" lane="e0_0" slope="0.29"/>
    </timestep>
    <timestep time="69.00">
        <vehicle id="r0" x="1625.07" y="13.70" z="8.13" angle="89.46" type="0" speed="38.25" pos="1625.25" lane="e0_0" slope="0.29"/>
    </timestep>
    <timestep time="70.00">
        <vehicle id="r0" x="1663.69" y="14.07" z="8.33" angle="89.46" type="0" speed="38.63" pos="1663.88" lane="e0_0" slope="0.29"/>
    </timestep>
    <timestep time="71.00">
        <vehicle id="r0" x="1702.70" y="14.44" z="8.52" angle="89.46" type="0" speed="39.01" pos="1702.89" lane="e0_0" slope="0.29"/>
    </timestep>
    <timestep time="72.00">
        <vehicle id="r0" x="1742.07" y="14.81" z="8.72" angle="89.46" type="0" speed="39.38" pos="1742.27" lane="e0_0" slope="0.29"/>
    </timestep>
    <timestep time="73.00">
        <vehicle id="r0" x="1781.81" y="15.18" z="8.92" angle="89.46" type="0" speed="39.75" pos="1782.01" lane="e0_0" slope="0.29"/>
    </timestep>
    <timestep time="74.00">
        <vehicle id="r0" x="1821.91" y="15.56" z="9.12" angle="89.46" type="0" speed="40.11" pos="1822.12" lane="e0_0" slope="0.29"/>
    </timestep>
    <timestep time="75.00">
        <vehicle id="r0" x="1862.37" y="15.94" z="9.32" angle="89.46" type="0" speed="40.46" pos="1862.58" lane="e0_0" slope="0.29"/>
    </timestep>
    <timestep time="76.00">
        <vehicle id="r0" x="1903.18" y="16.33" z="9.52" angle="89.46" type="0" speed="40.82" pos="1903.40" lane="e0_0" slope="0.29"/>
    </timestep>
    <timestep time="77.00">
        <vehicle id="r0" x="1944.34" y="16.72" z="9.73" angle="89.46" type="0" speed="41.16" pos="1944.56" lane="e0_0" slope="0.29"/>
    </timestep>
    <timestep time="78.00">
        <vehicle id="r0" x="1985.84" y="17.11" z="9.94" angle="89.46" type="0" speed="41.51" pos="1986.07" lane="e0_0" slope="0.29"/>
    </timestep>
    <timestep time="79.00">
        <vehicle id="r0" x="2001.61" y="17.22" z="9.99" angle="89.47" type="0" speed="41.84" pos="29.29" lane="e1_0" slope="-0.29"/>
    </timestep>
    <timestep time="80.00">
        <vehicle id="r0" x="2005.83" y="17.20" z="9.96" angle="89.50" type="0" speed="42.27" pos="71.56" lane="e1_0" slope="-0.29"/>
    </timestep>
    <timestep time="81.00">
        <vehicle id="r0" x="2010.10" y="17.19" z="9.94" angle="89.55" type="0" speed="42.70" pos="114.26" lane="e1_0" slope="-0.29"/>
    </timestep>
    <timestep time="82.00">
        <vehicle id="r0" x="2014.41" y="17.17" z="9.92" angle="89.66" type="0" speed="43.11" pos="157.37" lane="e1_0" slope="-0.29"/>
    </timestep>
    <timestep time="83.00">
        <vehicle id="r0" x="2018.76" y="17.16" z="9.90" angle="90.21" type="0" speed="43.53" pos="200.90" lane="e1_0" slope="-0.29"/>
    </timestep>
    <timestep time="84.00">
        <vehicle id="r0" x="2023.15" y="17.14" z="9.88" angle="90.21" type="0" speed="43.94" pos="244.83" lane="e1_0" slope="-0.29"/>
    </timestep>
    <timestep time="85.00">
        <vehicle id="r0" x="2027.58" y="17.12" z="9.86" angle="90.21" type="0" speed="44.34" pos="289.17" lane="e1_0" slope="-0.29"/>
    </timestep>
    <timestep time="86.00">
        <vehicle id="r0" x="2032.05" y="17.11" z="9.83" angle="90.21" type="0" speed="44.74" pos="333.91" lane="e1_0" slope="-0.29"/>
    </timestep>
    <timestep time="87.00">
        <vehicle id="r0" x="2036.56" y="17.09" z="9.81" angle="90.21" type="0" speed="45.13" pos="379.04" lane="e1_0" slope="-0.29"/>
    </timestep>
    <timestep time="88.00">
        <vehicle id="r0" x="2041.11" y="17.07" z="9.79" angle="90.21" type="0" speed="45.52" pos="424.57" lane="e1_0" slope="-0.29"/>
    </timestep>
    <timestep time="89.00">
        <vehicle id="r0" x="2045.70" y="17.05" z="9.76" angle="90.21" type="0" speed="45.91" pos="470.47" lane="e1_0" slope="-0.29"/>
    </timestep>
    <timestep time="90.00">
        <vehicle id="r0" x="2050.32" y="17.04" z="9.74" angle="90.21" type="0" speed="46.29" pos="516.76" lane="e1_0" slope="-0.29"/>
    </timestep>
    <timestep time="91.00">
        <vehicle id="r0" x="2054.99" y="17.02" z="9.72" angle="90.21" type="0" speed="46.67" pos="563.43" lane="e1_0" slope="-0.29"/>
    </timestep>
    <timestep time="92.00">
        <vehicle id="r0" x="2059.69" y="17.00" z="9.69" angle="90.21" type="0" speed="47.04" pos="610.47" lane="e1_0" slope="-0.29"/>
    </timestep>
    <timestep time="93.00">
        <vehicle id="r0" x="2064.42" y="16.98" z="9.67" angle="90.21" type="0" speed="47.41" pos="657.88" lane="e1_0" slope="-0.29"/>
    </timestep>
    <timestep time="94.00">
        <vehicle id="r0" x="2069.20" y="16.97" z="9.65" angle="90.21" type="0" speed="47.78" pos="705.66" lane="e1_0" slope="-0.29"/>
    </timestep>
    <timestep time="95.00">
        <vehicle id="r0" x="2074.01" y="16.95" z="9.62" angle="90.21" type="0" speed="48.14" pos="753.80" lane="e1_0" slope="-0.29"/>
    </timestep>
    <timestep time="96.00">
        <vehicle id="r0" x="2078.86" y="16.93" z="9.60" angle="90.21" type="0" speed="48.50" pos="802.29" lane="e1_0" slope="-0.29"/>
    </timestep>
    <timestep time="97.00">
        <vehicle id="r0" x="2083.74" y="16.91" z="9.57" angle="90.21" type="0" speed="48.85" pos="851.14" lane="e1_0" slope="-0.29"/>
    </timestep>
    <timestep time="98.00">
        <vehicle id="r0" x="2088.65" y="16.89" z="9.55" angle="90.21" type="0" speed="49.20" pos="900.35" lane="e1_0" slope="-0.29"/>
    </timestep>
    <timestep time="99.00">
        <vehicle id="r0" x="2093.61" y="16.88" z="9.53" angle="90.21" type="0" speed="49.55" pos="949.90" lane="e1_0" slope="-0.29"/>
    </timestep>
    <timestep time="100.00">
        <vehicle id="r0" x="2098.59" y="16.86" z="9.50" angle="90.21" type="0" speed="49.90" pos="999.79" lane="e1_0" slope="-0.29"/>
    </timestep>
    <timestep time="101.00">
        <vehicle id="r0" x="2103.61" y="16.84" z="9.47" angle="90.21" type="0" speed="50.24" pos="1050.03" lane="e1_0" slope="-0.29"/>
    </timestep>
    <timestep time="102.00">
        <vehicle id="r0" x="2108.67" y="16.82" z="9.45" angle="90.21" type="0" speed="50.58" pos="1100.61" lane="e1_0" slope="-0.29"/>
    </timestep>
    <timestep time="103.00">
        <vehicle id="r0" x="2113.76" y="16.80" z="9.42" angle="90.21" type="0" speed="50.91" pos="1151.52" lane="e1_0" slope="-0.29"/>
    </timestep>
    <timestep time="104.00">
        <vehicle id="r0" x="2118.88" y="16.78" z="9.40" angle="90.21" type="0" speed="51.25" pos="1202.77" lane="e1_0" slope="-0.29"/>
    </timestep>
    <timestep time="105.00">
        <vehicle id="r0" x="2124.03" y="16.76" z="9.37" angle="90.21" type="0" speed="51.58" pos="1254.35" lane="e1_0" slope="-0.29"/>
    </timestep>
    <timestep time="106.00">
        <vehicle id="r0" x="2129.22" y="16.74" z="9.35" angle="90.21" type="0" speed="51.90" pos="1306.25" lane="e1_0" slope="-0.29"/>
    </timestep>
    <timestep time="107.00">
        <vehicle id="r0" x="2134.44" y="16.72" z="9.32" angle="90.21" type="0" speed="52.23" pos="1358.48" lane="e1_0" slope="-0.29"/>
    </timestep>
    <timestep time="108.00">
        <vehicle id="r0" x="2139.69" y="16.70" z="9.29" angle="90.21" type="0" speed="52.55" pos="1411.03" lane="e1_0" slope="-0.29"/>
    </timestep>
    <timestep time="109.00">
        <vehicle id="r0" x="2144.97" y="16.68" z="9.27" angle="90.21" type="0" speed="52.87" pos="1463.89" lane="e1_0" slope="-0.29"/>
    </timestep>
    <timestep time="110.00">
        <vehicle id="r0" x="2150.29" y="16.66" z="9.24" angle="90.21" type="0" speed="53.18" pos="1517.08" lane="e1_0" slope="-0.29"/>
    </timestep>
    <timestep time="111.00">
        <vehicle id="r0" x="2155.63" y="16.64" z="9.21" angle="90.21" type="0" speed="53.50" pos="1570.57" lane="e1_0" slope="-0.29"/>
    </timestep>
    <timestep time="112.00">
        <vehicle id="r0" x="2161.01" y="16.62" z="9.19" angle="90.21" type="0" speed="53.81" pos="1624.38" lane="e1_0" slope="-0.29"/>
    </timestep>
    <timestep time="113.00">
        <vehicle id="r0" x="2166.42" y="16.60" z="9.16" angle="90.21" type="0" speed="54.11" pos="1678.49" lane="e1_0" slope="-0.29"/>
    </timestep>
    <timestep time="114.00">
        <vehicle id="r0" x="2171.86" y="16.58" z="9.13" angle="90.21" type="0" speed="54.42" pos="1732.91" lane="e1_0" slope="-0.29"/>
    </timestep>
    <timestep time="115.00">
        <vehicle id="r0" x="2177.32" y="16.56" z="9.11" angle="90.21" type="0" speed="54.72" pos="1787.63" lane="e1_0" slope="-0.29"/>
    </timestep>
    <timestep time="116.00">
        <vehicle id="r0" x="2182.82" y="16.54" z="9.08" angle="90.21" type="0" speed="55.02" pos="1842.65" lane="e1_0" slope="-0.29"/>
    </timestep>
    <timestep time="117.00">
        <vehicle id="r0" x="2188.35" y="16.52" z="9.05" angle="90.21" type="0" speed="55.32" pos="1897.97" lane="e1_0" slope="-0.29"/>
    </timestep>
    <timestep time="118.00">
        <vehicle id="r0" x="2193.91" y="16.50" z="9.02" angle="90.21" type="0" speed="55.61" pos="1953.58" lane="e1_0" slope="-0.29"/>
    </timestep>
    <timestep time="119.00">
        <vehicle id="r0" x="2199.49" y="16.48" z="9.00" angle="90.21" type="0" speed="55.90" pos="2009.48" lane="e1_0" slope="-0.29"/>
    </timestep>
    <timestep time="120.00">
        <vehicle id="r0" x="2205.11" y="16.46" z="8.97" angle="90.21" type="0" speed="56.19" pos="2065.68" lane="e1_0" slope="-0.29"/>
    </timestep>
    <timestep time="121.00">
        <vehicle id="r0" x="2210.75" y="16.44" z="8.94" angle="90.21" type="0" speed="56.48" pos="2122.15" lane="e1_0" slope="-0.29"/>
    </timestep>
    <timestep time="122.00">
        <vehicle id="r0" x="2216.43" y="16.42" z="8.91" angle="90.21" type="0" speed="56.76" pos="2178.92" lane="e1_0" slope="-0.29"/>
    </timestep>
    <timestep time="123.00">
        <vehicle id="r0" x="2222.13" y="16.40" z="8.88" angle="90.21" type="0" speed="57.04" pos="2235.96" lane="e1_0" slope="-0.29"/>
    </timestep>
    <timestep time="124.00">
        <vehicle id="r0" x="2227.86" y="16.37" z="8.85" angle="90.21" type="0" speed="57.32" pos="2293.29" lane="e1_0" slope="-0.29"/>
    </timestep>
    <timestep time="125.00">
        <vehicle id="r0" x="2233.61" y="16.35" z="8.82" angle="90.21" type="0" speed="57.60" pos="2350.89" lane="e1_0" slope="-0.29"/>
    </timestep>
    <timestep time="126.00">
        <vehicle id="r0" x="2239.40" y="16.33" z="8.80" angle="90.21" type="0" speed="57.88" pos="2408.77" lane="e1_0" slope="-0.29"/>
    </timestep>
    <timestep time="127.00">
        <vehicle id="r0" x="2245.21" y="16.31" z="8.77" angle="90.21" type="0" speed="58.15" pos="2466.92" lane="e1_0" slope="-0.29"/>
    </timestep>
    <timestep time="128.00">
        <vehicle id="r0" x="2251.04" y="16.29" z="8.74" angle="90.21" type="0" speed="58.42" pos="2525.34" lane="e1_0" slope="-0.29"/>
    </timestep>
    <timestep time="129.00">
        <vehicle id="r0" x="2256.91" y="16.27" z="8.71" angle="90.21" type="0" speed="58.69" pos="2584.03" lane="e1_0" slope="-0.29"/>
    </timestep>
    <timestep time="130.00">
        <vehicle id="r0" x="2262.80" y="16.24" z="8.68" angle="90.21" type="0" speed="58.96" pos="2642.98" lane="e1_0" slope="-0.29"/>
    </timestep>
    <timestep time="131.00">
        <vehicle id="r0" x="2268.72" y="16.22" z="8.65" angle="90.21" type="0" speed="59.22" pos="2702.20" lane="e1_0" slope="-0.29"/>
    </timestep>
    <timestep time="132.00">
        <vehicle id="r0" x="2274.66" y="16.20" z="8.62" angle="90.21" type="0" speed="59.48" pos="2761.69" lane="e1_0" slope="-0.29"/>
    </timestep>
    <timestep time="133.00">
        <vehicle id="r0" x="2280.63" y="16.18" z="8.59" angle="90.21" type="0" speed="59.74" pos="2821.43" lane="e1_0" slope="-0.29"/>
    </timestep>
    <timestep time="134.00">
        <vehicle id="r0" x="2286.63" y="16.16" z="8.56" angle="90.21" type="0" speed="60.00" pos="2881.43" lane="e1_0" slope="-0.29"/>
    </timestep>
    <timestep time="135.00">
        <vehicle id="r0" x="2292.65" y="16.13" z="8.53" angle="90.21" type="0" speed="60.26" pos="2941.69" lane="e1_0" slope="-0.29"/>
    </timestep>
    <timestep time="136.00">
        <vehicle id="r0" x="2298.70" y="16.11" z="8.50" angle="90.21" type="0" speed="60.51" pos="3002.21" lane="e1_0" slope="-0.29"/>
    </timestep>
    <timestep time="137.00">
        <vehicle id="r0" x="2304.77" y="16.09" z="8.47" angle="90.21" type="0" speed="60.77" pos="3062.97" lane="e1_0" slope="-0.29"/>
    </timestep>
    <timestep time="138.00">
        <vehicle id="r0" x="2310.87" y="16.06" z="8.44" angle="90.21" type="0" speed="61.02" pos="3123.99" lane="e1_0" slope="-0.29"/>
    </timestep>
    <timestep time="139.00">
        <vehicle id="r0" x="2316.99" y="16.04" z="8.41" angle="90.21" type="0" speed="61.27" pos="3185.26" lane="e1_0" slope="-0.29"/>
    </timestep>
    <timestep time="140.00">
        <vehicle id="r0" x="2323.14" y="16.02" z="8.38" angle="90.21" type="0" speed="61.51" pos="3246.77" lane="e1_0" slope="-0.29"/>
    </timestep>
    <timestep time="141.00">
        <vehicle id="r0" x="2329.31" y="16.00" z="8.35" angle="90.21" type="0" speed="61.76" pos="3308.53" lane="e1_0" slope="-0.29"/>
    </timestep>
    <timestep time="142.00">
        <vehicle id="r0" x="2335.51" y="15.97" z="8.31" angle="90.21" type="0" speed="62.00" pos="3370.54" lane="e1_0" slope="-0.29"/>
    </timestep>
    <timestep time="143.00">
        <vehicle id="r0" x="2341.73" y="15.95" z="8.28" angle="90.21" type="0" speed="62.24" pos="3432.78" lane="e1_0" slope="-0.29"/>
    </timestep>
    <timestep time="144.00">
        <vehicle id="r0" x="2347.97" y="15.93" z="8.25" angle="90.21" type="0" speed="62.48" pos="3495.27" lane="e1_0" slope="-0.29"/>
    </timestep>
    <timestep time="145.00">
        <vehicle id="r0" x="2354.24" y="15.90" z="8.22" angle="90.21" type="0" speed="62.72" pos="3557.99" lane="e1_0" slope="-0.29"/>
    </timestep>
    <timestep time="146.00">
        <vehicle id="r0" x="2360.53" y="15.88" z="8.19" angle="90.21" type="0" speed="62.96" pos="3620.95" lane="e1_0" slope="-0.29"/>
    </timestep>
    <timestep time="147.00">
        <vehicle id="r0" x="2366.85" y="15.86" z="8.16" angle="90.21" type="0" speed="63.19" pos="3684.14" lane="e1_0" slope="-0.29"/>
    </timestep>
    <timestep time="148.00">
        <vehicle id="r0" x="2373.19" y="15.83" z="8.13" angle="90.21" type="0" speed="63.43" pos="3747.57" lane="e1_0" slope="-0.29"/>
    </timestep>
    <timestep time="149.00">
        <vehicle id="r0" x="2379.55" y="15.81" z="8.09" angle="90.21" type="0" speed="63.66" pos="3811.23" lane="e1_0" slope="-0.29"/>
    </timestep>
    <timestep time="150.00">
        <vehicle id="r0" x="2385.93" y="15.78" z="8.06" angle="90.21" type="0" speed="63.89" pos="3875.11" lane="e1_0" slope="-0.29"/>
    </timestep>
    <timestep time="151.00">
        <vehicle id="r0" x="2392.34" y="15.76" z="8.03" angle="90.21" type="0" speed="64.11" pos="3939.23" lane="e1_0" slope="-0.29"/>
    </timestep>
    <timestep time="152.00">
        <vehicle id="r0" x="2398.77" y="15.74" z="8.00" angle="90.21" type="0" speed="64.34" pos="4003.57" lane="e1_0" slope="-0.29"/>
    </timestep>
    <timestep time="153.00">
        <vehicle id="r0" x="2405.22" y="15.71" z="7.97" angle="90.21" type="0" speed="64.57" pos="4068.13" lane="e1_0" slope="-0.29"/>
    </timestep>
    <timestep time="154.00">
        <vehicle id="r0" x="2411.70" y="15.69" z="7.93" angle="90.21" type="0" speed="64.79" pos="4132.92" lane="e1_0" slope="-0.29"/>
    </timestep>
    <timestep time="155.00">
        <vehicle id="r0" x="2418.19" y="15.66" z="7.90" angle="90.21" type="0" speed="65.01" pos="4197.93" lane="e1_0" slope="-0.29"/>
    </timestep>
    <timestep time="156.00">
        <vehicle id="r0" x="2424.71" y="15.64" z="7.87" angle="90.21" type="0" speed="65.23" pos="4263.16" lane="e1_0" slope="-0.29"/>
    </timestep>
    <timestep time="157.00">
        <vehicle id="r0" x="2431.25" y="15.62" z="7.84" angle="90.21" type="0" speed="65.45" pos="4328.61" lane="e1_0" slope="-0.29"/>
    </timestep>
    <timestep time="158.00">
        <vehicle id="r0" x="2437.81" y="15.59" z="7.80" angle="90.21" type="0" speed="65.66" pos="4394.27" lane="e1_0" slope="-0.29"/>
    </timestep>
    <timestep time="159.00">
        <vehicle id="r0" x="2444.40" y="15.57" z="7.77" angle="90.21" type="0" speed="65.88" pos="4460.15" lane="e1_0" slope="-0.29"/>
    </timestep>
    <timestep time="160.00">
        <vehicle id="r0" x="2451.00" y="15.54" z="7.74" angle="90.21" type="0" speed="66.09" pos="4526.24" lane="e1_0" slope="-0.29"/>
    </timestep>
    <timestep time="161.00">
        <vehicle id="r0" x="2457.63" y="15.52" z="7.70" angle="90.21" type="0" speed="66.31" pos="4592.55" lane="e1_0" slope="-0.29"/>
    </timestep>
    <timestep time="162.00">