<?xml version="1.0" encoding="UTF-8"?>

<!-- generated on 2026-03-14T17:58:54.747629+01:00 by Eclipse SUMO sumo v1_26_0+0596-598a13ff2c9
This data file and the accompanying materials
are made available under the terms of the Eclipse Public License v2.0
which accompanies this distribution, and is available at
http://www.eclipse.org/legal/epl-v20.html
This file may also be made available under the following Secondary
Licenses when the conditions for such availability set forth in the Eclipse
Public License 2.0 are satisfied: GNU General Public License, version 2
or later which is available at
https://www.gnu.org/licenses/old-licenses/gpl-2.0-standalone.html
SPDX-License-Identifier: EPL-2.0 OR GPL-2.0-or-later
<sumoConfiguration xmlns:xsi="http://www.w3.org/2001/XMLSchema-instance" xsi:noNamespaceSchemaLocation="http://sumo.dlr.de/xsd/sumoConfiguration.xsd">

    <input>
        <net-file value="net.net.xml"/>
        <route-files value="routes.rou.xml"/>
    </input>

    <output>
        <write-license value="true"/>
        <fcd-output value="fcd.xml"/>
        <fcd-output.attributes value="speed,pos,lane"/>
    </output>

    <processing>
        <default.speeddev value="0"/>
    </processing>

    <report>
        <xml-validation value="never"/>
        <no-step-log value="true"/>
    </report>

    <traci_server>
        <remote-port value="45937"/>
    </traci_server>

</sumoConfiguration>
-->

<fcd-export xmlns:xsi="http://www.w3.org/2001/XMLSchema-instance" xsi:noNamespaceSchemaLocation="http://sumo.dlr.de/xsd/fcd_file.xsd">
    <timestep time="0.00">
        <vehicle id="veh0" speed="0.00" pos="5.10" lane="beg_0"/>
    </timestep>
    <timestep time="1.00">
        <vehicle id="veh0" speed="2.60" pos="7.70" lane="beg_0"/>
    </timestep>
    <timestep time="2.00">
        <vehicle id="veh0" speed="5.20" pos="12.90" lane="beg_0"/>
    </timestep>
    <timestep time="3.00">
        <vehicle id="veh0" speed="7.80" pos="20.70" lane="beg_0"/>
    </timestep>
    <timestep time="4.00">
        <vehicle id="veh0" speed="10.00" pos="30.70" lane="beg_0"/>
    </timestep>
    <timestep time="5.00">
        <vehicle id="veh0" speed="10.00" pos="40.70" lane="beg_0"/>
    </timestep>
    <timestep time="6.00">
        <vehicle id="veh0" speed="10.00" pos="50.70" lane="beg_0"/>
    </timestep>
    <timestep time="7.00">
        <vehicle id="veh0" speed="10.00" pos="60.70" lane="beg_0"/>
    </timestep>
    <timestep time="8.00">
        <vehicle id="veh0" speed="10.00" pos="70.70" lane="beg_0"/>
    </timestep>
    <timestep time="9.00">
        <vehicle id="veh0" speed="10.00" pos="80.70" lane="beg_0"/>
    </timestep>
    <timestep time="10.00">
        <vehicle id="veh0" speed="10.00" pos="90.70" lane="beg_0"/>
        <vehicle id="veh1" speed="0.00" pos="5.10" lane="beg_0"/>
    </timestep>
    <timestep time="11.00">
        <vehicle id="veh0" speed="10.00" pos="100.70" lane="beg_0"/>
        <vehicle id="veh1" speed="2.60" pos="7.70" lane="beg_0"/>
    </timestep>
    <timestep time="12.00">
        <vehicle id="veh0" speed="10.00" pos="110.70" lane="beg_0"/>
        <vehicle id="veh1" speed="5.20" pos="12.90" lane="beg_0"/>
    </timestep>
    <timestep time="13.00">
        <vehicle id="veh0" speed="10.00" pos="120.70" lane="beg_0"/>
        <vehicle id="veh1" speed="7.80" pos="20.70" lane="beg_0"/>
    </timestep>
    <timestep time="14.00">
        <vehicle id="veh0" speed="10.00" pos="130.70" lane="beg_0"/>
        <vehicle id="veh1" speed="10.40" pos="31.10" lane="beg_0"/>
    </timestep>
    <timestep time="15.00">
        <vehicle id="veh0" speed="10.00" pos="140.70" lane="beg_0"/>
        <vehicle id="veh1" speed="13.00" pos="44.10" lane="beg_0"/>
    </timestep>
    <timestep time="16.00">
        <vehicle id="veh0" speed="10.00" pos="150.70" lane="beg_0"/>
        <vehicle id="veh1" speed="15.60" pos="59.70" lane="beg_0"/>
    </timestep>
    <timestep time="17.00">
        <vehicle id="veh0" speed="10.00" pos="160.70" lane="beg_0"/>
        <vehicle id="veh1" speed="18.20" pos="77.90" lane="beg_0"/>
    </timestep>
    <timestep time="18.00">
        <vehicle id="veh0" speed="10.00" pos="170.70" lane="beg_0"/>
        <vehicle id="veh1" speed="20.00" pos="97.90" lane="beg_0"/>
    </timestep>
    <timestep time="19.00">
        <vehicle id="veh0" speed="10.00" pos="180.70" lane="beg_0"/>
        <vehicle id="veh1" speed="20.00" pos="117.90" lane="beg_0"/>
    </timestep>
    <timestep time="20.00">
        <vehicle id="veh0" speed="10.00" pos="190.70" lane="beg_0"/>
        <vehicle id="veh1" speed="20.00" pos="137.90" lane="beg_0"/>
    </timestep>
    <timestep time="21.00">
        <vehicle id="veh0" speed="10.00" pos="200.70" lane="beg_0"/>
        <vehicle id="veh1" speed="19.36" pos="157.26" lane="beg_0"/>
    </timestep>
    <timestep time="22.00">
        <vehicle id="veh0" speed="10.00" pos="210.70" lane="beg_0"/>
        <vehicle id="veh1" speed="17.36" pos="174.62" lane="beg_0"/>
    </timestep>
    <timestep time="23.00">
        <vehicle id="veh0" speed="10.00" pos="220.70" lane="beg_0"/>
        <vehicle id="veh1" speed="15.52" pos="190.14" lane="beg_0"/>
    </timestep>
    <timestep time="24.00">
        <vehicle id="veh0" speed="10.00" pos="230.70" lane="beg_0"/>
        <vehicle id="veh1" speed="14.14" pos="204.28" lane="beg_0"/>
    </timestep>
    <timestep time="25.00">
        <vehicle id="veh0" speed="10.00" pos="240.70" lane="beg_0"/>
        <vehicle id="veh1" speed="12.97" pos="217.25" lane="beg_0"/>
    </timestep>
    <timestep time="26.00">
        <vehicle id="veh0" speed="10.00" pos="250.70" lane="beg_0"/>
        <vehicle id="veh1" speed="11.98" pos="229.23" lane="beg_0"/>
    </timestep>
    <timestep time="27.00">
        <vehicle id="veh0" speed="10.00" pos="260.70" lane="beg_0"/>
        <vehicle id="veh1" speed="11.32" pos="240.56" lane="beg_0"/>
    </timestep>
    <timestep time="28.00">
        <vehicle id="veh0" speed="10.00" pos="270.70" lane="beg_0"/>
        <vehicle id="veh1" speed="10.88" pos="251.44" lane="beg_0"/>
    </timestep>
    <timestep time="29.00">
        <vehicle id="veh0" speed="10.00" pos="280.70" lane="beg_0"/>
        <vehicle id="veh1" speed="10.59" pos="262.02" lane="beg_0"/>
    </timestep>
    <timestep time="30.00">
        <vehicle id="veh0" speed="10.00" pos="290.70" lane="beg_0"/>
        <vehicle id="veh1" speed="10.39" pos="272.42" lane="beg_0"/>
    </timestep>
    <timestep time="31.00">
        <vehicle id="veh0" speed="10.00" pos="300.70" lane="beg_0"/>
        <vehicle id="veh1" speed="10.26" pos="282.68" lane="beg_0"/>
    </timestep>
    <timestep time="32.00">
        <vehicle id="veh0" speed="10.00" pos="310.70" lane="beg_0"/>
        <vehicle id="veh1" speed="10.17" pos="292.85" lane="beg_0"/>
    </timestep>
    <timestep time="33.00">
        <vehicle id="veh0" speed="10.00" pos="320.70" lane="beg_0"/>
        <vehicle id="veh1" speed="10.12" pos="302.97" lane="beg_0"/>
    </timestep>
    <timestep time="34.00">
        <vehicle id="veh0" speed="10.00" pos="330.70" lane="beg_0"/>
        <vehicle id="veh1" speed="10.08" pos="313.04" lane="beg_0"/>
    </timestep>
    <timestep time="35.00">
        <vehicle id="veh0" speed="10.00" pos="340.70" lane="beg_0"/>
        <vehicle id="veh1" speed="10.05" pos="323.10" lane="beg_0"/>
    </timestep>
    <timestep time="36.00">
        <vehicle id="veh0" speed="10.00" pos="350.70" lane="beg_0"/>
        <vehicle id="veh1" speed="10.03" pos="333.13" lane="beg_0"/>
    </timestep>
    <timestep time="37.00">
        <vehicle id="veh0" speed="10.00" pos="360.70" lane="beg_0"/>
        <vehicle id="veh1" speed="10.02" pos="343.15" lane="beg_0"/>
    </timestep>
    <timestep time="38.00">
        <vehicle id="veh0" speed="10.00" pos="370.70" lane="beg_0"/>
        <vehicle id="veh1" speed="10.02" pos="353.17" lane="beg_0"/>
    </timestep>
    <timestep time="39.00">
        <vehicle id="veh0" speed="10.00" pos="380.70" lane="beg_0"/>
        <vehicle id="veh1" speed="10.01" pos="363.18" lane="beg_0"/>
    </timestep>
    <timestep time="40.00">
        <vehicle id="veh0" speed="10.00" pos="390.70" lane="beg_0"/>
        <vehicle id="veh1" speed="10.01" pos="373.19" lane="beg_0"/>
    </timestep>
    <timestep time="41.00">
        <vehicle id="veh0" speed="10.00" pos="400.70" lane="beg_0"/>
        <vehicle id="veh1" speed="10.00" pos="383.19" lane="beg_0"/>
    </timestep>
    <timestep time="42.00">
        <vehicle id="veh0" speed="10.00" pos="410.70" lane="beg_0"/>
        <vehicle id="veh1" speed="10.00" pos="393.19" lane="beg_0"/>
    </timestep>
    <timestep time="43.00">
        <vehicle id="veh0" speed="10.00" pos="420.70" lane="beg_0"/>
        <vehicle id="veh1" speed="10.00" pos="403.19" lane="beg_0"/>
    </timestep>
    <timestep time="44.00">
        <vehicle id="veh0" speed="10.00" pos="430.70" lane="beg_0"/>
        <vehicle id="veh1" speed="10.00" pos="413.20" lane="beg_0"/>
    </timestep>
    <timestep time="45.00">
        <vehicle id="veh0" speed="10.00" pos="440.70" lane="beg_0"/>
        <vehicle id="veh1" speed="10.00" pos="423.20" lane="beg_0"/>
    </timestep>
    <timestep time="46.00">
        <vehicle id="veh0" speed="10.00" pos="450.70" lane="beg_0"/>
        <vehicle id="veh1" speed="10.00" pos="433.20" lane="beg_0"/>
    </timestep>
    <timestep time="47.00">
        <vehicle id="veh0" speed="10.00" pos="460.70" lane="beg_0"/>
        <vehicle id="veh1" speed="10.00" pos="443.20" lane="beg_0"/>
    </timestep>
    <timestep time="48.00">
        <vehicle id="veh0" speed="10.00" pos="470.70" lane="beg_0"/>
        <vehicle id="veh1" speed="10.00" pos="453.20" lane="beg_0"/>
    </timestep>
    <timestep time="49.00">
        <vehicle id="veh0" speed="10.00" pos="480.70" lane="beg_0"/>
        <vehicle id="veh1" speed="10.00" pos="463.20" lane="beg_0"/>
    </timestep>
    <timestep time="50.00">
        <vehicle id="veh0" speed="10.00" pos="490.70" lane="beg_0"/>
        <vehicle id="veh1" speed="10.00" pos="473.20" lane="beg_0"/>
    </timestep>
    <timestep time="51.00">
        <vehicle id="veh0" speed="10.00" pos="500.70" lane="beg_0"/>
        <vehicle id="veh1" speed="10.00" pos="483.20" lane="beg_0"/>
    </timestep>
    <timestep time="52.00">
        <vehicle id="veh0" speed="10.00" pos="510.70" lane="beg_0"/>
        <vehicle id="veh1" speed="10.00" pos="493.20" lane="beg_0"/>
    </timestep>
    <timestep time="53.00">
        <vehicle id="veh0" speed="10.00" pos="520.70" lane="beg_0"/>
        <vehicle id="veh1" speed="10.00" pos="503.20" lane="beg_0"/>
    </timestep>
    <timestep time="54.00">
        <vehicle id="veh0" speed="10.00" pos="530.70" lane="beg_0"/>
        <vehicle id="veh1" speed="10.00" pos="513.20" lane="beg_0"/>
    </timestep>
    <timestep time="55.00">
        <vehicle id="veh0" speed="10.00" pos="540.70" lane="beg_0"/>
        <vehicle id="veh1" speed="10.00" pos="523.20" lane="beg_0"/>
    </timestep>
    <timestep time="56.00">
        <vehicle id="veh0" speed="10.00" pos="550.70" lane="beg_0"/>
        <vehicle id="veh1" speed="10.00" pos="533.20" lane="beg_0"/>
    </timestep>
    <timestep time="57.00">
        <vehicle id="veh0" speed="10.00" pos="560.70" lane="beg_0"/>
        <vehicle id="veh1" speed="10.00" pos="543.20" lane="beg_0"/>
    </timestep>
    <timestep time="58.00">
        <vehicle id="veh0" speed="10.00" pos="570.70" lane="beg_0"/>
        <vehicle id="veh1" speed="10.00" pos="553.20" lane="beg_0"/>
    </timestep>
    <timestep time="59.00">
        <vehicle id="veh0" speed="10.00" pos="580.70" lane="beg_0"/>
        <vehicle id="veh1" speed="10.00" pos="563.20" lane="beg_0"/>
    </timestep>
    <timestep time="60.00">
        <vehicle id="veh0" speed="10.00" pos="590.70" lane="beg_0"/>
        <vehicle id="veh1" speed="10.00" pos="573.20" lane="beg_0"/>
    </timestep>
    <timestep time="61.00">
        <vehicle id="veh0" speed="10.00" pos="600.70" lane="beg_0"/>
        <vehicle id="veh1" speed="10.00" pos="583.20" lane="beg_0"/>
    </timestep>
    <timestep time="62.00">
        <vehicle id="veh0" speed="10.00" pos="610.70" lane="beg_0"/>
        <vehicle id="veh1" speed="10.00" pos="593.20" lane="beg_0"/>
    </timestep>
    <timestep time="63.00">
        <vehicle id="veh0" speed="10.00" pos="620.70" lane="beg_0"/>
        <vehicle id="veh1" speed="10.00" pos="603.20" lane="beg_0"/>
    </timestep>
    <timestep time="64.00">
        <vehicle id="veh0" speed="10.00" pos="630.70" lane="beg_0"/>
        <vehicle id="veh1" speed="10.00" pos="613.20" lane="beg_0"/>
    </timestep>
    <timestep time="65.00">
        <vehicle id="veh0" speed="10.00" pos="640.70" lane="beg_0"/>
        <vehicle id="veh1" speed="10.00" pos="623.20" lane="beg_0"/>
    </timestep>
</fcd-export>
