<?xml version="1.0" encoding="UTF-8"?>

<!-- generated on Mon Mar  2 16:42:43 2020 by Eclipse SUMO Version v1_5_0+0328-a8dbe8a
This data file and the accompanying materials
are made available under the terms of the Eclipse Public License v2.0
which accompanies this distribution, and is available at
http://www.eclipse.org/legal/epl-v20.html
SPDX-License-Identifier: EPL-2.0
<configuration xmlns:xsi="http://www.w3.org/2001/XMLSchema-instance" xsi:noNamespaceSchemaLocation="http://sumo.dlr.de/xsd/sumoConfiguration.xsd">

    <input>
        <net-file value="three_split.net.xml"/>
        <additional-files value="input_routes.rou.xml,input_additional2.add.xml"/>
    </input>

    <output>
        <write-license value="true"/>
        <tripinfo-output value="tripinfos.xml"/>
    </output>

    <time>
        <begin value="100"/>
    </time>

    <processing>
        <default.speeddev value="0"/>
    </processing>

    <report>
        <xml-validation value="never"/>
        <duration-log.disable value="true"/>
        <no-step-log value="true"/>
    </report>

</configuration>
-->

<tripinfos xmlns:xsi="http://www.w3.org/2001/XMLSchema-instance" xsi:noNamespaceSchemaLocation="http://sumo.dlr.de/xsd/tripinfo_file.xsd">
    <tripinfo id="5" depart="100.00" departLane="beg_0" departPos="0.00" departSpeed="0.00" departDelay="0.00" arrival="123.00" arrivalLane="middle_0" arrivalPos="4.40" arrivalSpeed="27.80" duration="23.00" routeLength="504.40" waitingTime="0.00" waitingCount="0" stopTime="0.00" timeLoss="4.86" rerouteNo="0" devices="tripinfo_5" vType="DEFAULT_VEHTYPE" speedFactor="1.00" vaporized="vaporizer"/>
    <tripinfo id="6" depart="120.00" departLane="beg_0" departPos="0.00" departSpeed="0.00" departDelay="0.00" arrival="143.00" arrivalLane="middle_0" arrivalPos="4.40" arrivalSpeed="27.80" duration="23.00" routeLength="504.40" waitingTime="0.00" waitingCount="0" stopTime="0.00" timeLoss="4.86" rerouteNo="0" devices="tripinfo_6" vType="DEFAULT_VEHTYPE" speedFactor="1.00" vaporized="vaporizer"/>
    <tripinfo id="7" depart="140.00" departLane="beg_0" departPos="0.00" departSpeed="0.00" departDelay="0.00" arrival="163.00" arrivalLane="middle_0" arrivalPos="4.40" arrivalSpeed="27.80" duration="23.00" routeLength="504.40" waitingTime="0.00" waitingCount="0" stopTime="0.00" timeLoss="4.86" rerouteNo="0" devices="tripinfo_7" vType="DEFAULT_VEHTYPE" speedFactor="1.00" vaporized="vaporizer"/>
    <tripinfo id="8" depart="160.00" departLane="beg_0" departPos="0.00" departSpeed="0.00" departDelay="0.00" arrival="183.00" arrivalLane="middle_0" arrivalPos="4.40" arrivalSpeed="27.80" duration="23.00" routeLength="504.40" waitingTime="0.00" waitingCount="0" stopTime="0.00" timeLoss="4.86" rerouteNo="0" devices="tripinfo_8" vType="DEFAULT_VEHTYPE" speedFactor="1.00" vaporized="vaporizer"/>
    <tripinfo id="9" depart="180.00" departLane="beg_0" departPos="0.00" departSpeed="0.00" departDelay="0.00" arrival="203.00" arrivalLane="middle_0" arrivalPos="4.40" arrivalSpeed="27.80" duration="23.00" routeLength="504.40" waitingTime="0.00" waitingCount="0" stopTime="0.00" timeLoss="4.86" rerouteNo="0" devices="tripinfo_9" vType="DEFAULT_VEHTYPE" speedFactor="1.00" vaporized="vaporizer"/>
</tripinfos>
