<?xml version="1.0"?>

<!-- generated on 07/07/11 07:10:43 by SUMO sumo Version dev-SVN-r10879
<?xml version="1.0" encoding="iso-8859-1"?>

<configuration xmlns:xsi="http://www.w3.org/2001/XMLSchema-instance" xsi:noNamespaceSchemaLocation="http://sumo.sf.net/xsd/sumoConfiguration.xsd">

    <input>
        <net-file value="three_split.net.xml"/>
        <additional-files value="input_routes.rou.xml"/>
    </input>

    <output>
        <tripinfo-output value="tripinfos.xml"/>
    </output>

    <time>
        <begin value="0"/>
    </time>

    <report>
        <no-duration-log value="true"/>
        <no-step-log value="true"/>
    </report>

    <emissions>
        <device.hbefa.probability value="1"/>
    </emissions>

</configuration>
-->

<tripinfos>
    <tripinfo id="HDV_3_1" depart="0.00" departLane="beg_0" departPos="0.00" departSpeed="19.44" departDelay="0.00" arrival="208.00" arrivalLane="rend_0" arrivalPos="9.85" arrivalSpeed="19.44" duration="208.00" routeLength="2991.05" waitSteps="0" rerouteNo="0" devices="tripinfo_HDV_3_1 hbefa_HDV_3_1" vType="HDV_3_1" vaporized="">
        <emissions CO_abs="3.592470" CO2_abs="1690.325537" HC_abs="1.098996" PMx_abs="0.456093" NOx_abs="16.550743" fuel_abs="0.673906"/>
    </tripinfo>
    <tripinfo id="HDV_3_2" depart="20.00" departLane="beg_0" departPos="0.00" departSpeed="19.44" departDelay="0.00" arrival="221.00" arrivalLane="rend_0" arrivalPos="17.30" arrivalSpeed="19.44" duration="201.00" routeLength="2998.50" waitSteps="0" rerouteNo="0" devices="tripinfo_HDV_3_2 hbefa_HDV_3_2" vType="HDV_3_2" vaporized="">
        <emissions CO_abs="6.726061" CO2_abs="2863.188700" HC_abs="2.073364" PMx_abs="1.228248" NOx_abs="35.106208" fuel_abs="1.141510"/>
    </tripinfo>
    <tripinfo id="HDV_3_3" depart="40.00" departLane="beg_0" departPos="0.00" departSpeed="19.44" departDelay="0.00" arrival="244.00" arrivalLane="rend_0" arrivalPos="10.04" arrivalSpeed="19.44" duration="204.00" routeLength="2991.24" waitSteps="0" rerouteNo="0" devices="tripinfo_HDV_3_3 hbefa_HDV_3_3" vType="HDV_3_3" vaporized="">
        <emissions CO_abs="4.554773" CO2_abs="2979.503998" HC_abs="1.338343" PMx_abs="0.540644" NOx_abs="27.123547" fuel_abs="1.176591"/>
    </tripinfo>
    <tripinfo id="HDV_6_1" depart="100.00" departLane="beg_0" departPos="0.00" departSpeed="19.44" departDelay="0.00" arrival="308.00" arrivalLane="rend_0" arrivalPos="9.85" arrivalSpeed="19.44" duration="208.00" routeLength="2991.05" waitSteps="0" rerouteNo="0" devices="tripinfo_HDV_6_1 hbefa_HDV_6_1" vType="HDV_6_1" vaporized="">
        <emissions CO_abs="3.399909" CO2_abs="1627.610560" HC_abs="1.003309" PMx_abs="0.389127" NOx_abs="15.807087" fuel_abs="0.648903"/>
    </tripinfo>
    <tripinfo id="HDV_6_2" depart="120.00" departLane="beg_0" departPos="0.00" departSpeed="19.44" departDelay="0.00" arrival="321.00" arrivalLane="rend_0" arrivalPos="17.30" arrivalSpeed="19.44" duration="201.00" routeLength="2998.50" waitSteps="0" rerouteNo="0" devices="tripinfo_HDV_6_2 hbefa_HDV_6_2" vType="HDV_6_2" vaporized="">
        <emissions CO_abs="4.179806" CO2_abs="2944.163592" HC_abs="1.240590" PMx_abs="0.432478" NOx_abs="25.016260" fuel_abs="1.173791"/>
    </tripinfo>
    <tripinfo id="HDV_6_3" depart="140.00" departLane="beg_0" departPos="0.00" departSpeed="19.44" departDelay="0.00" arrival="344.00" arrivalLane="rend_0" arrivalPos="10.04" arrivalSpeed="19.44" duration="204.00" routeLength="2991.24" waitSteps="0" rerouteNo="0" devices="tripinfo_HDV_6_3 hbefa_HDV_6_3" vType="HDV_6_3" vaporized="">
        <emissions CO_abs="5.480046" CO2_abs="2866.893011" HC_abs="1.387764" PMx_abs="0.731084" NOx_abs="29.077143" fuel_abs="1.100255"/>
    </tripinfo>
    <tripinfo id="HDV_6_4" depart="160.00" departLane="beg_0" departPos="0.00" departSpeed="19.44" departDelay="0.00" arrival="363.00" arrivalLane="rend_0" arrivalPos="12.59" arrivalSpeed="19.44" duration="203.00" routeLength="2993.79" waitSteps="0" rerouteNo="0" devices="tripinfo_HDV_6_4 hbefa_HDV_6_4" vType="HDV_6_4" vaporized="">
        <emissions CO_abs="6.424719" CO2_abs="3193.062045" HC_abs="1.795353" PMx_abs="1.318396" NOx_abs="42.223411" fuel_abs="1.273025"/>
    </tripinfo>
    <tripinfo id="HDV_6_5" depart="180.00" departLane="beg_0" departPos="0.00" departSpeed="19.44" departDelay="0.00" arrival="383.00" arrivalLane="rend_0" arrivalPos="17.22" arrivalSpeed="19.44" duration="203.00" routeLength="2998.42" waitSteps="0" rerouteNo="0" devices="tripinfo_HDV_6_5 hbefa_HDV_6_5" vType="HDV_6_5" vaporized="">
        <emissions CO_abs="5.408499" CO2_abs="3193.559040" HC_abs="2.136566" PMx_abs="1.170759" NOx_abs="41.700778" fuel_abs="1.221122"/>
    </tripinfo>
    <tripinfo id="HDV_6_6" depart="200.00" departLane="beg_0" departPos="0.00" departSpeed="19.44" departDelay="0.00" arrival="403.00" arrivalLane="rend_0" arrivalPos="12.59" arrivalSpeed="19.44" duration="203.00" routeLength="2993.79" waitSteps="0" rerouteNo="0" devices="tripinfo_HDV_6_6 hbefa_HDV_6_6" vType="HDV_6_6" vaporized="">
        <emissions CO_abs="6.413791" CO2_abs="2490.292871" HC_abs="2.132519" PMx_abs="1.089829" NOx_abs="27.690932" fuel_abs="0.992842"/>
    </tripinfo>
    <tripinfo id="HDV_12_1" depart="300.00" departLane="beg_0" departPos="0.00" departSpeed="19.44" departDelay="0.00" arrival="508.00" arrivalLane="rend_0" arrivalPos="9.85" arrivalSpeed="19.44" duration="208.00" routeLength="2991.05" waitSteps="0" rerouteNo="0" devices="tripinfo_HDV_12_1 hbefa_HDV_12_1" vType="HDV_12_1" vaporized="">
        <emissions CO_abs="3.271416" CO2_abs="1766.124768" HC_abs="0.808620" PMx_abs="0.351730" NOx_abs="18.541177" fuel_abs="0.704126"/>
    </tripinfo>
    <tripinfo id="HDV_12_2" depart="320.00" departLane="beg_0" departPos="0.00" departSpeed="19.44" departDelay="0.00" arrival="521.00" arrivalLane="rend_0" arrivalPos="17.30" arrivalSpeed="19.44" duration="201.00" routeLength="2998.50" waitSteps="0" rerouteNo="0" devices="tripinfo_HDV_12_2 hbefa_HDV_12_2" vType="HDV_12_2" vaporized="">
        <emissions CO_abs="2.236929" CO2_abs="1148.562166" HC_abs="0.588089" PMx_abs="0.297760" NOx_abs="11.576180" fuel_abs="0.457913"/>
    </tripinfo>
    <tripinfo id="HDV_12_3" depart="340.00" departLane="beg_0" departPos="0.00" departSpeed="19.44" departDelay="0.00" arrival="544.00" arrivalLane="rend_0" arrivalPos="10.04" arrivalSpeed="19.44" duration="204.00" routeLength="2991.24" waitSteps="0" rerouteNo="0" devices="tripinfo_HDV_12_3 hbefa_HDV_12_3" vType="HDV_12_3" vaporized="">
        <emissions CO_abs="4.602650" CO2_abs="2067.250575" HC_abs="1.619688" PMx_abs="0.849299" NOx_abs="20.953523" fuel_abs="0.824180"/>
    </tripinfo>
    <tripinfo id="HDV_12_4" depart="360.00" departLane="beg_0" departPos="0.00" departSpeed="19.44" departDelay="0.00" arrival="563.00" arrivalLane="rend_0" arrivalPos="12.59" arrivalSpeed="19.44" duration="203.00" routeLength="2993.79" waitSteps="0" rerouteNo="0" devices="tripinfo_HDV_12_4 hbefa_HDV_12_4" vType="HDV_12_4" vaporized="">
        <emissions CO_abs="6.561855" CO2_abs="3320.261912" HC_abs="1.831337" PMx_abs="1.358510" NOx_abs="43.923907" fuel_abs="1.323738"/>
    </tripinfo>
    <tripinfo id="HDV_12_5" depart="380.00" departLane="beg_0" departPos="0.00" departSpeed="19.44" departDelay="0.00" arrival="583.00" arrivalLane="rend_0" arrivalPos="17.22" arrivalSpeed="19.44" duration="203.00" routeLength="2998.42" waitSteps="0" rerouteNo="0" devices="tripinfo_HDV_12_5 hbefa_HDV_12_5" vType="HDV_12_5" vaporized="">
        <emissions CO_abs="4.217247" CO2_abs="2865.736798" HC_abs="1.231518" PMx_abs="0.488639" NOx_abs="31.862799" fuel_abs="1.142524"/>
    </tripinfo>
    <tripinfo id="HDV_12_6" depart="400.00" departLane="beg_0" departPos="0.00" departSpeed="19.44" departDelay="0.00" arrival="603.00" arrivalLane="rend_0" arrivalPos="12.59" arrivalSpeed="19.44" duration="203.00" routeLength="2993.79" waitSteps="0" rerouteNo="0" devices="tripinfo_HDV_12_6 hbefa_HDV_12_6" vType="HDV_12_6" vaporized="">
        <emissions CO_abs="6.120995" CO2_abs="3082.855166" HC_abs="2.133046" PMx_abs="1.217713" NOx_abs="30.898067" fuel_abs="1.229088"/>
    </tripinfo>
    <tripinfo id="HDV_12_7" depart="420.00" departLane="beg_0" departPos="0.00" departSpeed="19.44" departDelay="0.00" arrival="623.00" arrivalLane="rend_0" arrivalPos="17.22" arrivalSpeed="19.44" duration="203.00" routeLength="2998.42" waitSteps="0" rerouteNo="0" devices="tripinfo_HDV_12_7 hbefa_HDV_12_7" vType="HDV_12_7" vaporized="">
        <emissions CO_abs="5.743343" CO2_abs="1347.229845" HC_abs="2.200927" PMx_abs="0.814678" NOx_abs="18.353023" fuel_abs="0.537116"/>
    </tripinfo>
    <tripinfo id="HDV_12_8" depart="440.00" departLane="beg_0" departPos="0.00" departSpeed="19.44" departDelay="0.00" arrival="643.00" arrivalLane="rend_0" arrivalPos="12.59" arrivalSpeed="19.44" duration="203.00" routeLength="2993.79" waitSteps="0" rerouteNo="0" devices="tripinfo_HDV_12_8 hbefa_HDV_12_8" vType="HDV_12_8" vaporized="">
        <emissions CO_abs="8.800861" CO2_abs="2121.062834" HC_abs="2.678454" PMx_abs="1.175463" NOx_abs="30.908756" fuel_abs="0.845636"/>
    </tripinfo>
    <tripinfo id="HDV_12_9" depart="460.00" departLane="beg_0" departPos="0.00" departSpeed="19.44" departDelay="0.00" arrival="663.00" arrivalLane="rend_0" arrivalPos="17.22" arrivalSpeed="19.44" duration="203.00" routeLength="2998.42" waitSteps="0" rerouteNo="0" devices="tripinfo_HDV_12_9 hbefa_HDV_12_9" vType="HDV_12_9" vaporized="">
        <emissions CO_abs="5.408499" CO2_abs="3193.559040" HC_abs="2.136566" PMx_abs="1.170759" NOx_abs="41.700778" fuel_abs="1.221122"/>
    </tripinfo>
    <tripinfo id="HDV_12_10" depart="480.00" departLane="beg_0" departPos="0.00" departSpeed="19.44" departDelay="0.00" arrival="683.00" arrivalLane="rend_0" arrivalPos="12.59" arrivalSpeed="19.44" duration="203.00" routeLength="2993.79" waitSteps="0" rerouteNo="0" devices="tripinfo_HDV_12_10 hbefa_HDV_12_10" vType="HDV_12_10" vaporized="">
        <emissions CO_abs="4.281886" CO2_abs="3033.573734" HC_abs="1.264252" PMx_abs="0.399096" NOx_abs="20.456472" fuel_abs="1.209436"/>
    </tripinfo>
    <tripinfo id="HDV_12_11" depart="500.00" departLane="beg_0" departPos="0.00" departSpeed="19.44" departDelay="0.00" arrival="703.00" arrivalLane="rend_0" arrivalPos="17.22" arrivalSpeed="19.44" duration="203.00" routeLength="2998.42" waitSteps="0" rerouteNo="0" devices="tripinfo_HDV_12_11 hbefa_HDV_12_11" vType="HDV_12_11" vaporized="">
        <emissions CO_abs="5.431404" CO2_abs="2837.794811" HC_abs="1.381159" PMx_abs="0.725439" NOx_abs="28.813717" fuel_abs="1.089012"/>
    </tripinfo>
    <tripinfo id="HDV_12_12" depart="520.00" departLane="beg_0" departPos="0.00" departSpeed="19.44" departDelay="0.00" arrival="723.00" arrivalLane="rend_0" arrivalPos="12.59" arrivalSpeed="19.44" duration="203.00" routeLength="2993.79" waitSteps="0" rerouteNo="0" devices="tripinfo_HDV_12_12 hbefa_HDV_12_12" vType="HDV_12_12" vaporized="">
        <emissions CO_abs="4.293713" CO2_abs="2347.191755" HC_abs="1.240773" PMx_abs="0.446413" NOx_abs="20.344166" fuel_abs="0.935789"/>
    </tripinfo>
    <tripinfo id="P_7_1" depart="600.00" departLane="beg_0" departPos="0.00" departSpeed="19.44" departDelay="0.00" arrival="808.00" arrivalLane="rend_0" arrivalPos="9.85" arrivalSpeed="19.44" duration="208.00" routeLength="2991.05" waitSteps="0" rerouteNo="0" devices="tripinfo_P_7_1 hbefa_P_7_1" vType="P_7_1" vaporized="">
        <emissions CO_abs="10.710580" CO2_abs="729.991875" HC_abs="4.560966" PMx_abs="0" NOx_abs="8.381511" fuel_abs="0.291040"/>
    </tripinfo>
    <tripinfo id="P_7_2" depart="620.00" departLane="beg_0" departPos="0.00" departSpeed="19.44" departDelay="0.00" arrival="821.00" arrivalLane="rend_0" arrivalPos="17.30" arrivalSpeed="19.44" duration="201.00" routeLength="2998.50" waitSteps="0" rerouteNo="0" devices="tripinfo_P_7_2 hbefa_P_7_2" vType="P_7_2" vaporized="">
        <emissions CO_abs="8.980216" CO2_abs="773.461269" HC_abs="0.350999" PMx_abs="0" NOx_abs="3.281590" fuel_abs="0.308372"/>
    </tripinfo>
    <tripinfo id="P_7_3" depart="640.00" departLane="beg_0" departPos="0.00" departSpeed="19.44" departDelay="0.00" arrival="844.00" arrivalLane="rend_0" arrivalPos="10.04" arrivalSpeed="19.44" duration="204.00" routeLength="2991.24" waitSteps="0" rerouteNo="0" devices="tripinfo_P_7_3 hbefa_P_7_3" vType="P_7_3" vaporized="">
        <emissions CO_abs="7.480714" CO2_abs="610.350217" HC_abs="1.149681" PMx_abs="0" NOx_abs="2.294426" fuel_abs="0.242965"/>
    </tripinfo>
    <tripinfo id="P_7_4" depart="660.00" departLane="beg_0" departPos="0.00" departSpeed="19.44" departDelay="0.00" arrival="863.00" arrivalLane="rend_0" arrivalPos="12.59" arrivalSpeed="19.44" duration="203.00" routeLength="2993.79" waitSteps="0" rerouteNo="0" devices="tripinfo_P_7_4 hbefa_P_7_4" vType="P_7_4" vaporized="">
        <emissions CO_abs="22.269148" CO2_abs="666.021673" HC_abs="4.255312" PMx_abs="0" NOx_abs="7.191908" fuel_abs="0.265529"/>
    </tripinfo>
    <tripinfo id="P_7_5" depart="680.00" departLane="beg_0" departPos="0.00" departSpeed="19.44" departDelay="0.00" arrival="883.00" arrivalLane="rend_0" arrivalPos="17.22" arrivalSpeed="19.44" duration="203.00" routeLength="2998.42" waitSteps="0" rerouteNo="0" devices="tripinfo_P_7_5 hbefa_P_7_5" vType="P_7_5" vaporized="">
        <emissions CO_abs="0.997300" CO2_abs="609.104245" HC_abs="0.147448" PMx_abs="0.189749" NOx_abs="1.577408" fuel_abs="0.242842"/>
    </tripinfo>
    <tripinfo id="P_7_6" depart="700.00" departLane="beg_0" departPos="0.00" departSpeed="19.44" departDelay="0.00" arrival="903.00" arrivalLane="rend_0" arrivalPos="12.59" arrivalSpeed="19.44" duration="203.00" routeLength="2993.79" waitSteps="0" rerouteNo="0" devices="tripinfo_P_7_6 hbefa_P_7_6" vType="P_7_6" vaporized="">
        <emissions CO_abs="1.041798" CO2_abs="796.898637" HC_abs="0.197213" PMx_abs="0.257094" NOx_abs="2.419558" fuel_abs="0.317708"/>
    </tripinfo>
    <tripinfo id="P_7_7" depart="720.00" departLane="beg_0" departPos="0.00" departSpeed="19.44" departDelay="0.00" arrival="923.00" arrivalLane="rend_0" arrivalPos="17.22" arrivalSpeed="19.44" duration="203.00" routeLength="2998.42" waitSteps="0" rerouteNo="0" devices="tripinfo_P_7_7 hbefa_P_7_7" vType="P_7_7" vaporized="">
        <emissions CO_abs="1.410319" CO2_abs="493.276372" HC_abs="0.089631" PMx_abs="0.037308" NOx_abs="0.878782" fuel_abs="0.196662"/>
    </tripinfo>
    <tripinfo id="P_14_1" depart="800.00" departLane="beg_0" departPos="0.00" departSpeed="19.44" departDelay="0.00" arrival="1008.00" arrivalLane="rend_0" arrivalPos="9.85" arrivalSpeed="19.44" duration="208.00" routeLength="2991.05" waitSteps="0" rerouteNo="0" devices="tripinfo_P_14_1 hbefa_P_14_1" vType="P_14_1" vaporized="">
        <emissions CO_abs="7.664551" CO2_abs="732.603381" HC_abs="0.103260" PMx_abs="0" NOx_abs="2.839828" fuel_abs="0.292082"/>
    </tripinfo>
    <tripinfo id="P_14_2" depart="820.00" departLane="beg_0" departPos="0.00" departSpeed="19.44" departDelay="0.00" arrival="1021.00" arrivalLane="rend_0" arrivalPos="17.30" arrivalSpeed="19.44" duration="201.00" routeLength="2998.50" waitSteps="0" rerouteNo="0" devices="tripinfo_P_14_2 hbefa_P_14_2" vType="P_14_2" vaporized="">
        <emissions CO_abs="13.555660" CO2_abs="725.533616" HC_abs="4.422436" PMx_abs="0" NOx_abs="8.420987" fuel_abs="0.289262"/>
    </tripinfo>
    <tripinfo id="P_14_3" depart="840.00" departLane="beg_0" departPos="0.00" departSpeed="19.44" departDelay="0.00" arrival="1044.00" arrivalLane="rend_0" arrivalPos="10.04" arrivalSpeed="19.44" duration="204.00" routeLength="2991.24" waitSteps="0" rerouteNo="0" devices="tripinfo_P_14_3 hbefa_P_14_3" vType="P_14_3" vaporized="">
        <emissions CO_abs="9.324910" CO2_abs="817.809038" HC_abs="0.581711" PMx_abs="0" NOx_abs="3.610563" fuel_abs="0.326052"/>
    </tripinfo>
    <tripinfo id="P_14_4" depart="860.00" departLane="beg_0" departPos="0.00" departSpeed="19.44" departDelay="0.00" arrival="1063.00" arrivalLane="rend_0" arrivalPos="12.59" arrivalSpeed="19.44" duration="203.00" routeLength="2993.79" waitSteps="0" rerouteNo="0" devices="tripinfo_P_14_4 hbefa_P_14_4" vType="P_14_4" vaporized="">
        <emissions CO_abs="0.990775" CO2_abs="548.208579" HC_abs="0.213232" PMx_abs="0.109697" NOx_abs="1.796850" fuel_abs="0.218564"/>
    </tripinfo>
    <tripinfo id="P_14_5" depart="880.00" departLane="beg_0" departPos="0.00" departSpeed="19.44" departDelay="0.00" arrival="1083.00" arrivalLane="rend_0" arrivalPos="17.22" arrivalSpeed="19.44" duration="203.00" routeLength="2998.42" waitSteps="0" rerouteNo="0" devices="tripinfo_P_14_5 hbefa_P_14_5" vType="P_14_5" vaporized="">
        <emissions CO_abs="0.384844" CO2_abs="794.766991" HC_abs="0.102550" PMx_abs="0.092437" NOx_abs="1.396766" fuel_abs="0.316858"/>
    </tripinfo>
    <tripinfo id="P_14_6" depart="900.00" departLane="beg_0" departPos="0.00" departSpeed="19.44" departDelay="0.00" arrival="1103.00" arrivalLane="rend_0" arrivalPos="12.59" arrivalSpeed="19.44" duration="203.00" routeLength="2993.79" waitSteps="0" rerouteNo="0" devices="tripinfo_P_14_6 hbefa_P_14_6" vType="P_14_6" vaporized="">
        <emissions CO_abs="1.250551" CO2_abs="796.898637" HC_abs="0.224379" PMx_abs="0.301508" NOx_abs="2.628595" fuel_abs="0.317708"/>
    </tripinfo>
    <tripinfo id="P_14_7" depart="920.00" departLane="beg_0" departPos="0.00" departSpeed="19.44" departDelay="0.00" arrival="1123.00" arrivalLane="rend_0" arrivalPos="17.22" arrivalSpeed="19.44" duration="203.00" routeLength="2998.42" waitSteps="0" rerouteNo="0" devices="tripinfo_P_14_7 hbefa_P_14_7" vType="P_14_7" vaporized="">
        <emissions CO_abs="5.309369" CO2_abs="615.346493" HC_abs="0.491410" PMx_abs="0" NOx_abs="1.495716" fuel_abs="0.245329"/>
    </tripinfo>
    <tripinfo id="P_14_8" depart="940.00" departLane="beg_0" departPos="0.00" departSpeed="19.44" departDelay="0.00" arrival="1143.00" arrivalLane="rend_0" arrivalPos="12.59" arrivalSpeed="19.44" duration="203.00" routeLength="2993.79" waitSteps="0" rerouteNo="0" devices="tripinfo_P_14_8 hbefa_P_14_8" vType="P_14_8" vaporized="">
        <emissions CO_abs="0.409067" CO2_abs="403.058647" HC_abs="0.077139" PMx_abs="0.075578" NOx_abs="1.229547" fuel_abs="0.160694"/>
    </tripinfo>
    <tripinfo id="P_14_9" depart="960.00" departLane="beg_0" departPos="0.00" departSpeed="19.44" departDelay="0.00" arrival="1163.00" arrivalLane="rend_0" arrivalPos="17.22" arrivalSpeed="19.44" duration="203.00" routeLength="2998.42" waitSteps="0" rerouteNo="0" devices="tripinfo_P_14_9 hbefa_P_14_9" vType="P_14_9" vaporized="">
        <emissions CO_abs="2.614628" CO2_abs="495.686185" HC_abs="0.078791" PMx_abs="0" NOx_abs="0.341403" fuel_abs="0.197624"/>
    </tripinfo>
    <tripinfo id="P_14_10" depart="980.00" departLane="beg_0" departPos="0.00" departSpeed="19.44" departDelay="0.00" arrival="1183.00" arrivalLane="rend_0" arrivalPos="12.59" arrivalSpeed="19.44" duration="203.00" routeLength="2993.79" waitSteps="0" rerouteNo="0" devices="tripinfo_P_14_10 hbefa_P_14_10" vType="P_14_10" vaporized="">
        <emissions CO_abs="1.158673" CO2_abs="563.942306" HC_abs="0.161426" PMx_abs="0.222399" NOx_abs="1.724011" fuel_abs="0.224837"/>
    </tripinfo>
    <tripinfo id="P_14_11" depart="1000.00" departLane="beg_0" departPos="0.00" departSpeed="19.44" departDelay="0.00" arrival="1203.00" arrivalLane="rend_0" arrivalPos="17.22" arrivalSpeed="19.44" duration="203.00" routeLength="2998.42" waitSteps="0" rerouteNo="0" devices="tripinfo_P_14_11 hbefa_P_14_11" vType="P_14_11" vaporized="">
        <emissions CO_abs="12.465665" CO2_abs="533.565415" HC_abs="3.360541" PMx_abs="0" NOx_abs="4.715601" fuel_abs="0.211226"/>
    </tripinfo>
    <tripinfo id="P_14_12" depart="1020.00" departLane="beg_0" departPos="0.00" departSpeed="19.44" departDelay="0.00" arrival="1223.00" arrivalLane="rend_0" arrivalPos="12.59" arrivalSpeed="19.44" duration="203.00" routeLength="2993.79" waitSteps="0" rerouteNo="0" devices="tripinfo_P_14_12 hbefa_P_14_12" vType="P_14_12" vaporized="">
        <emissions CO_abs="22.269148" CO2_abs="666.021673" HC_abs="4.255312" PMx_abs="0" NOx_abs="7.191908" fuel_abs="0.265529"/>
    </tripinfo>
    <tripinfo id="P_14_13" depart="1040.00" departLane="beg_0" departPos="0.00" departSpeed="19.44" departDelay="0.00" arrival="1243.00" arrivalLane="rend_0" arrivalPos="17.22" arrivalSpeed="19.44" duration="203.00" routeLength="2998.42" waitSteps="0" rerouteNo="0" devices="tripinfo_P_14_13 hbefa_P_14_13" vType="P_14_13" vaporized="">
        <emissions CO_abs="1.886814" CO2_abs="676.180001" HC_abs="0.023312" PMx_abs="0" NOx_abs="0.471363" fuel_abs="0.269580"/>
    </tripinfo>
    <tripinfo id="P_14_14" depart="1060.00" departLane="beg_0" departPos="0.00" departSpeed="19.44" departDelay="0.00" arrival="1263.00" arrivalLane="rend_0" arrivalPos="12.59" arrivalSpeed="19.44" duration="203.00" routeLength="2993.79" waitSteps="0" rerouteNo="0" devices="tripinfo_P_14_14 hbefa_P_14_14" vType="P_14_14" vaporized="">
        <emissions CO_abs="4.596259" CO2_abs="595.840430" HC_abs="0.218417" PMx_abs="0" NOx_abs="1.489292" fuel_abs="0.237552"/>
    </tripinfo>
</tripinfos>
