<?xml version="1.0" encoding="UTF-8"?>

<!-- generated on Wed Nov 19 14:51:45 2014 by SUMO Version dev-SVN-r17349I
<?xml version="1.0" encoding="UTF-8"?>

<configuration xmlns:xsi="http://www.w3.org/2001/XMLSchema-instance" xsi:noNamespaceSchemaLocation="http://sumo.dlr.de/xsd/sumoConfiguration.xsd">

    <input>
        <net-file value="net.net.xml"/>
        <route-files value="input_routes.rou.xml"/>
        <additional-files value="edgedata.add.xml"/>
    </input>

    <output>
        <save-state.prefix value="state"/>
    </output>

    <emissions>
        <phemlight-path value="./PHEMlight/"/>
    </emissions>

</configuration>
-->

<meandata xmlns:xsi="http://www.w3.org/2001/XMLSchema-instance" xsi:noNamespaceSchemaLocation="http://sumo.dlr.de/xsd/meandata_file.xsd">
    <interval begin="0.00" end="10.00" id="ed">
        <edge id="2o" sampledSeconds="0.00" traveltime="450.00" speed="11.11" departed="0" arrived="0" entered="0" left="0" laneChangedFrom="0" laneChangedTo="0"/>
    </interval>
</meandata>
