<?xml version="1.0"?>

<!-- generated on 02/19/10 11:09:34 by SUMO sumo Version dev-SVN-r8292
<configuration>

    <input>
        <net-file value="three_split.net.xml"/>
        <additional-files value="input_routes.rou.xml,input_additional.add.xml"/>
    </input>

    <output>
        <vehroute-output value="vehroutes.xml"/>
    </output>

    <time>
        <begin value="0"/>
    </time>

    <report>
        <no-duration-log value="true"/>
        <no-step-log value="true"/>
    </report>

</configuration>
-->

<routes>
    <vehicle id="0.0" depart="0" arrival="188.00">
        <replacedRoute replacedOnEdge="beg" replacedAtTime="0.00" edges="beg middle end rend"/>
        <route edges="beg beg2left left left2end end rend"/>
   </vehicle>

    <vehicle id="0.1" depart="20" arrival="208.00">
        <replacedRoute replacedOnEdge="beg" replacedAtTime="20.00" edges="beg middle end rend"/>
        <route edges="beg beg2left left left2end end rend"/>
   </vehicle>

    <vehicle id="0.2" depart="40" arrival="228.00">
        <replacedRoute replacedOnEdge="beg" replacedAtTime="40.00" edges="beg middle end rend"/>
        <route edges="beg beg2left left left2end end rend"/>
   </vehicle>

    <vehicle id="0.3" depart="60" arrival="248.00">
        <replacedRoute replacedOnEdge="beg" replacedAtTime="60.00" edges="beg middle end rend"/>
        <route edges="beg beg2left left left2end end rend"/>
   </vehicle>

    <vehicle id="0.4" depart="80" arrival="268.00">
        <replacedRoute replacedOnEdge="beg" replacedAtTime="80.00" edges="beg middle end rend"/>
        <route edges="beg beg2left left left2end end rend"/>
   </vehicle>

    <vehicle id="0.5" depart="100" arrival="288.00">
        <replacedRoute replacedOnEdge="beg" replacedAtTime="100.00" edges="beg middle end rend"/>
        <route edges="beg beg2left left left2end end rend"/>
   </vehicle>

    <vehicle id="0.6" depart="120" arrival="308.00">
        <replacedRoute replacedOnEdge="beg" replacedAtTime="120.00" edges="beg middle end rend"/>
        <route edges="beg beg2left left left2end end rend"/>
   </vehicle>

    <vehicle id="0.7" depart="140" arrival="328.00">
        <replacedRoute replacedOnEdge="beg" replacedAtTime="140.00" edges="beg middle end rend"/>
        <route edges="beg beg2left left left2end end rend"/>
   </vehicle>

    <vehicle id="0.8" depart="160" arrival="348.00">
        <replacedRoute replacedOnEdge="beg" replacedAtTime="160.00" edges="beg middle end rend"/>
        <route edges="beg beg2left left left2end end rend"/>
   </vehicle>

    <vehicle id="0.9" depart="180" arrival="368.00">
        <replacedRoute replacedOnEdge="beg" replacedAtTime="180.00" edges="beg middle end rend"/>
        <route edges="beg beg2left left left2end end rend"/>
   </vehicle>

    <vehicle id="0.10" depart="200" arrival="388.00">
        <replacedRoute replacedOnEdge="beg" replacedAtTime="200.00" edges="beg middle end rend"/>
        <route edges="beg beg2left left left2end end rend"/>
   </vehicle>

</routes>
