<?xml version="1.0" encoding="UTF-8"?>

<!-- generated on 2022-12-13 09:07:01 by Eclipse SUMO sumo Version v1_15_0+0967-5e29905
This data file and the accompanying materials
are made available under the terms of the Eclipse Public License v2.0
which accompanies this distribution, and is available at
http://www.eclipse.org/legal/epl-v20.html
This file may also be made available under the following Secondary
Licenses when the conditions for such availability set forth in the Eclipse
Public License 2.0 are satisfied: GNU General Public License, version 2
or later which is available at
https://www.gnu.org/licenses/old-licenses/gpl-2.0-standalone.html
SPDX-License-Identifier: EPL-2.0 OR GPL-2.0-or-later
<configuration xmlns:xsi="http://www.w3.org/2001/XMLSchema-instance" xsi:noNamespaceSchemaLocation="http://sumo.dlr.de/xsd/sumoConfiguration.xsd">

    <input>
        <net-file value="net.net.xml"/>
        <route-files value="input_routes.rou.xml"/>
    </input>

    <output>
        <write-license value="true"/>
        <tripinfo-output value="tripinfos.xml"/>
    </output>

    <time>
        <step-length value="0.1"/>
    </time>

    <processing>
        <lateral-resolution value="0.25"/>
        <default.speeddev value="0"/>
    </processing>

    <report>
        <xml-validation value="never"/>
        <no-step-log value="true"/>
    </report>

</configuration>
-->

<tripinfos xmlns:xsi="http://www.w3.org/2001/XMLSchema-instance" xsi:noNamespaceSchemaLocation="http://sumo.dlr.de/xsd/tripinfo_file.xsd">
    <tripinfo id="EN_passenger" depart="0.00" departLane="EW11_1" departPos="463.94" departPosLat="0.15" departSpeed="0.00" departDelay="0.00" arrival="21.70" arrivalLane="SN2_2" arrivalPos="132.64" arrivalPosLat="0.70" arrivalSpeed="15.39" duration="21.70" routeLength="161.22" waitingTime="3.00" waitingCount="2" stopTime="0.00" timeLoss="11.23" rerouteNo="0" devices="tripinfo_EN_passenger" vType="passenger_bike_box_straightright" speedFactor="1.11" vaporized=""/>
    <tripinfo id="EW_bike" depart="0.00" departLane="EW11_1" departPos="463.94" departPosLat="-1.17" departSpeed="0.00" departDelay="0.00" arrival="39.40" arrivalLane="EW2_1" arrivalPos="144.56" arrivalPosLat="-0.17" arrivalSpeed="5.72" duration="39.40" routeLength="192.88" waitingTime="0.00" waitingCount="0" stopTime="0.00" timeLoss="5.67" rerouteNo="0" devices="tripinfo_EW_bike" vType="bicycle" speedFactor="0.95" vaporized=""/>
</tripinfos>
