<?xml version="1.0" encoding="UTF-8"?>

<!-- generated on 2026-01-22T16:25:20.973748+01:00 by Eclipse SUMO sumo v1_25_0+1143-5cfd67bbee0
This data file and the accompanying materials
are made available under the terms of the Eclipse Public License v2.0
which accompanies this distribution, and is available at
http://www.eclipse.org/legal/epl-v20.html
This file may also be made available under the following Secondary
Licenses when the conditions for such availability set forth in the Eclipse
Public License 2.0 are satisfied: GNU General Public License, version 2
or later which is available at
https://www.gnu.org/licenses/old-licenses/gpl-2.0-standalone.html
SPDX-License-Identifier: EPL-2.0 OR GPL-2.0-or-later
<sumoConfiguration xmlns:xsi="http://www.w3.org/2001/XMLSchema-instance" xsi:noNamespaceSchemaLocation="http://sumo.dlr.de/xsd/sumoConfiguration.xsd">

    <input>
        <net-file value="net.net.xml"/>
        <route-files value="input_routes.rou.xml"/>
    </input>

    <output>
        <write-license value="true"/>
        <tripinfo-output value="tripinfos.xml"/>
    </output>

    <processing>
        <default.speeddev value="0"/>
    </processing>

    <report>
        <xml-validation value="never"/>
        <no-step-log value="true"/>
    </report>

</sumoConfiguration>
-->

<tripinfos xmlns:xsi="http://www.w3.org/2001/XMLSchema-instance" xsi:noNamespaceSchemaLocation="http://sumo.dlr.de/xsd/tripinfo_file.xsd">
    <tripinfo id="blocker" depart="0.00" departLane="SC_0" departPos="94.30" departSpeed="0.00" departDelay="0.00" arrival="113.00" arrivalLane="CN_1" arrivalPos="98.50" arrivalSpeed="13.89" duration="113.00" routeLength="105.70" waitingTime="0.00" waitingCount="0" stopTime="100.00" timeLoss="0.00" rerouteNo="0" devices="tripinfo_blocker" vType="t" speedFactor="1.00" vaporized=""/>
    <tripinfo id="ego" depart="0.00" departLane="WC_0" departPos="48.50" departSpeed="0.00" departDelay="0.00" arrival="115.00" arrivalLane="CN_1" arrivalPos="98.50" arrivalSpeed="13.89" duration="115.00" routeLength="153.50" waitingTime="98.00" waitingCount="1" stopTime="0.00" timeLoss="103.60" rerouteNo="0" devices="tripinfo_ego" vType="t" speedFactor="1.00" vaporized=""/>
</tripinfos>
