<?xml version="1.0" encoding="UTF-8"?>

<!-- generated on Sun May 19 07:57:29 2013 by SUMO sumo Version dev-SVN-r13798
<?xml version="1.0" encoding="UTF-8"?>

<configuration xmlns:xsi="http://www.w3.org/2001/XMLSchema-instance" xsi:noNamespaceSchemaLocation="http://sumo.sf.net/xsd/sumoConfiguration.xsd">

    <input>
        <net-file value="net.net.xml"/>
        <route-files value="input_routes.rou.xml"/>
        <additional-files value="input_additional.add.xml"/>
    </input>

    <time>
        <begin value="0"/>
        <end value="10000"/>
    </time>

    <report>
        <no-duration-log value="true"/>
        <no-step-log value="true"/>
    </report>

</configuration>
-->

<meandata xmlns:xsi="http://www.w3.org/2001/XMLSchema-instance" xsi:noNamespaceSchemaLocation="http://sumo.sf.net/xsd/meandata_file.xsd">
    <interval begin="0.00" end="60.00" id="dump_60">
        <edge id="1/1to2/1" sampledSeconds="888.83" traveltime="55.97" density="15.12" occupancy="7.56" waitingTime="0.00" speed="17.51" departed="30" arrived="0" entered="0" left="3" laneChangedFrom="0" laneChangedTo="0"/>
        <edge id="2/1to3/1" sampledSeconds="11.47" traveltime="50.00" density="0.20" occupancy="0.10" waitingTime="0.00" speed="19.60" departed="0" arrived="0" entered="3" left="0" laneChangedFrom="0" laneChangedTo="0"/>
    </interval>
    <interval begin="60.00" end="120.00" id="dump_60">
        <edge id="1/1to2/1" sampledSeconds="1598.33" traveltime="53.28" density="27.18" occupancy="13.59" waitingTime="0.00" speed="18.39" departed="30" arrived="0" entered="0" left="30" laneChangedFrom="0" laneChangedTo="0"/>
        <edge id="2/1to3/1" sampledSeconds="1036.12" traveltime="50.00" density="17.62" occupancy="8.81" waitingTime="0.00" speed="19.60" departed="0" arrived="0" entered="30" left="8" laneChangedFrom="0" laneChangedTo="0"/>
        <edge id="3/1to4/1" sampledSeconds="69.37" traveltime="50.00" density="1.18" occupancy="0.59" waitingTime="0.00" speed="19.60" departed="0" arrived="0" entered="8" left="0" laneChangedFrom="0" laneChangedTo="0"/>
    </interval>
    <interval begin="120.00" end="180.00" id="dump_60">
        <edge id="1/1to2/1" sampledSeconds="1598.33" traveltime="53.28" density="27.18" occupancy="13.59" waitingTime="0.00" speed="18.39" departed="30" arrived="0" entered="0" left="30" laneChangedFrom="0" laneChangedTo="0"/>
        <edge id="2/1to3/1" sampledSeconds="1507.56" traveltime="50.00" density="25.64" occupancy="12.82" waitingTime="0.00" speed="19.60" departed="0" arrived="0" entered="30" left="30" laneChangedFrom="0" laneChangedTo="0"/>
        <edge id="3/1to4/1" sampledSeconds="1225.69" traveltime="50.00" density="20.85" occupancy="10.42" waitingTime="0.00" speed="19.60" departed="0" arrived="0" entered="30" left="13" laneChangedFrom="0" laneChangedTo="0"/>
        <edge id="4/1to5/1" sampledSeconds="175.76" traveltime="50.00" density="2.99" occupancy="1.49" waitingTime="0.00" speed="19.60" departed="0" arrived="0" entered="13" left="0" laneChangedFrom="0" laneChangedTo="0"/>
    </interval>
    <interval begin="180.00" end="240.00" id="dump_60">
        <edge id="1/1to2/1" sampledSeconds="1598.33" traveltime="53.28" density="27.18" occupancy="13.59" waitingTime="0.00" speed="18.39" departed="30" arrived="0" entered="0" left="30" laneChangedFrom="0" laneChangedTo="0"/>
        <edge id="2/1to3/1" sampledSeconds="1507.56" traveltime="50.00" density="25.64" occupancy="12.82" waitingTime="0.00" speed="19.60" departed="0" arrived="0" entered="30" left="30" laneChangedFrom="0" laneChangedTo="0"/>
        <edge id="3/1to4/1" sampledSeconds="1507.56" traveltime="50.00" density="25.64" occupancy="12.82" waitingTime="0.00" speed="19.60" departed="0" arrived="0" entered="30" left="30" laneChangedFrom="0" laneChangedTo="0"/>
        <edge id="4/1to5/1" sampledSeconds="1366.78" traveltime="50.00" density="23.25" occupancy="11.62" waitingTime="0.00" speed="19.60" departed="0" arrived="0" entered="30" left="18" laneChangedFrom="0" laneChangedTo="0"/>
        <edge id="5/1to6/1" sampledSeconds="330.63" traveltime="50.00" density="5.62" occupancy="2.81" waitingTime="0.00" speed="19.60" departed="0" arrived="0" entered="18" left="0" laneChangedFrom="0" laneChangedTo="0"/>
    </interval>
    <interval begin="240.00" end="300.00" id="dump_60">
        <edge id="1/1to2/1" sampledSeconds="1598.33" traveltime="53.28" density="27.18" occupancy="13.59" waitingTime="0.00" speed="18.39" departed="30" arrived="0" entered="0" left="30" laneChangedFrom="0" laneChangedTo="0"/>
        <edge id="2/1to3/1" sampledSeconds="1507.56" traveltime="50.00" density="25.64" occupancy="12.82" waitingTime="0.00" speed="19.60" departed="0" arrived="0" entered="30" left="30" laneChangedFrom="0" laneChangedTo="0"/>
        <edge id="3/1to4/1" sampledSeconds="1507.56" traveltime="50.00" density="25.64" occupancy="12.82" waitingTime="0.00" speed="19.60" departed="0" arrived="0" entered="30" left="30" laneChangedFrom="0" laneChangedTo="0"/>
        <edge id="4/1to5/1" sampledSeconds="1507.56" traveltime="50.00" density="25.64" occupancy="12.82" waitingTime="0.00" speed="19.60" departed="0" arrived="0" entered="30" left="30" laneChangedFrom="0" laneChangedTo="0"/>
        <edge id="5/1to6/1" sampledSeconds="1459.38" traveltime="50.00" density="24.82" occupancy="12.41" waitingTime="0.00" speed="19.60" departed="0" arrived="0" entered="30" left="23" laneChangedFrom="0" laneChangedTo="0"/>
        <edge id="6/1to7/1" sampledSeconds="533.99" traveltime="50.00" density="9.08" occupancy="4.54" waitingTime="0.00" speed="19.60" departed="0" arrived="0" entered="23" left="0" laneChangedFrom="0" laneChangedTo="0"/>
    </interval>
    <interval begin="300.00" end="360.00" id="dump_60">
        <edge id="1/1to2/1" sampledSeconds="1598.33" traveltime="53.28" density="27.18" occupancy="13.59" waitingTime="0.00" speed="18.39" departed="30" arrived="0" entered="0" left="30" laneChangedFrom="0" laneChangedTo="0"/>
        <edge id="2/1to3/1" sampledSeconds="1507.56" traveltime="50.00" density="25.64" occupancy="12.82" waitingTime="0.00" speed="19.60" departed="0" arrived="0" entered="30" left="30" laneChangedFrom="0" laneChangedTo="0"/>
        <edge id="3/1to4/1" sampledSeconds="1507.56" traveltime="50.00" density="25.64" occupancy="12.82" waitingTime="0.00" speed="19.60" departed="0" arrived="0" entered="30" left="30" laneChangedFrom="0" laneChangedTo="0"/>
        <edge id="4/1to5/1" sampledSeconds="1507.56" traveltime="50.00" density="25.64" occupancy="12.82" waitingTime="0.00" speed="19.60" departed="0" arrived="0" entered="30" left="30" laneChangedFrom="0" laneChangedTo="0"/>
        <edge id="5/1to6/1" sampledSeconds="1507.56" traveltime="50.00" density="25.64" occupancy="12.82" waitingTime="0.00" speed="19.60" departed="0" arrived="0" entered="30" left="30" laneChangedFrom="0" laneChangedTo="0"/>
        <edge id="6/1to7/1" sampledSeconds="1503.49" traveltime="50.00" density="25.57" occupancy="12.79" waitingTime="0.00" speed="19.60" departed="0" arrived="0" entered="30" left="28" laneChangedFrom="0" laneChangedTo="0"/>
        <edge id="7/1to8/1" sampledSeconds="777.39" traveltime="50.00" density="13.22" occupancy="6.61" waitingTime="0.00" speed="19.60" departed="0" arrived="0" entered="28" left="3" laneChangedFrom="0" laneChangedTo="0"/>
        <edge id="8/1to9/1" sampledSeconds="8.74" traveltime="50.00" density="0.15" occupancy="0.07" waitingTime="0.00" speed="19.60" departed="0" arrived="0" entered="3" left="0" laneChangedFrom="0" laneChangedTo="0"/>
    </interval>
    <interval begin="360.00" end="420.00" id="dump_60">
        <edge id="1/1to2/1" sampledSeconds="1598.33" traveltime="53.28" density="27.18" occupancy="13.59" waitingTime="0.00" speed="18.39" departed="30" arrived="0" entered="0" left="30" laneChangedFrom="0" laneChangedTo="0"/>
        <edge id="2/1to3/1" sampledSeconds="1507.56" traveltime="50.00" density="25.64" occupancy="12.82" waitingTime="0.00" speed="19.60" departed="0" arrived="0" entered="30" left="30" laneChangedFrom="0" laneChangedTo="0"/>
        <edge id="3/1to4/1" sampledSeconds="1507.56" traveltime="50.00" density="25.64" occupancy="12.82" waitingTime="0.00" speed="19.60" departed="0" arrived="0" entered="30" left="30" laneChangedFrom="0" laneChangedTo="0"/>
        <edge id="4/1to5/1" sampledSeconds="1507.56" traveltime="50.00" density="25.64" occupancy="12.82" waitingTime="0.00" speed="19.60" departed="0" arrived="0" entered="30" left="30" laneChangedFrom="0" laneChangedTo="0"/>
        <edge id="5/1to6/1" sampledSeconds="1507.56" traveltime="50.00" density="25.64" occupancy="12.82" waitingTime="0.00" speed="19.60" departed="0" arrived="0" entered="30" left="30" laneChangedFrom="0" laneChangedTo="0"/>
        <edge id="6/1to7/1" sampledSeconds="1507.56" traveltime="50.00" density="25.64" occupancy="12.82" waitingTime="0.00" speed="19.60" departed="0" arrived="0" entered="30" left="30" laneChangedFrom="0" laneChangedTo="0"/>
        <edge id="7/1to8/1" sampledSeconds="1507.56" traveltime="50.00" density="25.64" occupancy="12.82" waitingTime="0.00" speed="19.60" departed="0" arrived="0" entered="30" left="30" laneChangedFrom="0" laneChangedTo="0"/>
        <edge id="8/1to9/1" sampledSeconds="1016.12" traveltime="50.00" density="17.28" occupancy="8.64" waitingTime="0.00" speed="19.60" departed="0" arrived="0" entered="30" left="8" laneChangedFrom="0" laneChangedTo="0"/>
        <edge id="9/1to10/1" sampledSeconds="62.10" traveltime="50.00" density="1.06" occupancy="0.53" waitingTime="0.00" speed="19.60" departed="0" arrived="0" entered="8" left="0" laneChangedFrom="0" laneChangedTo="0"/>
    </interval>
    <interval begin="420.00" end="480.00" id="dump_60">
        <edge id="1/1to2/1" sampledSeconds="1598.33" traveltime="53.28" density="27.18" occupancy="13.59" waitingTime="0.00" speed="18.39" departed="30" arrived="0" entered="0" left="30" laneChangedFrom="0" laneChangedTo="0"/>
        <edge id="10/1to1/1" sampledSeconds="163.94" traveltime="51.91" density="2.79" occupancy="1.39" waitingTime="0.00" speed="18.88" departed="0" arrived="0" entered="13" left="0" laneChangedFrom="0" laneChangedTo="0"/>
        <edge id="2/1to3/1" sampledSeconds="1507.56" traveltime="50.00" density="25.64" occupancy="12.82" waitingTime="0.00" speed="19.60" departed="0" arrived="0" entered="30" left="30" laneChangedFrom="0" laneChangedTo="0"/>
        <edge id="3/1to4/1" sampledSeconds="1507.56" traveltime="50.00" density="25.64" occupancy="12.82" waitingTime="0.00" speed="19.60" departed="0" arrived="0" entered="30" left="30" laneChangedFrom="0" laneChangedTo="0"/>
        <edge id="4/1to5/1" sampledSeconds="1507.56" traveltime="50.00" density="25.64" occupancy="12.82" waitingTime="0.00" speed="19.60" departed="0" arrived="0" entered="30" left="30" laneChangedFrom="0" laneChangedTo="0"/>
        <edge id="5/1to6/1" sampledSeconds="1507.56" traveltime="50.00" density="25.64" occupancy="12.82" waitingTime="0.00" speed="19.60" departed="0" arrived="0" entered="30" left="30" laneChangedFrom="0" laneChangedTo="0"/>
        <edge id="6/1to7/1" sampledSeconds="1507.56" traveltime="50.00" density="25.64" occupancy="12.82" waitingTime="0.00" speed="19.60" departed="0" arrived="0" entered="30" left="30" laneChangedFrom="0" laneChangedTo="0"/>
        <edge id="7/1to8/1" sampledSeconds="1507.56" traveltime="50.00" density="25.64" occupancy="12.82" waitingTime="0.00" speed="19.60" departed="0" arrived="0" entered="30" left="30" laneChangedFrom="0" laneChangedTo="0"/>
        <edge id="8/1to9/1" sampledSeconds="1507.56" traveltime="50.00" density="25.64" occupancy="12.82" waitingTime="0.00" speed="19.60" departed="0" arrived="0" entered="30" left="30" laneChangedFrom="0" laneChangedTo="0"/>
        <edge id="9/1to10/1" sampledSeconds="1210.23" traveltime="50.00" density="20.58" occupancy="10.29" waitingTime="0.00" speed="19.60" departed="0" arrived="0" entered="30" left="13" laneChangedFrom="0" laneChangedTo="0"/>
    </interval>
    <interval begin="480.00" end="540.00" id="dump_60">
        <edge id="1/1to2/1" sampledSeconds="1596.01" traveltime="53.21" density="27.14" occupancy="13.57" waitingTime="0.00" speed="18.42" departed="28" arrived="0" entered="1" left="30" laneChangedFrom="0" laneChangedTo="0"/>
        <edge id="10/1to1/1" sampledSeconds="1666.87" traveltime="69.56" density="28.35" occupancy="14.17" waitingTime="0.00" speed="14.09" departed="0" arrived="0" entered="30" left="1" laneChangedFrom="0" laneChangedTo="0"/>
        <edge id="2/1to3/1" sampledSeconds="1507.56" traveltime="50.00" density="25.64" occupancy="12.82" waitingTime="0.00" speed="19.60" departed="0" arrived="0" entered="30" left="30" laneChangedFrom="0" laneChangedTo="0"/>
        <edge id="3/1to4/1" sampledSeconds="1507.56" traveltime="50.00" density="25.64" occupancy="12.82" waitingTime="0.00" speed="19.60" departed="0" arrived="0" entered="30" left="30" laneChangedFrom="0" laneChangedTo="0"/>
        <edge id="4/1to5/1" sampledSeconds="1507.56" traveltime="50.00" density="25.64" occupancy="12.82" waitingTime="0.00" speed="19.60" departed="0" arrived="0" entered="30" left="30" laneChangedFrom="0" laneChangedTo="0"/>
        <edge id="5/1to6/1" sampledSeconds="1507.56" traveltime="50.00" density="25.64" occupancy="12.82" waitingTime="0.00" speed="19.60" departed="0" arrived="0" entered="30" left="30" laneChangedFrom="0" laneChangedTo="0"/>
        <edge id="6/1to7/1" sampledSeconds="1507.56" traveltime="50.00" density="25.64" occupancy="12.82" waitingTime="0.00" speed="19.60" departed="0" arrived="0" entered="30" left="30" laneChangedFrom="0" laneChangedTo="0"/>
        <edge id="7/1to8/1" sampledSeconds="1507.56" traveltime="50.00" density="25.64" occupancy="12.82" waitingTime="0.00" speed="19.60" departed="0" arrived="0" entered="30" left="30" laneChangedFrom="0" laneChangedTo="0"/>
        <edge id="8/1to9/1" sampledSeconds="1507.56" traveltime="50.00" density="25.64" occupancy="12.82" waitingTime="0.00" speed="19.60" departed="0" arrived="0" entered="30" left="30" laneChangedFrom="0" laneChangedTo="0"/>
        <edge id="9/1to10/1" sampledSeconds="1507.56" traveltime="50.00" density="25.64" occupancy="12.82" waitingTime="0.00" speed="19.60" departed="0" arrived="0" entered="30" left="30" laneChangedFrom="0" laneChangedTo="0"/>
    </interval>
    <interval begin="540.00" end="600.00" id="dump_60">
        <edge id="1/1to2/1" sampledSeconds="1911.86" traveltime="50.04" density="32.52" occupancy="16.26" waitingTime="0.00" speed="19.58" departed="0" arrived="0" entered="43" left="33" laneChangedFrom="0" laneChangedTo="0"/>
        <edge id="10/1to1/1" sampledSeconds="2129.66" traveltime="65.44" density="36.22" occupancy="18.11" waitingTime="0.00" speed="14.97" departed="0" arrived="0" entered="30" left="43" laneChangedFrom="0" laneChangedTo="0"/>
        <edge id="2/1to3/1" sampledSeconds="1517.37" traveltime="50.00" density="25.81" occupancy="12.90" waitingTime="0.00" speed="19.60" departed="0" arrived="0" entered="33" left="30" laneChangedFrom="0" laneChangedTo="0"/>
        <edge id="3/1to4/1" sampledSeconds="1507.56" traveltime="50.00" density="25.64" occupancy="12.82" waitingTime="0.00" speed="19.60" departed="0" arrived="0" entered="30" left="30" laneChangedFrom="0" laneChangedTo="0"/>
        <edge id="4/1to5/1" sampledSeconds="1507.56" traveltime="50.00" density="25.64" occupancy="12.82" waitingTime="0.00" speed="19.60" departed="0" arrived="0" entered="30" left="30" laneChangedFrom="0" laneChangedTo="0"/>
        <edge id="5/1to6/1" sampledSeconds="1507.56" traveltime="50.00" density="25.64" occupancy="12.82" waitingTime="0.00" speed="19.60" departed="0" arrived="0" entered="30" left="30" laneChangedFrom="0" laneChangedTo="0"/>
        <edge id="6/1to7/1" sampledSeconds="1507.56" traveltime="50.00" density="25.64" occupancy="12.82" waitingTime="0.00" speed="19.60" departed="0" arrived="0" entered="30" left="30" laneChangedFrom="0" laneChangedTo="0"/>
        <edge id="7/1to8/1" sampledSeconds="1507.56" traveltime="50.00" density="25.64" occupancy="12.82" waitingTime="0.00" speed="19.60" departed="0" arrived="0" entered="30" left="30" laneChangedFrom="0" laneChangedTo="0"/>
        <edge id="8/1to9/1" sampledSeconds="1507.56" traveltime="50.00" density="25.64" occupancy="12.82" waitingTime="0.00" speed="19.60" departed="0" arrived="0" entered="30" left="30" laneChangedFrom="0" laneChangedTo="0"/>
        <edge id="9/1to10/1" sampledSeconds="1507.56" traveltime="50.00" density="25.64" occupancy="12.82" waitingTime="0.00" speed="19.60" departed="0" arrived="0" entered="30" left="30" laneChangedFrom="0" laneChangedTo="0"/>
    </interval>
    <interval begin="600.00" end="660.00" id="dump_60">
        <edge id="1/1to2/1" sampledSeconds="1952.92" traveltime="50.00" density="33.22" occupancy="16.61" waitingTime="0.00" speed="19.60" departed="0" arrived="0" entered="34" left="43" laneChangedFrom="0" laneChangedTo="0"/>
        <edge id="10/1to1/1" sampledSeconds="1551.95" traveltime="50.00" density="26.40" occupancy="13.20" waitingTime="0.00" speed="19.60" departed="0" arrived="0" entered="30" left="34" laneChangedFrom="0" laneChangedTo="0"/>
        <edge id="2/1to3/1" sampledSeconds="2012.51" traveltime="50.00" density="34.23" occupancy="17.11" waitingTime="0.00" speed="19.60" departed="0" arrived="0" entered="43" left="35" laneChangedFrom="0" laneChangedTo="0"/>
        <edge id="3/1to4/1" sampledSeconds="1549.69" traveltime="50.00" density="26.36" occupancy="13.18" waitingTime="0.00" speed="19.60" departed="0" arrived="0" entered="35" left="30" laneChangedFrom="0" laneChangedTo="0"/>
        <edge id="4/1to5/1" sampledSeconds="1507.56" traveltime="50.00" density="25.64" occupancy="12.82" waitingTime="0.00" speed="19.60" departed="0" arrived="0" entered="30" left="30" laneChangedFrom="0" laneChangedTo="0"/>
        <edge id="5/1to6/1" sampledSeconds="1507.56" traveltime="50.00" density="25.64" occupancy="12.82" waitingTime="0.00" speed="19.60" departed="0" arrived="0" entered="30" left="30" laneChangedFrom="0" laneChangedTo="0"/>
        <edge id="6/1to7/1" sampledSeconds="1507.56" traveltime="50.00" density="25.64" occupancy="12.82" waitingTime="0.00" speed="19.60" departed="0" arrived="0" entered="30" left="30" laneChangedFrom="0" laneChangedTo="0"/>
        <edge id="7/1to8/1" sampledSeconds="1507.56" traveltime="50.00" density="25.64" occupancy="12.82" waitingTime="0.00" speed="19.60" departed="0" arrived="0" entered="30" left="30" laneChangedFrom="0" laneChangedTo="0"/>
        <edge id="8/1to9/1" sampledSeconds="1507.56" traveltime="50.00" density="25.64" occupancy="12.82" waitingTime="0.00" speed="19.60" departed="0" arrived="0" entered="30" left="30" laneChangedFrom="0" laneChangedTo="0"/>
        <edge id="9/1to10/1" sampledSeconds="1507.56" traveltime="50.00" density="25.64" occupancy="12.82" waitingTime="0.00" speed="19.60" departed="0" arrived="0" entered="30" left="30" laneChangedFrom="0" laneChangedTo="0"/>
    </interval>
    <interval begin="660.00" end="720.00" id="dump_60">
        <edge id="1/1to2/1" sampledSeconds="1525.06" traveltime="50.00" density="25.94" occupancy="12.97" waitingTime="0.00" speed="19.60" departed="0" arrived="0" entered="30" left="32" laneChangedFrom="0" laneChangedTo="0"/>
        <edge id="10/1to1/1" sampledSeconds="1507.56" traveltime="50.00" density="25.64" occupancy="12.82" waitingTime="0.00" speed="19.60" departed="0" arrived="0" entered="30" left="30" laneChangedFrom="0" laneChangedTo="0"/>
        <edge id="2/1to3/1" sampledSeconds="1854.80" traveltime="50.00" density="31.55" occupancy="15.77" waitingTime="0.00" speed="19.60" departed="0" arrived="0" entered="32" left="42" laneChangedFrom="0" laneChangedTo="0"/>
        <edge id="3/1to4/1" sampledSeconds="2082.13" traveltime="50.00" density="35.41" occupancy="17.71" waitingTime="0.00" speed="19.60" departed="0" arrived="0" entered="42" left="37" laneChangedFrom="0" laneChangedTo="0"/>
        <edge id="4/1to5/1" sampledSeconds="1604.91" traveltime="50.00" density="27.30" occupancy="13.65" waitingTime="0.00" speed="19.60" departed="0" arrived="0" entered="37" left="30" laneChangedFrom="0" laneChangedTo="0"/>
        <edge id="5/1to6/1" sampledSeconds="1507.56" traveltime="50.00" density="25.64" occupancy="12.82" waitingTime="0.00" speed="19.60" departed="0" arrived="0" entered="30" left="30" laneChangedFrom="0" laneChangedTo="0"/>
        <edge id="6/1to7/1" sampledSeconds="1507.56" traveltime="50.00" density="25.64" occupancy="12.82" waitingTime="0.00" speed="19.60" departed="0" arrived="0" entered="30" left="30" laneChangedFrom="0" laneChangedTo="0"/>
        <edge id="7/1to8/1" sampledSeconds="1507.56" traveltime="50.00" density="25.64" occupancy="12.82" waitingTime="0.00" speed="19.60" departed="0" arrived="0" entered="30" left="30" laneChangedFrom="0" laneChangedTo="0"/>
        <edge id="8/1to9/1" sampledSeconds="1507.56" traveltime="50.00" density="25.64" occupancy="12.82" waitingTime="0.00" speed="19.60" departed="0" arrived="0" entered="30" left="30" laneChangedFrom="0" laneChangedTo="0"/>
        <edge id="9/1to10/1" sampledSeconds="1507.56" traveltime="50.00" density="25.64" occupancy="12.82" waitingTime="0.00" speed="19.60" departed="0" arrived="0" entered="30" left="30" laneChangedFrom="0" laneChangedTo="0"/>
    </interval>
    <interval begin="720.00" end="780.00" id="dump_60">
        <edge id="1/1to2/1" sampledSeconds="1507.56" traveltime="50.00" density="25.64" occupancy="12.82" waitingTime="0.00" speed="19.60" departed="0" arrived="0" entered="30" left="30" laneChangedFrom="0" laneChangedTo="0"/>
        <edge id="10/1to1/1" sampledSeconds="1507.56" traveltime="50.00" density="25.64" occupancy="12.82" waitingTime="0.00" speed="19.60" departed="0" arrived="0" entered="30" left="30" laneChangedFrom="0" laneChangedTo="0"/>
        <edge id="2/1to3/1" sampledSeconds="1512.22" traveltime="50.00" density="25.72" occupancy="12.86" waitingTime="0.00" speed="19.60" departed="0" arrived="0" entered="30" left="31" laneChangedFrom="0" laneChangedTo="0"/>
        <edge id="3/1to4/1" sampledSeconds="1756.81" traveltime="50.00" density="29.88" occupancy="14.94" waitingTime="0.00" speed="19.60" departed="0" arrived="0" entered="31" left="40" laneChangedFrom="0" laneChangedTo="0"/>
        <edge id="4/1to5/1" sampledSeconds="2114.75" traveltime="50.00" density="35.97" occupancy="17.98" waitingTime="0.00" speed="19.60" departed="0" arrived="0" entered="40" left="39" laneChangedFrom="0" laneChangedTo="0"/>
        <edge id="5/1to6/1" sampledSeconds="1683.02" traveltime="50.00" density="28.62" occupancy="14.31" waitingTime="0.00" speed="19.60" departed="0" arrived="0" entered="39" left="30" laneChangedFrom="0" laneChangedTo="0"/>
        <edge id="6/1to7/1" sampledSeconds="1507.56" traveltime="50.00" density="25.64" occupancy="12.82" waitingTime="0.00" speed="19.60" departed="0" arrived="0" entered="30" left="30" laneChangedFrom="0" laneChangedTo="0"/>
        <edge id="7/1to8/1" sampledSeconds="1507.56" traveltime="50.00" density="25.64" occupancy="12.82" waitingTime="0.00" speed="19.60" departed="0" arrived="0" entered="30" left="30" laneChangedFrom="0" laneChangedTo="0"/>
        <edge id="8/1to9/1" sampledSeconds="1507.56" traveltime="50.00" density="25.64" occupancy="12.82" waitingTime="0.00" speed="19.60" departed="0" arrived="0" entered="30" left="30" laneChangedFrom="0" laneChangedTo="0"/>
        <edge id="9/1to10/1" sampledSeconds="1507.56" traveltime="50.00" density="25.64" occupancy="12.82" waitingTime="0.00" speed="19.60" departed="0" arrived="0" entered="30" left="30" laneChangedFrom="0" laneChangedTo="0"/>
    </interval>
    <interval begin="780.00" end="840.00" id="dump_60">
        <edge id="1/1to2/1" sampledSeconds="1507.56" traveltime="50.00" density="25.64" occupancy="12.82" waitingTime="0.00" speed="19.60" departed="0" arrived="0" entered="30" left="30" laneChangedFrom="0" laneChangedTo="0"/>
        <edge id="10/1to1/1" sampledSeconds="1507.56" traveltime="50.00" density="25.64" occupancy="12.82" waitingTime="0.00" speed="19.60" departed="0" arrived="0" entered="30" left="30" laneChangedFrom="0" laneChangedTo="0"/>
        <edge id="2/1to3/1" sampledSeconds="1507.56" traveltime="50.00" density="25.64" occupancy="12.82" waitingTime="0.00" speed="19.60" departed="0" arrived="0" entered="30" left="30" laneChangedFrom="0" laneChangedTo="0"/>
        <edge id="3/1to4/1" sampledSeconds="1508.18" traveltime="50.00" density="25.65" occupancy="12.83" waitingTime="0.00" speed="19.60" departed="0" arrived="0" entered="30" left="31" laneChangedFrom="0" laneChangedTo="0"/>
        <edge id="4/1to5/1" sampledSeconds="1669.44" traveltime="50.00" density="28.39" occupancy="14.20" waitingTime="0.00" speed="19.60" departed="0" arrived="0" entered="31" left="39" laneChangedFrom="0" laneChangedTo="0"/>
        <edge id="5/1to6/1" sampledSeconds="2105.07" traveltime="50.00" density="35.80" occupancy="17.90" waitingTime="0.00" speed="19.60" departed="0" arrived="0" entered="38" left="42" laneChangedFrom="0" laneChangedTo="0"/>
        <edge id="6/1to7/1" sampledSeconds="1784.09" traveltime="50.00" density="30.34" occupancy="15.17" waitingTime="0.00" speed="19.60" departed="0" arrived="0" entered="42" left="30" laneChangedFrom="0" laneChangedTo="0"/>
        <edge id="7/1to8/1" sampledSeconds="1507.56" traveltime="50.00" density="25.64" occupancy="12.82" waitingTime="0.00" speed="19.60" departed="0" arrived="0" entered="30" left="30" laneChangedFrom="0" laneChangedTo="0"/>
        <edge id="8/1to9/1" sampledSeconds="1507.56" traveltime="50.00" density="25.64" occupancy="12.82" waitingTime="0.00" speed="19.60" departed="0" arrived="0" entered="30" left="30" laneChangedFrom="0" laneChangedTo="0"/>
        <edge id="9/1to10/1" sampledSeconds="1507.56" traveltime="50.00" density="25.64" occupancy="12.82" waitingTime="0.00" speed="19.60" departed="0" arrived="0" entered="30" left="30" laneChangedFrom="0" laneChangedTo="0"/>
    </interval>
    <interval begin="840.00" end="900.00" id="dump_60">
        <edge id="1/1to2/1" sampledSeconds="1507.56" traveltime="50.00" density="25.64" occupancy="12.82" waitingTime="0.00" speed="19.60" departed="0" arrived="0" entered="30" left="30" laneChangedFrom="0" laneChangedTo="0"/>
        <edge id="10/1to1/1" sampledSeconds="1507.56" traveltime="50.00" density="25.64" occupancy="12.82" waitingTime="0.00" speed="19.60" departed="0" arrived="0" entered="30" left="30" laneChangedFrom="0" laneChangedTo="0"/>
        <edge id="2/1to3/1" sampledSeconds="1507.56" traveltime="50.00" density="25.64" occupancy="12.82" waitingTime="0.00" speed="19.60" departed="0" arrived="0" entered="30" left="30" laneChangedFrom="0" laneChangedTo="0"/>
        <edge id="3/1to4/1" sampledSeconds="1507.56" traveltime="50.00" density="25.64" occupancy="12.82" waitingTime="0.00" speed="19.60" departed="0" arrived="0" entered="30" left="30" laneChangedFrom="0" laneChangedTo="0"/>
        <edge id="4/1to5/1" sampledSeconds="1507.56" traveltime="50.00" density="25.64" occupancy="12.82" waitingTime="0.00" speed="19.60" departed="0" arrived="0" entered="30" left="30" laneChangedFrom="0" laneChangedTo="0"/>
        <edge id="5/1to6/1" sampledSeconds="1601.00" traveltime="50.00" density="27.23" occupancy="13.61" waitingTime="0.00" speed="19.60" departed="0" arrived="0" entered="30" left="35" laneChangedFrom="0" laneChangedTo="0"/>
        <edge id="6/1to7/1" sampledSeconds="2049.97" traveltime="50.00" density="34.87" occupancy="17.43" waitingTime="0.00" speed="19.60" departed="0" arrived="0" entered="35" left="44" laneChangedFrom="0" laneChangedTo="0"/>
        <edge id="7/1to8/1" sampledSeconds="1900.44" traveltime="50.00" density="32.32" occupancy="16.16" waitingTime="0.00" speed="19.60" departed="0" arrived="0" entered="44" left="32" laneChangedFrom="0" laneChangedTo="0"/>
        <edge id="8/1to9/1" sampledSeconds="1515.52" traveltime="50.00" density="25.78" occupancy="12.89" waitingTime="0.00" speed="19.60" departed="0" arrived="0" entered="32" left="30" laneChangedFrom="0" laneChangedTo="0"/>
        <edge id="9/1to10/1" sampledSeconds="1507.56" traveltime="50.00" density="25.64" occupancy="12.82" waitingTime="0.00" speed="19.60" departed="0" arrived="0" entered="30" left="30" laneChangedFrom="0" laneChangedTo="0"/>
    </interval>
    <interval begin="900.00" end="960.00" id="dump_60">
        <edge id="1/1to2/1" sampledSeconds="1507.56" traveltime="50.00" density="25.64" occupancy="12.82" waitingTime="0.00" speed="19.60" departed="0" arrived="0" entered="30" left="30" laneChangedFrom="0" laneChangedTo="0"/>
        <edge id="10/1to1/1" sampledSeconds="1507.56" traveltime="50.00" density="25.64" occupancy="12.82" waitingTime="0.00" speed="19.60" departed="0" arrived="0" entered="30" left="30" laneChangedFrom="0" laneChangedTo="0"/>
        <edge id="2/1to3/1" sampledSeconds="1507.56" traveltime="50.00" density="25.64" occupancy="12.82" waitingTime="0.00" speed="19.60" departed="0" arrived="0" entered="30" left="30" laneChangedFrom="0" laneChangedTo="0"/>
        <edge id="3/1to4/1" sampledSeconds="1507.56" traveltime="50.00" density="25.64" occupancy="12.82" waitingTime="0.00" speed="19.60" departed="0" arrived="0" entered="30" left="30" laneChangedFrom="0" laneChangedTo="0"/>
        <edge id="4/1to5/1" sampledSeconds="1507.56" traveltime="50.00" density="25.64" occupancy="12.82" waitingTime="0.00" speed="19.60" departed="0" arrived="0" entered="30" left="30" laneChangedFrom="0" laneChangedTo="0"/>
        <edge id="5/1to6/1" sampledSeconds="1507.56" traveltime="50.00" density="25.64" occupancy="12.82" waitingTime="0.00" speed="19.60" departed="0" arrived="0" entered="30" left="30" laneChangedFrom="0" laneChangedTo="0"/>