<?xml version="1.0" encoding="UTF-8"?>

<!-- generated on Fri Nov 15 09:30:42 2013 by SUMO sumo Version dev-SVN-r15111
<?xml version="1.0" encoding="UTF-8"?>

<configuration xmlns:xsi="http://www.w3.org/2001/XMLSchema-instance" xsi:noNamespaceSchemaLocation="http://sumo-sim.org/xsd/sumoConfiguration.xsd">

    <input>
        <net-file value="net.net.xml"/>
        <route-files value="routes.rou.xml"/>
        <additional-files value="additional.xml"/>
    </input>

    <output>
        <netstate-dump value="netstate_dump.xml"/>
        <vehroute-output value="vehroutes.xml"/>
    </output>

    <report>
        <no-step-log value="true"/>
    </report>

    <traci_server>
        <remote-port value="8815"/>
    </traci_server>

</configuration>
-->

<netstate xmlns:xsi="http://www.w3.org/2001/XMLSchema-instance" xsi:noNamespaceSchemaLocation="http://sumo-sim.org/xsd/netstate_file.xsd">
    <timestep time="0.00">
        <edge id="e_m5">
            <lane id="e_m5_0">
                <vehicle id="bus_1" pos="0.00" speed="0.00"/>
            </lane>
            <lane id="e_m5_1"/>
            <lane id="e_m5_2"/>
        </edge>
    </timestep>
    <timestep time="1.00">
        <edge id="e_m5">
            <lane id="e_m5_0">
                <vehicle id="bus_1" pos="1.44" speed="1.44"/>
            </lane>
            <lane id="e_m5_1"/>
            <lane id="e_m5_2"/>
        </edge>
    </timestep>
    <timestep time="2.00">
        <edge id="e_m5">
            <lane id="e_m5_0">
                <vehicle id="bus_1" pos="4.56" speed="3.12"/>
            </lane>
            <lane id="e_m5_1"/>
            <lane id="e_m5_2"/>
        </edge>
    </timestep>
    <timestep time="3.00">
        <edge id="e_m5">
            <lane id="e_m5_0">
                <vehicle id="bus_1" pos="10.21" speed="5.66"/>
            </lane>
            <lane id="e_m5_1"/>
            <lane id="e_m5_2"/>
        </edge>
    </timestep>
    <timestep time="4.00">
        <edge id="e_m5">
            <lane id="e_m5_0">
                <vehicle id="bus_1" pos="15.44" speed="5.23"/>
            </lane>
            <lane id="e_m5_1"/>
            <lane id="e_m5_2"/>
        </edge>
    </timestep>
    <timestep time="5.00">
        <edge id="e_m5">
            <lane id="e_m5_0">
                <vehicle id="bus_1" pos="17.94" speed="2.50"/>
            </lane>
            <lane id="e_m5_1"/>
            <lane id="e_m5_2"/>
        </edge>
    </timestep>
    <timestep time="6.00">
        <edge id="e_m5">
            <lane id="e_m5_0">
                <vehicle id="bus_1" pos="19.56" speed="1.62"/>
            </lane>
            <lane id="e_m5_1"/>
            <lane id="e_m5_2"/>
        </edge>
    </timestep>
    <timestep time="7.00">
        <edge id="e_m5">
            <lane id="e_m5_0">
                <vehicle id="bus_1" pos="19.56" speed="0.00"/>
            </lane>
            <lane id="e_m5_1"/>
            <lane id="e_m5_2"/>
        </edge>
    </timestep>
    <timestep time="8.00">
        <edge id="e_m5">
            <lane id="e_m5_0">
                <vehicle id="bus_1" pos="19.56" speed="0.00"/>
            </lane>
            <lane id="e_m5_1"/>
            <lane id="e_m5_2"/>
        </edge>
    </timestep>
    <timestep time="9.00">
        <edge id="e_m5">
            <lane id="e_m5_0">
                <vehicle id="bus_1" pos="19.56" speed="0.00"/>
            </lane>
            <lane id="e_m5_1"/>
            <lane id="e_m5_2"/>
        </edge>
    </timestep>
    <timestep time="10.00">
        <edge id="e_m5">
            <lane id="e_m5_0">
                <vehicle id="bus_1" pos="19.56" speed="0.00"/>
            </lane>
            <lane id="e_m5_1"/>
            <lane id="e_m5_2"/>
        </edge>
    </timestep>
    <timestep time="11.00">
        <edge id="e_m5">
            <lane id="e_m5_0">
                <vehicle id="bus_1" pos="19.56" speed="0.00"/>
            </lane>
            <lane id="e_m5_1"/>
            <lane id="e_m5_2"/>
        </edge>
    </timestep>
    <timestep time="12.00">
        <edge id="e_m5">
            <lane id="e_m5_0">
                <vehicle id="bus_1" pos="19.56" speed="0.00"/>
            </lane>
            <lane id="e_m5_1"/>
            <lane id="e_m5_2"/>
        </edge>
    </timestep>
    <timestep time="13.00">
        <edge id="e_m5">
            <lane id="e_m5_0">
                <vehicle id="bus_1" pos="19.56" speed="0.00"/>
            </lane>
            <lane id="e_m5_1"/>
            <lane id="e_m5_2"/>
        </edge>
    </timestep>
    <timestep time="14.00">
        <edge id="e_m5">
            <lane id="e_m5_0">
                <vehicle id="bus_1" pos="19.56" speed="0.00"/>
            </lane>
            <lane id="e_m5_1"/>
            <lane id="e_m5_2"/>
        </edge>
    </timestep>
    <timestep time="15.00">
        <edge id="e_m5">
            <lane id="e_m5_0">
                <vehicle id="bus_1" pos="19.56" speed="0.00"/>
            </lane>
            <lane id="e_m5_1"/>
            <lane id="e_m5_2"/>
        </edge>
    </timestep>
    <timestep time="16.00">
        <edge id="e_m5">
            <lane id="e_m5_0">
                <vehicle id="bus_1" pos="19.56" speed="0.00"/>
            </lane>
            <lane id="e_m5_1"/>
            <lane id="e_m5_2"/>
        </edge>
    </timestep>
    <timestep time="17.00">
        <edge id="e_m5">
            <lane id="e_m5_0">
                <vehicle id="bus_1" pos="19.56" speed="0.00"/>
            </lane>
            <lane id="e_m5_1"/>
            <lane id="e_m5_2"/>
        </edge>
    </timestep>
    <timestep time="18.00">
        <edge id="e_m5">
            <lane id="e_m5_0">
                <vehicle id="bus_1" pos="19.56" speed="0.00"/>
            </lane>
            <lane id="e_m5_1"/>
            <lane id="e_m5_2"/>
        </edge>
    </timestep>
    <timestep time="19.00">
        <edge id="e_m5">
            <lane id="e_m5_0">
                <vehicle id="bus_1" pos="19.56" speed="0.00"/>
            </lane>
            <lane id="e_m5_1"/>
            <lane id="e_m5_2"/>
        </edge>
    </timestep>
    <timestep time="20.00">
        <edge id="e_m5">
            <lane id="e_m5_0">
                <vehicle id="bus_1" pos="19.56" speed="0.00"/>
            </lane>
            <lane id="e_m5_1"/>
            <lane id="e_m5_2"/>
        </edge>
    </timestep>
    <timestep time="21.00">
        <edge id="e_m5">
            <lane id="e_m5_0">
                <vehicle id="bus_1" pos="19.56" speed="0.00"/>
            </lane>
            <lane id="e_m5_1"/>
            <lane id="e_m5_2"/>
        </edge>
    </timestep>
    <timestep time="22.00">
        <edge id="e_m5">
            <lane id="e_m5_0">
                <vehicle id="bus_1" pos="19.56" speed="0.00"/>
            </lane>
            <lane id="e_m5_1"/>
            <lane id="e_m5_2"/>
        </edge>
    </timestep>
    <timestep time="23.00">
        <edge id="e_m5">
            <lane id="e_m5_0">
                <vehicle id="bus_1" pos="19.56" speed="0.00"/>
            </lane>
            <lane id="e_m5_1"/>
            <lane id="e_m5_2"/>
        </edge>
    </timestep>
    <timestep time="24.00">
        <edge id="e_m5">
            <lane id="e_m5_0">
                <vehicle id="bus_1" pos="19.56" speed="0.00"/>
            </lane>
            <lane id="e_m5_1"/>
            <lane id="e_m5_2"/>
        </edge>
    </timestep>
    <timestep time="25.00">
        <edge id="e_m5">
            <lane id="e_m5_0">
                <vehicle id="bus_1" pos="19.56" speed="0.00"/>
            </lane>
            <lane id="e_m5_1"/>
            <lane id="e_m5_2"/>
        </edge>
    </timestep>
    <timestep time="26.00">
        <edge id="e_m5">
            <lane id="e_m5_0">
                <vehicle id="bus_1" pos="19.56" speed="0.00"/>
            </lane>
            <lane id="e_m5_1"/>
            <lane id="e_m5_2"/>
        </edge>
    </timestep>
    <timestep time="27.00">
        <edge id="e_m5">
            <lane id="e_m5_0">
                <vehicle id="bus_1" pos="19.56" speed="0.00"/>
            </lane>
            <lane id="e_m5_1"/>
            <lane id="e_m5_2"/>
        </edge>
    </timestep>
    <timestep time="28.00">
        <edge id="e_m5">
            <lane id="e_m5_0">
                <vehicle id="bus_1" pos="21.64" speed="2.08"/>
            </lane>
            <lane id="e_m5_1"/>
            <lane id="e_m5_2"/>
        </edge>
    </timestep>
    <timestep time="29.00">
        <edge id="e_m5">
            <lane id="e_m5_0">
                <vehicle id="bus_1" pos="25.62" speed="3.98"/>
            </lane>
            <lane id="e_m5_1"/>
            <lane id="e_m5_2"/>
        </edge>
    </timestep>
    <timestep time="30.00">
        <edge id="e_m5">
            <lane id="e_m5_0">
                <vehicle id="bus_1" pos="31.89" speed="6.27"/>
            </lane>
            <lane id="e_m5_1"/>
            <lane id="e_m5_2"/>
        </edge>
    </timestep>
    <timestep time="31.00">
        <edge id="e_m5">
            <lane id="e_m5_0">
                <vehicle id="bus_1" pos="40.72" speed="8.83"/>
            </lane>
            <lane id="e_m5_1"/>
            <lane id="e_m5_2"/>
        </edge>
    </timestep>
    <timestep time="32.00">
        <edge id="e_m5">
            <lane id="e_m5_0">
                <vehicle id="bus_1" pos="51.75" speed="11.03"/>
            </lane>
            <lane id="e_m5_1"/>
            <lane id="e_m5_2"/>
        </edge>
    </timestep>
    <timestep time="33.00">
        <edge id="e_m5">
            <lane id="e_m5_0">
                <vehicle id="bus_1" pos="64.39" speed="12.64"/>
            </lane>
            <lane id="e_m5_1"/>
            <lane id="e_m5_2"/>
        </edge>
    </timestep>
    <timestep time="34.00">
        <edge id="e_m5">
            <lane id="e_m5_0">
                <vehicle id="bus_1" pos="79.43" speed="15.03"/>
            </lane>
            <lane id="e_m5_1"/>
            <lane id="e_m5_2"/>
        </edge>
    </timestep>
    <timestep time="35.00">
        <edge id="e_m5">
            <lane id="e_m5_0">
                <vehicle id="bus_1" pos="95.82" speed="16.39"/>
            </lane>
            <lane id="e_m5_1"/>
            <lane id="e_m5_2"/>
        </edge>
    </timestep>
    <timestep time="36.00">
        <edge id="e_m5">
            <lane id="e_m5_0">
                <vehicle id="bus_1" pos="114.77" speed="18.95"/>
            </lane>
            <lane id="e_m5_1"/>
            <lane id="e_m5_2"/>
        </edge>
    </timestep>
    <timestep time="37.00">
        <edge id="e_m5">
            <lane id="e_m5_0">
                <vehicle id="bus_1" pos="135.43" speed="20.66"/>
            </lane>
            <lane id="e_m5_1"/>
            <lane id="e_m5_2"/>
        </edge>
    </timestep>
    <timestep time="38.00">
        <edge id="e_m5">
            <lane id="e_m5_0">
                <vehicle id="bus_1" pos="158.26" speed="22.83"/>
            </lane>
            <lane id="e_m5_1"/>
            <lane id="e_m5_2"/>
        </edge>
    </timestep>
    <timestep time="39.00">
        <edge id="e_m5">
            <lane id="e_m5_0">
                <vehicle id="bus_1" pos="183.52" speed="25.26"/>
            </lane>
            <lane id="e_m5_1"/>
            <lane id="e_m5_2"/>
        </edge>
    </timestep>
    <timestep time="40.00">
        <edge id="e_m5">
            <lane id="e_m5_0">
                <vehicle id="bus_1" pos="211.22" speed="27.70"/>
            </lane>
            <lane id="e_m5_1"/>
            <lane id="e_m5_2"/>
        </edge>
    </timestep>
    <timestep time="41.00">
        <edge id="e_m5">
            <lane id="e_m5_0">
                <vehicle id="bus_1" pos="240.99" speed="29.76"/>
            </lane>
            <lane id="e_m5_1"/>
            <lane id="e_m5_2"/>
        </edge>
    </timestep>
    <timestep time="42.00">
        <edge id="e_m5">
            <lane id="e_m5_0">
                <vehicle id="bus_1" pos="272.10" speed="31.11"/>
            </lane>
            <lane id="e_m5_1"/>
            <lane id="e_m5_2"/>
        </edge>
    </timestep>
    <timestep time="43.00">
        <edge id="e_m5">
            <lane id="e_m5_0"/>
            <lane id="e_m5_1">
                <vehicle id="bus_1" pos="305.46" speed="33.37"/>
            </lane>
            <lane id="e_m5_2"/>
        </edge>
    </timestep>
    <timestep time="44.00">
        <edge id="e_m5">
            <lane id="e_m5_0"/>
            <lane id="e_m5_1">
                <vehicle id="bus_1" pos="341.14" speed="35.68"/>
            </lane>
            <lane id="e_m5_2"/>
        </edge>
    </timestep>
    <timestep time="45.00">
        <edge id="e_m5">
            <lane id="e_m5_0"/>
            <lane id="e_m5_1">
                <vehicle id="bus_1" pos="379.20" speed="38.06"/>
            </lane>
            <lane id="e_m5_2"/>
        </edge>
    </timestep>
    <timestep time="46.00">
        <edge id="e_m5">
            <lane id="e_m5_0"/>
            <lane id="e_m5_1">
                <vehicle id="bus_1" pos="419.12" speed="39.92"/>
            </lane>
            <lane id="e_m5_2"/>
        </edge>
    </timestep>
    <timestep time="47.00">
        <edge id="e_m5">
            <lane id="e_m5_0"/>
            <lane id="e_m5_1">
                <vehicle id="bus_1" pos="461.32" speed="42.20"/>
            </lane>
            <lane id="e_m5_2"/>
        </edge>
    </timestep>
    <timestep time="48.00">
        <edge id="e_m6">
            <lane id="e_m6_0"/>
            <lane id="e_m6_1">
                <vehicle id="bus_1" pos="21.16" speed="43.75"/>
            </lane>
            <lane id="e_m6_2"/>
        </edge>
    </timestep>
    <timestep time="49.00">
        <edge id="e_m6">
            <lane id="e_m6_0"/>
            <lane id="e_m6_1">
                <vehicle id="bus_1" pos="67.40" speed="46.23"/>
            </lane>
            <lane id="e_m6_2"/>
        </edge>
    </timestep>
    <timestep time="50.00">
        <edge id="e_m6">
            <lane id="e_m6_0"/>
            <lane id="e_m6_1">
                <vehicle id="bus_1" pos="115.36" speed="47.96"/>
            </lane>
            <lane id="e_m6_2"/>
        </edge>
    </timestep>
    <timestep time="51.00">
        <edge id="e_m6">
            <lane id="e_m6_0"/>
            <lane id="e_m6_1">
                <vehicle id="bus_1" pos="164.99" speed="49.63"/>
            </lane>
            <lane id="e_m6_2"/>
        </edge>
    </timestep>
    <timestep time="52.00">
        <edge id="e_m6">
            <lane id="e_m6_0"/>
            <lane id="e_m6_1">
                <vehicle id="bus_1" pos="216.45" speed="51.46"/>
            </lane>
            <lane id="e_m6_2"/>
        </edge>
    </timestep>
    <timestep time="53.00">
        <edge id="e_m6">
            <lane id="e_m6_0"/>
            <lane id="e_m6_1">
                <vehicle id="bus_1" pos="269.61" speed="53.16"/>
            </lane>
            <lane id="e_m6_2"/>
        </edge>
    </timestep>
    <timestep time="54.00">
        <edge id="e_m6">
            <lane id="e_m6_0"/>
            <lane id="e_m6_1">
                <vehicle id="bus_1" pos="324.15" speed="54.54"/>
            </lane>
            <lane id="e_m6_2"/>
        </edge>
    </timestep>
    <timestep time="55.00">
        <edge id="e_m6">
            <lane id="e_m6_0"/>
            <lane id="e_m6_1">
                <vehicle id="bus_1" pos="380.04" speed="55.89"/>
            </lane>
            <lane id="e_m6_2"/>
        </edge>
    </timestep>
    <timestep time="56.00">
        <edge id="e_m6">
            <lane id="e_m6_0"/>
            <lane id="e_m6_1">
                <vehicle id="bus_1" pos="438.14" speed="58.09"/>
            </lane>
            <lane id="e_m6_2"/>
        </edge>
    </timestep>
    <timestep time="57.00">
        <edge id="e_shape0">
            <lane id="e_shape0_0">
                <vehicle id="bus_1" pos="16.90" speed="59.36"/>
            </lane>
            <lane id="e_shape0_1"/>
            <lane id="e_shape0_2"/>
        </edge>
    </timestep>
    <timestep time="58.00">
        <edge id="e_shape0">
            <lane id="e_shape0_0">
                <vehicle id="bus_1" pos="76.14" speed="59.25"/>
            </lane>
            <lane id="e_shape0_1"/>
            <lane id="e_shape0_2"/>
        </edge>
    </timestep>
    <timestep time="59.00">
        <edge id="e_shape0">
            <lane id="e_shape0_0">
                <vehicle id="bus_1" pos="135.92" speed="59.78"/>
            </lane>
            <lane id="e_shape0_1"/>
            <lane id="e_shape0_2"/>
        </edge>
    </timestep>
    <timestep time="60.00">
        <edge id="e_shape0">
            <lane id="e_shape0_0">
                <vehicle id="bus_1" pos="194.68" speed="58.76"/>
            </lane>
            <lane id="e_shape0_1"/>
            <lane id="e_shape0_2"/>
        </edge>
    </timestep>
    <timestep time="61.00">
        <edge id="e_shape0">
            <lane id="e_shape0_0">
                <vehicle id="bus_1" pos="254.44" speed="59.76"/>
            </lane>
            <lane id="e_shape0_1"/>
            <lane id="e_shape0_2"/>
        </edge>
    </timestep>
    <timestep time="62.00">
        <edge id="e_shape0">
            <lane id="e_shape0_0">
                <vehicle id="bus_1" pos="313.61" speed="59.17"/>
            </lane>
            <lane id="e_shape0_1"/>
            <lane id="e_shape0_2"/>
        </edge>
    </timestep>
    <timestep time="63.00">
        <edge id="e_shape0">
            <lane id="e_shape0_0">
                <vehicle id="bus_1" pos="373.41" speed="59.80"/>
            </lane>
            <lane id="e_shape0_1"/>
            <lane id="e_shape0_2"/>
        </edge>
    </timestep>
    <timestep time="64.00">
        <edge id="e_shape0">
            <lane id="e_shape0_0">
                <vehicle id="bus_1" pos="433.38" speed="59.96"/>
            </lane>
            <lane id="e_shape0_1"/>
            <lane id="e_shape0_2"/>
        </edge>
    </timestep>
    <timestep time="65.00">
        <edge id="e_shape0">
            <lane id="e_shape0_0">
                <vehicle id="bus_1" pos="493.01" speed="59.64"/>
            </lane>
            <lane id="e_shape0_1"/>
            <lane id="e_shape0_2"/>
        </edge>
    </timestep>
    <timestep time="66.00">
        <edge id="e_shape0">
            <lane id="e_shape0_0">
                <vehicle id="bus_1" pos="552.30" speed="59.29"/>
            </lane>
            <lane id="e_shape0_1"/>
            <lane id="e_shape0_2"/>
        </edge>
    </timestep>
    <timestep time="67.00">
        <edge id="e_shape0">
            <lane id="e_shape0_0">
                <vehicle id="bus_1" pos="611.10" speed="58.79"/>
            </lane>
            <lane id="e_shape0_1"/>
            <lane id="e_shape0_2"/>
        </edge>
    </timestep>
    <timestep time="68.00">
        <edge id="e_shape0">
            <lane id="e_shape0_0">
                <vehicle id="bus_1" pos="671.01" speed="59.91"/>
            </lane>
            <lane id="e_shape0_1"/>
            <lane id="e_shape0_2"/>
        </edge>
    </timestep>
    <timestep time="69.00">
        <edge id="e_shape0">
            <lane id="e_shape0_0">
                <vehicle id="bus_1" pos="730.78" speed="59.77"/>
            </lane>
            <lane id="e_shape0_1"/>
            <lane id="e_shape0_2"/>
        </edge>
    </timestep>
    <timestep time="70.00">
        <edge id="e_shape0">
            <lane id="e_shape0_0">
                <vehicle id="bus_1" pos="789.49" speed="58.71"/>
            </lane>
            <lane id="e_shape0_1"/>
            <lane id="e_shape0_2"/>
        </edge>
    </timestep>
</netstate>
