<?xml version="1.0" encoding="UTF-8"?>

<!-- generated on Tue Jun 19 16:24:23 2018 by Eclipse SUMO Version eba7cf7
This data file and the accompanying materials
are made available under the terms of the Eclipse Public License v2.0
which accompanies this distribution, and is available at
http://www.eclipse.org/legal/epl-v20.html
SPDX-License-Identifier: EPL-2.0
<configuration xmlns:xsi="http://www.w3.org/2001/XMLSchema-instance" xsi:noNamespaceSchemaLocation="http://sumo.dlr.de/xsd/sumoConfiguration.xsd">

    <input>
        <net-file value="net.net.xml"/>
        <route-files value="input_routes.rou.xml"/>
    </input>

    <output>
        <write-license value="true"/>
        <vehroute-output value="vehroutes.xml"/>
        <vehroute-output.skip-ptlines value="true"/>
    </output>

    <report>
        <xml-validation value="never"/>
        <no-step-log value="true"/>
    </report>

</configuration>
-->

<routes xmlns:xsi="http://www.w3.org/2001/XMLSchema-instance" xsi:noNamespaceSchemaLocation="http://sumo.dlr.de/xsd/routes_file.xsd">
    <person id="p0" depart="0.00" arrival="101.00">
        <ride from="beg" to="end" lines="p0_0"/>
    </person>

    <vehicle id="p0_0" depart="triggered" arrival="101.00">
        <routeDistribution>
            <route replacedOnEdge="" reason="person:p0" replacedAtTime="0.00" probability="0" edges="beg"/>
            <route edges="beg middle end"/>
        </routeDistribution>
    </vehicle>

    <person id="p1" depart="0.00" arrival="1202.00">
        <walk edges="end middle beg"/>
    </person>

</routes>
