<?xml version="1.0" encoding="UTF-8"?>

<!-- generated on 2026-04-19T23:52:29.656725+01:00 by Eclipse SUMO sumo v1_26_0+1258-523db8d80fa
<sumoConfiguration xmlns:xsi="http://www.w3.org/2001/XMLSchema-instance" xsi:noNamespaceSchemaLocation="http://sumo.dlr.de/xsd/sumoConfiguration.xsd">

    <input>
        <net-file value="net.net.xml"/>
        <route-files value="input_routes.rou.xml"/>
    </input>

    <output>
        <tripinfo-output value="tripinfos.xml"/>
        <tripinfo-output.write-unfinished value="true"/>
        <vehroute-output value="vehroutes.xml"/>
        <vehroute-output.write-unfinished value="true"/>
        <stop-output value="stopinfos.xml"/>
    </output>

    <time>
        <end value="1000"/>
    </time>

    <report>
        <duration-log.disable value="true"/>
        <no-step-log value="true"/>
    </report>

    <taxi_device>
        <device.taxi.dispatch-period value="10"/>
        <device.taxi.idle-algorithm value="randomCircling"/>
    </taxi_device>

</sumoConfiguration>
-->

<stops xmlns:xsi="http://www.w3.org/2001/XMLSchema-instance" xsi:noNamespaceSchemaLocation="http://sumo.dlr.de/xsd/stopinfo_file.xsd">
    <stopinfo id="v1" type="taxi" lane="C1B1_1" pos="50.00" parking="1" started="18.00" ended="19.00" initialPersons="0" loadedPersons="1" unloadedPersons="0" initialContainers="0" loadedContainers="0" unloadedContainers="0" blockedDuration="0.00" actType="pickup p0 (0)"/>
    <stopinfo id="v1" type="taxi" lane="B1A1_1" pos="285.60" parking="1" started="73.00" ended="134.00" initialPersons="1" loadedPersons="0" unloadedPersons="1" initialContainers="0" loadedContainers="0" unloadedContainers="0" blockedDuration="0.00" actType="dropOff p0 (0)"/>
</stops>
