<?xml version="1.0" encoding="UTF-8"?>

<!-- generated on 2022-03-02 14:23:21 by Eclipse SUMO sumo Version v1_12_0+1032-ac6b9df
<configuration xmlns:xsi="http://www.w3.org/2001/XMLSchema-instance" xsi:noNamespaceSchemaLocation="http://sumo.dlr.de/xsd/sumoConfiguration.xsd">

    <input>
        <net-file value="input_net.net.xml"/>
        <additional-files value="input_additional.add.xml"/>
        <load-state value="state.xml"/>
    </input>

    <output>
        <fcd-output value="fcd2.xml"/>
        <vehroute-output value="vehroutes.xml"/>
        <vehroute-output.write-unfinished value="true"/>
    </output>

    <time>
        <end value="10"/>
    </time>

    <report>
        <duration-log.disable value="true"/>
        <no-step-log value="true"/>
    </report>

</configuration>
-->

<routes xmlns:xsi="http://www.w3.org/2001/XMLSchema-instance" xsi:noNamespaceSchemaLocation="http://sumo.dlr.de/xsd/routes_file.xsd">
    <vehicle id="v0" depart="0.00">
        <route edges="3/1to2/1 2/1to1/1 1/1to0/1"/>
    </vehicle>

    <person id="persontrip_car" depart="2.00" departPos="10.00">
        <stop busStop="bs0" duration="0.00"/>
        <ride from="3/1to2/1" to="1/1to0/1" lines="v0"/>
    </person>

</routes>
