<?xml version="1.0" encoding="UTF-8"?>

<!-- generated on 2026-06-24T12:31:04.929413+01:00 by Eclipse SUMO sumo v1_27_0+0332-ecc2286a471
<sumoConfiguration xmlns:xsi="http://www.w3.org/2001/XMLSchema-instance" xsi:noNamespaceSchemaLocation="http://sumo.dlr.de/xsd/sumoConfiguration.xsd">

    <input>
        <net-file value="input_net.net.xml"/>
        <route-files value="input_routes.rou.xml"/>
    </input>

    <output>
        <tripinfo-output value="tripinfo.xml"/>
    </output>

    <processing>
        <default.departspeed value="0"/>
        <default.departlane value="first"/>
    </processing>

    <report>
        <no-step-log value="true"/>
    </report>

    <traci_server>
        <remote-port value="38549"/>
    </traci_server>

    <gui_only>
        <quit-on-end value="true"/>
        <start value="true"/>
    </gui_only>

</sumoConfiguration>
-->

<tripinfos xmlns:xsi="http://www.w3.org/2001/XMLSchema-instance" xsi:noNamespaceSchemaLocation="http://sumo.dlr.de/xsd/tripinfo_file.xsd">
    <tripinfo id="blocker" depart="0.00" departLane="WC_0" departPos="12.10" departSpeed="13.89" departDelay="0.00" arrival="54.00" arrivalLane="CE_0" arrivalPos="100.00" arrivalSpeed="13.32" duration="54.00" routeLength="188.00" waitingTime="0.00" waitingCount="0" stopTime="30.00" timeLoss="2.72" rerouteNo="0" devices="tripinfo_blocker" vType="long" speedFactor="1.00" vaporized=""/>
    <tripinfo id="ego" depart="2.00" departLane="WC_0" departPos="5.10" departSpeed="11.81" departDelay="2.00" arrival="325.00" arrivalLane="CE_0" arrivalPos="100.00" arrivalSpeed="13.80" duration="323.00" routeLength="294.90" waitingTime="301.00" waitingCount="1" stopTime="0.00" timeLoss="310.21" rerouteNo="0" devices="tripinfo_ego" vType="DEFAULT_VEHTYPE" speedFactor="1.06" vaporized=""/>
</tripinfos>
