<?xml version="1.0" encoding="UTF-8"?>

<!-- generated on 2025-04-23 23:19:34 by Eclipse SUMO sumo Version v1_22_0+1676-989a5715aeb
<sumoConfiguration xmlns:xsi="http://www.w3.org/2001/XMLSchema-instance" xsi:noNamespaceSchemaLocation="http://sumo.dlr.de/xsd/sumoConfiguration.xsd">

    <input>
        <net-file value="net.net.xml"/>
        <route-files value="input_routes.rou.xml"/>
        <additional-files value="input_additional.add.xml"/>
    </input>

    <output>
        <vehroute-output value="vehroutes.xml"/>
    </output>

    <report>
        <no-step-log value="true"/>
    </report>

</sumoConfiguration>
-->

<routes xmlns:xsi="http://www.w3.org/2001/XMLSchema-instance" xsi:noNamespaceSchemaLocation="http://sumo.dlr.de/xsd/routes_file.xsd">
    <vehicle id="bus.0" type="bus" depart="0.00" line="bus" arrival="146.00">
        <route edges="beg middle end"/>
        <stop busStop="beg_0" until="0.00"/>
        <stop busStop="end_0" until="100.00"/>
    </vehicle>

    <vehicle id="bus.1" type="bus" depart="100.00" line="bus" arrival="253.00">
        <route edges="beg beg2left left left2end end"/>
        <stop busStop="beg_0" until="100.00"/>
        <stop busStop="end_0" until="200.00"/>
    </vehicle>

    <vehicle id="bus.2" type="bus" depart="200.00" line="bus" arrival="350.00">
        <route edges="beg beg2left left left2end end"/>
        <stop busStop="beg_0" until="200.00"/>
        <stop busStop="end_0" until="300.00"/>
    </vehicle>

    <vehicle id="bus.3" type="bus" depart="300.00" line="bus" arrival="450.00">
        <route edges="beg middle end"/>
        <stop busStop="beg_0" until="300.00"/>
        <stop busStop="end_0" until="400.00"/>
    </vehicle>

    <person id="p0" depart="0.00" arrival="543.00">
        <walk edges="beg" busStop="beg_0"/>
        <ride from="beg" to="end" busStop="end_0" intended="bus.3" depart="300.00"/>
        <walk edges="end"/>
    </person>

    <vehicle id="bus.4" type="bus" depart="400.00" line="bus" arrival="553.00">
        <route edges="beg beg2left left left2end end"/>
        <stop busStop="beg_0" until="400.00"/>
        <stop busStop="end_0" until="500.00"/>
    </vehicle>

</routes>
