<?xml version="1.0" encoding="UTF-8"?>

<!-- generated on Thu Aug 10 13:51:54 2017 by SUMO Version dev-SVN-r25530
<?xml version="1.0" encoding="UTF-8"?>

<configuration xmlns:xsi="http://www.w3.org/2001/XMLSchema-instance" xsi:noNamespaceSchemaLocation="http://sumo.dlr.de/xsd/sumoConfiguration.xsd">

    <input>
        <net-file value="net2.net.xml"/>
        <route-files value="input_routes.rou.xml"/>
    </input>

    <output>
        <fcd-output value="fcd.xml"/>
        <tripinfo-output value="tripinfos.xml"/>
    </output>

    <time>
        <step-length value="0.2"/>
    </time>

    <report>
        <xml-validation value="never"/>
        <no-step-log value="true"/>
    </report>

</configuration>
-->

<fcd-export xmlns:xsi="http://www.w3.org/2001/XMLSchema-instance" xsi:noNamespaceSchemaLocation="http://sumo.dlr.de/xsd/fcd_file.xsd">
    <timestep time="0.00">
        <vehicle id="overtaking" x="0.00" y="-1.65" angle="90.00" type="DEFAULT_VEHTYPE" speed="0.00" pos="0.00" lane="VODUGES_beg_0" slope="0.00"/>
        <vehicle id="stopped" x="40.00" y="-1.65" angle="90.00" type="DEFAULT_VEHTYPE" speed="0.00" pos="40.00" lane="VODUGES_beg_0" slope="0.00"/>
    </timestep>
    <timestep time="0.20">
        <vehicle id="overtaking" x="0.10" y="-1.65" angle="90.00" type="DEFAULT_VEHTYPE" speed="0.48" pos="0.10" lane="VODUGES_beg_0" slope="0.00"/>
        <vehicle id="stopped" x="40.09" y="-1.65" angle="90.00" type="DEFAULT_VEHTYPE" speed="0.47" pos="40.09" lane="VODUGES_beg_0" slope="0.00"/>
    </timestep>
    <timestep time="0.40">
        <vehicle id="overtaking" x="0.29" y="-1.65" angle="90.00" type="DEFAULT_VEHTYPE" speed="0.95" pos="0.29" lane="VODUGES_beg_0" slope="0.00"/>
        <vehicle id="stopped" x="40.29" y="-1.65" angle="90.00" type="DEFAULT_VEHTYPE" speed="0.99" pos="40.29" lane="VODUGES_beg_0" slope="0.00"/>
    </timestep>
    <timestep time="0.60">
        <vehicle id="overtaking" x="0.58" y="-1.65" angle="90.00" type="DEFAULT_VEHTYPE" speed="1.47" pos="0.58" lane="VODUGES_beg_0" slope="0.00"/>
        <vehicle id="stopped" x="40.58" y="-1.65" angle="90.00" type="DEFAULT_VEHTYPE" speed="1.42" pos="40.58" lane="VODUGES_beg_0" slope="0.00"/>
    </timestep>
    <timestep time="0.80">
        <vehicle id="overtaking" x="0.97" y="-1.65" angle="90.00" type="DEFAULT_VEHTYPE" speed="1.94" pos="0.97" lane="VODUGES_beg_0" slope="0.00"/>
        <vehicle id="stopped" x="40.94" y="-1.65" angle="90.00" type="DEFAULT_VEHTYPE" speed="1.80" pos="40.94" lane="VODUGES_beg_0" slope="0.00"/>
    </timestep>
    <timestep time="1.00">
        <vehicle id="overtaking" x="1.42" y="-1.65" angle="90.00" type="DEFAULT_VEHTYPE" speed="2.27" pos="1.42" lane="VODUGES_beg_0" slope="0.00"/>
        <vehicle id="stopped" x="41.37" y="-1.65" angle="90.00" type="DEFAULT_VEHTYPE" speed="2.19" pos="41.37" lane="VODUGES_beg_0" slope="0.00"/>
    </timestep>
    <timestep time="1.20">
        <vehicle id="overtaking" x="1.95" y="-1.65" angle="90.00" type="DEFAULT_VEHTYPE" speed="2.62" pos="1.95" lane="VODUGES_beg_0" slope="0.00"/>
        <vehicle id="stopped" x="41.92" y="-1.65" angle="90.00" type="DEFAULT_VEHTYPE" speed="2.71" pos="41.92" lane="VODUGES_beg_0" slope="0.00"/>
    </timestep>
    <timestep time="1.40">
        <vehicle id="overtaking" x="2.55" y="-1.65" angle="90.00" type="DEFAULT_VEHTYPE" speed="3.02" pos="2.55" lane="VODUGES_beg_0" slope="0.00"/>
        <vehicle id="stopped" x="42.41" y="-1.65" angle="90.00" type="DEFAULT_VEHTYPE" speed="2.47" pos="42.41" lane="VODUGES_beg_0" slope="0.00"/>
    </timestep>
    <timestep time="1.60">
        <vehicle id="overtaking" x="3.25" y="-1.65" angle="90.00" type="DEFAULT_VEHTYPE" speed="3.47" pos="3.25" lane="VODUGES_beg_0" slope="0.00"/>
        <vehicle id="stopped" x="42.83" y="-1.65" angle="90.00" type="DEFAULT_VEHTYPE" speed="2.11" pos="42.83" lane="VODUGES_beg_0" slope="0.00"/>
    </timestep>
    <timestep time="1.80">
        <vehicle id="overtaking" x="4.00" y="-1.65" angle="90.00" type="DEFAULT_VEHTYPE" speed="3.77" pos="4.00" lane="VODUGES_beg_0" slope="0.00"/>
        <vehicle id="stopped" x="43.22" y="-1.65" angle="90.00" type="DEFAULT_VEHTYPE" speed="1.92" pos="43.22" lane="VODUGES_beg_0" slope="0.00"/>
    </timestep>
    <timestep time="2.00">
        <vehicle id="overtaking" x="4.82" y="-1.65" angle="90.00" type="DEFAULT_VEHTYPE" speed="4.11" pos="4.82" lane="VODUGES_beg_0" slope="0.00"/>
        <vehicle id="stopped" x="43.53" y="-1.65" angle="90.00" type="DEFAULT_VEHTYPE" speed="1.58" pos="43.53" lane="VODUGES_beg_0" slope="0.00"/>
    </timestep>
    <timestep time="2.20">
        <vehicle id="overtaking" x="5.72" y="-1.65" angle="90.00" type="DEFAULT_VEHTYPE" speed="4.49" pos="5.72" lane="VODUGES_beg_0" slope="0.00"/>
        <vehicle id="stopped" x="43.81" y="-1.65" angle="90.00" type="DEFAULT_VEHTYPE" speed="1.37" pos="43.81" lane="VODUGES_beg_0" slope="0.00"/>
    </timestep>
    <timestep time="2.40">
        <vehicle id="overtaking" x="6.69" y="-1.65" angle="90.00" type="DEFAULT_VEHTYPE" speed="4.85" pos="6.69" lane="VODUGES_beg_0" slope="0.00"/>
        <vehicle id="stopped" x="44.03" y="-1.65" angle="90.00" type="DEFAULT_VEHTYPE" speed="1.11" pos="44.03" lane="VODUGES_beg_0" slope="0.00"/>
    </timestep>
    <timestep time="2.60">
        <vehicle id="overtaking" x="7.72" y="-1.65" angle="90.00" type="DEFAULT_VEHTYPE" speed="5.16" pos="7.72" lane="VODUGES_beg_0" slope="0.00"/>
        <vehicle id="stopped" x="44.20" y="-1.65" angle="90.00" type="DEFAULT_VEHTYPE" speed="0.87" pos="44.20" lane="VODUGES_beg_0" slope="0.00"/>
    </timestep>
    <timestep time="2.80">
        <vehicle id="overtaking" x="8.84" y="-1.65" angle="90.00" type="DEFAULT_VEHTYPE" speed="5.57" pos="8.84" lane="VODUGES_beg_0" slope="0.00"/>
        <vehicle id="stopped" x="44.37" y="-1.65" angle="90.00" type="DEFAULT_VEHTYPE" speed="0.82" pos="44.37" lane="VODUGES_beg_0" slope="0.00"/>
    </timestep>
    <timestep time="3.00">
        <vehicle id="overtaking" x="10.04" y="-1.65" angle="90.00" type="DEFAULT_VEHTYPE" speed="6.03" pos="10.04" lane="VODUGES_beg_0" slope="0.00"/>
        <vehicle id="stopped" x="44.54" y="-1.65" angle="90.00" type="DEFAULT_VEHTYPE" speed="0.85" pos="44.54" lane="VODUGES_beg_0" slope="0.00"/>
    </timestep>
    <timestep time="3.20">
        <vehicle id="overtaking" x="11.34" y="-1.65" angle="90.00" type="DEFAULT_VEHTYPE" speed="6.47" pos="11.34" lane="VODUGES_beg_0" slope="0.00"/>
        <vehicle id="stopped" x="44.72" y="-1.65" angle="90.00" type="DEFAULT_VEHTYPE" speed="0.90" pos="44.72" lane="VODUGES_beg_0" slope="0.00"/>
    </timestep>
    <timestep time="3.40">
        <vehicle id="overtaking" x="12.73" y="-1.65" angle="90.00" type="DEFAULT_VEHTYPE" speed="6.95" pos="12.73" lane="VODUGES_beg_0" slope="0.00"/>
        <vehicle id="stopped" x="44.88" y="-1.65" angle="90.00" type="DEFAULT_VEHTYPE" speed="0.83" pos="44.88" lane="VODUGES_beg_0" slope="0.00"/>
    </timestep>
    <timestep time="3.60">
        <vehicle id="overtaking" x="14.22" y="-1.65" angle="90.00" type="DEFAULT_VEHTYPE" speed="7.46" pos="14.22" lane="VODUGES_beg_0" slope="0.00"/>
        <vehicle id="stopped" x="44.99" y="-1.65" angle="90.00" type="DEFAULT_VEHTYPE" speed="0.54" pos="44.99" lane="VODUGES_beg_0" slope="0.00"/>
    </timestep>
    <timestep time="3.80">
        <vehicle id="overtaking" x="15.80" y="-1.65" angle="90.00" type="DEFAULT_VEHTYPE" speed="7.90" pos="15.80" lane="VODUGES_beg_0" slope="0.00"/>
        <vehicle id="stopped" x="45.00" y="-1.65" angle="90.00" type="DEFAULT_VEHTYPE" speed="0.05" pos="45.00" lane="VODUGES_beg_0" slope="0.00"/>
    </timestep>
    <timestep time="4.00">
        <vehicle id="overtaking" x="17.48" y="-1.65" angle="90.00" type="DEFAULT_VEHTYPE" speed="8.38" pos="17.48" lane="VODUGES_beg_0" slope="0.00"/>
        <vehicle id="stopped" x="45.00" y="-1.65" angle="90.00" type="DEFAULT_VEHTYPE" speed="0.00" pos="45.00" lane="VODUGES_beg_0" slope="0.00"/>
    </timestep>
    <timestep time="4.20">
        <vehicle id="overtaking" x="19.21" y="-1.65" angle="90.00" type="DEFAULT_VEHTYPE" speed="8.65" pos="19.21" lane="VODUGES_beg_0" slope="0.00"/>
        <vehicle id="stopped" x="45.00" y="-1.65" angle="90.00" type="DEFAULT_VEHTYPE" speed="0.00" pos="45.00" lane="VODUGES_beg_0" slope="0.00"/>
    </timestep>
    <timestep time="4.40">
        <vehicle id="overtaking" x="21.03" y="1.65" angle="90.00" type="DEFAULT_VEHTYPE" speed="9.12" pos="24.22" lane="-VODUGES_beg_0" slope="0.00"/>
        <vehicle id="stopped" x="45.00" y="-1.65" angle="90.00" type="DEFAULT_VEHTYPE" speed="0.00" pos="45.00" lane="VODUGES_beg_0" slope="0.00"/>
    </timestep>
    <timestep time="4.60">
        <vehicle id="overtaking" x="22.95" y="1.65" angle="90.00" type="DEFAULT_VEHTYPE" speed="9.59" pos="22.30" lane="-VODUGES_beg_0" slope="0.00"/>
        <vehicle id="stopped" x="45.00" y="-1.65" angle="90.00" type="DEFAULT_VEHTYPE" speed="0.00" pos="45.00" lane="VODUGES_beg_0" slope="0.00"/>
    </timestep>
    <timestep time="4.80">
        <vehicle id="overtaking" x="24.96" y="1.65" angle="90.00" type="DEFAULT_VEHTYPE" speed="10.05" pos="20.29" lane="-VODUGES_beg_0" slope="0.00"/>
        <vehicle id="stopped" x="45.00" y="-1.65" angle="90.00" type="DEFAULT_VEHTYPE" speed="0.00" pos="45.00" lane="VODUGES_beg_0" slope="0.00"/>
    </timestep>
    <timestep time="5.00">
        <vehicle id="overtaking" x="27.07" y="1.65" angle="90.00" type="DEFAULT_VEHTYPE" speed="10.55" pos="18.18" lane="-VODUGES_beg_0" slope="0.00"/>
        <vehicle id="stopped" x="45.00" y="-1.65" angle="90.00" type="DEFAULT_VEHTYPE" speed="0.00" pos="45.00" lane="VODUGES_beg_0" slope="0.00"/>
    </timestep>
    <timestep time="5.20">
        <vehicle id="overtaking" x="29.24" y="1.65" angle="90.00" type="DEFAULT_VEHTYPE" speed="10.88" pos="16.01" lane="-VODUGES_beg_0" slope="0.00"/>
        <vehicle id="stopped" x="45.00" y="-1.65" angle="90.00" type="DEFAULT_VEHTYPE" speed="0.00" pos="45.00" lane="VODUGES_beg_0" slope="0.00"/>
    </timestep>
    <timestep time="5.40">
        <vehicle id="overtaking" x="31.49" y="1.65" angle="90.00" type="DEFAULT_VEHTYPE" speed="11.22" pos="13.76" lane="-VODUGES_beg_0" slope="0.00"/>
        <vehicle id="stopped" x="45.00" y="-1.65" angle="90.00" type="DEFAULT_VEHTYPE" speed="0.00" pos="45.00" lane="VODUGES_beg_0" slope="0.00"/>
    </timestep>
    <timestep time="5.60">
        <vehicle id="overtaking" x="33.79" y="1.65" angle="90.00" type="DEFAULT_VEHTYPE" speed="11.49" pos="11.46" lane="-VODUGES_beg_0" slope="0.00"/>
        <vehicle id="stopped" x="45.00" y="-1.65" angle="90.00" type="DEFAULT_VEHTYPE" speed="0.00" pos="45.00" lane="VODUGES_beg_0" slope="0.00"/>
    </timestep>
    <timestep time="5.80">
        <vehicle id="overtaking" x="36.16" y="1.65" angle="90.00" type="DEFAULT_VEHTYPE" speed="11.88" pos="9.09" lane="-VODUGES_beg_0" slope="0.00"/>
        <vehicle id="stopped" x="45.00" y="-1.65" angle="90.00" type="DEFAULT_VEHTYPE" speed="0.00" pos="45.00" lane="VODUGES_beg_0" slope="0.00"/>
    </timestep>
    <timestep time="6.00">
        <vehicle id="overtaking" x="38.63" y="1.65" angle="90.00" type="DEFAULT_VEHTYPE" speed="12.36" pos="6.62" lane="-VODUGES_beg_0" slope="0.00"/>
        <vehicle id="stopped" x="45.00" y="-1.65" angle="90.00" type="DEFAULT_VEHTYPE" speed="0.00" pos="45.00" lane="VODUGES_beg_0" slope="0.00"/>
    </timestep>
    <timestep time="6.20">
        <vehicle id="overtaking" x="41.20" y="1.65" angle="90.00" type="DEFAULT_VEHTYPE" speed="12.83" pos="4.05" lane="-VODUGES_beg_0" slope="0.00"/>
        <vehicle id="stopped" x="45.00" y="-1.65" angle="90.00" type="DEFAULT_VEHTYPE" speed="0.00" pos="45.00" lane="VODUGES_beg_0" slope="0.00"/>
    </timestep>
    <timestep time="6.40">
        <vehicle id="overtaking" x="43.86" y="1.65" angle="90.00" type="DEFAULT_VEHTYPE" speed="13.31" pos="1.39" lane="-VODUGES_beg_0" slope="0.00"/>
        <vehicle id="stopped" x="45.00" y="-1.65" angle="90.00" type="DEFAULT_VEHTYPE" speed="0.00" pos="45.00" lane="VODUGES_beg_0" slope="0.00"/>
    </timestep>
    <timestep time="6.60">
        <vehicle id="overtaking" x="46.62" y="1.65" angle="90.00" type="DEFAULT_VEHTYPE" speed="13.76" pos="8.13" lane=":C_3_0" slope="0.00"/>
        <vehicle id="stopped" x="45.00" y="-1.65" angle="90.00" type="DEFAULT_VEHTYPE" speed="0.00" pos="45.00" lane="VODUGES_beg_0" slope="0.00"/>
    </timestep>
    <timestep time="6.80">
        <vehicle id="overtaking" x="49.35" y="1.65" angle="90.00" type="DEFAULT_VEHTYPE" speed="13.65" pos="5.40" lane=":C_3_0" slope="0.00"/>
        <vehicle id="stopped" x="45.00" y="-1.65" angle="90.00" type="DEFAULT_VEHTYPE" speed="0.00" pos="45.00" lane="VODUGES_beg_0" slope="0.00"/>
    </timestep>
    <timestep time="7.00">
        <vehicle id="overtaking" x="52.11" y="1.65" angle="90.00" type="DEFAULT_VEHTYPE" speed="13.84" pos="2.64" lane=":C_3_0" slope="0.00"/>
        <vehicle id="stopped" x="45.00" y="-1.65" angle="90.00" type="DEFAULT_VEHTYPE" speed="0.00" pos="45.00" lane="VODUGES_beg_0" slope="0.00"/>
    </timestep>
    <timestep time="7.20">
        <vehicle id="overtaking" x="54.88" y="-1.65" angle="90.00" type="DEFAULT_VEHTYPE" speed="13.81" pos="0.13" lane="VODUGES_end_0" slope="0.00"/>
        <vehicle id="stopped" x="45.00" y="-1.65" angle="90.00" type="DEFAULT_VEHTYPE" speed="0.00" pos="45.00" lane="VODUGES_beg_0" slope="0.00"/>
    </timestep>
    <timestep time="7.40">
        <vehicle id="overtaking" x="57.65" y="-1.65" angle="90.00" type="DEFAULT_VEHTYPE" speed="13.87" pos="2.90" lane="VODUGES_end_0" slope="0.00"/>
        <vehicle id="stopped" x="45.00" y="-1.65" angle="90.00" type="DEFAULT_VEHTYPE" speed="0.00" pos="45.00" lane="VODUGES_beg_0" slope="0.00"/>
    </timestep>
    <timestep time="7.60">
        <vehicle id="overtaking" x="60.42" y="-1.65" angle="90.00" type="DEFAULT_VEHTYPE" speed="13.84" pos="5.67" lane="VODUGES_end_0" slope="0.00"/>
        <vehicle id="stopped" x="45.00" y="-1.65" angle="90.00" type="DEFAULT_VEHTYPE" speed="0.00" pos="45.00" lane="VODUGES_beg_0" slope="0.00"/>
    </timestep>
    <timestep time="7.80">
        <vehicle id="overtaking" x="63.19" y="-1.65" angle="90.00" type="DEFAULT_VEHTYPE" speed="13.88" pos="8.44" lane="VODUGES_end_0" slope="0.00"/>
        <vehicle id="stopped" x="45.00" y="-1.65" angle="90.00" type="DEFAULT_VEHTYPE" speed="0.00" pos="45.00" lane="VODUGES_beg_0" slope="0.00"/>
    </timestep>
    <timestep time="8.00">
        <vehicle id="overtaking" x="65.93" y="-1.65" angle="90.00" type="DEFAULT_VEHTYPE" speed="13.70" pos="11.18" lane="VODUGES_end_0" slope="0.00"/>
        <vehicle id="stopped" x="45.00" y="-1.65" angle="90.00" type="DEFAULT_VEHTYPE" speed="0.00" pos="45.00" lane="VODUGES_beg_0" slope="0.00"/>
    </timestep>
    <timestep time="8.20">
        <vehicle id="overtaking" x="68.70" y="-1.65" angle="90.00" type="DEFAULT_VEHTYPE" speed="13.81" pos="13.95" lane="VODUGES_end_0" slope="0.00"/>
        <vehicle id="stopped" x="45.00" y="-1.65" angle="90.00" type="DEFAULT_VEHTYPE" speed="0.00" pos="45.00" lane="VODUGES_beg_0" slope="0.00"/>
    </timestep>
    <timestep time="8.40">
        <vehicle id="overtaking" x="71.44" y="-1.65" angle="90.00" type="DEFAULT_VEHTYPE" speed="13.71" pos="16.69" lane="VODUGES_end_0" slope="0.00"/>
        <vehicle id="stopped" x="45.00" y="-1.65" angle="90.00" type="DEFAULT_VEHTYPE" speed="0.00" pos="45.00" lane="VODUGES_beg_0" slope="0.00"/>
    </timestep>
    <timestep time="8.60">
        <vehicle id="overtaking" x="74.18" y="-1.65" angle="90.00" type="DEFAULT_VEHTYPE" speed="13.73" pos="19.43" lane="VODUGES_end_0" slope="0.00"/>
        <vehicle id="stopped" x="45.00" y="-1.65" angle="90.00" type="DEFAULT_VEHTYPE" speed="0.00" pos="45.00" lane="VODUGES_beg_0" slope="0.00"/>
    </timestep>
    <timestep time="8.80">
        <vehicle id="overtaking" x="76.94" y="-1.65" angle="90.00" type="DEFAULT_VEHTYPE" speed="13.76" pos="22.19" lane="VODUGES_end_0" slope="0.00"/>
        <vehicle id="stopped" x="45.00" y="-1.65" angle="90.00" type="DEFAULT_VEHTYPE" speed="0.00" pos="45.00" lane="VODUGES_beg_0" slope="0.00"/>
    </timestep>
    <timestep time="9.00">
        <vehicle id="overtaking" x="79.68" y="-1.65" angle="90.00" type="DEFAULT_VEHTYPE" speed="13.74" pos="24.93" lane="VODUGES_end_0" slope="0.00"/>
        <vehicle id="stopped" x="45.00" y="-1.65" angle="90.00" type="DEFAULT_VEHTYPE" speed="0.00" pos="45.00" lane="VODUGES_beg_0" slope="0.00"/>
    </timestep>
    <timestep time="9.20">
        <vehicle id="overtaking" x="82.44" y="-1.65" angle="90.00" type="DEFAULT_VEHTYPE" speed="13.80" pos="27.69" lane="VODUGES_end_0" slope="0.00"/>
        <vehicle id="stopped" x="45.00" y="-1.65" angle="90.00" type="DEFAULT_VEHTYPE" speed="0.00" pos="45.00" lane="VODUGES_beg_0" slope="0.00"/>
    </timestep>
    <timestep time="9.40">
        <vehicle id="overtaking" x="85.22" y="-1.65" angle="90.00" type="DEFAULT_VEHTYPE" speed="13.88" pos="30.47" lane="VODUGES_end_0" slope="0.00"/>
        <vehicle id="stopped" x="45.00" y="-1.65" angle="90.00" type="DEFAULT_VEHTYPE" speed="0.00" pos="45.00" lane="VODUGES_beg_0" slope="0.00"/>
    </timestep>
    <timestep time="9.60">
        <vehicle id="overtaking" x="87.99" y="-1.65" angle="90.00" type="DEFAULT_VEHTYPE" speed="13.86" pos="33.24" lane="VODUGES_end_0" slope="0.00"/>
        <vehicle id="stopped" x="45.00" y="-1.65" angle="90.00" type="DEFAULT_VEHTYPE" speed="0.00" pos="45.00" lane="VODUGES_beg_0" slope="0.00"/>
    </timestep>
    <timestep time="9.80">
        <vehicle id="overtaking" x="90.74" y="-1.65" angle="90.00" type="DEFAULT_VEHTYPE" speed="13.73" pos="35.99" lane="VODUGES_end_0" slope="0.00"/>
        <vehicle id="stopped" x="45.00" y="-1.65" angle="90.00" type="DEFAULT_VEHTYPE" speed="0.00" pos="45.00" lane="VODUGES_beg_0" slope="0.00"/>
    </timestep>
    <timestep time="10.00">
        <vehicle id="overtaking" x="93.49" y="-1.65" angle="90.00" type="DEFAULT_VEHTYPE" speed="13.76" pos="38.74" lane="VODUGES_end_0" slope="0.00"/>
        <vehicle id="stopped" x="45.00" y="-1.65" angle="90.00" type="DEFAULT_VEHTYPE" speed="0.00" pos="45.00" lane="VODUGES_beg_0" slope="0.00"/>
    </timestep>
    <timestep time="10.20">
        <vehicle id="overtaking" x="96.23" y="-1.65" angle="90.00" type="DEFAULT_VEHTYPE" speed="13.71" pos="41.48" lane="VODUGES_end_0" slope="0.00"/>
        <vehicle id="stopped" x="45.00" y="-1.65" angle="90.00" type="DEFAULT_VEHTYPE" speed="0.00" pos="45.00" lane="VODUGES_beg_0" slope="0.00"/>
    </timestep>
    <timestep time="10.40">
        <vehicle id="overtaking" x="98.96" y="-1.65" angle="90.00" type="DEFAULT_VEHTYPE" speed="13.66" pos="44.21" lane="VODUGES_end_0" slope="0.00"/>
        <vehicle id="stopped" x="45.00" y="-1.65" angle="90.00" type="DEFAULT_VEHTYPE" speed="0.00" pos="45.00" lane="VODUGES_beg_0" slope="0.00"/>
    </timestep>
    <timestep time="10.60">
        <vehicle id="overtaking" x="101.69" y="-1.65" angle="90.00" type="DEFAULT_VEHTYPE" speed="13.64" pos="46.94" lane="VODUGES_end_0" slope="0.00"/>
        <vehicle id="stopped" x="45.00" y="-1.65" angle="90.00" type="DEFAULT_VEHTYPE" speed="0.00" pos="45.00" lane="VODUGES_beg_0" slope="0.00"/>
    </timestep>
    <timestep time="10.80">
        <vehicle id="overtaking" x="104.45" y="-1.65" angle="90.00" type="DEFAULT_VEHTYPE" speed="13.78" pos="49.70" lane="VODUGES_end_0" slope="0.00"/>
        <vehicle id="stopped" x="45.00" y="-1.65" angle="90.00" type="DEFAULT_VEHTYPE" speed="0.00" pos="45.00" lane="VODUGES_beg_0" slope="0.00"/>
    </timestep>
    <timestep time="11.00">
        <vehicle id="overtaking" x="107.19" y="-1.65" angle="90.00" type="DEFAULT_VEHTYPE" speed="13.71" pos="52.44" lane="VODUGES_end_0" slope="0.00"/>
        <vehicle id="stopped" x="45.00" y="-1.65" angle="90.00" type="DEFAULT_VEHTYPE" speed="0.00" pos="45.00" lane="VODUGES_beg_0" slope="0.00"/>
    </timestep>
    <timestep time="11.20">
        <vehicle id="overtaking" x="109.94" y="-1.65" angle="90.00" type="DEFAULT_VEHTYPE" speed="13.77" pos="55.19" lane="VODUGES_end_0" slope="0.00"/>
        <vehicle id="stopped" x="45.00" y="-1.65" angle="90.00" type="DEFAULT_VEHTYPE" speed="0.00" pos="45.00" lane="VODUGES_beg_0" slope="0.00"/>
    </timestep>
    <timestep time="11.40">
        <vehicle id="overtaking" x="112.68" y="-1.65" angle="90.00" type="DEFAULT_VEHTYPE" speed="13.69" pos="57.93" lane="VODUGES_end_0" slope="0.00"/>
        <vehicle id="stopped" x="45.00" y="-1.65" angle="90.00" type="DEFAULT_VEHTYPE" speed="0.00" pos="45.00" lane="VODUGES_beg_0" slope="0.00"/>
    </timestep>
    <timestep time="11.60">
        <vehicle id="overtaking" x="115.42" y="-1.65" angle="90.00" type="DEFAULT_VEHTYPE" speed="13.70" pos="60.67" lane="VODUGES_end_0" slope="0.00"/>
        <vehicle id="stopped" x="45.00" y="-1.65" angle="90.00" type="DEFAULT_VEHTYPE" speed="0.00" pos="45.00" lane="VODUGES_beg_0" slope="0.00"/>
    </timestep>
    <timestep time="11.80">
        <vehicle id="overtaking" x="118.16" y="-1.65" angle="90.00" type="DEFAULT_VEHTYPE" speed="13.70" pos="63.41" lane="VODUGES_end_0" slope="0.00"/>
        <vehicle id="stopped" x="45.00" y="-1.65" angle="90.00" type="DEFAULT_VEHTYPE" speed="0.00" pos="45.00" lane="VODUGES_beg_0" slope="0.00"/>
    </timestep>
    <timestep time="12.00">
        <vehicle id="overtaking" x="120.89" y="-1.65" angle="90.00" type="DEFAULT_VEHTYPE" speed="13.66" pos="66.14" lane="VODUGES_end_0" slope="0.00"/>
        <vehicle id="stopped" x="45.00" y="-1.65" angle="90.00" type="DEFAULT_VEHTYPE" speed="0.00" pos="45.00" lane="VODUGES_beg_0" slope="0.00"/>
    </timestep>
    <timestep time="12.20">
        <vehicle id="overtaking" x="123.65" y="-1.65" angle="90.00" type="DEFAULT_VEHTYPE" speed="13.77" pos="68.90" lane="VODUGES_end_0" slope="0.00"/>
        <vehicle id="stopped" x="45.00" y="-1.65" angle="90.00" type="DEFAULT_VEHTYPE" speed="0.00" pos="45.00" lane="VODUGES_beg_0" slope="0.00"/>
    </timestep>
    <timestep time="12.40">
        <vehicle id="overtaking" x="126.40" y="-1.65" angle="90.00" type="DEFAULT_VEHTYPE" speed="13.79" pos="71.65" lane="VODUGES_end_0" slope="0.00"/>
        <vehicle id="stopped" x="45.00" y="-1.65" angle="90.00" type="DEFAULT_VEHTYPE" speed="0.00" pos="45.00" lane="VODUGES_beg_0" slope="0.00"/>
    </timestep>
    <timestep time="12.60">
        <vehicle id="overtaking" x="129.13" y="-1.65" angle="90.00" type="DEFAULT_VEHTYPE" speed="13.64" pos="74.38" lane="VODUGES_end_0" slope="0.00"/>
        <vehicle id="stopped" x="45.00" y="-1.65" angle="90.00" type="DEFAULT_VEHTYPE" speed="0.00" pos="45.00" lane="VODUGES_beg_0" slope="0.00"/>
    </timestep>
    <timestep time="12.80">
        <vehicle id="overtaking" x="131.90" y="-1.65" angle="90.00" type="DEFAULT_VEHTYPE" speed="13.85" pos="77.15" lane="VODUGES_end_0" slope="0.00"/>
        <vehicle id="stopped" x="45.00" y="-1.65" angle="90.00" type="DEFAULT_VEHTYPE" speed="0.00" pos="45.00" lane="VODUGES_beg_0" slope="0.00"/>
    </timestep>
    <timestep time="13.00">
        <vehicle id="overtaking" x="134.66" y="-1.65" angle="90.00" type="DEFAULT_VEHTYPE" speed="13.80" pos="79.91" lane="VODUGES_end_0" slope="0.00"/>
        <vehicle id="stopped" x="45.00" y="-1.65" angle="90.00" type="DEFAULT_VEHTYPE" speed="0.00" pos="45.00" lane="VODUGES_beg_0" slope="0.00"/>
    </timestep>
    <timestep time="13.20">
        <vehicle id="overtaking" x="137.42" y="-1.65" angle="90.00" type="DEFAULT_VEHTYPE" speed="13.78" pos="82.67" lane="VODUGES_end_0" slope="0.00"/>
        <vehicle id="stopped" x="45.00" y="-1.65" angle="90.00" type="DEFAULT_VEHTYPE" speed="0.00" pos="45.00" lane="VODUGES_beg_0" slope="0.00"/>
    </timestep>
    <timestep time="13.40">
        <vehicle id="overtaking" x="140.18" y="-1.65" angle="90.00" type="DEFAULT_VEHTYPE" speed="13.82" pos="85.43" lane="VODUGES_end_0" slope="0.00"/>
        <vehicle id="stopped" x="45.00" y="-1.65" angle="90.00" type="DEFAULT_VEHTYPE" speed="0.00" pos="45.00" lane="VODUGES_beg_0" slope="0.00"/>
    </timestep>
    <timestep time="13.60">
        <vehicle id="overtaking" x="142.92" y="-1.65" angle="90.00" type="DEFAULT_VEHTYPE" speed="13.71" pos="88.17" lane="VODUGES_end_0" slope="0.00"/>
        <vehicle id="stopped" x="45.00" y="-1.65" angle="90.00" type="DEFAULT_VEHTYPE" speed="0.00" pos="45.00" lane="VODUGES_beg_0" slope="0.00"/>
    </timestep>
    <timestep time="13.80">
        <vehicle id="overtaking" x="145.67" y="-1.65" angle="90.00" type="DEFAULT_VEHTYPE" speed="13.74" pos="90.92" lane="VODUGES_end_0" slope="0.00"/>
        <vehicle id="stopped" x="45.00" y="-1.65" angle="90.00" type="DEFAULT_VEHTYPE" speed="0.00" pos="45.00" lane="VODUGES_beg_0" slope="0.00"/>
    </timestep>
    <timestep time="14.00">
        <vehicle id="overtaking" x="148.40" y="-1.65" angle="90.00" type="DEFAULT_VEHTYPE" speed="13.67" pos="93.65" lane="VODUGES_end_0" slope="0.00"/>
        <vehicle id="stopped" x="45.00" y="-1.65" angle="90.00" type="DEFAULT_VEHTYPE" speed="0.00" pos="45.00" lane="VODUGES_beg_0" slope="0.00"/>
    </timestep>
    <timestep time="14.20">
        <vehicle id="overtaking" x="151.14" y="-1.65" angle="90.00" type="DEFAULT_VEHTYPE" speed="13.68" pos="96.39" lane="VODUGES_end_0" slope="0.00"/>
        <vehicle id="stopped" x="45.00" y="-1.65" angle="90.00" type="DEFAULT_VEHTYPE" speed="0.00" pos="45.00" lane="VODUGES_beg_0" slope="0.00"/>
    </timestep>
    <timestep time="14.40">
        <vehicle id="overtaking" x="153.89" y="-1.65" angle="90.00" type="DEFAULT_VEHTYPE" speed="13.75" pos="99.14" lane="VODUGES_end_0" slope="0.00"/>
        <vehicle id="stopped" x="45.00" y="-1.65" angle="90.00" type="DEFAULT_VEHTYPE" speed="0.00" pos="45.00" lane="VODUGES_beg_0" slope="0.00"/>
    </timestep>
    <timestep time="14.60">
        <vehicle id="overtaking" x="156.62" y="-1.65" angle="90.00" type="DEFAULT_VEHTYPE" speed="13.63" pos="101.87" lane="VODUGES_end_0" slope="0.00"/>
        <vehicle id="stopped" x="45.00" y="-1.65" angle="90.00" type="DEFAULT_VEHTYPE" speed="0.00" pos="45.00" lane="VODUGES_beg_0" slope="0.00"/>
    </timestep>
    <timestep time="14.80">
        <vehicle id="overtaking" x="159.37" y="-1.65" angle="90.00" type="DEFAULT_VEHTYPE" speed="13.76" pos="104.62" lane="VODUGES_end_0" slope="0.00"/>
        <vehicle id="stopped" x="45.00" y="-1.65" angle="90.00" type="DEFAULT_VEHTYPE" speed="0.00" pos="45.00" lane="VODUGES_beg_0" slope="0.00"/>
    </timestep>
    <timestep time="15.00">
        <vehicle id="overtaking" x="162.14" y="-1.65" angle="90.00" type="DEFAULT_VEHTYPE" speed="13.85" pos="107.39" lane="VODUGES_end_0" slope="0.00"/>
        <vehicle id="stopped" x="45.00" y="-1.65" angle="90.00" type="DEFAULT_VEHTYPE" speed="0.00" pos="45.00" lane="VODUGES_beg_0" slope="0.00"/>
    </timestep>
    <timestep time="15.20">
        <vehicle id="overtaking" x="164.88" y="-1.65" angle="90.00" type="DEFAULT_VEHTYPE" speed="13.68" pos="110.13" lane="VODUGES_end_0" slope="0.00"/>
        <vehicle id="stopped" x="45.00" y="-1.65" angle="90.00" type="DEFAULT_VEHTYPE" speed="0.00" pos="45.00" lane="VODUGES_beg_0" slope="0.00"/>
    </timestep>
    <timestep time="15.40">
        <vehicle id="overtaking" x="167.64" y="-1.65" angle="90.00" type="DEFAULT_VEHTYPE" speed="13.80" pos="112.89" lane="VODUGES_end_0" slope="0.00"/>
        <vehicle id="stopped" x="45.00" y="-1.65" angle="90.00" type="DEFAULT_VEHTYPE" speed="0.00" pos="45.00" lane="VODUGES_beg_0" slope="0.00"/>
    </timestep>
    <timestep time="15.60">
        <vehicle id="overtaking" x="170.38" y="-1.65" angle="90.00" type="DEFAULT_VEHTYPE" speed="13.72" pos="115.63" lane="VODUGES_end_0" slope="0.00"/>
        <vehicle id="stopped" x="45.00" y="-1.65" angle="90.00" type="DEFAULT_VEHTYPE" speed="0.00" pos="45.00" lane="VODUGES_beg_0" slope="0.00"/>
    </timestep>
    <timestep time="15.80">
        <vehicle id="overtaking" x="173.16" y="-1.65" angle="90.00" type="DEFAULT_VEHTYPE" speed="13.89" pos="118.41" lane="VODUGES_end_0" slope="0.00"/>
        <vehicle id="stopped" x="45.00" y="-1.65" angle="90.00" type="DEFAULT_VEHTYPE" speed="0.00" pos="45.00" lane="VODUGES_beg_0" slope="0.00"/>
    </timestep>
    <timestep time="16.00">
        <vehicle id="overtaking" x="175.89" y="-1.65" angle="90.00" type="DEFAULT_VEHTYPE" speed="13.65" pos="121.14" lane="VODUGES_end_0" slope="0.00"/>
        <vehicle id="stopped" x="45.00" y="-1.65" angle="90.00" type="DEFAULT_VEHTYPE" speed="0.00" pos="45.00" lane="VODUGES_beg_0" slope="0.00"/>
    </timestep>
    <timestep time="16.20">
        <vehicle id="overtaking" x="178.66" y="-1.65" angle="90.00" type="DEFAULT_VEHTYPE" speed="13.86" pos="123.91" lane="VODUGES_end_0" slope="0.00"/>
        <vehicle id="stopped" x="45.00" y="-1.65" angle="90.00" type="DEFAULT_VEHTYPE" speed="0.00" pos="45.00" lane="VODUGES_beg_0" slope="0.00"/>
    </timestep>
    <timestep time="16.40">
        <vehicle id="overtaking" x="181.40" y="-1.65" angle="90.00" type="DEFAULT_VEHTYPE" speed="13.68" pos="126.65" lane="VODUGES_end_0" slope="0.00"/>
        <vehicle id="stopped" x="45.00" y="-1.65" angle="90.00" type="DEFAULT_VEHTYPE" speed="0.00" pos="45.00" lane="VODUGES_beg_0" slope="0.00"/>
    </timestep>
    <timestep time="16.60">
        <vehicle id="overtaking" x="184.12" y="-1.65" angle="90.00" type="DEFAULT_VEHTYPE" speed="13.63" pos="129.37" lane="VODUGES_end_0" slope="0.00"/>
        <vehicle id="stopped" x="45.00" y="-1.65" angle="90.00" type="DEFAULT_VEHTYPE" speed="0.00" pos="45.00" lane="VODUGES_beg_0" slope="0.00"/>
    </timestep>
    <timestep time="16.80">
        <vehicle id="overtaking" x="186.85" y="-1.65" angle="90.00" type="DEFAULT_VEHTYPE" speed="13.65" pos="132.10" lane="VODUGES_end_0" slope="0.00"/>
        <vehicle id="stopped" x="45.00" y="-1.65" angle="90.00" type="DEFAULT_VEHTYPE" speed="0.00" pos="45.00" lane="VODUGES_beg_0" slope="0.00"/>