<?xml version="1.0" encoding="UTF-8"?>

<!-- generated on Wed Jan  3 09:21:40 2018 by SUMO Version v0_32_0+0043-24523c2
<?xml version="1.0" encoding="UTF-8"?>

<configuration xmlns:xsi="http://www.w3.org/2001/XMLSchema-instance" xsi:noNamespaceSchemaLocation="http://sumo.dlr.de/xsd/sumoConfiguration.xsd">

    <input>
        <net-file value="net2.net.xml"/>
        <route-files value="input_routes.rou.xml"/>
    </input>

    <output>
        <fcd-output value="fcd.xml"/>
        <tripinfo-output value="tripinfos.xml"/>
    </output>

    <time>
        <step-length value="0.2"/>
    </time>

    <report>
        <xml-validation value="never"/>
        <no-step-log value="true"/>
    </report>

    <gui_only>
        <tracker-interval value="0.2"/>
    </gui_only>

</configuration>
-->

<tripinfos xmlns:xsi="http://www.w3.org/2001/XMLSchema-instance" xsi:noNamespaceSchemaLocation="http://sumo.dlr.de/xsd/tripinfo_file.xsd">
    <tripinfo id="overtaking" depart="0.00" departLane="VODUGES_beg_0" departPos="0.00" departSpeed="0.00" departDelay="0.00" arrival="17.60" arrivalLane="VODUGES_end_0" arrivalPos="140.50" arrivalSpeed="13.81" duration="17.60" routeLength="195.25" waitingTime="0.00" stopTime="0.00" timeLoss="3.35" rerouteNo="0" devices="tripinfo_overtaking" vType="DEFAULT_VEHTYPE" speedFactor="1.00" vaporized=""/>
    <tripinfo id="stopped" depart="0.00" departLane="VODUGES_beg_0" departPos="40.00" departSpeed="0.00" departDelay="0.00" arrival="118.20" arrivalLane="VODUGES_end_0" arrivalPos="140.50" arrivalSpeed="13.87" duration="118.20" routeLength="155.25" waitingTime="0.00" stopTime="100.20" timeLoss="6.79" rerouteNo="0" devices="tripinfo_stopped" vType="DEFAULT_VEHTYPE" speedFactor="1.00" vaporized=""/>
</tripinfos>
