<?xml version="1.0" encoding="UTF-8"?>

<!-- generated on 08/09/21 14:00:04 by Eclipse SUMO sumo Version v1_8_0+1925-6bf04e0fef
<configuration xmlns:xsi="http://www.w3.org/2001/XMLSchema-instance" xsi:noNamespaceSchemaLocation="http://sumo.dlr.de/xsd/sumoConfiguration.xsd">

    <input>
        <net-file value="C:\Users\knoc_me\Sumo\2021-08-09-13-59-18\osm.net.xml"/>
        <route-files value="C:\Users\knoc_me\Sumo\2021-08-09-13-59-18\trips.trips.xml"/>
        <additional-files value="C:\Users\knoc_me\Sumo\2021-08-09-13-59-18\osm_stops.add.xml"/>
    </input>

    <output>
        <vehroute-output value="C:\Users\knoc_me\Sumo\2021-08-09-13-59-18\vehroutes.xml"/>
        <stop-output value="C:\Users\knoc_me\Sumo\2021-08-09-13-59-18\stopinfos.xml"/>
    </output>

    <time>
        <begin value="0"/>
    </time>

    <processing>
        <ignore-route-errors value="true"/>
    </processing>

    <routing>
        <device.rerouting.adaptation-interval value="0"/>
    </routing>

    <report>
        <error-log value="C:\Users\knoc_me\Sumo\2021-08-09-13-59-18\trips.trips.xml.errorlog"/>
        <no-step-log value="true"/>
    </report>

</configuration>
-->

<routes xmlns:xsi="http://www.w3.org/2001/XMLSchema-instance" xsi:noNamespaceSchemaLocation="http://sumo.dlr.de/xsd/routes_file.xsd">
    <vehicle id="3_bus_113:0" type="pt_bus" depart="17.00" departLane="1" arrival="146.00">
        <route edges="24803131 931767245 146902430#1 146902430#2 146902430#3 146902430#4 146902430#5 611113394"/>
        <stop busStop="2078032882" duration="30.00"/>
        <stop busStop="481115891" duration="30.00"/>
    </vehicle>

    <vehicle id="4_bus_113:1" type="pt_bus" depart="27.00" departLane="1" arrival="187.00">
        <route edges="24803131 931767245 146902430#1 146902430#2 146902430#3 146902430#4 146902430#5 611113394"/>
        <stop busStop="2078032882" duration="30.00"/>
        <stop busStop="481115891" duration="30.00"/>
    </vehicle>

    <vehicle id="12_bus_436:0" type="pt_bus" depart="102.00" departLane="1" arrival="198.00">
        <route edges="-165484800#1 -165484800#0 -151627454 151627445 165484797 -151627458#1 -151627458#0 427480092"/>
        <stop busStop="-632920367" duration="30.00"/>
    </vehicle>

    <vehicle id="13_bus_436:1" type="pt_bus" depart="119.00" departLane="1" arrival="207.00">
        <route edges="-427480092 -262049413 151627458#1 165484799 151627454 165484800#0 165484800#1"/>
        <stop busStop="632920372" duration="30.00"/>
    </vehicle>

    <vehicle id="9_bus_416:1" type="pt_bus" depart="60.00" departLane="0" arrival="240.00">
        <route edges="71962469#1 -153742986 71962469#0 71962469#1 30427558 5640212#0 5640212#1 5640212#2 5640212#3 5640212#4 5640212#5 5640212#7 5640212#9 5640212#11"/>
        <stop busStop="2299687606" duration="30.00"/>
        <stop busStop="1944469926" duration="30.00"/>
    </vehicle>

    <vehicle id="5_bus_112:0" type="pt_bus" depart="47.00" departLane="0" arrival="244.00">
        <route edges="23187673#1 53650436#1 53650436#3 53650436#4 24803131 931767245 146902430#1 146902430#2 146902430#3 146902430#4 146902430#5 611113394"/>
        <stop busStop="250749715" duration="30.00"/>
        <stop busStop="481115891" duration="30.00"/>
    </vehicle>

    <vehicle id="10_bus_416:2" type="pt_bus" depart="93.00" departLane="0" arrival="277.00">
        <route edges="71962469#1 -153742986 71962469#0 71962469#1 30427558 5640212#0 5640212#1 5640212#2 5640212#3 5640212#4 5640212#5 5640212#7 5640212#9 5640212#11"/>
        <stop busStop="2299687606" duration="30.00"/>
        <stop busStop="1944469926" duration="30.00"/>
    </vehicle>

    <vehicle id="6_bus_480:0" type="pt_bus" depart="52.00" departLane="0" arrival="304.00">
        <route edges="10743323 -47007889 -108915782#2 -33199416#8 -33199416#7 -33199416#6 -33199416#5 -33199416#4 -33199416#2 -33199416#0 -33199328 -509331932 -611101972 -328670992#2 -328670992#1 -328670992#0 -509331931 -113049480#3 -113049480#1 -113049480#0"/>
        <stop busStop="-2303819179" duration="30.00"/>
        <stop busStop="-2304877718" duration="30.00"/>
        <stop busStop="-2126769010" duration="30.00"/>
    </vehicle>

    <vehicle id="0_tram_10:0" type="pt_tram" depart="3.00" departLane="0" arrival="416.00">
        <route edges="728830240#1 859066421#1 728830242#1 859066418#0 859066418#1 859066419#1 859066419#2 806561072#0 806561072#1 806561071#0 806561071#1 806561071#2 806561071#3 806561071#4 806561071#5 245334408#0 245334408#1 245334408#2 245334408#3 245334408#4 245334408#5"/>
        <stop busStop="2525484930" duration="30.00"/>
        <stop busStop="2525484873" duration="30.00"/>
        <stop busStop="333148448" duration="30.00"/>
        <stop busStop="2525484946" duration="30.00"/>
        <stop busStop="54143138" duration="30.00"/>
    </vehicle>

    <vehicle id="31_bus_434:1" type="pt_bus" depart="303.00" departLane="1" arrival="418.00">
        <route edges="-611113394 -146902430#5 -146902430#4 -146902430#3 -146902430#2 -146902430#1 23187673#0 23187673#1"/>
        <stop busStop="-4539421793" duration="30.00"/>
    </vehicle>

    <vehicle id="1_tram_10:1" type="pt_tram" depart="15.00" departLane="0" arrival="434.00">
        <route edges="245334406#0 245334406#3 245334406#4 245334406#5 245334406#6 245334406#7 806561073#0 806561073#1 806561073#2 806561073#3 806561073#4 806561073#5 806561074 859066420#0 859066420#1 859066420#2 859066417#1 728830241#0 728830241#1 7006207#0 7006207#1 197758609 7006207#3 7006207#4 7006207#5 7006207#6 728830240#0 728830240#1"/>
        <stop busStop="54143139" duration="30.00"/>
        <stop busStop="54143135" duration="30.00"/>
        <stop busStop="333148451" duration="30.00"/>
        <stop busStop="54143083" duration="30.00"/>
        <stop busStop="2525484930" duration="30.00"/>
    </vehicle>

    <vehicle id="30_bus_434:0" type="pt_bus" depart="253.00" departLane="0" arrival="438.00">
        <route edges="23187673#1 53650436#1 53650436#3 53650436#4 24803131 931767245 146902430#1 146902430#2 146902430#3 146902430#4 146902430#5 611113394"/>
        <stop busStop="250749715" duration="30.00"/>
        <stop busStop="481115891" duration="30.00"/>
    </vehicle>

    <vehicle id="43_bus_434:4" type="pt_bus" depart="389.00" departLane="1" arrival="502.00">
        <route edges="-611113394 -146902430#5 -146902430#4 -146902430#3 -146902430#2 -146902430#1 23187673#0 23187673#1"/>
        <stop busStop="-4539421793" duration="30.00"/>
    </vehicle>

    <vehicle id="22_bus_480:1" type="pt_bus" depart="166.00" departLane="1" arrival="503.00">
        <route edges="113049480#0 113049480#1 113049480#3 509331931 328670992#0 328670992#1 328670992#2 611101972 509331932 -509331932 -611101972 611101972 509331932 33199328 33199416#0 33199416#2 33199416#4 33199416#5 33199416#6 33199416#7 33199416#8 108915782#1 -108915782#2 108915782#1 108915782#3 -10743323"/>
        <stop busStop="2304877719" duration="30.00"/>
        <stop busStop="2126769011" duration="30.00"/>
        <stop busStop="4397131130" duration="30.00"/>
        <stop busStop="763452451" duration="30.00"/>
    </vehicle>

    <vehicle id="41_bus_434:2" type="pt_bus" depart="383.00" departLane="0" arrival="535.00">
        <route edges="23187673#1 53650436#1 53650436#3 53650436#4 24803131 931767245 146902430#1 146902430#2 146902430#3 146902430#4 146902430#5 611113394"/>
        <stop busStop="481115891" duration="30.00"/>
    </vehicle>

    <vehicle id="34_bus_416:4" type="pt_bus" depart="331.00" departLane="1" arrival="541.00">
        <route edges="-5640212#12 -5640212#11 -5640212#9 -5640212#7 -5640212#5 -5640212#4 -5640212#3 -5640212#2 -5640212#1 -5640212#0 -30427558 -153742986 71962469#0 71962469#1 -153742986 71962469#0 71962469#1"/>
        <stop busStop="-41944784" duration="30.00"/>
        <stop busStop="2299687606" duration="30.00"/>
        <stop busStop="1944469926@6953326" duration="30.00"/>
    </vehicle>

    <vehicle id="2_bus_424:0" type="pt_bus" depart="15.00" departLane="0" arrival="543.00">
        <route edges="222336041#2 625075004#0 -28266064#1 -10749352 -511175451 -173298393 -25498147#2 -25498147#1 -25498147#0 -25498146 -614969456 -4304991 511175442 4729000#0 4729000#1 4729000#2 222114077#0 222114077#1 222114077#2 222114077#3 222114077#4 222114077#5 222114077#7 611113418#0 611113418#1 4726410#0 4726410#1 4726410#2 4726410#3 4726410#4 4726410#5 -5640229#6 -5640229#5 -5640229#4 -5640229#3 -5640229#2 -5640229#1 -5640229#0 30253923 -5640228#5 -5640228#4 -5640228#3 -5640228#2 -5640228#1 -5640228#0"/>
        <stop busStop="1780723613" duration="30.00"/>
        <stop busStop="-310417058" duration="30.00"/>
        <stop busStop="333697505" duration="30.00"/>
        <stop busStop="2313104473" duration="30.00"/>
        <stop busStop="-2310890309" duration="30.00"/>
        <stop busStop="2310890289" duration="30.00"/>
    </vehicle>

    <vehicle id="24_bus_433:1" type="pt_bus" depart="201.00" departLane="1" arrival="556.00">
        <route edges="-22780141#1 -22780141#0 -188116371#1 -188116371#0 -5989176#2 -5989176#1 -5989176#0 750411120 -509331932 -611101972 -328670992#2 -328670992#1 -328670992#0 -509331931 5987976 108915817#0 108915817#1"/>
        <stop busStop="-4080471903" duration="30.00"/>
        <stop busStop="-763406413" duration="30.00"/>
        <stop busStop="-763406410" duration="30.00"/>
        <stop busStop="-2126769009" duration="30.00"/>
        <stop busStop="4488574841" duration="30.00"/>
    </vehicle>

    <vehicle id="44_bus_434:5" type="pt_bus" depart="406.00" departLane="1" arrival="557.00">
        <route edges="-611113394 -146902430#5 -146902430#4 -146902430#3 -146902430#2 -146902430#1 23187673#0 23187673#1"/>
        <stop busStop="-4539421793" duration="30.00"/>
    </vehicle>

    <vehicle id="15_bus_464:1" type="pt_bus" depart="131.00" departLane="1" arrival="572.00">
        <route edges="-427480092 -262049413 151627458#1 165484799 151627454 165484800#0 -165484800#0 -151627454 151627445 -151627456#1 -151627456#0 -30253920#5 -30253920#4 -30253920#2 -30253920#1 -30253920#0 -611113418#1 -611113418#0 -222114077#7 -222114077#6 -222114077#4 -222114077#3 -222114077#2 -222114077#1 -222114077#0 -4729000#2 -4729000#1 -4729000#0 -511175442 4304991 614969456 25498146 25498147#0 25498147#1 25498147#2 173298393 720932058 173298390 28266064#0 28266063#0 511175444 625075005#1 597760605#1 625075010#1"/>
        <stop busStop="632920372" duration="30.00"/>
    </vehicle>

    <vehicle id="42_bus_434:3" type="pt_bus" depart="389.00" departLane="0" arrival="574.00">
        <route edges="23187673#1 53650436#1 53650436#3 53650436#4 24803131 931767245 146902430#1 146902430#2 146902430#3 146902430#4 146902430#5 611113394"/>
        <stop busStop="481115891" duration="30.00"/>
    </vehicle>

    <vehicle id="20_bus_464:2" type="pt_bus" depart="160.00" departLane="1" arrival="600.00">
        <route edges="-611113394 146902424#0 146902424#1 146902424#3 146902424#6 146902422#0 146902422#1 146902422#2 146902422#4 -611113397#0 -31000152#4 -31000152#3 -31000152#1 -31000152#0 -614969458#0 -573227380#10 -573227380#8 -573227380#7 -573227380#6 -573227380#5 -573227380#4 -573227380#3 -573227380#2 -573227380#1 -573227380#0 -32434373 -511175453 -4726357#2 -4726357#1 -4726357#0 -173298393 -25498147#2 -25498147#1 -25498147#0 -25498146 -614969456 -4304991 511175442 4729000#0 4729000#1 4729000#2 222114077#0 222114077#1 222114077#2 222114077#3 222114077#4 222114077#5 222114077#7 611113418#0 611113418#1 30253920#0 30253920#1 30253920#2 30253920#4 30253920#5 358613274 151627456#1 165484797 -151627458#1 -151627458#0 427480092"/>
        <stop busStop="-4539421793" duration="30.00"/>
    </vehicle>

    <vehicle id="32_bus_414:5" type="pt_bus" depart="321.00" departLane="1" arrival="609.00">
        <route edges="70908501#2 299068702#0 70908501#2 -611101996#5 -611101996#4 -611101996#3 -611101996#2 -611101996#0 -625070018#1 -625070018#0 -625070025#1 -625070025#0"/>
        <stop busStop="4539379541" duration="30.00"/>
        <stop busStop="842199418" duration="30.00"/>
        <stop busStop="-4539379540" duration="30.00"/>
        <stop busStop="-844172737" duration="30.00"/>
        <stop busStop="-4539379539" duration="30.00"/>
        <stop busStop="-844172689" duration="30.00"/>
    </vehicle>

    <vehicle id="52_bus_191:0" type="pt_bus" depart="485.00" departLane="1" arrival="637.00">
        <route edges="-611113394 -146902430#5 -146902430#4 -146902430#3 -146902430#2 -146902430#1 23187673#0 23187673#1"/>
        <stop busStop="-4539421793" duration="30.00"/>
    </vehicle>

    <vehicle id="54_bus_191:2" type="pt_bus" depart="508.00" departLane="1" arrival="679.00">
        <route edges="-611113394 -146902430#5 -146902430#4 -146902430#3 -146902430#2 -146902430#1 23187673#0 23187673#1"/>
        <stop busStop="-4539421793" duration="30.00"/>
    </vehicle>

    <vehicle id="53_bus_191:1" type="pt_bus" depart="497.00" departLane="0" arrival="682.00">
        <route edges="23187673#1 53650436#1 53650436#3 53650436#4 24803131 931767245 146902430#1 146902430#2 146902430#3 146902430#4 146902430#5 611113394"/>
        <stop busStop="250749715" duration="30.00"/>
        <stop busStop="481115891" duration="30.00"/>
    </vehicle>

    <vehicle id="56_bus_111:0" type="pt_bus" depart="535.00" departLane="1" arrival="684.00">
        <route edges="-611113394 -146902430#5 -146902430#4 -146902430#3 -146902430#2 -146902430#1 23187673#0 23187673#1"/>
        <stop busStop="-4539421793" duration="30.00"/>
    </vehicle>

    <vehicle id="55_bus_191:3" type="pt_bus" depart="522.00" departLane="0" arrival="726.00">
        <route edges="23187673#1 53650436#1 53650436#3 53650436#4 24803131 931767245 146902430#1 146902430#2 146902430#3 146902430#4 146902430#5 611113394"/>
        <stop busStop="250749715" duration="30.00"/>
        <stop busStop="481115891" duration="30.00"/>
    </vehicle>

    <vehicle id="16_tram_1:1" type="pt_tram" depart="132.00" departLane="0" arrival="738.00">
        <route edges="245334406#0 245334406#3 245334406#4 245334406#5 245334406#6 245334406#7 806561073#0 806561073#1 806561073#2 806561073#3 806561073#4 806561073#5 806561074 859066420#0 859066420#1 859066420#2 859066417#1 728830241#0 728830241#1 859066424#0 859066424#1 859066424#2 859066424#3 859066424#4 859066424#5 859066428#1 859066428#2 859066429#2 859066430#1 859066430#2 859066434#1 859066434#2 859066434#3"/>
        <stop busStop="54143139" duration="30.00"/>
        <stop busStop="54143135" duration="30.00"/>
        <stop busStop="333148451" duration="30.00"/>
        <stop busStop="54143083" duration="30.00"/>
        <stop busStop="54153340" duration="30.00"/>
        <stop busStop="54143015" duration="30.00"/>
        <stop busStop="54143012" duration="30.00"/>
        <stop busStop="54142977" duration="30.00"/>
    </vehicle>

    <vehicle id="7_tram_1:0" type="pt_tram" depart="55.00" departLane="0" arrival="762.00">
        <route edges="859066434#3 859066433#1 859066433#2 859066433#3 859066431#1 859066431#2 859066427#2 859066426#1 859066426#2 859066423#1 728830240#0 728830240#1 859066421#1 728830242#1 859066418#0 859066418#1 859066419#1 859066419#2 806561072#0 806561072#1 806561071#0 806561071#1 806561071#2 806561071#3 806561071#4 806561071#5 245334408#0 245334408#1 245334408#2 245334408#3 245334408#4 245334408#5"/>
        <stop busStop="54142977" duration="30.00"/>
        <stop busStop="54143009" duration="30.00"/>
        <stop busStop="2525484928" duration="30.00"/>
        <stop busStop="2525484930" duration="30.00"/>
        <stop busStop="2525484873" duration="30.00"/>
        <stop busStop="333148448" duration="30.00"/>
        <stop busStop="2525484946" duration="30.00"/>
        <stop busStop="54143138" duration="30.00"/>
    </vehicle>

    <vehicle id="57_bus_111:1" type="pt_bus" depart="561.00" departLane="0" arrival="762.00">
        <route edges="23187673#1 53650436#1 53650436#3 53650436#4 24803131 931767245 146902430#1 146902430#2 146902430#3 146902430#4 146902430#5 611113394"/>
        <stop busStop="250749715" duration="30.00"/>
        <stop busStop="481115891" duration="30.00"/>
    </vehicle>

    <vehicle id="26_bus_414:1" type="pt_bus" depart="218.00" departLane="1" arrival="795.00">
        <route edges="4726782#0 4726782#1 4726782#3 4726782#4 4726782#5 10750085#1 10750085#2 10750085#3 10750085#4 10750085#5 10750085#6 10750085#7 657618384 47291034#0 47291034#1 47291034#2 47291034#3 173759898#0 173759898#1 -173759898#1 173759898#1 173759898#2 173759898#3 -173759898#3 173759898#3 173759898#4 7016618#0 7016618#1 54981199#0 82457821#1"/>
        <stop busStop="4539379534" duration="30.00"/>
        <stop busStop="844172701" duration="30.00"/>
        <stop busStop="4103249697" duration="30.00"/>
        <stop busStop="844172703" duration="30.00"/>
        <stop busStop="4539379535" duration="30.00"/>
        <stop busStop="844172696" duration="30.00"/>
        <stop busStop="4103284302" duration="30.00"/>
        <stop busStop="844172692" duration="30.00"/>
    </vehicle>

    <vehicle id="18_tram_1:3" type="pt_tram" depart="136.00" departLane="0" arrival="849.00">
        <route edges="859066434#3 859066433#1 859066433#2 859066433#3 859066431#1 859066431#2 859066427#2 859066426#1 859066426#2 859066423#1 728830240#0 728830240#1 859066421#1 728830242#1 859066418#0 859066418#1 859066419#1 859066419#2 806561072#0 806561072#1 806561071#0 806561071#1 806561071#2 806561071#3 806561071#4 806561071#5 245334408#0 245334408#1 245334408#2 245334408#3 245334408#4 245334408#5"/>
        <stop busStop="54142977" duration="30.00"/>
        <stop busStop="54143009" duration="30.00"/>
        <stop busStop="2525484928" duration="30.00"/>
        <stop busStop="2525484930" duration="30.00"/>
        <stop busStop="2525484873" duration="30.00"/>
        <stop busStop="333148448" duration="30.00"/>
        <stop busStop="2525484946" duration="30.00"/>
        <stop busStop="54143138" duration="30.00"/>
    </vehicle>

    <vehicle id="17_tram_1:2" type="pt_tram" depart="139.00" departLane="0" arrival="868.00">
        <route edges="245334406#0 245334406#3 245334406#4 245334406#5 245334406#6 245334406#7 806561073#0 806561073#1 806561073#2 806561073#3 806561073#4 806561073#5 806561074 859066420#0 859066420#1 859066420#2 859066417#1 728830241#0 728830241#1 859066424#0 859066424#1 859066424#2 859066424#3 859066424#4 859066424#5 859066428#1 859066428#2 859066429#2 859066430#1 859066430#2 859066434#1 859066434#2 859066434#3"/>
        <stop busStop="54143139" duration="30.00"/>
        <stop busStop="54143135" duration="30.00"/>
        <stop busStop="333148451" duration="30.00"/>
        <stop busStop="54143083" duration="30.00"/>
        <stop busStop="54153340" duration="30.00"/>
        <stop busStop="54143015" duration="30.00"/>
        <stop busStop="54143012" duration="30.00"/>
        <stop busStop="54142977" duration="30.00"/>
    </vehicle>

    <vehicle id="19_bus_424:1" type="pt_bus" depart="139.00" departLane="1" arrival="869.00">
        <route edges="5640228#0 5640228#1 5640228#2 5640228#3 5640228#4 5640228#5 -30253923 30253923 -30253923 5640229#0 5640229#1 5640229#2 5640229#3 5640229#4 5640229#5 5640229#6 -4726410#5 -4726410#4 -4726410#3 -4726410#2 -4726410#1 -4726410#0 -611113418#1 -611113418#0 -222114077#7 -222114077#6 -222114077#4 -222114077#3 -222114077#2 -222114077#1 -222114077#0 -4729000#2 -4729000#1 -4729000#0 -511175442 4304991 614969456 25498146 25498147#0 25498147#1 25498147#2 173298393 720932058 173298390 28266064#0 28266063#0 511175444 625075005#1 597760605#1 625075010#1"/>
        <stop busStop="-4393542161" duration="30.00"/>
        <stop busStop="-333325794" duration="30.00"/>
        <stop busStop="2310890299" duration="30.00"/>
        <stop busStop="333697509" duration="30.00"/>
        <stop busStop="-2310869837" duration="30.00"/>
        <stop busStop="-333697504" duration="30.00"/>
        <stop busStop="-333697507" duration="30.00"/>
        <stop busStop="310417074" duration="30.00"/>
        <stop busStop="2313104483" duration="30.00"/>
    </vehicle>

    <vehicle id="38_bus_424:5" type="pt_bus" depart="365.00" departLane="0" arrival="880.00">
        <route edges="222336041#2 625075004#0 -28266064#1 -10749352 -511175451 -173298393 -25498147#2 -25498147#1 -25498147#0 -25498146 -614969456 -4304991 511175442 4729000#0 4729000#1 4729000#2 222114077#0 222114077#1 222114077#2 222114077#3 222114077#4 222114077#5 222114077#7 611113418#0 611113418#1 4726410#0 4726410#1 4726410#2 4726410#3 4726410#4 4726410#5 -5640229#6 -5640229#5 -5640229#4 -5640229#3 -5640229#2 -5640229#1 -5640229#0 30253923 -5640228#5 -5640228#4 -5640228#3 -5640228#2 -5640228#1 -5640228#0"/>
        <stop busStop="1780723613" duration="30.00"/>
        <stop busStop="-310417058" duration="30.00"/>
        <stop busStop="333697505" duration="30.00"/>
        <stop busStop="2313104473" duration="30.00"/>
        <stop busStop="-2310890309" duration="30.00"/>
        <stop busStop="2310890289" duration="30.00"/>
    </vehicle>

    <vehicle id="14_bus_464:0" type="pt_bus" depart="125.00" departLane="0" arrival="888.00">
        <route edges="222336041#2 625075004#0 -28266064#1 -10749352 -511175451 -173298393 -25498147#2 -25498147#1 -25498147#0 -25498146 -614969456 -4304991 511175442 4729000#0 4729000#1 4729000#2 222114077#0 222114077#1 222114077#2 222114077#3 222114077#4 222114077#5 222114077#7 611113418#0 611113418#1 4726410#0 4726410#1 4726410#2 4726410#3 4726410#4 4726410#5 -5640229#6 -5640229#5 -5640229#4 -5640229#3 -5640229#2 -5640229#1 -5640229#0 30253923 -30253923 5640229#0 5640229#1 5640229#2 5640229#3 5640229#4 5640229#5 5640229#6 -4726410#5 -4726410#4 -4726410#3 -4726410#2 -4726410#1 -4726410#0 30253920#0 30253920#1 30253920#2 30253920#4 30253920#5 358613274 151627456#1 165484797 -151627458#1 -151627458#0 427480092"/>
        <stop busStop="1780723613" duration="30.00"/>
        <stop busStop="-310417058" duration="30.00"/>
        <stop busStop="333697505" duration="30.00"/>
        <stop busStop="2313104473" duration="30.00"/>
        <stop busStop="-2310890309" duration="30.00"/>
        <stop busStop="2310890289" duration="30.00"/>
    </vehicle>

    <vehicle id="21_bus_433:0" type="pt_bus" depart="165.00" departLane="1" arrival="902.00">
        <route edges="-108915817#1 -108915817#0 108915796 509331931 328670992#0 328670992#1 328670992#2 611101972 509331932 509331935 5989176#0 5989176#1 5989176#2 188116371#0 188116371#1 22780141#0 22780141#1"/>
        <stop busStop="-2304877721" duration="30.00"/>
    </vehicle>

    <vehicle id="40_bus_433:2" type="pt_bus" depart="381.00" departLane="1" arrival="904.00">
        <route edges="-108915817#1 -108915817#0 108915796 509331931 328670992#0 328670992#1 328670992#2 611101972 509331932 509331935 5989176#0 5989176#1 5989176#2 188116371#0 188116371#1 22780141#0 22780141#1"/>
        <stop busStop="-2304877721" duration="30.00"/>
    </vehicle>

    <vehicle id="39_bus_424:6" type="pt_bus" depart="401.00" departLane="0" arrival="963.00">
        <route edges="222336041#2 625075004#0 -28266064#1 -10749352 -511175451 -173298393 -25498147#2 -25498147#1 -25498147#0 -25498146 -614969456 -4304991 511175442 4729000#0 4729000#1 4729000#2 222114077#0 222114077#1 222114077#2 222114077#3 222114077#4 222114077#5 222114077#7 611113418#0 611113418#1 4726410#0 4726410#1 4726410#2 4726410#3 4726410#4 4726410#5 -5640229#6 -5640229#5 -5640229#4 -5640229#3 -5640229#2 -5640229#1 -5640229#0 30253923 -5640228#5 -5640228#4 -5640228#3 -5640228#2 -5640228#1 -5640228#0"/>
        <stop busStop="1780723613" duration="30.00"/>
        <stop busStop="-310417058" duration="30.00"/>
        <stop busStop="333697505" duration="30.00"/>
        <stop busStop="2313104473" duration="30.00"/>
        <stop busStop="-2310890309" duration="30.00"/>
        <stop busStop="2310890289" duration="30.00"/>
    </vehicle>

    <vehicle id="29_bus_414:4" type="pt_bus" depart="227.00" departLane="1" arrival="1012.00">
        <route edges="-625070025#0 -31000150#1 -31000150#0 4752455 31000149 -4752423#2 -4752423#0 -7016592#13 -7016592#12 -7016592#9 -7016592#8 -7016592#7 -7016592#4 -7016592#3 -7016592#2 -7016592#1 7016592#1 7016592#2 -7016592#2 -7016592#1 -7016592#0 7016601 24823334 -611101998#1 -611101998#0 -82457818#2 -82457818#1 -82457818#0 82457818#0 -82457818#0 -173759898#4 -173759898#3 -173759898#2 -173759898#1 -173759898#0 -47291034#3 -47291034#2 -47291034#1 -47291034#0 -657618384 -10750085#7 10750085#7 657618384 -657618384 -10750085#7 -10750085#6 -10750085#5 -10750085#4 -10750085#3 -10750085#2 -10750085#1 -10750085#0 -4726782#4 -4726782#3 -4726782#1 -4726782#0"/>
        <stop busStop="-4539379539" duration="30.00"/>
        <stop busStop="-844172689@6768242" duration="30.00"/>
        <stop busStop="4103294756" duration="30.00"/>
        <stop busStop="844172723" duration="30.00"/>
        <stop busStop="-4103274675" duration="30.00"/>
        <stop busStop="-844172698" duration="30.00"/>
        <stop busStop="-4103260847" duration="30.00"/>
        <stop busStop="-844172702" duration="30.00"/>
        <stop busStop="-4103249696" duration="30.00"/>
        <stop busStop="-855328418" duration="30.00"/>
        <stop busStop="-4103243803" duration="30.00"/>
        <stop busStop="-844172717" duration="30.00"/>
    </vehicle>

    <vehicle id="8_bus_416:0" type="pt_bus" depart="58.00" departLane="1" arrival="1081.00">
        <route edges="-108915817#1 -108915817#1 71962469#1"/>
        <stop busStop="-2304877721" duration="30.00"/>
    </vehicle>

    <vehicle id="51_tram_1:5" type="pt_tram" depart="484.00" departLane="0" arrival="1113.00">
        <route edges="859066434#3 859066433#1 859066433#2 859066433#3 859066431#1 859066431#2 859066427#2 859066426#1 859066426#2 859066423#1 728830240#0 728830240#1 859066421#1 728830242#1 859066418#0 859066418#1 859066419#1 859066419#2 806561072#0 806561072#1 806561071#0 806561071#1 806561071#2 806561071#3 806561071#4 806561071#5 245334408#0 245334408#1 245334408#2 245334408#3 245334408#4 245334408#5"/>
        <stop busStop="54142977" duration="30.00"/>
        <stop busStop="54143009" duration="30.00"/>
        <stop busStop="2525484928" duration="30.00"/>
        <stop busStop="2525484930" duration="30.00"/>
        <stop busStop="2525484873" duration="30.00"/>
        <stop busStop="333148448" duration="30.00"/>
        <stop busStop="2525484946" duration="30.00"/>
        <stop busStop="54143138" duration="30.00"/>
    </vehicle>

    <vehicle id="35_bus_424:2" type="pt_bus" depart="346.00" departLane="1" arrival="1124.00">
        <route edges="5640228#0 5640228#1 5640228#2 5640228#3 5640228#4 5640228#5 -30253923 30253923 -30253923 5640229#0 5640229#1 5640229#2 5640229#3 5640229#4 5640229#5 5640229#6 -4726410#5 -4726410#4 -4726410#3 -4726410#2 -4726410#1 -4726410#0 -611113418#1 -611113418#0 -222114077#7 -222114077#6 -222114077#4 -222114077#3 -222114077#2 -222114077#1 -222114077#0 -4729000#2 -4729000#1 -4729000#0 -511175442 4304991 614969456 25498146 25498147#0 25498147#1 25498147#2 244424434#0 244424434#1 511175453 32434373 573227380#0 573227380#1 573227380#2 573227380#3 573227380#4 573227380#5 573227380#6 573227380#7 573227380#8 573227380#10 614969458#0 -4747816#9 -4747816#8 -611113395#3 -611113395#2 -611113395#1 -146902424#6 10425554#1 10425554#2 10425555 -146902430#2 -146902430#1 23187673#0 23187673#1"/>
        <stop busStop="-4393542161" duration="30.00"/>
        <stop busStop="-333325794" duration="30.00"/>
        <stop busStop="2310890299" duration="30.00"/>
        <stop busStop="333697509" duration="30.00"/>
        <stop busStop="-2310869837" duration="30.00"/>
        <stop busStop="-333697504" duration="30.00"/>
        <stop busStop="-333697507" duration="30.00"/>
        <stop busStop="4539421794" duration="30.00"/>
    </vehicle>

    <vehicle id="36_bus_424:3" type="pt_bus" depart="353.00" departLane="1" arrival="1128.00">
        <route edges="5640228#0 5640228#1 5640228#2 5640228#3 5640228#4 5640228#5 -30253923 30253923 -30253923 5640229#0 5640229#1 5640229#2 5640229#3 5640229#4 5640229#5 5640229#6 -4726410#5 -4726410#4 -4726410#3 -4726410#2 -4726410#1 -4726410#0 -611113418#1 -611113418#0 -222114077#7 -222114077#6 -222114077#4 -222114077#3 -222114077#2 -222114077#1 -222114077#0 -4729000#2 -4729000#1 -4729000#0 -511175442 4304991 614969456 25498146 25498147#0 25498147#1 25498147#2 173298393 720932058 173298390 28266064#0 28266063#0 511175444 625075005#1 597760605#1 625075010#1"/>
        <stop busStop="-4393542161" duration="30.00"/>
        <stop busStop="-333325794" duration="30.00"/>
        <stop busStop="2310890299" duration="30.00"/>
        <stop busStop="333697509" duration="30.00"/>
        <stop busStop="-2310869837" duration="30.00"/>
        <stop busStop="-333697504" duration="30.00"/>
        <stop busStop="-333697507" duration="30.00"/>
        <stop busStop="310417074" duration="30.00"/>
        <stop busStop="2313104483" duration="30.00"/>
    </vehicle>

    <vehicle id="50_tram_1:4" type="pt_tram" depart="483.00" departLane="0" arrival="1128.00">
        <route edges="245334406#0 245334406#3 245334406#4 245334406#5 245334406#6 245334406#7 806561073#0 806561073#1 806561073#2 806561073#3 806561073#4 806561073#5 806561074 859066420#0 859066420#1 859066420#2 859066417#1 728830241#0 728830241#1 859066424#0 859066424#1 859066424#2 859066424#3 859066424#4 859066424#5 859066428#1 859066428#2 859066429#2 859066430#1 859066430#2 859066434#1 859066434#2 859066434#3"/>
        <stop busStop="54143139" duration="30.00"/>
        <stop busStop="54143135" duration="30.00"/>
        <stop busStop="333148451" duration="30.00"/>
        <stop busStop="54143083" duration="30.00"/>
        <stop busStop="54153340" duration="30.00"/>
        <stop busStop="54143015" duration="30.00"/>
        <stop busStop="54143012" duration="30.00"/>