<?xml version="1.0" encoding="UTF-8"?>

<!-- generated on 2022-02-08 11:25:43 by Eclipse SUMO sumo Version v1_12_0+0353-0cd4bcd
This data file and the accompanying materials
are made available under the terms of the Eclipse Public License v2.0
which accompanies this distribution, and is available at
http://www.eclipse.org/legal/epl-v20.html
This file may also be made available under the following Secondary
Licenses when the conditions for such availability set forth in the Eclipse
Public License 2.0 are satisfied: GNU General Public License, version 2
or later which is available at
https://www.gnu.org/licenses/old-licenses/gpl-2.0-standalone.html
SPDX-License-Identifier: EPL-2.0 OR GPL-2.0-or-later
<configuration xmlns:xsi="http://www.w3.org/2001/XMLSchema-instance" xsi:noNamespaceSchemaLocation="http://sumo.dlr.de/xsd/sumoConfiguration.xsd">

    <input>
        <net-file value="net2.net.xml"/>
        <additional-files value="input_routes.rou.xml,input_additional.add.xml"/>
    </input>

    <output>
        <write-license value="true"/>
        <tripinfo-output value="tripinfos.xml"/>
    </output>

    <time>
        <end value="360"/>
    </time>

    <processing>
        <extrapolate-departpos value="true"/>
        <default.speeddev value="0"/>
    </processing>

    <report>
        <verbose value="true"/>
        <xml-validation value="never"/>
        <xml-validation.routes value="never"/>
        <duration-log.statistics value="true"/>
        <no-step-log value="true"/>
    </report>

</configuration>
-->

<tripinfos xmlns:xsi="http://www.w3.org/2001/XMLSchema-instance" xsi:noNamespaceSchemaLocation="http://sumo.dlr.de/xsd/tripinfo_file.xsd">
    <tripinfo id="flow.0" depart="0.00" departLane="beg_0" departPos="5.10" departSpeed="29.47" departDelay="0.00" arrival="35.00" arrivalLane="end_0" arrivalPos="500.00" arrivalSpeed="28.99" duration="35.00" routeLength="995.00" waitingTime="0.00" waitingCount="0" stopTime="0.00" timeLoss="0.69" rerouteNo="0" devices="tripinfo_flow.0" vType="t0" speedFactor="1.06" vaporized=""/>
    <tripinfo id="flow.1" depart="1.00" departLane="beg_0" departPos="5.10" departSpeed="26.08" departDelay="0.00" arrival="41.00" arrivalLane="end_0" arrivalPos="500.00" arrivalSpeed="25.39" duration="40.00" routeLength="995.00" waitingTime="0.00" waitingCount="0" stopTime="0.00" timeLoss="1.13" rerouteNo="0" devices="tripinfo_flow.1" vType="t0" speedFactor="0.94" vaporized=""/>
    <tripinfo id="flow.2" depart="3.00" departLane="beg_0" departPos="5.10" departSpeed="25.20" departDelay="1.00" arrival="42.00" arrivalLane="end_0" arrivalPos="500.00" arrivalSpeed="26.96" duration="39.00" routeLength="995.00" waitingTime="0.00" waitingCount="0" stopTime="0.00" timeLoss="3.85" rerouteNo="0" devices="tripinfo_flow.2" vType="t0" speedFactor="1.01" vaporized=""/>
    <tripinfo id="flow.3" depart="4.00" departLane="beg_0" departPos="5.10" departSpeed="24.19" departDelay="1.00" arrival="43.00" arrivalLane="end_0" arrivalPos="500.00" arrivalSpeed="28.29" duration="39.00" routeLength="995.00" waitingTime="0.00" waitingCount="0" stopTime="0.00" timeLoss="6.26" rerouteNo="0" devices="tripinfo_flow.3" vType="t0" speedFactor="1.08" vaporized=""/>
    <tripinfo id="flow.4" depart="5.00" departLane="beg_0" departPos="5.10" departSpeed="23.18" departDelay="1.00" arrival="45.00" arrivalLane="end_0" arrivalPos="500.00" arrivalSpeed="27.61" duration="40.00" routeLength="995.00" waitingTime="0.00" waitingCount="0" stopTime="0.00" timeLoss="4.80" rerouteNo="0" devices="tripinfo_flow.4" vType="t0" speedFactor="1.03" vaporized=""/>
    <tripinfo id="flow.5" depart="7.00" departLane="beg_0" departPos="5.10" departSpeed="23.10" departDelay="2.00" arrival="51.00" arrivalLane="end_0" arrivalPos="500.00" arrivalSpeed="22.96" duration="44.00" routeLength="995.00" waitingTime="0.00" waitingCount="0" stopTime="0.00" timeLoss="1.13" rerouteNo="0" devices="tripinfo_flow.5" vType="t0" speedFactor="0.83" vaporized=""/>
    <tripinfo id="flow.6" depart="8.00" departLane="beg_0" departPos="5.10" departSpeed="22.90" departDelay="2.00" arrival="52.00" arrivalLane="end_0" arrivalPos="500.00" arrivalSpeed="24.75" duration="44.00" routeLength="995.00" waitingTime="0.00" waitingCount="0" stopTime="0.00" timeLoss="10.00" rerouteNo="0" devices="tripinfo_flow.6" vType="t0" speedFactor="1.05" vaporized=""/>
    <tripinfo id="flow.7" depart="9.00" departLane="beg_0" departPos="5.10" departSpeed="21.64" departDelay="2.00" arrival="54.00" arrivalLane="end_0" arrivalPos="500.00" arrivalSpeed="23.84" duration="45.00" routeLength="995.00" waitingTime="0.00" waitingCount="0" stopTime="0.00" timeLoss="4.06" rerouteNo="0" devices="tripinfo_flow.7" vType="t0" speedFactor="0.89" vaporized=""/>
    <tripinfo id="flow.8" depart="11.00" departLane="beg_0" departPos="5.10" departSpeed="20.40" departDelay="3.00" arrival="55.00" arrivalLane="end_0" arrivalPos="500.00" arrivalSpeed="25.47" duration="44.00" routeLength="995.00" waitingTime="0.00" waitingCount="0" stopTime="0.00" timeLoss="6.18" rerouteNo="0" devices="tripinfo_flow.8" vType="t0" speedFactor="0.94" vaporized=""/>
    <tripinfo id="flow.9" depart="12.00" departLane="beg_0" departPos="5.10" departSpeed="20.31" departDelay="3.00" arrival="57.00" arrivalLane="end_0" arrivalPos="500.00" arrivalSpeed="23.06" duration="45.00" routeLength="995.00" waitingTime="0.00" waitingCount="0" stopTime="0.00" timeLoss="3.01" rerouteNo="0" devices="tripinfo_flow.9" vType="t0" speedFactor="0.86" vaporized=""/>
    <tripinfo id="flow.10" depart="13.00" departLane="beg_0" departPos="5.10" departSpeed="20.25" departDelay="3.00" arrival="58.00" arrivalLane="end_0" arrivalPos="500.00" arrivalSpeed="26.34" duration="45.00" routeLength="995.00" waitingTime="0.00" waitingCount="0" stopTime="0.00" timeLoss="12.03" rerouteNo="0" devices="tripinfo_flow.10" vType="t0" speedFactor="1.09" vaporized=""/>
    <tripinfo id="flow.11" depart="15.00" departLane="beg_0" departPos="5.10" departSpeed="19.49" departDelay="4.00" arrival="60.00" arrivalLane="end_0" arrivalPos="500.00" arrivalSpeed="28.18" duration="45.00" routeLength="995.00" waitingTime="0.00" waitingCount="0" stopTime="0.00" timeLoss="9.79" rerouteNo="0" devices="tripinfo_flow.11" vType="t0" speedFactor="1.03" vaporized=""/>
    <tripinfo id="flow.12" depart="16.00" departLane="beg_0" departPos="5.10" departSpeed="18.34" departDelay="4.00" arrival="61.00" arrivalLane="end_0" arrivalPos="500.00" arrivalSpeed="27.66" duration="45.00" routeLength="995.00" waitingTime="0.00" waitingCount="0" stopTime="0.00" timeLoss="10.65" rerouteNo="0" devices="tripinfo_flow.12" vType="t0" speedFactor="1.05" vaporized=""/>
    <tripinfo id="flow.13" depart="17.00" departLane="beg_0" departPos="5.10" departSpeed="18.05" departDelay="4.00" arrival="62.00" arrivalLane="end_0" arrivalPos="500.00" arrivalSpeed="27.87" duration="45.00" routeLength="995.00" waitingTime="0.00" waitingCount="0" stopTime="0.00" timeLoss="13.08" rerouteNo="0" devices="tripinfo_flow.13" vType="t0" speedFactor="1.12" vaporized=""/>
    <tripinfo id="flow.14" depart="19.00" departLane="beg_0" departPos="5.10" departSpeed="18.63" departDelay="5.00" arrival="64.00" arrivalLane="end_0" arrivalPos="500.00" arrivalSpeed="27.24" duration="45.00" routeLength="995.00" waitingTime="0.00" waitingCount="0" stopTime="0.00" timeLoss="8.67" rerouteNo="0" devices="tripinfo_flow.14" vType="t0" speedFactor="0.99" vaporized=""/>
    <tripinfo id="flow.15" depart="20.00" departLane="beg_0" departPos="5.10" departSpeed="17.86" departDelay="5.00" arrival="65.00" arrivalLane="end_0" arrivalPos="500.00" arrivalSpeed="25.69" duration="45.00" routeLength="995.00" waitingTime="0.00" waitingCount="0" stopTime="0.00" timeLoss="6.45" rerouteNo="0" devices="tripinfo_flow.15" vType="t0" speedFactor="0.93" vaporized=""/>
    <tripinfo id="flow.16" depart="22.00" departLane="beg_0" departPos="5.10" departSpeed="17.93" departDelay="6.00" arrival="67.00" arrivalLane="end_0" arrivalPos="500.00" arrivalSpeed="24.16" duration="45.00" routeLength="995.00" waitingTime="0.00" waitingCount="0" stopTime="0.00" timeLoss="4.36" rerouteNo="0" devices="tripinfo_flow.16" vType="t0" speedFactor="0.88" vaporized=""/>
    <tripinfo id="flow.17" depart="23.00" departLane="beg_0" departPos="5.10" departSpeed="17.35" departDelay="6.00" arrival="68.00" arrivalLane="end_0" arrivalPos="500.00" arrivalSpeed="24.78" duration="45.00" routeLength="995.00" waitingTime="0.00" waitingCount="0" stopTime="0.00" timeLoss="7.19" rerouteNo="0" devices="tripinfo_flow.17" vType="t0" speedFactor="0.94" vaporized=""/>
    <tripinfo id="flow.18" depart="25.00" departLane="beg_0" departPos="5.10" departSpeed="17.52" departDelay="7.00" arrival="70.00" arrivalLane="end_0" arrivalPos="500.00" arrivalSpeed="24.91" duration="45.00" routeLength="995.00" waitingTime="0.00" waitingCount="0" stopTime="0.00" timeLoss="6.81" rerouteNo="0" devices="tripinfo_flow.18" vType="t0" speedFactor="0.94" vaporized=""/>
    <tripinfo id="flow.19" depart="26.00" departLane="beg_0" departPos="5.10" departSpeed="16.95" departDelay="7.00" arrival="71.00" arrivalLane="end_0" arrivalPos="500.00" arrivalSpeed="27.09" duration="45.00" routeLength="995.00" waitingTime="0.00" waitingCount="0" stopTime="0.00" timeLoss="14.12" rerouteNo="0" devices="tripinfo_flow.19" vType="t0" speedFactor="1.16" vaporized=""/>
    <tripinfo id="flow.20" depart="27.00" departLane="beg_0" departPos="5.10" departSpeed="15.87" departDelay="7.00" arrival="73.00" arrivalLane="end_0" arrivalPos="500.00" arrivalSpeed="27.61" duration="46.00" routeLength="995.00" waitingTime="0.00" waitingCount="0" stopTime="0.00" timeLoss="10.00" rerouteNo="0" devices="tripinfo_flow.20" vType="t0" speedFactor="1.02" vaporized=""/>
    <tripinfo id="flow.21" depart="29.00" departLane="beg_0" departPos="5.10" departSpeed="17.22" departDelay="8.00" arrival="74.00" arrivalLane="end_0" arrivalPos="500.00" arrivalSpeed="28.05" duration="45.00" routeLength="995.00" waitingTime="0.00" waitingCount="0" stopTime="0.00" timeLoss="9.40" rerouteNo="0" devices="tripinfo_flow.21" vType="t0" speedFactor="1.01" vaporized=""/>
    <tripinfo id="flow.22" depart="30.00" departLane="beg_0" departPos="5.10" departSpeed="16.70" departDelay="8.00" arrival="75.00" arrivalLane="end_0" arrivalPos="500.00" arrivalSpeed="26.30" duration="45.00" routeLength="995.00" waitingTime="0.00" waitingCount="0" stopTime="0.00" timeLoss="8.31" rerouteNo="0" devices="tripinfo_flow.22" vType="t0" speedFactor="0.97" vaporized=""/>
    <tripinfo id="flow.23" depart="32.00" departLane="beg_0" departPos="5.10" departSpeed="17.61" departDelay="9.00" arrival="77.00" arrivalLane="end_0" arrivalPos="500.00" arrivalSpeed="23.50" duration="45.00" routeLength="995.00" waitingTime="0.00" waitingCount="0" stopTime="0.00" timeLoss="4.97" rerouteNo="0" devices="tripinfo_flow.23" vType="t0" speedFactor="0.89" vaporized=""/>
    <tripinfo id="flow.24" depart="33.00" departLane="beg_0" departPos="5.10" departSpeed="16.33" departDelay="9.00" arrival="79.00" arrivalLane="end_0" arrivalPos="500.00" arrivalSpeed="22.74" duration="46.00" routeLength="995.00" waitingTime="0.00" waitingCount="0" stopTime="0.00" timeLoss="2.74" rerouteNo="0" devices="tripinfo_flow.24" vType="t0" speedFactor="0.83" vaporized=""/>
    <tripinfo id="flow.25" depart="35.00" departLane="beg_0" departPos="5.10" departSpeed="16.79" departDelay="10.00" arrival="81.00" arrivalLane="end_0" arrivalPos="500.00" arrivalSpeed="24.18" duration="46.00" routeLength="995.00" waitingTime="0.00" waitingCount="0" stopTime="0.00" timeLoss="4.78" rerouteNo="0" devices="tripinfo_flow.25" vType="t0" speedFactor="0.87" vaporized=""/>
    <tripinfo id="flow.26" depart="36.00" departLane="beg_0" departPos="5.10" departSpeed="16.09" departDelay="10.00" arrival="82.00" arrivalLane="end_0" arrivalPos="500.00" arrivalSpeed="25.08" duration="46.00" routeLength="995.00" waitingTime="0.00" waitingCount="0" stopTime="0.00" timeLoss="6.92" rerouteNo="0" devices="tripinfo_flow.26" vType="t0" speedFactor="0.92" vaporized=""/>
    <tripinfo id="flow.27" depart="38.00" departLane="beg_0" departPos="5.10" departSpeed="17.60" departDelay="11.00" arrival="84.00" arrivalLane="end_0" arrivalPos="500.00" arrivalSpeed="25.21" duration="46.00" routeLength="995.00" waitingTime="0.00" waitingCount="0" stopTime="0.00" timeLoss="8.01" rerouteNo="0" devices="tripinfo_flow.27" vType="t0" speedFactor="0.95" vaporized=""/>
    <tripinfo id="flow.28" depart="39.00" departLane="beg_0" departPos="5.10" departSpeed="17.03" departDelay="11.00" arrival="85.00" arrivalLane="end_0" arrivalPos="500.00" arrivalSpeed="27.14" duration="46.00" routeLength="995.00" waitingTime="0.00" waitingCount="0" stopTime="0.00" timeLoss="14.17" rerouteNo="0" devices="tripinfo_flow.28" vType="t0" speedFactor="1.13" vaporized=""/>
    <tripinfo id="flow.29" depart="41.00" departLane="beg_0" departPos="5.10" departSpeed="18.03" departDelay="12.00" arrival="87.00" arrivalLane="end_0" arrivalPos="500.00" arrivalSpeed="24.95" duration="46.00" routeLength="995.00" waitingTime="0.00" waitingCount="0" stopTime="0.00" timeLoss="7.24" rerouteNo="0" devices="tripinfo_flow.29" vType="t0" speedFactor="0.93" vaporized=""/>
    <tripinfo id="flow.30" depart="42.00" departLane="beg_0" departPos="5.10" departSpeed="17.03" departDelay="12.00" arrival="88.00" arrivalLane="end_0" arrivalPos="500.00" arrivalSpeed="27.59" duration="46.00" routeLength="995.00" waitingTime="0.00" waitingCount="0" stopTime="0.00" timeLoss="15.40" rerouteNo="0" devices="tripinfo_flow.30" vType="t0" speedFactor="1.18" vaporized=""/>
    <tripinfo id="flow.31" depart="44.00" departLane="beg_0" departPos="5.10" departSpeed="17.61" departDelay="13.00" arrival="90.00" arrivalLane="end_0" arrivalPos="500.00" arrivalSpeed="29.01" duration="46.00" routeLength="995.00" waitingTime="0.00" waitingCount="0" stopTime="0.00" timeLoss="14.50" rerouteNo="0" devices="tripinfo_flow.31" vType="t0" speedFactor="1.15" vaporized=""/>
    <tripinfo id="flow.32" depart="45.00" departLane="beg_0" departPos="5.10" departSpeed="17.18" departDelay="13.00" arrival="91.00" arrivalLane="end_0" arrivalPos="500.00" arrivalSpeed="27.45" duration="46.00" routeLength="995.00" waitingTime="0.00" waitingCount="0" stopTime="0.00" timeLoss="9.98" rerouteNo="0" devices="tripinfo_flow.32" vType="t0" speedFactor="1.01" vaporized=""/>
    <tripinfo id="flow.33" depart="47.00" departLane="beg_0" departPos="5.10" departSpeed="16.04" departDelay="14.00" arrival="92.00" arrivalLane="end_0" arrivalPos="500.00" arrivalSpeed="29.09" duration="45.00" routeLength="995.00" waitingTime="0.00" waitingCount="0" stopTime="0.00" timeLoss="14.66" rerouteNo="0" devices="tripinfo_flow.33" vType="t0" speedFactor="1.17" vaporized=""/>
    <tripinfo id="flow.34" depart="48.00" departLane="beg_0" departPos="5.10" departSpeed="15.74" departDelay="14.00" arrival="94.00" arrivalLane="end_0" arrivalPos="500.00" arrivalSpeed="26.87" duration="46.00" routeLength="995.00" waitingTime="0.00" waitingCount="0" stopTime="0.00" timeLoss="9.57" rerouteNo="0" devices="tripinfo_flow.34" vType="t0" speedFactor="0.99" vaporized=""/>
    <tripinfo id="flow.35" depart="50.00" departLane="beg_0" departPos="5.10" departSpeed="16.81" departDelay="15.00" arrival="95.00" arrivalLane="end_0" arrivalPos="500.00" arrivalSpeed="27.82" duration="45.00" routeLength="995.00" waitingTime="0.00" waitingCount="0" stopTime="0.00" timeLoss="10.14" rerouteNo="0" devices="tripinfo_flow.35" vType="t0" speedFactor="1.02" vaporized=""/>
    <tripinfo id="flow.36" depart="51.00" departLane="beg_0" departPos="5.10" departSpeed="16.71" departDelay="15.00" arrival="97.00" arrivalLane="end_0" arrivalPos="500.00" arrivalSpeed="26.36" duration="46.00" routeLength="995.00" waitingTime="0.00" waitingCount="0" stopTime="0.00" timeLoss="8.71" rerouteNo="0" devices="tripinfo_flow.36" vType="t0" speedFactor="0.97" vaporized=""/>
    <tripinfo id="flow.37" depart="53.00" departLane="beg_0" departPos="5.10" departSpeed="14.25" departDelay="16.00" arrival="98.00" arrivalLane="end_0" arrivalPos="500.00" arrivalSpeed="27.97" duration="45.00" routeLength="995.00" waitingTime="0.00" waitingCount="0" stopTime="0.00" timeLoss="14.82" rerouteNo="0" devices="tripinfo_flow.37" vType="t0" speedFactor="1.18" vaporized=""/>
    <tripinfo id="flow.38" depart="54.00" departLane="beg_0" departPos="5.10" departSpeed="13.48" departDelay="16.00" arrival="100.00" arrivalLane="end_0" arrivalPos="500.00" arrivalSpeed="30.42" duration="46.00" routeLength="995.00" waitingTime="0.00" waitingCount="0" stopTime="0.00" timeLoss="12.77" rerouteNo="0" devices="tripinfo_flow.38" vType="t0" speedFactor="1.10" vaporized=""/>
    <tripinfo id="flow.39" depart="56.00" departLane="beg_0" departPos="5.10" departSpeed="14.85" departDelay="17.00" arrival="101.00" arrivalLane="end_0" arrivalPos="500.00" arrivalSpeed="23.99" duration="45.00" routeLength="995.00" waitingTime="0.00" waitingCount="0" stopTime="0.00" timeLoss="5.70" rerouteNo="0" devices="tripinfo_flow.39" vType="t0" speedFactor="0.90" vaporized=""/>
    <tripinfo id="flow.40" depart="57.00" departLane="beg_0" departPos="5.10" departSpeed="13.92" departDelay="17.00" arrival="103.00" arrivalLane="end_0" arrivalPos="500.00" arrivalSpeed="28.09" duration="46.00" routeLength="995.00" waitingTime="0.00" waitingCount="0" stopTime="0.00" timeLoss="10.74" rerouteNo="0" devices="tripinfo_flow.40" vType="t0" speedFactor="1.03" vaporized=""/>
    <tripinfo id="flow.41" depart="59.00" departLane="beg_0" departPos="5.10" departSpeed="14.90" departDelay="18.00" arrival="104.00" arrivalLane="end_0" arrivalPos="500.00" arrivalSpeed="25.93" duration="45.00" routeLength="995.00" waitingTime="0.00" waitingCount="0" stopTime="0.00" timeLoss="7.76" rerouteNo="0" devices="tripinfo_flow.41" vType="t0" speedFactor="0.96" vaporized=""/>
    <tripinfo id="flow.42" depart="60.00" departLane="beg_0" departPos="5.10" departSpeed="14.74" departDelay="18.00" arrival="106.00" arrivalLane="end_0" arrivalPos="500.00" arrivalSpeed="29.33" duration="46.00" routeLength="995.00" waitingTime="0.00" waitingCount="0" stopTime="0.00" timeLoss="12.43" rerouteNo="0" devices="tripinfo_flow.42" vType="t0" speedFactor="1.09" vaporized=""/>
    <tripinfo id="flow.43" depart="62.00" departLane="beg_0" departPos="5.10" departSpeed="15.20" departDelay="19.00" arrival="107.00" arrivalLane="end_0" arrivalPos="500.00" arrivalSpeed="28.73" duration="45.00" routeLength="995.00" waitingTime="0.00" waitingCount="0" stopTime="0.00" timeLoss="10.39" rerouteNo="0" devices="tripinfo_flow.43" vType="t0" speedFactor="1.04" vaporized=""/>
    <tripinfo id="flow.44" depart="63.00" departLane="beg_0" departPos="5.10" departSpeed="14.72" departDelay="19.00" arrival="108.00" arrivalLane="end_0" arrivalPos="500.00" arrivalSpeed="27.83" duration="45.00" routeLength="995.00" waitingTime="0.00" waitingCount="0" stopTime="0.00" timeLoss="10.73" rerouteNo="0" devices="tripinfo_flow.44" vType="t0" speedFactor="1.04" vaporized=""/>
    <tripinfo id="flow.45" depart="65.00" departLane="beg_0" departPos="5.10" departSpeed="16.04" departDelay="20.00" arrival="110.00" arrivalLane="end_0" arrivalPos="500.00" arrivalSpeed="30.11" duration="45.00" routeLength="995.00" waitingTime="0.00" waitingCount="0" stopTime="0.00" timeLoss="11.72" rerouteNo="0" devices="tripinfo_flow.45" vType="t0" speedFactor="1.09" vaporized=""/>
    <tripinfo id="flow.46" depart="66.00" departLane="beg_0" departPos="5.10" departSpeed="15.78" departDelay="20.00" arrival="111.00" arrivalLane="end_0" arrivalPos="500.00" arrivalSpeed="27.01" duration="45.00" routeLength="995.00" waitingTime="0.00" waitingCount="0" stopTime="0.00" timeLoss="9.06" rerouteNo="0" devices="tripinfo_flow.46" vType="t0" speedFactor="1.00" vaporized=""/>
    <tripinfo id="flow.47" depart="68.00" departLane="beg_0" departPos="5.10" departSpeed="16.89" departDelay="21.00" arrival="113.00" arrivalLane="end_0" arrivalPos="500.00" arrivalSpeed="24.86" duration="45.00" routeLength="995.00" waitingTime="0.00" waitingCount="0" stopTime="0.00" timeLoss="5.31" rerouteNo="0" devices="tripinfo_flow.47" vType="t0" speedFactor="0.90" vaporized=""/>
    <tripinfo id="flow.48" depart="69.00" departLane="beg_0" departPos="5.10" departSpeed="15.98" departDelay="21.00" arrival="115.00" arrivalLane="end_0" arrivalPos="500.00" arrivalSpeed="23.91" duration="46.00" routeLength="995.00" waitingTime="0.00" waitingCount="0" stopTime="0.00" timeLoss="4.67" rerouteNo="0" devices="tripinfo_flow.48" vType="t0" speedFactor="0.88" vaporized=""/>
    <tripinfo id="flow.49" depart="71.00" departLane="beg_0" departPos="5.10" departSpeed="16.68" departDelay="22.00" arrival="117.00" arrivalLane="end_0" arrivalPos="500.00" arrivalSpeed="23.39" duration="46.00" routeLength="995.00" waitingTime="0.00" waitingCount="0" stopTime="0.00" timeLoss="3.45" rerouteNo="0" devices="tripinfo_flow.49" vType="t0" speedFactor="0.85" vaporized=""/>
    <tripinfo id="flow.50" depart="72.00" departLane="beg_0" departPos="5.10" departSpeed="16.22" departDelay="22.00" arrival="118.00" arrivalLane="end_0" arrivalPos="500.00" arrivalSpeed="23.13" duration="46.00" routeLength="995.00" waitingTime="0.00" waitingCount="0" stopTime="0.00" timeLoss="3.90" rerouteNo="0" devices="tripinfo_flow.50" vType="t0" speedFactor="0.85" vaporized=""/>
    <tripinfo id="flow.51" depart="74.00" departLane="beg_0" departPos="5.10" departSpeed="17.33" departDelay="23.00" arrival="119.00" arrivalLane="end_0" arrivalPos="500.00" arrivalSpeed="24.68" duration="45.00" routeLength="995.00" waitingTime="0.00" waitingCount="0" stopTime="0.00" timeLoss="14.73" rerouteNo="0" devices="tripinfo_flow.51" vType="t0" speedFactor="1.17" vaporized=""/>
    <tripinfo id="flow.52" depart="75.00" departLane="beg_0" departPos="5.10" departSpeed="16.24" departDelay="23.00" arrival="121.00" arrivalLane="end_0" arrivalPos="500.00" arrivalSpeed="26.30" duration="46.00" routeLength="995.00" waitingTime="0.00" waitingCount="0" stopTime="0.00" timeLoss="10.42" rerouteNo="0" devices="tripinfo_flow.52" vType="t0" speedFactor="1.02" vaporized=""/>
    <tripinfo id="flow.53" depart="77.00" departLane="beg_0" departPos="5.10" departSpeed="17.18" departDelay="24.00" arrival="122.00" arrivalLane="end_0" arrivalPos="500.00" arrivalSpeed="26.59" duration="45.00" routeLength="995.00" waitingTime="0.00" waitingCount="0" stopTime="0.00" timeLoss="12.56" rerouteNo="0" devices="tripinfo_flow.53" vType="t0" speedFactor="1.10" vaporized=""/>
    <tripinfo id="flow.54" depart="78.00" departLane="beg_0" departPos="5.10" departSpeed="17.10" departDelay="24.00" arrival="124.00" arrivalLane="end_0" arrivalPos="500.00" arrivalSpeed="27.73" duration="46.00" routeLength="995.00" waitingTime="0.00" waitingCount="0" stopTime="0.00" timeLoss="9.70" rerouteNo="0" devices="tripinfo_flow.54" vType="t0" speedFactor="1.00" vaporized=""/>
    <tripinfo id="flow.55" depart="80.00" departLane="beg_0" departPos="5.10" departSpeed="16.73" departDelay="25.00" arrival="125.00" arrivalLane="end_0" arrivalPos="500.00" arrivalSpeed="26.57" duration="45.00" routeLength="995.00" waitingTime="0.00" waitingCount="0" stopTime="0.00" timeLoss="9.25" rerouteNo="0" devices="tripinfo_flow.55" vType="t0" speedFactor="1.00" vaporized=""/>
    <tripinfo id="flow.56" depart="81.00" departLane="beg_0" departPos="5.10" departSpeed="16.33" departDelay="25.00" arrival="127.00" arrivalLane="end_0" arrivalPos="500.00" arrivalSpeed="24.03" duration="46.00" routeLength="995.00" waitingTime="0.00" waitingCount="0" stopTime="0.00" timeLoss="5.75" rerouteNo="0" devices="tripinfo_flow.56" vType="t0" speedFactor="0.90" vaporized=""/>
    <tripinfo id="flow.57" depart="83.00" departLane="beg_0" departPos="5.10" departSpeed="17.25" departDelay="26.00" arrival="128.00" arrivalLane="end_0" arrivalPos="500.00" arrivalSpeed="27.34" duration="45.00" routeLength="995.00" waitingTime="0.00" waitingCount="0" stopTime="0.00" timeLoss="13.83" rerouteNo="0" devices="tripinfo_flow.57" vType="t0" speedFactor="1.14" vaporized=""/>
    <tripinfo id="flow.58" depart="84.00" departLane="beg_0" departPos="5.10" departSpeed="16.04" departDelay="26.00" arrival="130.00" arrivalLane="end_0" arrivalPos="500.00" arrivalSpeed="27.58" duration="46.00" routeLength="995.00" waitingTime="0.00" waitingCount="0" stopTime="0.00" timeLoss="10.40" rerouteNo="0" devices="tripinfo_flow.58" vType="t0" speedFactor="1.02" vaporized=""/>
    <tripinfo id="flow.59" depart="86.00" departLane="beg_0" departPos="5.10" departSpeed="15.54" departDelay="27.00" arrival="131.00" arrivalLane="end_0" arrivalPos="500.00" arrivalSpeed="26.35" duration="45.00" routeLength="995.00" waitingTime="0.00" waitingCount="0" stopTime="0.00" timeLoss="8.21" rerouteNo="0" devices="tripinfo_flow.59" vType="t0" speedFactor="0.97" vaporized=""/>
    <tripinfo id="flow.60" depart="87.00" departLane="beg_0" departPos="5.10" departSpeed="14.53" departDelay="27.00" arrival="132.00" arrivalLane="end_0" arrivalPos="500.00" arrivalSpeed="27.59" duration="45.00" routeLength="995.00" waitingTime="0.00" waitingCount="0" stopTime="0.00" timeLoss="12.13" rerouteNo="0" devices="tripinfo_flow.60" vType="t0" speedFactor="1.08" vaporized=""/>
    <tripinfo id="flow.61" depart="88.00" departLane="beg_0" departPos="5.10" departSpeed="13.75" departDelay="27.00" arrival="134.00" arrivalLane="end_0" arrivalPos="500.00" arrivalSpeed="29.45" duration="46.00" routeLength="995.00" waitingTime="0.00" waitingCount="0" stopTime="0.00" timeLoss="13.43" rerouteNo="0" devices="tripinfo_flow.61" vType="t0" speedFactor="1.12" vaporized=""/>
    <tripinfo id="flow.62" depart="90.00" departLane="beg_0" departPos="5.10" departSpeed="15.19" departDelay="28.00" arrival="135.00" arrivalLane="end_0" arrivalPos="500.00" arrivalSpeed="27.12" duration="45.00" routeLength="995.00" waitingTime="0.00" waitingCount="0" stopTime="0.00" timeLoss="9.81" rerouteNo="0" devices="tripinfo_flow.62" vType="t0" speedFactor="1.02" vaporized=""/>
    <tripinfo id="flow.63" depart="92.00" departLane="beg_0" departPos="5.10" departSpeed="16.74" departDelay="29.00" arrival="137.00" arrivalLane="end_0" arrivalPos="500.00" arrivalSpeed="26.15" duration="45.00" routeLength="995.00" waitingTime="0.00" waitingCount="0" stopTime="0.00" timeLoss="8.54" rerouteNo="0" devices="tripinfo_flow.63" vType="t0" speedFactor="0.99" vaporized=""/>
    <tripinfo id="flow.64" depart="93.00" departLane="beg_0" departPos="5.10" departSpeed="15.46" departDelay="29.00" arrival="138.00" arrivalLane="end_0" arrivalPos="500.00" arrivalSpeed="25.52" duration="45.00" routeLength="995.00" waitingTime="0.00" waitingCount="0" stopTime="0.00" timeLoss="6.96" rerouteNo="0" devices="tripinfo_flow.64" vType="t0" speedFactor="0.94" vaporized=""/>
    <tripinfo id="flow.65" depart="95.00" departLane="beg_0" departPos="5.10" departSpeed="16.40" departDelay="30.00" arrival="140.00" arrivalLane="end_0" arrivalPos="500.00" arrivalSpeed="23.82" duration="45.00" routeLength="995.00" waitingTime="0.00" waitingCount="0" stopTime="0.00" timeLoss="4.75" rerouteNo="0" devices="tripinfo_flow.65" vType="t0" speedFactor="0.88" vaporized=""/>
    <tripinfo id="flow.66" depart="96.00" departLane="beg_0" departPos="5.10" departSpeed="15.68" departDelay="30.00" arrival="142.00" arrivalLane="end_0" arrivalPos="500.00" arrivalSpeed="24.12" duration="46.00" routeLength="995.00" waitingTime="0.00" waitingCount="0" stopTime="0.00" timeLoss="6.04" rerouteNo="0" devices="tripinfo_flow.66" vType="t0" speedFactor="0.91" vaporized=""/>
    <tripinfo id="flow.67" depart="98.00" departLane="beg_0" departPos="5.10" departSpeed="17.17" departDelay="31.00" arrival="143.00" arrivalLane="end_0" arrivalPos="500.00" arrivalSpeed="25.30" duration="45.00" routeLength="995.00" waitingTime="0.00" waitingCount="0" stopTime="0.00" timeLoss="6.04" rerouteNo="0" devices="tripinfo_flow.67" vType="t0" speedFactor="0.91" vaporized=""/>
    <tripinfo id="flow.68" depart="99.00" departLane="beg_0" departPos="5.10" departSpeed="16.99" departDelay="31.00" arrival="145.00" arrivalLane="end_0" arrivalPos="500.00" arrivalSpeed="27.70" duration="46.00" routeLength="995.00" waitingTime="0.00" waitingCount="0" stopTime="0.00" timeLoss="10.85" rerouteNo="0" devices="tripinfo_flow.68" vType="t0" speedFactor="1.04" vaporized=""/>
    <tripinfo id="flow.69" depart="101.00" departLane="beg_0" departPos="5.10" departSpeed="17.27" departDelay="32.00" arrival="146.00" arrivalLane="end_0" arrivalPos="500.00" arrivalSpeed="27.98" duration="45.00" routeLength="995.00" waitingTime="0.00" waitingCount="0" stopTime="0.00" timeLoss="9.89" rerouteNo="0" devices="tripinfo_flow.69" vType="t0" speedFactor="1.02" vaporized=""/>
    <tripinfo id="flow.70" depart="102.00" departLane="beg_0" departPos="5.10" departSpeed="16.08" departDelay="32.00" arrival="147.00" arrivalLane="end_0" arrivalPos="500.00" arrivalSpeed="26.86" duration="45.00" routeLength="995.00" waitingTime="0.00" waitingCount="0" stopTime="0.00" timeLoss="10.10" rerouteNo="0" devices="tripinfo_flow.70" vType="t0" speedFactor="1.02" vaporized=""/>
    <tripinfo id="flow.71" depart="104.00" departLane="beg_0" departPos="5.10" departSpeed="17.31" departDelay="33.00" arrival="149.00" arrivalLane="end_0" arrivalPos="500.00" arrivalSpeed="25.98" duration="45.00" routeLength="995.00" waitingTime="0.00" waitingCount="0" stopTime="0.00" timeLoss="8.04" rerouteNo="0" devices="tripinfo_flow.71" vType="t0" speedFactor="0.97" vaporized=""/>
    <tripinfo id="flow.72" depart="105.00" departLane="beg_0" departPos="5.10" departSpeed="16.21" departDelay="33.00" arrival="150.00" arrivalLane="end_0" arrivalPos="500.00" arrivalSpeed="25.65" duration="45.00" routeLength="995.00" waitingTime="0.00" waitingCount="0" stopTime="0.00" timeLoss="6.93" rerouteNo="0" devices="tripinfo_flow.72" vType="t0" speedFactor="0.94" vaporized=""/>