<?xml version="1.0"?>

<!-- generated on 03/25/10 08:21:39 by SUMO sumo Version dev-SVN-r8511
<configuration>

    <input>
        <net-file value="three_split.net.xml"/>
        <additional-files value="input_routes.rou.xml,input_additional2.add.xml"/>
    </input>

    <output>
        <tripinfo-output value="tripinfos.xml"/>
    </output>

    <time>
        <begin value="0"/>
    </time>

    <report>
        <no-duration-log value="true"/>
        <no-step-log value="true"/>
    </report>

    <mesoscopic>
        <mesosim value="true"/>
    </mesoscopic>

</configuration>
-->

<tripinfos>
    <tripinfo id="0" depart="0.00" departLane="" departPos="0.00" departSpeed="0.00" departDelay="0.00" arrival="18.00" arrivalLane="" arrivalPos="" arrivalSpeed="" duration="18.00" routeLength="2481.00" waitSteps="0" rerouteNo="0" devices="tripinfo_0" vtype="DEFAULT_VEHTYPE" vaporized="0"/>
    <tripinfo id="1" depart="20.00" departLane="" departPos="0.00" departSpeed="0.00" departDelay="0.00" arrival="38.00" arrivalLane="" arrivalPos="" arrivalSpeed="" duration="18.00" routeLength="2481.00" waitSteps="0" rerouteNo="0" devices="tripinfo_1" vtype="DEFAULT_VEHTYPE" vaporized="0"/>
    <tripinfo id="2" depart="40.00" departLane="" departPos="0.00" departSpeed="0.00" departDelay="0.00" arrival="58.00" arrivalLane="" arrivalPos="" arrivalSpeed="" duration="18.00" routeLength="2481.00" waitSteps="0" rerouteNo="0" devices="tripinfo_2" vtype="DEFAULT_VEHTYPE" vaporized="0"/>
    <tripinfo id="3" depart="60.00" departLane="" departPos="0.00" departSpeed="0.00" departDelay="0.00" arrival="78.00" arrivalLane="" arrivalPos="" arrivalSpeed="" duration="18.00" routeLength="2481.00" waitSteps="0" rerouteNo="0" devices="tripinfo_3" vtype="DEFAULT_VEHTYPE" vaporized="0"/>
    <tripinfo id="4" depart="80.00" departLane="" departPos="0.00" departSpeed="0.00" departDelay="0.00" arrival="98.00" arrivalLane="" arrivalPos="" arrivalSpeed="" duration="18.00" routeLength="2481.00" waitSteps="0" rerouteNo="0" devices="tripinfo_4" vtype="DEFAULT_VEHTYPE" vaporized="0"/>
    <tripinfo id="5" depart="100.00" departLane="" departPos="0.00" departSpeed="0.00" departDelay="0.00" arrival="118.00" arrivalLane="" arrivalPos="" arrivalSpeed="" duration="18.00" routeLength="2481.00" waitSteps="0" rerouteNo="0" devices="tripinfo_5" vtype="DEFAULT_VEHTYPE" vaporized="0"/>
    <tripinfo id="6" depart="120.00" departLane="" departPos="0.00" departSpeed="0.00" departDelay="0.00" arrival="138.00" arrivalLane="" arrivalPos="" arrivalSpeed="" duration="18.00" routeLength="2481.00" waitSteps="0" rerouteNo="0" devices="tripinfo_6" vtype="DEFAULT_VEHTYPE" vaporized="0"/>
    <tripinfo id="7" depart="140.00" departLane="" departPos="0.00" departSpeed="0.00" departDelay="0.00" arrival="158.00" arrivalLane="" arrivalPos="" arrivalSpeed="" duration="18.00" routeLength="2481.00" waitSteps="0" rerouteNo="0" devices="tripinfo_7" vtype="DEFAULT_VEHTYPE" vaporized="0"/>
    <tripinfo id="8" depart="160.00" departLane="" departPos="0.00" departSpeed="0.00" departDelay="0.00" arrival="178.00" arrivalLane="" arrivalPos="" arrivalSpeed="" duration="18.00" routeLength="2481.00" waitSteps="0" rerouteNo="0" devices="tripinfo_8" vtype="DEFAULT_VEHTYPE" vaporized="0"/>
    <tripinfo id="9" depart="180.00" departLane="" departPos="0.00" departSpeed="0.00" departDelay="0.00" arrival="198.00" arrivalLane="" arrivalPos="" arrivalSpeed="" duration="18.00" routeLength="2481.00" waitSteps="0" rerouteNo="0" devices="tripinfo_9" vtype="DEFAULT_VEHTYPE" vaporized="0"/>
</tripinfos>
