<?xml version="1.0" encoding="UTF-8"?>

<!-- generated on 2025-10-09T10:00:44.592717+01:00 by Eclipse SUMO sumo v1_24_0+1287-0b05e412587
This data file and the accompanying materials
are made available under the terms of the Eclipse Public License v2.0
which accompanies this distribution, and is available at
http://www.eclipse.org/legal/epl-v20.html
This file may also be made available under the following Secondary
Licenses when the conditions for such availability set forth in the Eclipse
Public License 2.0 are satisfied: GNU General Public License, version 2
or later which is available at
https://www.gnu.org/licenses/old-licenses/gpl-2.0-standalone.html
SPDX-License-Identifier: EPL-2.0 OR GPL-2.0-or-later
<sumoConfiguration xmlns:xsi="http://www.w3.org/2001/XMLSchema-instance" xsi:noNamespaceSchemaLocation="http://sumo.dlr.de/xsd/sumoConfiguration.xsd">

    <input>
        <net-file value="net.net.xml"/>
        <route-files value="input_routes.rou.xml"/>
    </input>

    <output>
        <write-license value="true"/>
        <tripinfo-output value="tripinfos.xml"/>
    </output>

    <processing>
        <collision.action value="warn"/>
        <collision.check-junctions value="true"/>
        <default.speeddev value="0"/>
    </processing>

    <report>
        <verbose value="true"/>
        <xml-validation value="never"/>
        <no-step-log value="true"/>
    </report>

</sumoConfiguration>
-->

<tripinfos xmlns:xsi="http://www.w3.org/2001/XMLSchema-instance" xsi:noNamespaceSchemaLocation="http://sumo.dlr.de/xsd/tripinfo_file.xsd">
    <tripinfo id="main.0" depart="3.00" departLane="E0_0" departPos="20.00" departSpeed="13.89" departDelay="0.00" arrival="20.00" arrivalLane="E4_0" arrivalPos="41.20" arrivalSpeed="13.08" duration="17.00" routeLength="178.20" waitingTime="0.00" waitingCount="0" stopTime="0.00" timeLoss="2.81" rerouteNo="0" devices="tripinfo_main.0" vType="DEFAULT_VEHTYPE" speedFactor="1.00" vaporized=""/>
    <tripinfo id="main.1" depart="6.00" departLane="E0_0" departPos="20.00" departSpeed="13.89" departDelay="0.00" arrival="23.00" arrivalLane="E4_0" arrivalPos="41.20" arrivalSpeed="13.51" duration="17.00" routeLength="178.20" waitingTime="0.00" waitingCount="0" stopTime="0.00" timeLoss="2.83" rerouteNo="0" devices="tripinfo_main.1" vType="DEFAULT_VEHTYPE" speedFactor="1.00" vaporized=""/>
    <tripinfo id="main.2" depart="9.00" departLane="E0_0" departPos="20.00" departSpeed="13.89" departDelay="0.00" arrival="26.00" arrivalLane="E4_0" arrivalPos="41.20" arrivalSpeed="13.09" duration="17.00" routeLength="178.20" waitingTime="0.00" waitingCount="0" stopTime="0.00" timeLoss="3.04" rerouteNo="0" devices="tripinfo_main.2" vType="DEFAULT_VEHTYPE" speedFactor="1.00" vaporized=""/>
    <tripinfo id="main.3" depart="12.00" departLane="E0_0" departPos="20.00" departSpeed="13.89" departDelay="0.00" arrival="29.00" arrivalLane="E4_0" arrivalPos="41.20" arrivalSpeed="13.03" duration="17.00" routeLength="178.20" waitingTime="0.00" waitingCount="0" stopTime="0.00" timeLoss="3.01" rerouteNo="0" devices="tripinfo_main.3" vType="DEFAULT_VEHTYPE" speedFactor="1.00" vaporized=""/>
    <tripinfo id="side.0" depart="0.00" departLane="-E4_0" departPos="41.10" departSpeed="0.10" departDelay="0.00" arrival="65.00" arrivalLane="-E0_0" arrivalPos="142.80" arrivalSpeed="3.00" duration="65.00" routeLength="154.63" waitingTime="0.00" waitingCount="0" stopTime="0.00" timeLoss="14.39" rerouteNo="0" devices="tripinfo_side.0" vType="t0" speedFactor="1.00" vaporized=""/>
    <tripinfo id="side.1" depart="4.00" departLane="-E4_0" departPos="41.10" departSpeed="0.10" departDelay="1.00" arrival="70.00" arrivalLane="-E0_0" arrivalPos="142.80" arrivalSpeed="2.69" duration="66.00" routeLength="154.63" waitingTime="1.00" waitingCount="1" stopTime="0.00" timeLoss="15.82" rerouteNo="0" devices="tripinfo_side.1" vType="t0" speedFactor="1.00" vaporized=""/>
    <tripinfo id="side.2" depart="9.00" departLane="-E4_0" departPos="41.10" departSpeed="0.10" departDelay="3.00" arrival="87.00" arrivalLane="-E0_0" arrivalPos="142.80" arrivalSpeed="2.94" duration="78.00" routeLength="154.63" waitingTime="15.00" waitingCount="1" stopTime="0.00" timeLoss="27.63" rerouteNo="0" devices="tripinfo_side.2" vType="t0" speedFactor="1.00" vaporized=""/>
    <tripinfo id="side.3" depart="28.00" departLane="-E4_0" departPos="41.10" departSpeed="0.10" departDelay="19.00" arrival="90.00" arrivalLane="-E0_1" arrivalPos="142.80" arrivalSpeed="2.82" duration="62.00" routeLength="154.63" waitingTime="0.00" waitingCount="0" stopTime="0.00" timeLoss="12.03" rerouteNo="0" devices="tripinfo_side.3" vType="t0" speedFactor="1.00" vaporized=""/>
</tripinfos>
