<?xml version="1.0" encoding="UTF-8"?>

<!-- generated on 05/02/13 15:10:38 by SUMO sumo Version 0.17.0
<?xml version="1.0" encoding="UTF-8"?>

<configuration xmlns:xsi="http://www.w3.org/2001/XMLSchema-instance" xsi:noNamespaceSchemaLocation="http://sumo-sim.org/xsd/sumoConfiguration.xsd">

    <input>
        <net-file value="net.net.xml"/>
        <additional-files value="input_routes.rou.xml,input_additional.add.xml,input_additional2.add.xml"/>
    </input>

    <time>
        <begin value="0"/>
        <end value="150"/>
    </time>

    <report>
        <no-duration-log value="true"/>
        <no-step-log value="true"/>
    </report>

    <mesoscopic>
        <mesosim value="true"/>
    </mesoscopic>

</configuration>
-->

<meandata xmlns:xsi="http://www.w3.org/2001/XMLSchema-instance" xsi:noNamespaceSchemaLocation="http://sumo-sim.org/xsd/meandata_file.xsd">
    <interval begin="0.00" end="15.00" id="dump_15">
        <edge id="4/1to3/1" sampledSeconds="61.83" traveltime="30.91" waitingTime="0.00" speed="9.47" departed="2" arrived="0" entered="0" left="2" laneChangedFrom="0" laneChangedTo="0"/>
    </interval>
    <interval begin="15.00" end="30.00" id="dump_15"/>
    <interval begin="30.00" end="45.00" id="dump_15">
        <edge id="3/1to2/1" sampledSeconds="82.44" traveltime="41.22" waitingTime="0.00" speed="9.47" departed="0" arrived="0" entered="2" left="2" laneChangedFrom="0" laneChangedTo="0"/>
    </interval>
    <interval begin="45.00" end="60.00" id="dump_15"/>
    <interval begin="60.00" end="75.00" id="dump_15">
        <edge id="2/1to1/1" sampledSeconds="39.05" traveltime="39.05" waitingTime="0.00" speed="10.00" departed="0" arrived="0" entered="1" left="1" laneChangedFrom="0" laneChangedTo="0"/>
    </interval>
    <interval begin="75.00" end="90.00" id="dump_15">
        <edge id="2/1to1/1" sampledSeconds="43.39" traveltime="43.39" waitingTime="0.00" speed="9.00" departed="0" arrived="0" entered="1" left="1" laneChangedFrom="0" laneChangedTo="0"/>
    </interval>
    <interval begin="90.00" end="105.00" id="dump_15"/>
    <interval begin="105.00" end="120.00" id="dump_15">
        <edge id="1/1to0/1" sampledSeconds="39.05" traveltime="39.05" waitingTime="0.00" speed="10.00" departed="0" arrived="1" entered="1" left="0" laneChangedFrom="0" laneChangedTo="0"/>
    </interval>
</meandata>
