<?xml version="1.0" encoding="UTF-8"?>

<!-- generated on 03/05/14 13:19:41 by SUMO sumo Version dev-SVN-r15814
<?xml version="1.0" encoding="UTF-8"?>

<configuration xmlns:xsi="http://www.w3.org/2001/XMLSchema-instance" xsi:noNamespaceSchemaLocation="http://sumo-sim.org/xsd/sumoConfiguration.xsd">

    <input>
        <net-file value="net.net.xml"/>
        <additional-files value="input_routes.rou.xml"/>
    </input>

    <output>
        <fcd-output value="fcd.xml"/>
    </output>

    <report>
        <xml-validation value="never"/>
        <no-duration-log value="true"/>
        <no-step-log value="true"/>
    </report>

</configuration>
-->

<fcd-export xmlns:xsi="http://www.w3.org/2001/XMLSchema-instance" xsi:noNamespaceSchemaLocation="http://sumo-sim.org/xsd/fcd_file.xsd">
    <timestep time="0.00">
        <vehicle id="1" x="0.00" y="-1.65" angle="90.00" type="t1" speed="20.00" pos="0.00" lane="1_0" slope="47.81"/>
    </timestep>
    <timestep time="1.00">
        <vehicle id="1" x="18.13" y="-1.65" angle="90.00" type="t1" speed="20.00" pos="20.00" lane="1_0" slope="47.81"/>
    </timestep>
    <timestep time="2.00">
        <vehicle id="1" x="36.25" y="-1.65" angle="90.00" type="t1" speed="20.00" pos="40.00" lane="1_0" slope="47.81"/>
    </timestep>
    <timestep time="3.00">
        <vehicle id="1" x="54.38" y="-1.65" angle="90.00" type="t1" speed="20.00" pos="60.00" lane="1_0" slope="47.81"/>
    </timestep>
    <timestep time="4.00">
        <vehicle id="1" x="72.50" y="-1.65" angle="90.00" type="t1" speed="20.00" pos="80.00" lane="1_0" slope="47.81"/>
    </timestep>
    <timestep time="5.00">
        <vehicle id="1" x="90.63" y="-1.65" angle="90.00" type="t1" speed="20.00" pos="100.00" lane="1_0" slope="47.81"/>
    </timestep>
    <timestep time="6.00">
        <vehicle id="1" x="112.50" y="-1.65" angle="90.00" type="t1" speed="20.00" pos="20.00" lane="2_0" slope="-24.57"/>
    </timestep>
    <timestep time="7.00">
        <vehicle id="1" x="134.38" y="-1.65" angle="90.00" type="t1" speed="20.00" pos="40.00" lane="2_0" slope="-24.57"/>
    </timestep>
    <timestep time="8.00">
        <vehicle id="1" x="156.25" y="-1.65" angle="90.00" type="t1" speed="20.00" pos="60.00" lane="2_0" slope="-24.57"/>
    </timestep>
    <timestep time="9.00">
        <vehicle id="1" x="178.13" y="-1.65" angle="90.00" type="t1" speed="20.00" pos="80.00" lane="2_0" slope="-24.57"/>
    </timestep>
    <timestep time="10.00">
        <vehicle id="1" x="200.00" y="-1.65" angle="90.00" type="t1" speed="20.00" pos="100.00" lane="2_0" slope="-24.57"/>
    </timestep>
    <timestep time="11.00">
        <vehicle id="1" x="221.87" y="-1.65" angle="90.00" type="t1" speed="20.00" pos="20.00" lane="3_0" slope="24.57"/>
    </timestep>
    <timestep time="12.00">
        <vehicle id="1" x="243.75" y="-1.65" angle="90.00" type="t1" speed="20.00" pos="40.00" lane="3_0" slope="24.57"/>
    </timestep>
    <timestep time="13.00">
        <vehicle id="1" x="265.62" y="-1.65" angle="90.00" type="t1" speed="20.00" pos="60.00" lane="3_0" slope="24.57"/>
    </timestep>
    <timestep time="14.00">
        <vehicle id="1" x="287.50" y="-1.65" angle="90.00" type="t1" speed="20.00" pos="80.00" lane="3_0" slope="24.57"/>
    </timestep>
    <timestep time="15.00">
        <vehicle id="1" x="309.37" y="-1.65" angle="90.00" type="t1" speed="20.00" pos="100.00" lane="3_0" slope="24.57"/>
    </timestep>
    <timestep time="16.00">
        <vehicle id="1" x="325.62" y="-1.65" angle="90.00" type="t1" speed="20.00" pos="20.00" lane="4_0" slope="-50.90"/>
    </timestep>
    <timestep time="17.00">
        <vehicle id="1" x="341.87" y="-1.65" angle="90.00" type="t1" speed="20.00" pos="40.00" lane="4_0" slope="-50.90"/>
    </timestep>
    <timestep time="18.00">
        <vehicle id="1" x="358.13" y="-1.65" angle="90.00" type="t1" speed="20.00" pos="60.00" lane="4_0" slope="-50.90"/>
    </timestep>
    <timestep time="19.00">
        <vehicle id="1" x="374.38" y="-1.65" angle="90.00" type="t1" speed="20.00" pos="80.00" lane="4_0" slope="-50.90"/>
    </timestep>
    <timestep time="20.00">
        <vehicle id="1" x="390.63" y="-1.65" angle="90.00" type="t1" speed="20.00" pos="100.00" lane="4_0" slope="-50.90"/>
    </timestep>
    <timestep time="21.00">
        <vehicle id="1" x="412.50" y="-1.65" angle="90.00" type="t1" speed="20.00" pos="20.00" lane="5_0" slope="24.57"/>
    </timestep>
    <timestep time="22.00">
        <vehicle id="1" x="434.38" y="-1.65" angle="90.00" type="t1" speed="20.00" pos="40.00" lane="5_0" slope="24.57"/>
    </timestep>
    <timestep time="23.00">
        <vehicle id="1" x="456.25" y="-1.65" angle="90.00" type="t1" speed="20.00" pos="60.00" lane="5_0" slope="24.57"/>
    </timestep>
    <timestep time="24.00">
        <vehicle id="1" x="478.13" y="-1.65" angle="90.00" type="t1" speed="20.00" pos="80.00" lane="5_0" slope="24.57"/>
    </timestep>
    <timestep time="25.00"/>
</fcd-export>
