<?xml version="1.0" encoding="UTF-8"?>

<!-- generated on 2024-01-22 09:45:00 by Eclipse SUMO sumo Version v1_14_1+11363-50b43697ca8
This data file and the accompanying materials
are made available under the terms of the Eclipse Public License v2.0
which accompanies this distribution, and is available at
http://www.eclipse.org/legal/epl-v20.html
This file may also be made available under the following Secondary
Licenses when the conditions for such availability set forth in the Eclipse
Public License 2.0 are satisfied: GNU General Public License, version 2
or later which is available at
https://www.gnu.org/licenses/old-licenses/gpl-2.0-standalone.html
SPDX-License-Identifier: EPL-2.0 OR GPL-2.0-or-later
<configuration xmlns:xsi="http://www.w3.org/2001/XMLSchema-instance" xsi:noNamespaceSchemaLocation="http://sumo.dlr.de/xsd/sumoConfiguration.xsd">

    <input>
        <net-file value="net.net.xml"/>
        <additional-files value="input_routes.rou.xml,input_additional.add.xml"/>
    </input>

    <output>
        <write-license value="true"/>
    </output>

    <time>
        <begin value="0"/>
        <end value="150"/>
    </time>

    <processing>
        <default.speeddev value="0"/>
    </processing>

    <report>
        <xml-validation value="never"/>
        <duration-log.disable value="true"/>
        <no-step-log value="true"/>
    </report>

</configuration>
-->

<meandata xmlns:xsi="http://www.w3.org/2001/XMLSchema-instance" xsi:noNamespaceSchemaLocation="http://sumo.dlr.de/xsd/meandata_file.xsd">
    <interval begin="0.00" end="15.00" id="dump_15">
        <edge id="beg">
            <lane id="beg_0" sampledSeconds="14.00" CO_abs="2697.833156" CO2_abs="158420.873778" HC_abs="16.187372" PMx_abs="3.594593" NOx_abs="67.809240" fuel_abs="50528.407622" electricity_abs="0"
            CO_normed="1298.726221" CO2_normed="76263.182643" HC_normed="7.792537" PMx_normed="1.730423" NOx_normed="32.643100" fuel_normed="24324.175768" electricity_normed="0"
            traveltime="27.46" CO_perVeh="5291.127930" CO2_perVeh="310703.094500" HC_perVeh="31.747499" PMx_perVeh="7.049899" NOx_perVeh="132.990938" fuel_perVeh="99098.889143" electricity_perVeh="0"/>
        </edge>
    </interval>
    <interval begin="0.00" end="15.00" id="dump_15_internal">
        <edge id="beg">
            <lane id="beg_0" sampledSeconds="14.00" CO_abs="2697.833156" CO2_abs="158420.873778" HC_abs="16.187372" PMx_abs="3.594593" NOx_abs="67.809240" fuel_abs="50528.407622" electricity_abs="0"
            CO_normed="1298.726221" CO2_normed="76263.182643" HC_normed="7.792537" PMx_normed="1.730423" NOx_normed="32.643100" fuel_normed="24324.175768" electricity_normed="0"
            traveltime="27.46" CO_perVeh="5291.127930" CO2_perVeh="310703.094500" HC_perVeh="31.747499" PMx_perVeh="7.049899" NOx_perVeh="132.990938" fuel_perVeh="99098.889143" electricity_perVeh="0"/>
        </edge>
    </interval>
    <interval begin="15.00" end="30.00" id="dump_15">
        <edge id="beg">
            <lane id="beg_0" sampledSeconds="9.27" CO_abs="281.657067" CO2_abs="32612.928889" HC_abs="2.059048" PMx_abs="0.616492" NOx_abs="10.317769" fuel_abs="10402.083667" electricity_abs="0"
            CO_normed="135.588599" CO2_normed="15699.735098" HC_normed="0.991218" PMx_normed="0.296777" NOx_normed="4.966933" fuel_normed="5007.521974" electricity_normed="0"
            traveltime="19.32" CO_perVeh="586.917996" CO2_perVeh="67958.937085" HC_perVeh="4.290652" PMx_perVeh="1.284649" NOx_perVeh="21.500205" fuel_perVeh="21675.898901" electricity_perVeh="0"/>
        </edge>
        <edge id="middle">
            <lane id="middle_0" sampledSeconds="5.28" CO_abs="0" CO2_abs="11689.478611" HC_abs="0.118454" PMx_abs="0.057798" NOx_abs="3.515763" fuel_abs="3728.465194" electricity_abs="0"
            CO_normed="0" CO2_normed="2832.382500" HC_normed="0.028702" PMx_normed="0.014004" NOx_normed="0.851876" fuel_normed="903.414080" electricity_normed="0"
            traveltime="71.26" CO_perVeh="0" CO2_perVeh="157636.876301" HC_perVeh="1.597401" PMx_perVeh="0.779421" NOx_perVeh="47.411340" fuel_perVeh="50279.711029" electricity_perVeh="0"/>
        </edge>
    </interval>
    <interval begin="15.00" end="30.00" id="dump_15_internal">
        <edge id=":beg_0">
            <lane id=":beg_0_0" sampledSeconds="0.45" CO_abs="0" CO2_abs="0" HC_abs="0" PMx_abs="0" NOx_abs="0" fuel_abs="0" electricity_abs="0"
            CO_normed="0" CO2_normed="0" HC_normed="0" PMx_normed="0" NOx_normed="0" fuel_normed="0" electricity_normed="0"
            traveltime="0.45" CO_perVeh="0" CO2_perVeh="0" HC_perVeh="0" PMx_perVeh="0" NOx_perVeh="0" fuel_perVeh="0" electricity_perVeh="0"/>
        </edge>
        <edge id="beg">
            <lane id="beg_0" sampledSeconds="9.27" CO_abs="281.657067" CO2_abs="32612.928889" HC_abs="2.059048" PMx_abs="0.616492" NOx_abs="10.317769" fuel_abs="10402.083667" electricity_abs="0"
            CO_normed="135.588599" CO2_normed="15699.735098" HC_normed="0.991218" PMx_normed="0.296777" NOx_normed="4.966933" fuel_normed="5007.521974" electricity_normed="0"
            traveltime="19.32" CO_perVeh="586.917996" CO2_perVeh="67958.937085" HC_perVeh="4.290652" PMx_perVeh="1.284649" NOx_perVeh="21.500205" fuel_perVeh="21675.898901" electricity_perVeh="0"/>
        </edge>
        <edge id="middle">
            <lane id="middle_0" sampledSeconds="5.28" CO_abs="0" CO2_abs="11689.478611" HC_abs="0.118454" PMx_abs="0.057798" NOx_abs="3.515763" fuel_abs="3728.465194" electricity_abs="0"
            CO_normed="0" CO2_normed="2832.382500" HC_normed="0.028702" PMx_normed="0.014004" NOx_normed="0.851876" fuel_normed="903.414080" electricity_normed="0"
            traveltime="71.26" CO_perVeh="0" CO2_perVeh="157636.876301" HC_perVeh="1.597401" PMx_perVeh="0.779421" NOx_perVeh="47.411340" fuel_perVeh="50279.711029" electricity_perVeh="0"/>
        </edge>
    </interval>
    <interval begin="30.00" end="45.00" id="dump_15">
        <edge id="middle">
            <lane id="middle_0" sampledSeconds="15.00" CO_abs="0" CO2_abs="35068.435833" HC_abs="0.355363" PMx_abs="0.173393" NOx_abs="10.547288" fuel_abs="11185.395583" electricity_abs="0"
            CO_normed="0" CO2_normed="8497.147501" HC_normed="0.086105" PMx_normed="0.042013" NOx_normed="2.555628" fuel_normed="2710.242241" electricity_normed="0"
            traveltime="71.26" CO_perVeh="0" CO2_perVeh="166596.094450" HC_perVeh="1.688189" PMx_perVeh="0.823719" NOx_perVeh="50.105941" fuel_perVeh="53137.334893" electricity_perVeh="0"/>
        </edge>
    </interval>
    <interval begin="30.00" end="45.00" id="dump_15_internal">
        <edge id="middle">
            <lane id="middle_0" sampledSeconds="15.00" CO_abs="0" CO2_abs="35068.435833" HC_abs="0.355363" PMx_abs="0.173393" NOx_abs="10.547288" fuel_abs="11185.395583" electricity_abs="0"
            CO_normed="0" CO2_normed="8497.147501" HC_normed="0.086105" PMx_normed="0.042013" NOx_normed="2.555628" fuel_normed="2710.242241" electricity_normed="0"
            traveltime="71.26" CO_perVeh="0" CO2_perVeh="166596.094450" HC_perVeh="1.688189" PMx_perVeh="0.823719" NOx_perVeh="50.105941" fuel_perVeh="53137.334893" electricity_perVeh="0"/>
        </edge>
    </interval>
    <interval begin="45.00" end="60.00" id="dump_15">
        <edge id="middle">
            <lane id="middle_0" sampledSeconds="15.00" CO_abs="0" CO2_abs="35068.435833" HC_abs="0.355363" PMx_abs="0.173393" NOx_abs="10.547288" fuel_abs="11185.395583" electricity_abs="0"
            CO_normed="0" CO2_normed="8497.147501" HC_normed="0.086105" PMx_normed="0.042013" NOx_normed="2.555628" fuel_normed="2710.242241" electricity_normed="0"
            traveltime="71.26" CO_perVeh="0" CO2_perVeh="166596.094450" HC_perVeh="1.688189" PMx_perVeh="0.823719" NOx_perVeh="50.105941" fuel_perVeh="53137.334893" electricity_perVeh="0"/>
        </edge>
    </interval>
    <interval begin="45.00" end="60.00" id="dump_15_internal">
        <edge id="middle">
            <lane id="middle_0" sampledSeconds="15.00" CO_abs="0" CO2_abs="35068.435833" HC_abs="0.355363" PMx_abs="0.173393" NOx_abs="10.547288" fuel_abs="11185.395583" electricity_abs="0"
            CO_normed="0" CO2_normed="8497.147501" HC_normed="0.086105" PMx_normed="0.042013" NOx_normed="2.555628" fuel_normed="2710.242241" electricity_normed="0"
            traveltime="71.26" CO_perVeh="0" CO2_perVeh="166596.094450" HC_perVeh="1.688189" PMx_perVeh="0.823719" NOx_perVeh="50.105941" fuel_perVeh="53137.334893" electricity_perVeh="0"/>
        </edge>
    </interval>
    <interval begin="60.00" end="75.00" id="dump_15">
        <edge id="middle">
            <lane id="middle_0" sampledSeconds="15.00" CO_abs="0" CO2_abs="35068.435833" HC_abs="0.355363" PMx_abs="0.173393" NOx_abs="10.547288" fuel_abs="11185.395583" electricity_abs="0"
            CO_normed="0" CO2_normed="8497.147501" HC_normed="0.086105" PMx_normed="0.042013" NOx_normed="2.555628" fuel_normed="2710.242241" electricity_normed="0"
            traveltime="71.26" CO_perVeh="0" CO2_perVeh="166596.094450" HC_perVeh="1.688189" PMx_perVeh="0.823719" NOx_perVeh="50.105941" fuel_perVeh="53137.334893" electricity_perVeh="0"/>
        </edge>
    </interval>
    <interval begin="60.00" end="75.00" id="dump_15_internal">
        <edge id="middle">
            <lane id="middle_0" sampledSeconds="15.00" CO_abs="0" CO2_abs="35068.435833" HC_abs="0.355363" PMx_abs="0.173393" NOx_abs="10.547288" fuel_abs="11185.395583" electricity_abs="0"
            CO_normed="0" CO2_normed="8497.147501" HC_normed="0.086105" PMx_normed="0.042013" NOx_normed="2.555628" fuel_normed="2710.242241" electricity_normed="0"
            traveltime="71.26" CO_perVeh="0" CO2_perVeh="166596.094450" HC_perVeh="1.688189" PMx_perVeh="0.823719" NOx_perVeh="50.105941" fuel_perVeh="53137.334893" electricity_perVeh="0"/>
        </edge>
    </interval>
    <interval begin="75.00" end="90.00" id="dump_15">
        <edge id="middle">
            <lane id="middle_0" sampledSeconds="15.00" CO_abs="0" CO2_abs="35068.435833" HC_abs="0.355363" PMx_abs="0.173393" NOx_abs="10.547288" fuel_abs="11185.395583" electricity_abs="0"
            CO_normed="0" CO2_normed="8497.147501" HC_normed="0.086105" PMx_normed="0.042013" NOx_normed="2.555628" fuel_normed="2710.242241" electricity_normed="0"
            traveltime="71.26" CO_perVeh="0" CO2_perVeh="166596.094450" HC_perVeh="1.688189" PMx_perVeh="0.823719" NOx_perVeh="50.105941" fuel_perVeh="53137.334893" electricity_perVeh="0"/>
        </edge>
    </interval>
    <interval begin="75.00" end="90.00" id="dump_15_internal">
        <edge id="middle">
            <lane id="middle_0" sampledSeconds="15.00" CO_abs="0" CO2_abs="35068.435833" HC_abs="0.355363" PMx_abs="0.173393" NOx_abs="10.547288" fuel_abs="11185.395583" electricity_abs="0"
            CO_normed="0" CO2_normed="8497.147501" HC_normed="0.086105" PMx_normed="0.042013" NOx_normed="2.555628" fuel_normed="2710.242241" electricity_normed="0"
            traveltime="71.26" CO_perVeh="0" CO2_perVeh="166596.094450" HC_perVeh="1.688189" PMx_perVeh="0.823719" NOx_perVeh="50.105941" fuel_perVeh="53137.334893" electricity_perVeh="0"/>
        </edge>
    </interval>
    <interval begin="90.00" end="105.00" id="dump_15">
        <edge id="end">
            <lane id="end_0" sampledSeconds="7.11" CO_abs="1747.103489" CO2_abs="105092.908242" HC_abs="10.535891" PMx_abs="2.411365" NOx_abs="46.151815" fuel_abs="33519.295086" electricity_abs="0"
            CO_normed="841.048716" CO2_normed="50591.310757" HC_normed="5.071936" PMx_normed="1.160822" NOx_normed="22.217301" fuel_normed="16136.056204" electricity_normed="0"
            traveltime="28.61" CO_perVeh="7029.458494" CO2_perVeh="422840.570688" HC_perVeh="42.391083" PMx_perVeh="9.702112" NOx_perVeh="185.691500" fuel_perVeh="134864.645965" electricity_perVeh="0"/>
        </edge>
        <edge id="middle">
            <lane id="middle_0" sampledSeconds="7.03" CO_abs="3.896234" CO2_abs="9534.109090" HC_abs="0.116864" PMx_abs="0.050095" NOx_abs="2.892758" fuel_abs="3040.989492" electricity_abs="0"
            CO_normed="0.944065" CO2_normed="2310.132440" HC_normed="0.028316" PMx_normed="0.012138" NOx_normed="0.700921" fuel_normed="736.837434" electricity_normed="0"
            traveltime="83.80" CO_perVeh="46.468627" CO2_perVeh="113709.031346" HC_perVeh="1.393789" PMx_perVeh="0.597460" NOx_perVeh="34.500623" fuel_perVeh="36268.514054" electricity_perVeh="0"/>
        </edge>
    </interval>
    <interval begin="90.00" end="105.00" id="dump_15_internal">
        <edge id=":end_1">
            <lane id=":end_1_0" sampledSeconds="0.86" CO_abs="128.322172" CO2_abs="6011.487091" HC_abs="0.727888" PMx_abs="0.127027" NOx_abs="2.639663" fuel_abs="1917.383735" electricity_abs="0"
            CO_normed="4967.309880" CO2_normed="232702.726105" HC_normed="28.176322" PMx_normed="4.917182" NOx_normed="102.180516" fuel_normed="74221.305877" electricity_normed="0"
            traveltime="0.86" CO_perVeh="128.322172" CO2_perVeh="6011.487091" HC_perVeh="0.727888" PMx_perVeh="0.127027" NOx_perVeh="2.639663" fuel_perVeh="1917.383735" electricity_perVeh="0"/>
        </edge>
        <edge id="end">
            <lane id="end_0" sampledSeconds="7.11" CO_abs="1747.103489" CO2_abs="105092.908242" HC_abs="10.535891" PMx_abs="2.411365" NOx_abs="46.151815" fuel_abs="33519.295086" electricity_abs="0"
            CO_normed="841.048716" CO2_normed="50591.310757" HC_normed="5.071936" PMx_normed="1.160822" NOx_normed="22.217301" fuel_normed="16136.056204" electricity_normed="0"
            traveltime="28.61" CO_perVeh="7029.458494" CO2_perVeh="422840.570688" HC_perVeh="42.391083" PMx_perVeh="9.702112" NOx_perVeh="185.691500" fuel_perVeh="134864.645965" electricity_perVeh="0"/>
        </edge>
        <edge id="middle">
            <lane id="middle_0" sampledSeconds="7.03" CO_abs="3.896234" CO2_abs="9534.109090" HC_abs="0.116864" PMx_abs="0.050095" NOx_abs="2.892758" fuel_abs="3040.989492" electricity_abs="0"
            CO_normed="0.944065" CO2_normed="2310.132440" HC_normed="0.028316" PMx_normed="0.012138" NOx_normed="0.700921" fuel_normed="736.837434" electricity_normed="0"
            traveltime="83.80" CO_perVeh="46.468627" CO2_perVeh="113709.031346" HC_perVeh="1.393789" PMx_perVeh="0.597460" NOx_perVeh="34.500623" fuel_perVeh="36268.514054" electricity_perVeh="0"/>
        </edge>
    </interval>
    <interval begin="105.00" end="120.00" id="dump_15">
        <edge id="end">
            <lane id="end_0" sampledSeconds="13.48" CO_abs="992.580567" CO2_abs="86003.702674" HC_abs="6.698432" PMx_abs="1.795627" NOx_abs="30.802379" fuel_abs="27431.182744" electricity_abs="0"
            CO_normed="477.824363" CO2_normed="41401.842627" HC_normed="3.224599" PMx_normed="0.864408" NOx_normed="14.828143" fuel_normed="13205.262980" electricity_normed="0"
            traveltime="17.93" CO_perVeh="1320.869932" CO2_perVeh="114448.850513" HC_perVeh="8.913894" PMx_perVeh="2.389518" NOx_perVeh="40.990059" fuel_perVeh="36503.862458" electricity_perVeh="0"/>
        </edge>
        <edge id="rend">
            <lane id="rend_0" sampledSeconds="1.52" CO_abs="71.359456" CO2_abs="7729.074512" HC_abs="0.521672" PMx_abs="0.151057" NOx_abs="2.543910" fuel_abs="2465.227989" electricity_abs="0"
            CO_normed="34.252539" CO2_normed="3709.955766" HC_normed="0.250402" PMx_normed="0.072507" NOx_normed="1.221077" fuel_normed="1183.309435" electricity_normed="0"
            traveltime="17.99" CO_perVeh="844.295763" CO2_perVeh="91447.234213" HC_perVeh="6.172206" PMx_perVeh="1.787245" NOx_perVeh="30.098503" fuel_perVeh="29167.564748" electricity_perVeh="0"/>
        </edge>
    </interval>
    <interval begin="105.00" end="120.00" id="dump_15_internal">
        <edge id=":absEnd_0">
            <lane id=":absEnd_0_0" sampledSeconds="0.00" CO_abs="0.168859" CO2_abs="18.289447" HC_abs="0.001234" PMx_abs="0.000357" NOx_abs="0.006020" fuel_abs="5.833513" electricity_abs="0"
            CO_normed="405.261966" CO2_normed="43894.672422" HC_normed="2.962659" PMx_normed="0.857878" NOx_normed="14.447282" fuel_normed="14000.431079" electricity_normed="0"
            traveltime="3.597122e-03" CO_perVeh="0.168859" CO2_perVeh="18.289447" HC_perVeh="0.001234" PMx_perVeh="0.000357" NOx_perVeh="0.006020" fuel_perVeh="5.833513" electricity_perVeh="0"/>
        </edge>
        <edge id="end">
            <lane id="end_0" sampledSeconds="13.48" CO_abs="992.580567" CO2_abs="86003.702674" HC_abs="6.698432" PMx_abs="1.795627" NOx_abs="30.802379" fuel_abs="27431.182744" electricity_abs="0"
            CO_normed="477.824363" CO2_normed="41401.842627" HC_normed="3.224599" PMx_normed="0.864408" NOx_normed="14.828143" fuel_normed="13205.262980" electricity_normed="0"
            traveltime="17.93" CO_perVeh="1320.869932" CO2_perVeh="114448.850513" HC_perVeh="8.913894" PMx_perVeh="2.389518" NOx_perVeh="40.990059" fuel_perVeh="36503.862458" electricity_perVeh="0"/>
        </edge>
        <edge id="rend">
            <lane id="rend_0" sampledSeconds="1.52" CO_abs="71.359456" CO2_abs="7729.074512" HC_abs="0.521672" PMx_abs="0.151057" NOx_abs="2.543910" fuel_abs="2465.227989" electricity_abs="0"
            CO_normed="34.252539" CO2_normed="3709.955766" HC_normed="0.250402" PMx_normed="0.072507" NOx_normed="1.221077" fuel_normed="1183.309435" electricity_normed="0"
            traveltime="17.99" CO_perVeh="844.295763" CO2_perVeh="91447.234213" HC_perVeh="6.172206" PMx_perVeh="1.787245" NOx_perVeh="30.098503" fuel_perVeh="29167.564748" electricity_perVeh="0"/>
        </edge>
    </interval>
    <interval begin="120.00" end="135.00" id="dump_15">
        <edge id="rend">
            <lane id="rend_0" sampledSeconds="15.00" CO_abs="704.142667" CO2_abs="76266.993333" HC_abs="5.147620" PMx_abs="1.490563" NOx_abs="25.102152" fuel_abs="24325.749000" electricity_abs="0"
            CO_normed="337.988480" CO2_normed="36608.156800" HC_normed="2.470858" PMx_normed="0.715470" NOx_normed="12.049033" fuel_normed="11676.359520" electricity_normed="0"
            traveltime="17.99" CO_perVeh="844.295763" CO2_perVeh="91447.234213" HC_perVeh="6.172206" PMx_perVeh="1.787245" NOx_perVeh="30.098503" fuel_perVeh="29167.564748" electricity_perVeh="0"/>
        </edge>
    </interval>
    <interval begin="120.00" end="135.00" id="dump_15_internal">
        <edge id="rend">
            <lane id="rend_0" sampledSeconds="15.00" CO_abs="704.142667" CO2_abs="76266.993333" HC_abs="5.147620" PMx_abs="1.490563" NOx_abs="25.102152" fuel_abs="24325.749000" electricity_abs="0"
            CO_normed="337.988480" CO2_normed="36608.156800" HC_normed="2.470858" PMx_normed="0.715470" NOx_normed="12.049033" fuel_normed="11676.359520" electricity_normed="0"
            traveltime="17.99" CO_perVeh="844.295763" CO2_perVeh="91447.234213" HC_perVeh="6.172206" PMx_perVeh="1.787245" NOx_perVeh="30.098503" fuel_perVeh="29167.564748" electricity_perVeh="0"/>
        </edge>
    </interval>
    <interval begin="135.00" end="150.00" id="dump_15">
        <edge id="rend">
            <lane id="rend_0" sampledSeconds="1.47" CO_abs="68.793641" CO2_abs="7451.166367" HC_abs="0.502914" PMx_abs="0.145626" NOx_abs="2.452441" fuel_abs="2376.587759" electricity_abs="0"
            CO_normed="33.020948" CO2_normed="3576.559856" HC_normed="0.241399" PMx_normed="0.069900" NOx_normed="1.177172" fuel_normed="1140.762125" electricity_normed="0"
            traveltime="17.99" CO_perVeh="844.295763" CO2_perVeh="91447.234213" HC_perVeh="6.172206" PMx_perVeh="1.787245" NOx_perVeh="30.098503" fuel_perVeh="29167.564748" electricity_perVeh="0"/>
        </edge>
    </interval>
    <interval begin="135.00" end="150.00" id="dump_15_internal">
        <edge id="rend">
            <lane id="rend_0" sampledSeconds="1.47" CO_abs="68.793641" CO2_abs="7451.166367" HC_abs="0.502914" PMx_abs="0.145626" NOx_abs="2.452441" fuel_abs="2376.587759" electricity_abs="0"
            CO_normed="33.020948" CO2_normed="3576.559856" HC_normed="0.241399" PMx_normed="0.069900" NOx_normed="1.177172" fuel_normed="1140.762125" electricity_normed="0"
            traveltime="17.99" CO_perVeh="844.295763" CO2_perVeh="91447.234213" HC_perVeh="6.172206" PMx_perVeh="1.787245" NOx_perVeh="30.098503" fuel_perVeh="29167.564748" electricity_perVeh="0"/>
        </edge>
    </interval>
</meandata>
