<?xml version="1.0"?>

<!-- generated on 10/29/08 15:13:22 by SUMO dfrouter Version dev-SVN-r6225
<configuration>

   <input>
      <net-file>input_messstrecke.net.xml</net-file>
      <detector-files>input_messstrecke.det.xml</detector-files>
   </input>

   <output>
      <routes-output>routes.rou.xml</routes-output>
      <emitters-output>emitters.add.xml</emitters-output>
   </output>

</configuration>
-->

<additional>
   <emitter id="source_MQ11Fs1" pos="5.00" objectid="ErnstRuska2O_0" friendly_pos="x" file="emitter_MQ11Fs1.def.xml"/>
   <emitter id="source_MQ11Fs2" pos="5.00" objectid="ErnstRuska2O_1" friendly_pos="x" file="emitter_MQ11Fs2.def.xml"/>
   <emitter id="source_MQ28Fs1S" pos="-5.00" objectid="HavestadtS_0" friendly_pos="x" file="emitter_MQ28Fs1S.def.xml"/>
   <emitter id="source_MQ28Fs2S" pos="-5.00" objectid="HavestadtS_1" friendly_pos="x" file="emitter_MQ28Fs2S.def.xml"/>
   <emitter id="source_MQ35Fs1S" pos="-5.00" objectid="VolmerS_0" friendly_pos="x" file="emitter_MQ35Fs1S.def.xml"/>
   <emitter id="source_MQ43Fs1" pos="-5.00" objectid="ErnstRuska5W_0" friendly_pos="x" file="emitter_MQ43Fs1.def.xml"/>
   <emitter id="source_MQ43Fs2" pos="-5.00" objectid="ErnstRuska5W_1" friendly_pos="x" file="emitter_MQ43Fs2.def.xml"/>
   <emitter id="source_MQ43Fs3" pos="-5.00" objectid="ErnstRuska5W_2" friendly_pos="x" file="emitter_MQ43Fs3.def.xml"/>
   <emitter id="source_MQ45Fs1N" pos="-5.00" objectid="AltglienickerBreitN_0" friendly_pos="x" file="emitter_MQ45Fs1N.def.xml"/>
   <emitter id="source_MQ45Fs2N" pos="-5.00" objectid="AltglienickerBreitN_1" friendly_pos="x" file="emitter_MQ45Fs2N.def.xml"/>
</additional>
