<?xml version="1.0" encoding="UTF-8"?>

<!-- generated on Mon Jun 22 01:57:19 2020 by Eclipse SUMO Version v1_6_0+0887-0dd4682dc5
This data file and the accompanying materials
are made available under the terms of the Eclipse Public License v2.0
which accompanies this distribution, and is available at
http://www.eclipse.org/legal/epl-v20.html
SPDX-License-Identifier: EPL-2.0
<configuration xmlns:xsi="http://www.w3.org/2001/XMLSchema-instance" xsi:noNamespaceSchemaLocation="http://sumo.dlr.de/xsd/sumoConfiguration.xsd">

    <input>
        <net-file value="net.net.xml"/>
        <route-files value="input_routes.rou.xml"/>
    </input>

    <output>
        <write-license value="true"/>
        <fcd-output value="fcd.xml"/>
    </output>

    <processing>
        <default.speeddev value="0"/>
    </processing>

    <report>
        <xml-validation value="never"/>
        <duration-log.disable value="true"/>
        <no-step-log value="true"/>
    </report>

</configuration>
-->

<fcd-export xmlns:xsi="http://www.w3.org/2001/XMLSchema-instance" xsi:noNamespaceSchemaLocation="http://sumo.dlr.de/xsd/fcd_file.xsd">
    <timestep time="0.00">
        <vehicle id="ES" x="194.90" y="101.60" angle="270.00" type="DEFAULT_VEHTYPE" speed="13.89" pos="5.10" lane="EC_0" slope="0.00"/>
        <vehicle id="SN" x="101.60" y="5.10" angle="0.00" type="DEFAULT_VEHTYPE" speed="13.89" pos="5.10" lane="SC_0" slope="0.00"/>
        <vehicle id="WE" x="5.10" y="98.40" angle="90.00" type="DEFAULT_VEHTYPE" speed="13.89" pos="5.10" lane="WC_0" slope="0.00"/>
    </timestep>
    <timestep time="1.00">
        <vehicle id="ES" x="181.01" y="101.60" angle="270.00" type="DEFAULT_VEHTYPE" speed="13.89" pos="18.99" lane="EC_0" slope="0.00"/>
        <vehicle id="SN" x="101.60" y="18.99" angle="0.00" type="DEFAULT_VEHTYPE" speed="13.89" pos="18.99" lane="SC_0" slope="0.00"/>
        <vehicle id="WE" x="18.99" y="98.40" angle="90.00" type="DEFAULT_VEHTYPE" speed="13.89" pos="18.99" lane="WC_0" slope="0.00"/>
    </timestep>
    <timestep time="2.00">
        <vehicle id="ES" x="167.12" y="101.60" angle="270.00" type="DEFAULT_VEHTYPE" speed="13.89" pos="32.88" lane="EC_0" slope="0.00"/>
        <vehicle id="SN" x="101.60" y="32.88" angle="0.00" type="DEFAULT_VEHTYPE" speed="13.89" pos="32.88" lane="SC_0" slope="0.00"/>
        <vehicle id="WE" x="32.88" y="98.40" angle="90.00" type="DEFAULT_VEHTYPE" speed="13.89" pos="32.88" lane="WC_0" slope="0.00"/>
    </timestep>
    <timestep time="3.00">
        <vehicle id="ES" x="153.23" y="101.60" angle="270.00" type="DEFAULT_VEHTYPE" speed="13.89" pos="46.77" lane="EC_0" slope="0.00"/>
        <vehicle id="SN" x="101.60" y="46.77" angle="0.00" type="DEFAULT_VEHTYPE" speed="13.89" pos="46.77" lane="SC_0" slope="0.00"/>
        <vehicle id="WE" x="46.77" y="98.40" angle="90.00" type="DEFAULT_VEHTYPE" speed="13.89" pos="46.77" lane="WC_0" slope="0.00"/>
    </timestep>
    <timestep time="4.00">
        <vehicle id="ES" x="139.34" y="101.60" angle="270.00" type="DEFAULT_VEHTYPE" speed="13.89" pos="60.66" lane="EC_0" slope="0.00"/>
        <vehicle id="SN" x="101.60" y="60.66" angle="0.00" type="DEFAULT_VEHTYPE" speed="13.89" pos="60.66" lane="SC_0" slope="0.00"/>
        <vehicle id="WE" x="60.66" y="98.40" angle="90.00" type="DEFAULT_VEHTYPE" speed="13.89" pos="60.66" lane="WC_0" slope="0.00"/>
    </timestep>
    <timestep time="5.00">
        <vehicle id="ES" x="125.45" y="101.60" angle="270.00" type="DEFAULT_VEHTYPE" speed="13.89" pos="74.55" lane="EC_0" slope="0.00"/>
        <vehicle id="SN" x="101.60" y="74.55" angle="0.00" type="DEFAULT_VEHTYPE" speed="13.89" pos="74.55" lane="SC_0" slope="0.00"/>
        <vehicle id="WE" x="74.55" y="98.40" angle="90.00" type="DEFAULT_VEHTYPE" speed="13.89" pos="74.55" lane="WC_0" slope="0.00"/>
    </timestep>
    <timestep time="6.00">
        <vehicle id="ES" x="114.90" y="101.60" angle="270.00" type="DEFAULT_VEHTYPE" speed="10.55" pos="85.10" lane="EC_0" slope="0.00"/>
        <vehicle id="SN" x="101.60" y="85.10" angle="0.00" type="DEFAULT_VEHTYPE" speed="10.55" pos="85.10" lane="SC_0" slope="0.00"/>
        <vehicle id="WE" x="85.10" y="98.40" angle="90.00" type="DEFAULT_VEHTYPE" speed="10.55" pos="85.10" lane="WC_0" slope="0.00"/>
    </timestep>
    <timestep time="7.00">
        <vehicle id="ES" x="108.85" y="101.60" angle="270.00" type="DEFAULT_VEHTYPE" speed="6.05" pos="91.15" lane="EC_0" slope="0.00"/>
        <vehicle id="SN" x="101.60" y="91.15" angle="0.00" type="DEFAULT_VEHTYPE" speed="6.05" pos="91.15" lane="SC_0" slope="0.00"/>
        <vehicle id="WE" x="91.15" y="98.40" angle="90.00" type="DEFAULT_VEHTYPE" speed="6.05" pos="91.15" lane="WC_0" slope="0.00"/>
    </timestep>
    <timestep time="8.00">
        <vehicle id="ES" x="107.30" y="101.60" angle="270.00" type="DEFAULT_VEHTYPE" speed="1.55" pos="92.70" lane="EC_0" slope="0.00"/>
        <vehicle id="SN" x="101.60" y="92.70" angle="0.00" type="DEFAULT_VEHTYPE" speed="1.55" pos="92.70" lane="SC_0" slope="0.00"/>
        <vehicle id="WE" x="92.70" y="98.40" angle="90.00" type="DEFAULT_VEHTYPE" speed="1.55" pos="92.70" lane="WC_0" slope="0.00"/>
    </timestep>
    <timestep time="9.00">
        <vehicle id="ES" x="107.30" y="101.60" angle="270.00" type="DEFAULT_VEHTYPE" speed="0.00" pos="92.70" lane="EC_0" slope="0.00"/>
        <vehicle id="SN" x="101.60" y="92.70" angle="0.00" type="DEFAULT_VEHTYPE" speed="0.00" pos="92.70" lane="SC_0" slope="0.00"/>
        <vehicle id="WE" x="92.70" y="98.40" angle="90.00" type="DEFAULT_VEHTYPE" speed="0.00" pos="92.70" lane="WC_0" slope="0.00"/>
    </timestep>
    <timestep time="10.00">
        <vehicle id="ES" x="107.30" y="101.60" angle="270.00" type="DEFAULT_VEHTYPE" speed="0.00" pos="92.70" lane="EC_0" slope="0.00"/>
        <vehicle id="SN" x="101.60" y="95.30" angle="0.00" type="DEFAULT_VEHTYPE" speed="2.60" pos="2.50" lane=":C_7_0" slope="0.00"/>
        <vehicle id="WE" x="92.70" y="98.40" angle="90.00" type="DEFAULT_VEHTYPE" speed="0.00" pos="92.70" lane="WC_0" slope="0.00"/>
    </timestep>
    <timestep time="11.00">
        <vehicle id="ES" x="107.30" y="101.60" angle="270.00" type="DEFAULT_VEHTYPE" speed="0.00" pos="92.70" lane="EC_0" slope="0.00"/>
        <vehicle id="SN" x="101.60" y="100.50" angle="0.00" type="DEFAULT_VEHTYPE" speed="5.20" pos="7.70" lane=":C_7_0" slope="0.00"/>
        <vehicle id="WE" x="93.14" y="98.40" angle="90.00" type="DEFAULT_VEHTYPE" speed="0.44" pos="0.34" lane=":C_10_0" slope="0.00"/>
    </timestep>
    <timestep time="12.00">
        <vehicle id="ES" x="107.29" y="101.60" angle="270.00" type="DEFAULT_VEHTYPE" speed="0.01" pos="92.71" lane="EC_0" slope="0.00"/>
        <vehicle id="SN" x="101.60" y="108.30" angle="0.00" type="DEFAULT_VEHTYPE" speed="7.80" pos="1.10" lane="CN_0" slope="0.00"/>
        <vehicle id="WE" x="96.17" y="98.40" angle="90.00" type="DEFAULT_VEHTYPE" speed="3.04" pos="3.37" lane=":C_10_0" slope="0.00"/>
    </timestep>
    <timestep time="13.00">
        <vehicle id="ES" x="106.83" y="101.55" angle="269.39" type="DEFAULT_VEHTYPE" speed="0.47" pos="0.38" lane=":C_5_0" slope="0.00"/>
        <vehicle id="SN" x="101.60" y="118.70" angle="0.00" type="DEFAULT_VEHTYPE" speed="10.40" pos="11.50" lane="CN_0" slope="0.00"/>
        <vehicle id="WE" x="101.81" y="98.40" angle="90.00" type="DEFAULT_VEHTYPE" speed="5.64" pos="9.01" lane=":C_10_0" slope="0.00"/>
    </timestep>
    <timestep time="14.00">
        <vehicle id="ES" x="103.78" y="101.11" angle="264.39" type="DEFAULT_VEHTYPE" speed="3.07" pos="3.45" lane=":C_5_0" slope="0.00"/>
        <vehicle id="SN" x="101.60" y="131.70" angle="0.00" type="DEFAULT_VEHTYPE" speed="13.00" pos="24.50" lane="CN_0" slope="0.00"/>
        <vehicle id="WE" x="110.04" y="98.40" angle="90.00" type="DEFAULT_VEHTYPE" speed="8.24" pos="2.84" lane="CE_0" slope="0.00"/>
    </timestep>
    <timestep time="15.00">
        <vehicle id="ES" x="99.56" y="97.66" angle="227.70" type="DEFAULT_VEHTYPE" speed="5.67" pos="9.12" lane=":C_5_0" slope="0.00"/>
        <vehicle id="SN" x="101.60" y="145.59" angle="0.00" type="DEFAULT_VEHTYPE" speed="13.89" pos="38.39" lane="CN_0" slope="0.00"/>
        <vehicle id="WE" x="120.88" y="98.40" angle="90.00" type="DEFAULT_VEHTYPE" speed="10.84" pos="13.68" lane="CE_0" slope="0.00"/>
    </timestep>
    <timestep time="16.00">
        <vehicle id="ES" x="98.40" y="89.59" angle="182.92" type="DEFAULT_VEHTYPE" speed="8.27" pos="3.21" lane="CS_0" slope="0.00"/>
        <vehicle id="SN" x="101.60" y="159.48" angle="0.00" type="DEFAULT_VEHTYPE" speed="13.89" pos="52.28" lane="CN_0" slope="0.00"/>
        <vehicle id="WE" x="134.32" y="98.40" angle="90.00" type="DEFAULT_VEHTYPE" speed="13.44" pos="27.12" lane="CE_0" slope="0.00"/>
    </timestep>
    <timestep time="17.00">
        <vehicle id="ES" x="98.40" y="78.72" angle="180.00" type="DEFAULT_VEHTYPE" speed="10.87" pos="14.08" lane="CS_0" slope="0.00"/>
        <vehicle id="SN" x="101.60" y="173.37" angle="0.00" type="DEFAULT_VEHTYPE" speed="13.89" pos="66.17" lane="CN_0" slope="0.00"/>
        <vehicle id="WE" x="148.21" y="98.40" angle="90.00" type="DEFAULT_VEHTYPE" speed="13.89" pos="41.01" lane="CE_0" slope="0.00"/>
    </timestep>
    <timestep time="18.00">
        <vehicle id="ES" x="98.40" y="65.25" angle="180.00" type="DEFAULT_VEHTYPE" speed="13.47" pos="27.55" lane="CS_0" slope="0.00"/>
        <vehicle id="SN" x="101.60" y="187.26" angle="0.00" type="DEFAULT_VEHTYPE" speed="13.89" pos="80.06" lane="CN_0" slope="0.00"/>
        <vehicle id="WE" x="162.10" y="98.40" angle="90.00" type="DEFAULT_VEHTYPE" speed="13.89" pos="54.90" lane="CE_0" slope="0.00"/>
    </timestep>
    <timestep time="19.00">
        <vehicle id="ES" x="98.40" y="51.36" angle="180.00" type="DEFAULT_VEHTYPE" speed="13.89" pos="41.44" lane="CS_0" slope="0.00"/>
        <vehicle id="WE" x="175.99" y="98.40" angle="90.00" type="DEFAULT_VEHTYPE" speed="13.89" pos="68.79" lane="CE_0" slope="0.00"/>
    </timestep>
    <timestep time="20.00">
        <vehicle id="ES" x="98.40" y="37.47" angle="180.00" type="DEFAULT_VEHTYPE" speed="13.89" pos="55.33" lane="CS_0" slope="0.00"/>
        <vehicle id="WE" x="189.88" y="98.40" angle="90.00" type="DEFAULT_VEHTYPE" speed="13.89" pos="82.68" lane="CE_0" slope="0.00"/>
    </timestep>
    <timestep time="21.00">
        <vehicle id="ES" x="98.40" y="23.58" angle="180.00" type="DEFAULT_VEHTYPE" speed="13.89" pos="69.22" lane="CS_0" slope="0.00"/>
    </timestep>
    <timestep time="22.00">
        <vehicle id="ES" x="98.40" y="9.69" angle="180.00" type="DEFAULT_VEHTYPE" speed="13.89" pos="83.11" lane="CS_0" slope="0.00"/>
    </timestep>
    <timestep time="23.00"/>
</fcd-export>
