<?xml version="1.0" encoding="UTF-8"?>

<!-- generated on Sat Dec 21 10:26:58 2019 by Eclipse SUMO Version v1_4_0+0259-0a2d5131f8
<configuration xmlns:xsi="http://www.w3.org/2001/XMLSchema-instance" xsi:noNamespaceSchemaLocation="http://sumo.dlr.de/xsd/sumoConfiguration.xsd">

    <input>
        <net-file value="input_net.net.xml"/>
        <route-files value="input_routes.rou.xml"/>
    </input>

    <output>
        <vehroute-output value="vehroutes.xml"/>
        <save-state.times value="50"/>
        <save-state.files value="state.xml"/>
    </output>

    <report>
        <duration-log.disable value="true"/>
        <no-step-log value="true"/>
    </report>

    <traci_server>
        <remote-port value="38843"/>
    </traci_server>

</configuration>
-->

<snapshot xmlns:xsi="http://www.w3.org/2001/XMLSchema-instance" xsi:noNamespaceSchemaLocation="http://sumo.dlr.de/xsd/state_file.xsd" version="v1_4_0+0259-0a2d5131f8" time="50.00">
    <route id="r1" state="1" edges="4/1to3/1 3/1to2/1 2/1to1/1 1/1to0/1"/>
    <delay number="3" begin="3" end="0" depart="0.00" time="0.00"/>
    <vType id="DEFAULT_BIKETYPE" vClass="bicycle"/>
    <vType id="DEFAULT_CONTAINERTYPE" vClass="ignoring"/>
    <vType id="DEFAULT_PEDTYPE" vClass="pedestrian"/>
    <vType id="DEFAULT_VEHTYPE" length="3.00" minGap="2.00" maxSpeed="10.00" accel="0.8" decel="4.5" sigma="1.00"/>
    <vType id="t1" accel="3.00" decel="2.00" emergencyDecel="7.00" apparentDecel="6.00" sigma="1.00" tau="1.30"/>
    <vType id="t2" length="5.00" minGap="1.50" maxSpeed="20.00" color="yellow" accel="2.5" decel="4.5" sigma="0.5"/>
    <vType id="t2@veh2" length="5.00" minGap="1.50" maxSpeed="20.00" color="yellow" accel="3.00" decel="2.00" emergencyDecel="7.00" apparentDecel="6.00" sigma="1.00" tau="1.30"/>
    <vehicle id="veh0" type="DEFAULT_VEHTYPE" depart="0.00" departPos="100.00" departSpeed="10.00" route="r1" speedFactor="1.06" state="0 1 100.00 0 49000" pos="6.83" speed="2.00" posLat="0.00">
        <device id="vehroute_veh0" state="0 0.00 10.00 100.00 0"/>
    </vehicle>
    <vehicle id="veh1" type="t1" depart="10.00" departPos="100.00" departSpeed="10.00" route="r1" speedFactor="1.06" state="10000 0 100.00 0 49000" pos="397.31" speed="1.70" posLat="0.00">
        <device id="vehroute_veh1" state="0 0.00 10.00 100.00 0"/>
    </vehicle>
    <vehicle id="veh2" type="t2@veh2" depart="20.00" departPos="100.00" departSpeed="10.00" route="r1" speedFactor="1.01" state="20000 0 100.00 0 49000" pos="370.97" speed="6.46" posLat="0.00">
        <device id="vehroute_veh2" state="0 0.00 10.00 100.00 0"/>
    </vehicle>
    <lane id="3/1to2/1_0">
        <vehicles value="veh0"/>
    </lane>
    <lane id="4/1to3/1_0">
        <vehicles value="veh2 veh1"/>
    </lane>
</snapshot>
