<?xml version="1.0" encoding="UTF-8"?>

<!-- generated on Tue Mar 31 12:21:37 2020 by Eclipse SUMO Version v1_5_0+1025-83bc0d0af0
This data file and the accompanying materials
are made available under the terms of the Eclipse Public License v2.0
which accompanies this distribution, and is available at
http://www.eclipse.org/legal/epl-v20.html
SPDX-License-Identifier: EPL-2.0
<configuration xmlns:xsi="http://www.w3.org/2001/XMLSchema-instance" xsi:noNamespaceSchemaLocation="http://sumo.dlr.de/xsd/sumoConfiguration.xsd">

    <input>
        <net-file value="net.net.xml"/>
        <additional-files value="input_routes.rou.xml,input_additional.add.xml,input_additional2.add.xml"/>
    </input>

    <output>
        <write-license value="true"/>
    </output>

    <time>
        <begin value="0"/>
        <end value="150"/>
    </time>

    <processing>
        <default.speeddev value="0"/>
        <pedestrian.model value="nonInteracting"/>
    </processing>

    <report>
        <xml-validation value="never"/>
        <duration-log.disable value="true"/>
        <no-step-log value="true"/>
    </report>

    <mesoscopic>
        <mesosim value="true"/>
    </mesoscopic>

</configuration>
-->

<meandata xmlns:xsi="http://www.w3.org/2001/XMLSchema-instance" xsi:noNamespaceSchemaLocation="http://sumo.dlr.de/xsd/meandata_file.xsd">
    <interval begin="0.00" end="15.00" id="dump_15">
        <edge id="4/1to3/1" sampledSeconds="13.00" CO_abs="250.250000" CO2_abs="27458.888889" HC_abs="1.729722" PMx_abs="0.162139" NOx_abs="9.038611" fuel_abs="11.803759" electricity_abs="0"
            CO_normed="150.150000" CO2_normed="16475.333333" HC_normed="1.037833" PMx_normed="0.097283" NOx_normed="5.423167" fuel_normed="7.082255" electricity_normed="0"
            traveltime="40.00" CO_perVeh="770.000000" CO2_perVeh="84488.888889" HC_perVeh="5.322222" PMx_perVeh="0.498889" NOx_perVeh="27.811111" fuel_perVeh="36.319257" electricity_perVeh="0"/>
    </interval>
    <interval begin="15.00" end="30.00" id="dump_15">
        <edge id="4/1to3/1" sampledSeconds="15.00" CO_abs="288.750000" CO2_abs="31683.333333" HC_abs="1.995833" PMx_abs="0.187083" NOx_abs="10.429167" fuel_abs="13.619721" electricity_abs="0"
            CO_normed="173.250000" CO2_normed="19010.000000" HC_normed="1.197500" PMx_normed="0.112250" NOx_normed="6.257500" fuel_normed="8.171833" electricity_normed="0"
            traveltime="40.00" CO_perVeh="770.000000" CO2_perVeh="84488.888889" HC_perVeh="5.322222" PMx_perVeh="0.498889" NOx_perVeh="27.811111" fuel_perVeh="36.319257" electricity_perVeh="0"/>
    </interval>
    <interval begin="30.00" end="45.00" id="dump_15">
        <edge id="3/1to2/1" sampledSeconds="3.00" CO_abs="57.750000" CO2_abs="6336.666667" HC_abs="0.399167" PMx_abs="0.037417" NOx_abs="2.085833" fuel_abs="2.723944" electricity_abs="0"
            CO_normed="34.650000" CO2_normed="3802.000000" HC_normed="0.239500" PMx_normed="0.022450" NOx_normed="1.251500" fuel_normed="1.634367" electricity_normed="0"
            traveltime="40.00" CO_perVeh="770.000000" CO2_perVeh="84488.888889" HC_perVeh="5.322222" PMx_perVeh="0.498889" NOx_perVeh="27.811111" fuel_perVeh="36.319257" electricity_perVeh="0"/>
        <edge id="4/1to3/1" sampledSeconds="12.00" CO_abs="231.000000" CO2_abs="25346.666667" HC_abs="1.596667" PMx_abs="0.149667" NOx_abs="8.343333" fuel_abs="10.895777" electricity_abs="0"
            CO_normed="138.600000" CO2_normed="15208.000000" HC_normed="0.958000" PMx_normed="0.089800" NOx_normed="5.006000" fuel_normed="6.537466" electricity_normed="0"
            traveltime="40.00" CO_perVeh="770.000000" CO2_perVeh="84488.888889" HC_perVeh="5.322222" PMx_perVeh="0.498889" NOx_perVeh="27.811111" fuel_perVeh="36.319257" electricity_perVeh="0"/>
    </interval>
    <interval begin="45.00" end="60.00" id="dump_15">
        <edge id="3/1to2/1" sampledSeconds="15.00" CO_abs="288.750000" CO2_abs="31683.333333" HC_abs="1.995833" PMx_abs="0.187083" NOx_abs="10.429167" fuel_abs="13.619721" electricity_abs="0"
            CO_normed="173.250000" CO2_normed="19010.000000" HC_normed="1.197500" PMx_normed="0.112250" NOx_normed="6.257500" fuel_normed="8.171833" electricity_normed="0"
            traveltime="40.00" CO_perVeh="770.000000" CO2_perVeh="84488.888889" HC_perVeh="5.322222" PMx_perVeh="0.498889" NOx_perVeh="27.811111" fuel_perVeh="36.319257" electricity_perVeh="0"/>
    </interval>
    <interval begin="60.00" end="75.00" id="dump_15">
        <edge id="3/1to2/1" sampledSeconds="15.00" CO_abs="288.750000" CO2_abs="31683.333333" HC_abs="1.995833" PMx_abs="0.187083" NOx_abs="10.429167" fuel_abs="13.619721" electricity_abs="0"
            CO_normed="173.250000" CO2_normed="19010.000000" HC_normed="1.197500" PMx_normed="0.112250" NOx_normed="6.257500" fuel_normed="8.171833" electricity_normed="0"
            traveltime="40.00" CO_perVeh="770.000000" CO2_perVeh="84488.888889" HC_perVeh="5.322222" PMx_perVeh="0.498889" NOx_perVeh="27.811111" fuel_perVeh="36.319257" electricity_perVeh="0"/>
    </interval>
    <interval begin="75.00" end="90.00" id="dump_15">
        <edge id="2/1to1/1" sampledSeconds="8.00" CO_abs="154.000000" CO2_abs="16897.777778" HC_abs="1.064444" PMx_abs="0.099778" NOx_abs="5.562222" fuel_abs="7.263851" electricity_abs="0"
            CO_normed="92.400000" CO2_normed="10138.666667" HC_normed="0.638667" PMx_normed="0.059867" NOx_normed="3.337333" fuel_normed="4.358311" electricity_normed="0"
            traveltime="40.00" CO_perVeh="770.000000" CO2_perVeh="84488.888889" HC_perVeh="5.322222" PMx_perVeh="0.498889" NOx_perVeh="27.811111" fuel_perVeh="36.319257" electricity_perVeh="0"/>
        <edge id="3/1to2/1" sampledSeconds="7.00" CO_abs="134.750000" CO2_abs="14785.555556" HC_abs="0.931389" PMx_abs="0.087306" NOx_abs="4.866944" fuel_abs="6.355870" electricity_abs="0"
            CO_normed="80.850000" CO2_normed="8871.333333" HC_normed="0.558833" PMx_normed="0.052383" NOx_normed="2.920167" fuel_normed="3.813522" electricity_normed="0"
            traveltime="40.00" CO_perVeh="770.000000" CO2_perVeh="84488.888889" HC_perVeh="5.322222" PMx_perVeh="0.498889" NOx_perVeh="27.811111" fuel_perVeh="36.319257" electricity_perVeh="0"/>
    </interval>
    <interval begin="90.00" end="105.00" id="dump_15">
        <edge id="2/1to1/1" sampledSeconds="15.00" CO_abs="288.750000" CO2_abs="31683.333333" HC_abs="1.995833" PMx_abs="0.187083" NOx_abs="10.429167" fuel_abs="13.619721" electricity_abs="0"
            CO_normed="173.250000" CO2_normed="19010.000000" HC_normed="1.197500" PMx_normed="0.112250" NOx_normed="6.257500" fuel_normed="8.171833" electricity_normed="0"
            traveltime="40.00" CO_perVeh="770.000000" CO2_perVeh="84488.888889" HC_perVeh="5.322222" PMx_perVeh="0.498889" NOx_perVeh="27.811111" fuel_perVeh="36.319257" electricity_perVeh="0"/>
    </interval>
    <interval begin="105.00" end="120.00" id="dump_15">
        <edge id="2/1to1/1" sampledSeconds="15.00" CO_abs="288.750000" CO2_abs="31683.333333" HC_abs="1.995833" PMx_abs="0.187083" NOx_abs="10.429167" fuel_abs="13.619721" electricity_abs="0"
            CO_normed="173.250000" CO2_normed="19010.000000" HC_normed="1.197500" PMx_normed="0.112250" NOx_normed="6.257500" fuel_normed="8.171833" electricity_normed="0"
            traveltime="40.00" CO_perVeh="770.000000" CO2_perVeh="84488.888889" HC_perVeh="5.322222" PMx_perVeh="0.498889" NOx_perVeh="27.811111" fuel_perVeh="36.319257" electricity_perVeh="0"/>
    </interval>
    <interval begin="120.00" end="135.00" id="dump_15">
        <edge id="1/1to0/1" sampledSeconds="13.00" CO_abs="250.250000" CO2_abs="27458.888889" HC_abs="1.729722" PMx_abs="0.162139" NOx_abs="9.038611" fuel_abs="11.803759" electricity_abs="0"
            CO_normed="150.150000" CO2_normed="16475.333333" HC_normed="1.037833" PMx_normed="0.097283" NOx_normed="5.423167" fuel_normed="7.082255" electricity_normed="0"
            traveltime="40.00" CO_perVeh="770.000000" CO2_perVeh="84488.888889" HC_perVeh="5.322222" PMx_perVeh="0.498889" NOx_perVeh="27.811111" fuel_perVeh="36.319257" electricity_perVeh="0"/>
        <edge id="2/1to1/1" sampledSeconds="2.00" CO_abs="38.500000" CO2_abs="4224.444444" HC_abs="0.266111" PMx_abs="0.024944" NOx_abs="1.390556" fuel_abs="1.815963" electricity_abs="0"
            CO_normed="23.100000" CO2_normed="2534.666667" HC_normed="0.159667" PMx_normed="0.014967" NOx_normed="0.834333" fuel_normed="1.089578" electricity_normed="0"
            traveltime="40.00" CO_perVeh="770.000000" CO2_perVeh="84488.888889" HC_perVeh="5.322222" PMx_perVeh="0.498889" NOx_perVeh="27.811111" fuel_perVeh="36.319257" electricity_perVeh="0"/>
    </interval>
    <interval begin="135.00" end="150.00" id="dump_15">
        <edge id="1/1to0/1" sampledSeconds="15.00" CO_abs="288.750000" CO2_abs="31683.333333" HC_abs="1.995833" PMx_abs="0.187083" NOx_abs="10.429167" fuel_abs="13.619721" electricity_abs="0"
            CO_normed="173.250000" CO2_normed="19010.000000" HC_normed="1.197500" PMx_normed="0.112250" NOx_normed="6.257500" fuel_normed="8.171833" electricity_normed="0"
            traveltime="40.00" CO_perVeh="770.000000" CO2_perVeh="84488.888889" HC_perVeh="5.322222" PMx_perVeh="0.498889" NOx_perVeh="27.811111" fuel_perVeh="36.319257" electricity_perVeh="0"/>
    </interval>
</meandata>
