<?xml version="1.0" encoding="UTF-8"?>

<!-- generated on 2024-06-27 12:14:15 by Eclipse SUMO sumo Version v1_20_0+0875-c7310f6279d
This data file and the accompanying materials
are made available under the terms of the Eclipse Public License v2.0
which accompanies this distribution, and is available at
http://www.eclipse.org/legal/epl-v20.html
This file may also be made available under the following Secondary
Licenses when the conditions for such availability set forth in the Eclipse
Public License 2.0 are satisfied: GNU General Public License, version 2
or later which is available at
https://www.gnu.org/licenses/old-licenses/gpl-2.0-standalone.html
SPDX-License-Identifier: EPL-2.0 OR GPL-2.0-or-later
<sumoConfiguration xmlns:xsi="http://www.w3.org/2001/XMLSchema-instance" xsi:noNamespaceSchemaLocation="http://sumo.dlr.de/xsd/sumoConfiguration.xsd">

    <input>
        <net-file value="net.net.xml"/>
        <route-files value="input_routes.rou.xml"/>
        <additional-files value="input_additional.add.xml"/>
    </input>

    <output>
        <write-license value="true"/>
    </output>

    <processing>
        <default.speeddev value="0"/>
    </processing>

    <routing>
        <weights.separate-turns value="0.5"/>
        <device.rerouting.adaptation-steps value="18"/>
        <device.rerouting.adaptation-interval value="10"/>
    </routing>

    <report>
        <xml-validation value="never"/>
        <duration-log.statistics value="true"/>
        <no-step-log value="true"/>
    </report>

</sumoConfiguration>
-->

<meandata xmlns:xsi="http://www.w3.org/2001/XMLSchema-instance" xsi:noNamespaceSchemaLocation="http://sumo.dlr.de/xsd/meandata_file.xsd">
    <interval begin="0.00" end="600.00" id="ed">
        <edge id=":gneJ1_0" sampledSeconds="206.38" traveltime="0.84" overlapTraveltime="1.22" density="30.71" laneDensity="30.71" occupancy="10.61" waitingTime="0.00" timeLoss="9.27" speed="13.27" speedRelative="0.96" departed="0" arrived="0" entered="169" left="169" laneChangedFrom="0" laneChangedTo="0"/>
        <edge id=":gneJ1_3" sampledSeconds="6.98" traveltime="1.72" overlapTraveltime="2.33" density="0.99" laneDensity="0.99" occupancy="0.36" waitingTime="0.00" timeLoss="2.01" speed="7.19" speedRelative="0.98" departed="0" arrived="0" entered="3" left="3" laneChangedFrom="0" laneChangedTo="0"/>
        <edge id=":gneJ1_4" sampledSeconds="194.66" traveltime="0.87" overlapTraveltime="1.24" density="28.24" laneDensity="14.12" occupancy="4.92" waitingTime="0.00" timeLoss="8.70" speed="13.27" speedRelative="0.96" departed="0" arrived="0" entered="157" left="156" laneChangedFrom="0" laneChangedTo="0"/>
        <edge id=":gneJ2_1" sampledSeconds="260.72" traveltime="1.10" overlapTraveltime="1.48" density="30.18" laneDensity="30.18" occupancy="11.19" waitingTime="0.00" timeLoss="15.12" speed="13.08" speedRelative="0.94" departed="0" arrived="0" entered="176" left="176" laneChangedFrom="0" laneChangedTo="0"/>
        <edge id=":gneJ2_4" sampledSeconds="106.68" traveltime="1.52" overlapTraveltime="2.27" density="19.69" laneDensity="19.69" occupancy="6.49" waitingTime="0.00" timeLoss="37.01" speed="6.18" speedRelative="0.95" departed="0" arrived="0" entered="47" left="47" laneChangedFrom="0" laneChangedTo="0"/>
        <edge id=":gneJ2_5" sampledSeconds="118.41" traveltime="1.15" overlapTraveltime="1.53" density="13.31" laneDensity="13.31" occupancy="4.97" waitingTime="0.00" timeLoss="7.62" speed="13.00" speedRelative="0.94" departed="0" arrived="0" entered="78" left="77" laneChangedFrom="0" laneChangedTo="0"/>
        <edge id=":gneJ2_6" sampledSeconds="563.09" traveltime="111.44" overlapTraveltime="124.21" density="133.33" laneDensity="133.33" occupancy="78.12" waitingTime="537.00" timeLoss="556.93" speed="0.09" speedRelative="0.01" departed="0" arrived="0" entered="5" left="4" laneChangedFrom="0" laneChangedTo="0"/>
        <edge id=":gneJ2_10" sampledSeconds="13.51" traveltime="2.58" overlapTraveltime="3.38" density="2.73" laneDensity="2.73" occupancy="0.75" waitingTime="0.00" timeLoss="8.65" speed="3.93" speedRelative="0.49" departed="0" arrived="0" entered="4" left="4" laneChangedFrom="0" laneChangedTo="0"/>
        <edge id=":gneJ3_0" sampledSeconds="217.56" traveltime="0.85" overlapTraveltime="1.22" density="32.38" laneDensity="32.38" occupancy="11.19" waitingTime="0.00" timeLoss="9.96" speed="13.25" speedRelative="0.95" departed="0" arrived="0" entered="178" left="178" laneChangedFrom="0" laneChangedTo="0"/>
        <edge id=":gneJ3_4" sampledSeconds="93.04" traveltime="0.85" overlapTraveltime="1.22" density="13.85" laneDensity="13.85" occupancy="4.79" waitingTime="0.00" timeLoss="4.40" speed="13.23" speedRelative="0.95" departed="0" arrived="0" entered="76" left="76" laneChangedFrom="0" laneChangedTo="0"/>
        <edge id=":gneJ5_0" sampledSeconds="101.85" traveltime="1.53" overlapTraveltime="2.26" density="18.80" laneDensity="18.80" occupancy="6.22" waitingTime="0.00" timeLoss="36.15" speed="6.20" speedRelative="0.95" departed="0" arrived="0" entered="45" left="45" laneChangedFrom="0" laneChangedTo="0"/>
        <edge id=":gneJ5_1" sampledSeconds="8.84" traveltime="1.65" overlapTraveltime="2.21" density="1.32" laneDensity="1.32" occupancy="0.44" waitingTime="0.00" timeLoss="4.18" speed="7.33" speedRelative="0.53" departed="0" arrived="0" entered="4" left="4" laneChangedFrom="0" laneChangedTo="0"/>
        <edge id="-a" sampledSeconds="1231.15" traveltime="7.02" overlapTraveltime="7.40" density="22.11" laneDensity="22.11" occupancy="10.55" waitingTime="0.00" timeLoss="59.19" speed="13.22" speedRelative="0.95" departed="0" arrived="167" entered="169" left="0" laneChangedFrom="0" laneChangedTo="0"/>
        <edge id="-b" sampledSeconds="3827.93" traveltime="21.82" overlapTraveltime="22.19" density="22.09" laneDensity="22.09" occupancy="10.86" waitingTime="0.00" timeLoss="179.48" speed="13.24" speedRelative="0.95" departed="0" arrived="0" entered="176" left="169" laneChangedFrom="0" laneChangedTo="0"/>
        <edge id="-c" sampledSeconds="1257.08" traveltime="6.72" overlapTraveltime="7.11" density="23.59" laneDensity="23.59" occupancy="11.16" waitingTime="0.00" timeLoss="62.34" speed="13.20" speedRelative="0.95" departed="0" arrived="0" entered="178" left="176" laneChangedFrom="0" laneChangedTo="0"/>
        <edge id="-d" sampledSeconds="1781.66" traveltime="10.12" overlapTraveltime="10.49" density="32.00" laneDensity="32.00" occupancy="15.70" waitingTime="0.00" timeLoss="586.18" speed="9.32" speedRelative="0.67" departed="181" arrived="0" entered="0" left="178" laneChangedFrom="0" laneChangedTo="0"/>
        <edge id="a" sampledSeconds="1602.09" traveltime="10.15" overlapTraveltime="10.52" density="28.77" laneDensity="28.77" occupancy="14.11" waitingTime="0.00" timeLoss="528.86" speed="9.29" speedRelative="0.67" departed="163" arrived="0" entered="0" left="160" laneChangedFrom="0" laneChangedTo="0"/>
        <edge id="b" sampledSeconds="14896.35" traveltime="100.34" overlapTraveltime="101.08" density="85.97" laneDensity="42.98" occupancy="21.39" waitingTime="10622.00" timeLoss="11751.98" speed="2.91" speedRelative="0.21" departed="0" arrived="0" entered="156" left="130" laneChangedFrom="0" laneChangedTo="0"/>
        <edge id="c" sampledSeconds="544.07" traveltime="6.70" overlapTraveltime="7.08" density="10.21" laneDensity="10.21" occupancy="4.83" waitingTime="0.00" timeLoss="25.08" speed="13.25" speedRelative="0.95" departed="0" arrived="0" entered="77" left="76" laneChangedFrom="0" laneChangedTo="0"/>
        <edge id="d" sampledSeconds="554.82" traveltime="7.00" overlapTraveltime="7.38" density="9.96" laneDensity="9.96" occupancy="4.75" waitingTime="0.00" timeLoss="25.41" speed="13.25" speedRelative="0.95" departed="0" arrived="75" entered="76" left="0" laneChangedFrom="0" laneChangedTo="0"/>
        <edge id="e" sampledSeconds="134.98" traveltime="47.66" overlapTraveltime="48.06" density="0.38" laneDensity="0.38" occupancy="0.19" waitingTime="3.00" timeLoss="14.92" speed="12.35" speedRelative="0.89" departed="0" arrived="0" entered="3" left="0" laneChangedFrom="0" laneChangedTo="0"/>
        <edge id="f" sampledSeconds="1109.31" traveltime="23.60" overlapTraveltime="24.44" density="6.33" laneDensity="6.33" occupancy="3.06" waitingTime="0.00" timeLoss="117.90" speed="12.15" speedRelative="0.87" departed="0" arrived="0" entered="47" left="45" laneChangedFrom="0" laneChangedTo="0"/>
        <edge id="g" sampledSeconds="39.96" traveltime="9.12" overlapTraveltime="9.99" density="0.75" laneDensity="0.75" occupancy="0.34" waitingTime="0.00" timeLoss="12.94" speed="9.39" speedRelative="0.68" departed="0" arrived="0" entered="4" left="4" laneChangedFrom="0" laneChangedTo="0"/>
        <edge id="h" sampledSeconds="405.62" traveltime="7.97" overlapTraveltime="8.35" density="7.28" laneDensity="7.28" occupancy="3.41" waitingTime="0.00" timeLoss="63.58" speed="11.71" speedRelative="0.84" departed="0" arrived="49" entered="49" left="0" laneChangedFrom="0" laneChangedTo="0"/>
    </interval>
    <interval begin="600.00" end="1200.00" id="ed">
        <edge id=":gneJ1_0" sampledSeconds="233.11" traveltime="0.85" overlapTraveltime="1.22" density="34.69" laneDensity="34.69" occupancy="11.99" waitingTime="0.00" timeLoss="10.96" speed="13.24" speedRelative="0.95" departed="0" arrived="0" entered="191" left="190" laneChangedFrom="0" laneChangedTo="0"/>
        <edge id=":gneJ1_4" sampledSeconds="50.33" traveltime="0.87" overlapTraveltime="1.25" density="7.30" laneDensity="3.65" occupancy="1.27" waitingTime="0.00" timeLoss="2.42" speed="13.22" speedRelative="0.95" departed="0" arrived="0" entered="40" left="41" laneChangedFrom="0" laneChangedTo="0"/>
        <edge id=":gneJ2_0" sampledSeconds="7.12" traveltime="1.61" overlapTraveltime="2.37" density="1.31" laneDensity="1.31" occupancy="0.43" waitingTime="0.00" timeLoss="2.39" speed="5.91" speedRelative="0.91" departed="0" arrived="0" entered="3" left="3" laneChangedFrom="0" laneChangedTo="0"/>
        <edge id=":gneJ2_1" sampledSeconds="284.22" traveltime="1.11" overlapTraveltime="1.49" density="32.90" laneDensity="32.90" occupancy="12.20" waitingTime="0.00" timeLoss="17.24" speed="13.05" speedRelative="0.94" departed="0" arrived="0" entered="191" left="191" laneChangedFrom="0" laneChangedTo="0"/>
        <edge id=":gneJ2_4" sampledSeconds="52.83" traveltime="1.52" overlapTraveltime="2.30" density="9.75" laneDensity="9.75" occupancy="3.21" waitingTime="0.00" timeLoss="18.17" speed="6.11" speedRelative="0.94" departed="0" arrived="0" entered="23" left="23" laneChangedFrom="0" laneChangedTo="0"/>
        <edge id=":gneJ2_5" sampledSeconds="35.03" traveltime="1.17" overlapTraveltime="1.56" density="3.94" laneDensity="3.94" occupancy="1.47" waitingTime="0.00" timeLoss="3.05" speed="12.68" speedRelative="0.91" departed="0" arrived="0" entered="22" left="23" laneChangedFrom="0" laneChangedTo="0"/>
        <edge id=":gneJ2_6" sampledSeconds="599.17" traveltime="147.95" overlapTraveltime="149.79" density="133.33" laneDensity="133.33" occupancy="83.29" waitingTime="578.00" timeLoss="593.74" speed="0.07" speedRelative="0.01" departed="0" arrived="0" entered="4" left="4" laneChangedFrom="0" laneChangedTo="0"/>
        <edge id=":gneJ2_10" sampledSeconds="13.03" traveltime="2.47" overlapTraveltime="3.26" density="2.63" laneDensity="2.63" occupancy="0.73" waitingTime="0.00" timeLoss="8.08" speed="4.07" speedRelative="0.51" departed="0" arrived="0" entered="4" left="4" laneChangedFrom="0" laneChangedTo="0"/>
        <edge id=":gneJ3_0" sampledSeconds="236.85" traveltime="0.86" overlapTraveltime="1.24" density="35.24" laneDensity="35.24" occupancy="12.17" waitingTime="0.00" timeLoss="13.60" speed="13.09" speedRelative="0.94" departed="0" arrived="0" entered="192" left="191" laneChangedFrom="0" laneChangedTo="0"/>
        <edge id=":gneJ3_3" sampledSeconds="11.44" traveltime="3.13" overlapTraveltime="3.81" density="1.63" laneDensity="1.63" occupancy="0.49" waitingTime="0.00" timeLoss="6.23" speed="4.39" speedRelative="0.60" departed="0" arrived="0" entered="3" left="3" laneChangedFrom="0" laneChangedTo="0"/>
        <edge id=":gneJ3_4" sampledSeconds="29.47" traveltime="0.85" overlapTraveltime="1.23" density="4.39" laneDensity="4.39" occupancy="1.52" waitingTime="0.00" timeLoss="1.48" speed="13.19" speedRelative="0.95" departed="0" arrived="0" entered="24" left="24" laneChangedFrom="0" laneChangedTo="0"/>
        <edge id=":gneJ5_0" sampledSeconds="56.42" traveltime="1.54" overlapTraveltime="2.26" density="10.41" laneDensity="10.41" occupancy="3.45" waitingTime="0.00" timeLoss="20.99" speed="6.22" speedRelative="0.95" departed="0" arrived="0" entered="25" left="25" laneChangedFrom="0" laneChangedTo="0"/>
        <edge id=":gneJ5_1" sampledSeconds="16.54" traveltime="1.81" overlapTraveltime="2.36" density="2.46" laneDensity="2.46" occupancy="0.80" waitingTime="0.00" timeLoss="8.37" speed="6.86" speedRelative="0.49" departed="0" arrived="0" entered="7" left="7" laneChangedFrom="0" laneChangedTo="0"/>
        <edge id="-a" sampledSeconds="1391.23" traveltime="7.02" overlapTraveltime="7.40" density="24.99" laneDensity="24.99" occupancy="11.95" waitingTime="0.00" timeLoss="67.03" speed="13.22" speedRelative="0.95" departed="0" arrived="190" entered="190" left="0" laneChangedFrom="0" laneChangedTo="0"/>
        <edge id="-b" sampledSeconds="4231.69" traveltime="21.82" overlapTraveltime="22.20" density="24.42" laneDensity="24.42" occupancy="12.00" waitingTime="0.00" timeLoss="199.88" speed="13.23" speedRelative="0.95" departed="0" arrived="0" entered="191" left="191" laneChangedFrom="0" laneChangedTo="0"/>
        <edge id="-c" sampledSeconds="1400.35" traveltime="6.82" overlapTraveltime="7.21" density="26.28" laneDensity="26.28" occupancy="12.43" waitingTime="0.00" timeLoss="87.76" speed="13.00" speedRelative="0.94" departed="0" arrived="0" entered="194" left="194" laneChangedFrom="0" laneChangedTo="0"/>
        <edge id="-d" sampledSeconds="1916.04" traveltime="10.17" overlapTraveltime="10.55" density="34.41" laneDensity="34.41" occupancy="16.88" waitingTime="0.00" timeLoss="637.10" speed="9.27" speedRelative="0.67" departed="192" arrived="0" entered="0" left="192" laneChangedFrom="0" laneChangedTo="0"/>
        <edge id="a" sampledSeconds="387.41" traveltime="10.01" overlapTraveltime="10.38" density="6.96" laneDensity="6.96" occupancy="3.41" waitingTime="0.00" timeLoss="124.52" speed="9.43" speedRelative="0.68" departed="37" arrived="0" entered="0" left="40" laneChangedFrom="0" laneChangedTo="0"/>
        <edge id="b" sampledSeconds="12904.62" traveltime="284.36" overlapTraveltime="284.75" density="74.47" laneDensity="37.24" occupancy="18.58" waitingTime="11162.00" timeLoss="11931.46" speed="1.03" speedRelative="0.07" departed="0" arrived="0" entered="41" left="49" laneChangedFrom="0" laneChangedTo="0"/>
        <edge id="c" sampledSeconds="164.58" traveltime="6.73" overlapTraveltime="7.11" density="3.09" laneDensity="3.09" occupancy="1.46" waitingTime="0.00" timeLoss="8.26" speed="13.19" speedRelative="0.95" departed="0" arrived="0" entered="23" left="24" laneChangedFrom="0" laneChangedTo="0"/>
        <edge id="d" sampledSeconds="177.05" traveltime="7.00" overlapTraveltime="7.38" density="3.18" laneDensity="3.18" occupancy="1.52" waitingTime="0.00" timeLoss="8.05" speed="13.26" speedRelative="0.95" departed="0" arrived="25" entered="24" left="0" laneChangedFrom="0" laneChangedTo="0"/>
        <edge id="e" sampledSeconds="673.96" traveltime="3981.05" overlapTraveltime="3515.78" density="1.91" laneDensity="1.91" occupancy="0.95" waitingTime="645.00" timeLoss="664.78" speed="0.17" speedRelative="0.01" departed="0" arrived="0" entered="0" left="3" laneChangedFrom="0" laneChangedTo="0"/>
        <edge id="f" sampledSeconds="602.51" traveltime="23.62" overlapTraveltime="24.48" density="3.44" laneDensity="3.44" occupancy="1.66" waitingTime="0.00" timeLoss="64.25" speed="12.13" speedRelative="0.87" departed="0" arrived="0" entered="23" left="25" laneChangedFrom="0" laneChangedTo="0"/>
        <edge id="g" sampledSeconds="186.02" traveltime="25.58" overlapTraveltime="26.57" density="3.49" laneDensity="3.49" occupancy="1.69" waitingTime="110.00" timeLoss="138.75" speed="3.53" speedRelative="0.25" departed="0" arrived="0" entered="7" left="7" laneChangedFrom="0" laneChangedTo="0"/>
        <edge id="h" sampledSeconds="260.24" traveltime="7.85" overlapTraveltime="8.24" density="4.67" laneDensity="4.67" occupancy="2.20" waitingTime="0.00" timeLoss="37.83" speed="11.87" speedRelative="0.85" departed="0" arrived="32" entered="32" left="0" laneChangedFrom="0" laneChangedTo="0"/>
    </interval>
    <interval begin="1200.00" end="1366.00" id="ed">
        <edge id=":gneJ1_0" sampledSeconds="49.70" traveltime="0.85" overlapTraveltime="1.23" density="26.73" laneDensity="26.73" occupancy="9.25" waitingTime="0.00" timeLoss="2.43" speed="13.21" speedRelative="0.95" departed="0" arrived="0" entered="40" left="41" laneChangedFrom="0" laneChangedTo="0"/>
        <edge id=":gneJ2_1" sampledSeconds="48.86" traveltime="1.10" overlapTraveltime="1.48" density="20.44" laneDensity="20.44" occupancy="7.58" waitingTime="0.00" timeLoss="2.76" speed="13.10" speedRelative="0.94" departed="0" arrived="0" entered="33" left="33" laneChangedFrom="0" laneChangedTo="0"/>
        <edge id=":gneJ2_6" sampledSeconds="134.28" traveltime="6.51" overlapTraveltime="7.27" density="133.33" laneDensity="133.33" occupancy="59.37" waitingTime="95.00" timeLoss="109.74" speed="1.50" speedRelative="0.19" departed="0" arrived="0" entered="18" left="19" laneChangedFrom="0" laneChangedTo="0"/>
        <edge id=":gneJ2_10" sampledSeconds="38.44" traveltime="1.36" overlapTraveltime="2.02" density="28.03" laneDensity="28.03" occupancy="8.58" waitingTime="0.00" timeLoss="15.72" speed="6.55" speedRelative="0.82" departed="0" arrived="0" entered="19" left="19" laneChangedFrom="0" laneChangedTo="0"/>
        <edge id=":gneJ3_0" sampledSeconds="37.52" traveltime="0.85" overlapTraveltime="1.23" density="20.18" laneDensity="20.18" occupancy="6.98" waitingTime="0.00" timeLoss="1.84" speed="13.21" speedRelative="0.95" departed="0" arrived="0" entered="30" left="31" laneChangedFrom="0" laneChangedTo="0"/>
        <edge id=":gneJ5_1" sampledSeconds="37.41" traveltime="1.45" overlapTraveltime="1.97" density="20.12" laneDensity="20.12" occupancy="6.90" waitingTime="0.00" timeLoss="15.25" speed="8.23" speedRelative="0.59" departed="0" arrived="0" entered="19" left="19" laneChangedFrom="0" laneChangedTo="0"/>
        <edge id="-a" sampledSeconds="305.20" traveltime="7.01" overlapTraveltime="7.39" density="19.81" laneDensity="19.81" occupancy="9.46" waitingTime="0.00" timeLoss="14.32" speed="13.24" speedRelative="0.95" departed="0" arrived="43" entered="41" left="0" laneChangedFrom="0" laneChangedTo="0"/>
        <edge id="-b" sampledSeconds="820.36" traveltime="21.86" overlapTraveltime="22.23" density="17.11" laneDensity="17.11" occupancy="8.41" waitingTime="0.00" timeLoss="39.86" speed="13.22" speedRelative="0.95" departed="0" arrived="0" entered="33" left="40" laneChangedFrom="0" laneChangedTo="0"/>
        <edge id="-c" sampledSeconds="227.47" traveltime="6.73" overlapTraveltime="7.11" density="15.43" laneDensity="15.43" occupancy="7.30" waitingTime="0.00" timeLoss="11.51" speed="13.19" speedRelative="0.95" departed="0" arrived="0" entered="31" left="33" laneChangedFrom="0" laneChangedTo="0"/>
        <edge id="-d" sampledSeconds="291.97" traveltime="10.17" overlapTraveltime="10.54" density="18.95" laneDensity="18.95" occupancy="9.29" waitingTime="0.00" timeLoss="96.84" speed="9.28" speedRelative="0.67" departed="27" arrived="0" entered="0" left="30" laneChangedFrom="0" laneChangedTo="0"/>
        <edge id="b" sampledSeconds="2177.31" traveltime="529.37" overlapTraveltime="504.59" density="45.42" laneDensity="22.71" occupancy="11.31" waitingTime="1771.00" timeLoss="2077.64" speed="0.58" speedRelative="0.04" departed="0" arrived="0" entered="0" left="18" laneChangedFrom="0" laneChangedTo="0"/>
        <edge id="g" sampledSeconds="196.62" traveltime="9.62" overlapTraveltime="10.35" density="13.34" laneDensity="13.34" occupancy="6.22" waitingTime="0.00" timeLoss="68.32" speed="9.06" speedRelative="0.65" departed="0" arrived="0" entered="19" left="19" laneChangedFrom="0" laneChangedTo="0"/>
        <edge id="h" sampledSeconds="146.07" traveltime="7.36" overlapTraveltime="7.74" density="9.48" laneDensity="9.48" occupancy="4.48" waitingTime="0.00" timeLoss="13.13" speed="12.64" speedRelative="0.91" departed="0" arrived="19" entered="19" left="0" laneChangedFrom="0" laneChangedTo="0"/>
    </interval>
</meandata>
