<?xml version="1.0" encoding="UTF-8"?>

<!-- generated on Tue Mar 31 09:34:18 2020 by Eclipse SUMO Version v1_5_0+1023-63f9a82342
This data file and the accompanying materials
are made available under the terms of the Eclipse Public License v2.0
which accompanies this distribution, and is available at
http://www.eclipse.org/legal/epl-v20.html
SPDX-License-Identifier: EPL-2.0
<configuration xmlns:xsi="http://www.w3.org/2001/XMLSchema-instance" xsi:noNamespaceSchemaLocation="http://sumo.dlr.de/xsd/sumoConfiguration.xsd">

    <input>
        <net-file value="net.net.xml"/>
        <route-files value="input_routes.rou.xml"/>
        <additional-files value="input_additional.add.xml,input_additional2.add.xml"/>
    </input>

    <output>
        <write-license value="true"/>
        <tripinfo-output.write-unfinished value="true"/>
    </output>

    <time>
        <begin value="0"/>
        <end value="300"/>
        <step-length value="0.1"/>
    </time>

    <processing>
        <default.speeddev value="0"/>
    </processing>

    <report>
        <verbose value="true"/>
        <xml-validation value="never"/>
        <duration-log.statistics value="true"/>
        <no-step-log value="true"/>
    </report>

    <gui_only>
        <tracker-interval value="0.1"/>
    </gui_only>

</configuration>
-->

<meandata xmlns:xsi="http://www.w3.org/2001/XMLSchema-instance" xsi:noNamespaceSchemaLocation="http://sumo.dlr.de/xsd/meandata_file.xsd">
    <interval begin="0.00" end="6.00" id="dump_6">
        <edge id="1/1to2/1" sampledSeconds="16.43" traveltime="151.48" overlapTraveltime="104.04" density="28.49" laneDensity="28.49" occupancy="13.65" waitingTime="7.80" speed="0.97" departed="6" arrived="0" entered="0" left="2" laneChangedFrom="0" laneChangedTo="0"/>
        <edge id="2/1to3/1" sampledSeconds="4.39" traveltime="9.85" overlapTraveltime="10.36" density="7.62" laneDensity="7.62" occupancy="3.37" waitingTime="0.00" speed="9.76" departed="0" arrived="0" entered="1" left="0" laneChangedFrom="0" laneChangedTo="0"/>
    </interval>
    <interval begin="6.00" end="12.00" id="dump_6">
        <edge id="1/1to2/1" sampledSeconds="42.61" traveltime="152.67" overlapTraveltime="125.29" density="73.87" laneDensity="73.87" occupancy="36.44" waitingTime="28.60" speed="0.81" departed="5" arrived="0" entered="0" left="1" laneChangedFrom="0" laneChangedTo="0"/>
        <edge id="2/1to3/1" sampledSeconds="10.50" traveltime="6.39" overlapTraveltime="6.67" density="18.21" laneDensity="18.21" occupancy="8.49" waitingTime="0.00" speed="15.15" departed="0" arrived="0" entered="2" left="1" laneChangedFrom="0" laneChangedTo="0"/>
        <edge id="3/1to4/1" sampledSeconds="2.96" traveltime="4.90" overlapTraveltime="5.16" density="5.13" laneDensity="5.13" occupancy="2.46" waitingTime="0.00" speed="19.60" departed="0" arrived="0" entered="1" left="0" laneChangedFrom="0" laneChangedTo="0"/>
    </interval>
    <interval begin="12.00" end="18.00" id="dump_6">
        <edge id="1/1to2/1" sampledSeconds="44.68" traveltime="72.25" overlapTraveltime="70.76" density="77.46" laneDensity="77.46" occupancy="38.54" waitingTime="26.10" speed="1.43" departed="0" arrived="0" entered="0" left="1" laneChangedFrom="0" laneChangedTo="0"/>
        <edge id="2/1to3/1" sampledSeconds="9.04" traveltime="5.58" overlapTraveltime="5.83" density="15.67" laneDensity="15.67" occupancy="7.43" waitingTime="0.00" speed="17.36" departed="0" arrived="0" entered="1" left="2" laneChangedFrom="0" laneChangedTo="0"/>
        <edge id="3/1to4/1" sampledSeconds="8.83" traveltime="4.90" overlapTraveltime="5.16" density="15.30" laneDensity="15.30" occupancy="7.21" waitingTime="0.00" speed="19.60" departed="0" arrived="0" entered="2" left="2" laneChangedFrom="0" laneChangedTo="0"/>
        <edge id="4/1to5/1" sampledSeconds="4.03" traveltime="4.90" overlapTraveltime="5.16" density="6.98" laneDensity="6.98" occupancy="3.30" waitingTime="0.00" speed="19.60" departed="0" arrived="0" entered="2" left="0" laneChangedFrom="0" laneChangedTo="0"/>
    </interval>
    <interval begin="18.00" end="24.00" id="dump_6">
        <edge id="1/1to2/1" sampledSeconds="35.03" traveltime="43.14" overlapTraveltime="40.99" density="60.74" laneDensity="60.74" occupancy="30.06" waitingTime="13.40" speed="2.47" departed="0" arrived="0" entered="0" left="2" laneChangedFrom="0" laneChangedTo="0"/>
        <edge id="2/1to3/1" sampledSeconds="9.57" traveltime="5.29" overlapTraveltime="5.54" density="16.60" laneDensity="16.60" occupancy="7.79" waitingTime="0.00" speed="18.25" departed="0" arrived="0" entered="2" left="2" laneChangedFrom="0" laneChangedTo="0"/>
        <edge id="3/1to4/1" sampledSeconds="7.54" traveltime="4.90" overlapTraveltime="5.16" density="13.08" laneDensity="13.08" occupancy="6.26" waitingTime="0.00" speed="19.60" departed="0" arrived="0" entered="2" left="1" laneChangedFrom="0" laneChangedTo="0"/>
        <edge id="4/1to5/1" sampledSeconds="8.70" traveltime="4.90" overlapTraveltime="5.16" density="15.08" laneDensity="15.08" occupancy="7.18" waitingTime="0.00" speed="19.60" departed="0" arrived="0" entered="1" left="2" laneChangedFrom="0" laneChangedTo="0"/>
        <edge id="5/1to6/1" sampledSeconds="5.91" traveltime="4.90" overlapTraveltime="5.16" density="10.24" laneDensity="10.24" occupancy="4.90" waitingTime="0.00" speed="19.60" departed="0" arrived="0" entered="2" left="0" laneChangedFrom="0" laneChangedTo="0"/>
    </interval>
    <interval begin="24.00" end="30.00" id="dump_6">
        <edge id="1/1to2/1" sampledSeconds="26.88" traveltime="22.20" overlapTraveltime="21.97" density="46.60" laneDensity="46.60" occupancy="22.44" waitingTime="2.70" speed="4.60" departed="1" arrived="0" entered="0" left="2" laneChangedFrom="0" laneChangedTo="0"/>
        <edge id="2/1to3/1" sampledSeconds="7.79" traveltime="5.01" overlapTraveltime="5.27" density="13.51" laneDensity="13.51" occupancy="6.39" waitingTime="0.00" speed="19.21" departed="0" arrived="0" entered="2" left="1" laneChangedFrom="0" laneChangedTo="0"/>
        <edge id="3/1to4/1" sampledSeconds="8.86" traveltime="4.90" overlapTraveltime="5.16" density="15.35" laneDensity="15.35" occupancy="7.29" waitingTime="0.00" speed="19.60" departed="0" arrived="0" entered="1" left="2" laneChangedFrom="0" laneChangedTo="0"/>
        <edge id="4/1to5/1" sampledSeconds="8.48" traveltime="4.90" overlapTraveltime="5.16" density="14.71" laneDensity="14.71" occupancy="7.02" waitingTime="0.00" speed="19.60" departed="0" arrived="0" entered="2" left="1" laneChangedFrom="0" laneChangedTo="0"/>
        <edge id="5/1to6/1" sampledSeconds="7.76" traveltime="4.90" overlapTraveltime="5.16" density="13.45" laneDensity="13.45" occupancy="6.40" waitingTime="0.00" speed="19.60" departed="0" arrived="0" entered="1" left="2" laneChangedFrom="0" laneChangedTo="0"/>
        <edge id="6/1to7/1" sampledSeconds="7.17" traveltime="4.90" overlapTraveltime="5.16" density="12.42" laneDensity="12.42" occupancy="5.88" waitingTime="0.00" speed="19.60" departed="0" arrived="0" entered="2" left="1" laneChangedFrom="0" laneChangedTo="0"/>
        <edge id="7/1to8/1" sampledSeconds="0.72" traveltime="4.90" overlapTraveltime="5.16" density="1.25" laneDensity="1.25" occupancy="0.51" waitingTime="0.00" speed="19.60" departed="0" arrived="0" entered="1" left="0" laneChangedFrom="0" laneChangedTo="0"/>
    </interval>
    <interval begin="30.00" end="36.00" id="dump_6">
        <edge id="1/1to2/1" sampledSeconds="21.66" traveltime="16.09" overlapTraveltime="16.50" density="37.56" laneDensity="37.56" occupancy="16.00" waitingTime="0.20" speed="6.13" departed="0" arrived="0" entered="0" left="1" laneChangedFrom="0" laneChangedTo="0"/>
        <edge id="2/1to3/1" sampledSeconds="8.91" traveltime="4.94" overlapTraveltime="5.20" density="15.44" laneDensity="15.44" occupancy="7.35" waitingTime="0.00" speed="19.46" departed="0" arrived="0" entered="1" left="2" laneChangedFrom="0" laneChangedTo="0"/>
        <edge id="3/1to4/1" sampledSeconds="8.51" traveltime="4.90" overlapTraveltime="5.16" density="14.75" laneDensity="14.75" occupancy="7.05" waitingTime="0.00" speed="19.60" departed="0" arrived="0" entered="2" left="1" laneChangedFrom="0" laneChangedTo="0"/>
        <edge id="4/1to5/1" sampledSeconds="7.92" traveltime="4.90" overlapTraveltime="5.16" density="13.73" laneDensity="13.73" occupancy="6.53" waitingTime="0.00" speed="19.60" departed="0" arrived="0" entered="1" left="2" laneChangedFrom="0" laneChangedTo="0"/>
        <edge id="5/1to6/1" sampledSeconds="8.93" traveltime="4.90" overlapTraveltime="5.16" density="15.48" laneDensity="15.48" occupancy="7.30" waitingTime="0.00" speed="19.60" departed="0" arrived="0" entered="2" left="2" laneChangedFrom="0" laneChangedTo="0"/>
        <edge id="6/1to7/1" sampledSeconds="8.03" traveltime="4.90" overlapTraveltime="5.16" density="13.93" laneDensity="13.93" occupancy="6.63" waitingTime="0.00" speed="19.60" departed="0" arrived="0" entered="2" left="1" laneChangedFrom="0" laneChangedTo="0"/>
        <edge id="7/1to8/1" sampledSeconds="7.39" traveltime="4.90" overlapTraveltime="5.16" density="12.81" laneDensity="12.81" occupancy="6.18" waitingTime="0.00" speed="19.60" departed="0" arrived="0" entered="1" left="1" laneChangedFrom="0" laneChangedTo="0"/>
        <edge id="8/1to9/1" sampledSeconds="1.66" traveltime="4.90" overlapTraveltime="5.16" density="2.88" laneDensity="2.88" occupancy="1.33" waitingTime="0.00" speed="19.60" departed="0" arrived="0" entered="1" left="0" laneChangedFrom="0" laneChangedTo="0"/>
    </interval>
    <interval begin="36.00" end="42.00" id="dump_6">
        <edge id="1/1to2/1" sampledSeconds="18.33" traveltime="12.05" overlapTraveltime="12.19" density="31.78" laneDensity="31.78" occupancy="12.68" waitingTime="0.70" speed="8.30" departed="2" arrived="0" entered="0" left="2" laneChangedFrom="0" laneChangedTo="0"/>
        <edge id="2/1to3/1" sampledSeconds="8.80" traveltime="4.91" overlapTraveltime="5.16" density="15.26" laneDensity="15.26" occupancy="7.30" waitingTime="0.00" speed="19.60" departed="0" arrived="0" entered="2" left="1" laneChangedFrom="0" laneChangedTo="0"/>
        <edge id="3/1to4/1" sampledSeconds="7.95" traveltime="4.90" overlapTraveltime="5.16" density="13.78" laneDensity="13.78" occupancy="6.56" waitingTime="0.00" speed="19.60" departed="0" arrived="0" entered="1" left="2" laneChangedFrom="0" laneChangedTo="0"/>
        <edge id="4/1to5/1" sampledSeconds="8.96" traveltime="4.90" overlapTraveltime="5.16" density="15.54" laneDensity="15.54" occupancy="7.33" waitingTime="0.00" speed="19.60" departed="0" arrived="0" entered="2" left="2" laneChangedFrom="0" laneChangedTo="0"/>
        <edge id="5/1to6/1" sampledSeconds="8.06" traveltime="4.90" overlapTraveltime="5.16" density="13.97" laneDensity="13.97" occupancy="6.65" waitingTime="0.00" speed="19.60" departed="0" arrived="0" entered="2" left="1" laneChangedFrom="0" laneChangedTo="0"/>
        <edge id="6/1to7/1" sampledSeconds="8.34" traveltime="4.90" overlapTraveltime="5.16" density="14.45" laneDensity="14.45" occupancy="6.89" waitingTime="0.00" speed="19.60" departed="0" arrived="0" entered="1" left="2" laneChangedFrom="0" laneChangedTo="0"/>
        <edge id="7/1to8/1" sampledSeconds="8.91" traveltime="4.90" overlapTraveltime="5.16" density="15.44" laneDensity="15.44" occupancy="7.28" waitingTime="0.00" speed="19.60" departed="0" arrived="0" entered="2" left="2" laneChangedFrom="0" laneChangedTo="0"/>
        <edge id="8/1to9/1" sampledSeconds="7.55" traveltime="4.90" overlapTraveltime="5.16" density="13.09" laneDensity="13.09" occupancy="6.23" waitingTime="0.00" speed="19.60" departed="0" arrived="0" entered="2" left="1" laneChangedFrom="0" laneChangedTo="0"/>
        <edge id="9/1to10/1" sampledSeconds="2.60" traveltime="4.91" overlapTraveltime="5.16" density="4.51" laneDensity="4.51" occupancy="2.14" waitingTime="0.00" speed="19.58" departed="0" arrived="0" entered="1" left="0" laneChangedFrom="0" laneChangedTo="0"/>
    </interval>
    <interval begin="42.00" end="48.00" id="dump_6">
        <edge id="1/1to2/1" sampledSeconds="16.70" traveltime="10.09" overlapTraveltime="10.36" density="28.95" laneDensity="28.95" occupancy="10.89" waitingTime="0.30" speed="9.76" departed="1" arrived="0" entered="0" left="2" laneChangedFrom="0" laneChangedTo="0"/>
        <edge id="10/1to1/1" sampledSeconds="3.25" traveltime="6.35" overlapTraveltime="6.68" density="5.64" laneDensity="5.64" occupancy="2.70" waitingTime="0.00" speed="15.13" departed="0" arrived="0" entered="1" left="0" laneChangedFrom="0" laneChangedTo="0"/>
        <edge id="2/1to3/1" sampledSeconds="7.95" traveltime="4.90" overlapTraveltime="5.16" density="13.79" laneDensity="13.79" occupancy="6.56" waitingTime="0.00" speed="19.60" departed="0" arrived="0" entered="1" left="2" laneChangedFrom="0" laneChangedTo="0"/>
        <edge id="3/1to4/1" sampledSeconds="9.13" traveltime="4.90" overlapTraveltime="5.16" density="15.83" laneDensity="15.83" occupancy="7.47" waitingTime="0.00" speed="19.60" departed="0" arrived="0" entered="2" left="2" laneChangedFrom="0" laneChangedTo="0"/>
        <edge id="4/1to5/1" sampledSeconds="8.20" traveltime="4.90" overlapTraveltime="5.16" density="14.22" laneDensity="14.22" occupancy="6.78" waitingTime="0.00" speed="19.60" departed="0" arrived="0" entered="2" left="1" laneChangedFrom="0" laneChangedTo="0"/>
        <edge id="5/1to6/1" sampledSeconds="8.38" traveltime="4.90" overlapTraveltime="5.16" density="14.53" laneDensity="14.53" occupancy="6.93" waitingTime="0.00" speed="19.60" departed="0" arrived="0" entered="1" left="2" laneChangedFrom="0" laneChangedTo="0"/>
        <edge id="6/1to7/1" sampledSeconds="8.95" traveltime="4.90" overlapTraveltime="5.16" density="15.52" laneDensity="15.52" occupancy="7.32" waitingTime="0.00" speed="19.60" departed="0" arrived="0" entered="2" left="2" laneChangedFrom="0" laneChangedTo="0"/>
        <edge id="7/1to8/1" sampledSeconds="7.61" traveltime="4.90" overlapTraveltime="5.16" density="13.19" laneDensity="13.19" occupancy="6.28" waitingTime="0.00" speed="19.60" departed="0" arrived="0" entered="2" left="1" laneChangedFrom="0" laneChangedTo="0"/>
        <edge id="8/1to9/1" sampledSeconds="8.74" traveltime="4.90" overlapTraveltime="5.16" density="15.16" laneDensity="15.16" occupancy="7.23" waitingTime="0.00" speed="19.60" departed="0" arrived="0" entered="1" left="2" laneChangedFrom="0" laneChangedTo="0"/>
        <edge id="9/1to10/1" sampledSeconds="8.79" traveltime="5.10" overlapTraveltime="5.37" density="15.23" laneDensity="15.23" occupancy="7.28" waitingTime="0.00" speed="18.82" departed="0" arrived="0" entered="2" left="1" laneChangedFrom="0" laneChangedTo="0"/>
    </interval>
    <interval begin="48.00" end="54.00" id="dump_6">
        <edge id="1/1to2/1" sampledSeconds="14.38" traveltime="9.97" overlapTraveltime="10.21" density="24.93" laneDensity="24.93" occupancy="10.16" waitingTime="0.30" speed="9.90" departed="1" arrived="0" entered="0" left="1" laneChangedFrom="0" laneChangedTo="0"/>
        <edge id="10/1to1/1" sampledSeconds="13.66" traveltime="9.60" overlapTraveltime="10.10" density="23.69" laneDensity="23.69" occupancy="11.60" waitingTime="0.00" speed="10.01" departed="0" arrived="0" entered="2" left="0" laneChangedFrom="0" laneChangedTo="0"/>
        <edge id="2/1to3/1" sampledSeconds="8.66" traveltime="4.90" overlapTraveltime="5.16" density="15.02" laneDensity="15.02" occupancy="7.07" waitingTime="0.00" speed="19.60" departed="0" arrived="0" entered="2" left="2" laneChangedFrom="0" laneChangedTo="0"/>
        <edge id="3/1to4/1" sampledSeconds="8.54" traveltime="4.90" overlapTraveltime="5.16" density="14.80" laneDensity="14.80" occupancy="7.07" waitingTime="0.00" speed="19.60" departed="0" arrived="0" entered="2" left="1" laneChangedFrom="0" laneChangedTo="0"/>
        <edge id="4/1to5/1" sampledSeconds="8.42" traveltime="4.90" overlapTraveltime="5.16" density="14.60" laneDensity="14.60" occupancy="6.97" waitingTime="0.00" speed="19.60" departed="0" arrived="0" entered="1" left="2" laneChangedFrom="0" laneChangedTo="0"/>
        <edge id="5/1to6/1" sampledSeconds="9.06" traveltime="4.90" overlapTraveltime="5.16" density="15.70" laneDensity="15.70" occupancy="7.41" waitingTime="0.00" speed="19.60" departed="0" arrived="0" entered="2" left="2" laneChangedFrom="0" laneChangedTo="0"/>
        <edge id="6/1to7/1" sampledSeconds="7.67" traveltime="4.90" overlapTraveltime="5.16" density="13.30" laneDensity="13.30" occupancy="6.33" waitingTime="0.00" speed="19.60" departed="0" arrived="0" entered="2" left="1" laneChangedFrom="0" laneChangedTo="0"/>
        <edge id="7/1to8/1" sampledSeconds="8.80" traveltime="4.90" overlapTraveltime="5.16" density="15.26" laneDensity="15.26" occupancy="7.28" waitingTime="0.00" speed="19.60" departed="0" arrived="0" entered="1" left="2" laneChangedFrom="0" laneChangedTo="0"/>
        <edge id="8/1to9/1" sampledSeconds="8.55" traveltime="4.90" overlapTraveltime="5.16" density="14.82" laneDensity="14.82" occupancy="7.08" waitingTime="0.00" speed="19.60" departed="0" arrived="0" entered="2" left="1" laneChangedFrom="0" laneChangedTo="0"/>
        <edge id="9/1to10/1" sampledSeconds="7.97" traveltime="4.98" overlapTraveltime="5.26" density="13.81" laneDensity="13.81" occupancy="6.56" waitingTime="0.00" speed="19.24" departed="0" arrived="0" entered="1" left="2" laneChangedFrom="0" laneChangedTo="0"/>
    </interval>
    <interval begin="54.00" end="60.00" id="dump_6">
        <edge id="1/1to2/1" sampledSeconds="14.94" traveltime="9.64" overlapTraveltime="9.87" density="25.91" laneDensity="25.91" occupancy="11.94" waitingTime="0.20" speed="10.25" departed="1" arrived="0" entered="1" left="2" laneChangedFrom="0" laneChangedTo="0"/>
        <edge id="10/1to1/1" sampledSeconds="21.18" traveltime="14.84" overlapTraveltime="16.93" density="36.73" laneDensity="36.73" occupancy="17.12" waitingTime="0.00" speed="5.97" departed="0" arrived="0" entered="2" left="1" laneChangedFrom="0" laneChangedTo="0"/>
        <edge id="2/1to3/1" sampledSeconds="7.15" traveltime="4.90" overlapTraveltime="5.16" density="12.40" laneDensity="12.40" occupancy="5.97" waitingTime="0.00" speed="19.60" departed="0" arrived="0" entered="2" left="1" laneChangedFrom="0" laneChangedTo="0"/>
        <edge id="3/1to4/1" sampledSeconds="7.75" traveltime="4.90" overlapTraveltime="5.16" density="13.44" laneDensity="13.44" occupancy="6.39" waitingTime="0.00" speed="19.60" departed="0" arrived="0" entered="1" left="2" laneChangedFrom="0" laneChangedTo="0"/>
        <edge id="4/1to5/1" sampledSeconds="9.06" traveltime="4.90" overlapTraveltime="5.16" density="15.70" laneDensity="15.70" occupancy="7.41" waitingTime="0.00" speed="19.60" departed="0" arrived="0" entered="2" left="2" laneChangedFrom="0" laneChangedTo="0"/>
        <edge id="5/1to6/1" sampledSeconds="8.09" traveltime="4.90" overlapTraveltime="5.16" density="14.02" laneDensity="14.02" occupancy="6.68" waitingTime="0.00" speed="19.60" departed="0" arrived="0" entered="2" left="1" laneChangedFrom="0" laneChangedTo="0"/>
        <edge id="6/1to7/1" sampledSeconds="8.87" traveltime="4.90" overlapTraveltime="5.16" density="15.38" laneDensity="15.38" occupancy="7.35" waitingTime="0.00" speed="19.60" departed="0" arrived="0" entered="1" left="2" laneChangedFrom="0" laneChangedTo="0"/>
        <edge id="7/1to8/1" sampledSeconds="8.61" traveltime="4.90" overlapTraveltime="5.16" density="14.93" laneDensity="14.93" occupancy="7.13" waitingTime="0.00" speed="19.60" departed="0" arrived="0" entered="2" left="1" laneChangedFrom="0" laneChangedTo="0"/>
        <edge id="8/1to9/1" sampledSeconds="7.86" traveltime="4.90" overlapTraveltime="5.16" density="13.63" laneDensity="13.63" occupancy="6.48" waitingTime="0.00" speed="19.60" departed="0" arrived="0" entered="1" left="2" laneChangedFrom="0" laneChangedTo="0"/>
        <edge id="9/1to10/1" sampledSeconds="9.44" traveltime="5.16" overlapTraveltime="5.47" density="16.37" laneDensity="16.37" occupancy="7.70" waitingTime="0.00" speed="18.50" departed="0" arrived="0" entered="2" left="2" laneChangedFrom="0" laneChangedTo="0"/>
    </interval>
    <interval begin="60.00" end="66.00" id="dump_6">
        <edge id="1/1to2/1" sampledSeconds="13.40" traveltime="9.29" overlapTraveltime="9.56" density="23.23" laneDensity="23.23" occupancy="10.97" waitingTime="0.00" speed="10.58" departed="0" arrived="0" entered="1" left="1" laneChangedFrom="0" laneChangedTo="0"/>
        <edge id="10/1to1/1" sampledSeconds="24.04" traveltime="16.08" overlapTraveltime="17.15" density="41.68" laneDensity="41.68" occupancy="20.20" waitingTime="0.00" speed="5.90" departed="0" arrived="0" entered="1" left="1" laneChangedFrom="0" laneChangedTo="0"/>
        <edge id="2/1to3/1" sampledSeconds="7.95" traveltime="4.90" overlapTraveltime="5.16" density="13.78" laneDensity="13.78" occupancy="6.46" waitingTime="0.00" speed="19.60" departed="0" arrived="0" entered="1" left="2" laneChangedFrom="0" laneChangedTo="0"/>
        <edge id="3/1to4/1" sampledSeconds="8.09" traveltime="4.90" overlapTraveltime="5.16" density="14.03" laneDensity="14.03" occupancy="6.68" waitingTime="0.00" speed="19.60" departed="0" arrived="0" entered="2" left="2" laneChangedFrom="0" laneChangedTo="0"/>
        <edge id="4/1to5/1" sampledSeconds="7.23" traveltime="4.90" overlapTraveltime="5.16" density="12.54" laneDensity="12.54" occupancy="6.05" waitingTime="0.00" speed="19.60" departed="0" arrived="0" entered="1" left="1" laneChangedFrom="0" laneChangedTo="0"/>
        <edge id="5/1to6/1" sampledSeconds="8.54" traveltime="4.90" overlapTraveltime="5.16" density="14.80" laneDensity="14.80" occupancy="7.07" waitingTime="0.00" speed="19.60" departed="0" arrived="0" entered="1" left="2" laneChangedFrom="0" laneChangedTo="0"/>
        <edge id="6/1to7/1" sampledSeconds="9.03" traveltime="4.90" overlapTraveltime="5.16" density="15.65" laneDensity="15.65" occupancy="7.48" waitingTime="0.00" speed="19.60" departed="0" arrived="0" entered="2" left="2" laneChangedFrom="0" laneChangedTo="0"/>
        <edge id="7/1to8/1" sampledSeconds="7.93" traveltime="4.90" overlapTraveltime="5.16" density="13.75" laneDensity="13.75" occupancy="6.54" waitingTime="0.00" speed="19.60" departed="0" arrived="0" entered="1" left="2" laneChangedFrom="0" laneChangedTo="0"/>
        <edge id="8/1to9/1" sampledSeconds="8.98" traveltime="4.91" overlapTraveltime="5.16" density="15.57" laneDensity="15.57" occupancy="7.34" waitingTime="0.00" speed="19.60" departed="0" arrived="0" entered="2" left="2" laneChangedFrom="0" laneChangedTo="0"/>
        <edge id="9/1to10/1" sampledSeconds="8.66" traveltime="5.34" overlapTraveltime="5.66" density="15.01" laneDensity="15.01" occupancy="7.14" waitingTime="0.00" speed="17.87" departed="0" arrived="0" entered="2" left="1" laneChangedFrom="0" laneChangedTo="0"/>
    </interval>
    <interval begin="66.00" end="72.00" id="dump_6">
        <edge id="1/1to2/1" sampledSeconds="14.28" traveltime="7.82" overlapTraveltime="8.05" density="24.77" laneDensity="24.77" occupancy="11.46" waitingTime="0.00" speed="12.56" departed="0" arrived="0" entered="2" left="2" laneChangedFrom="0" laneChangedTo="0"/>
        <edge id="10/1to1/1" sampledSeconds="23.83" traveltime="13.61" overlapTraveltime="14.48" density="41.32" laneDensity="41.32" occupancy="19.63" waitingTime="0.00" speed="6.98" departed="0" arrived="0" entered="2" left="2" laneChangedFrom="0" laneChangedTo="0"/>
        <edge id="2/1to3/1" sampledSeconds="7.95" traveltime="4.90" overlapTraveltime="5.16" density="13.79" laneDensity="13.79" occupancy="6.56" waitingTime="0.00" speed="19.60" departed="0" arrived="0" entered="2" left="1" laneChangedFrom="0" laneChangedTo="0"/>
        <edge id="3/1to4/1" sampledSeconds="7.01" traveltime="4.90" overlapTraveltime="5.16" density="12.15" laneDensity="12.15" occupancy="5.75" waitingTime="0.00" speed="19.60" departed="0" arrived="0" entered="1" left="1" laneChangedFrom="0" laneChangedTo="0"/>
        <edge id="4/1to5/1" sampledSeconds="8.29" traveltime="4.90" overlapTraveltime="5.16" density="14.38" laneDensity="14.38" occupancy="6.75" waitingTime="0.00" speed="19.60" departed="0" arrived="0" entered="2" left="2" laneChangedFrom="0" laneChangedTo="0"/>
        <edge id="5/1to6/1" sampledSeconds="8.07" traveltime="4.90" overlapTraveltime="5.16" density="13.99" laneDensity="13.99" occupancy="6.66" waitingTime="0.00" speed="19.60" departed="0" arrived="0" entered="2" left="1" laneChangedFrom="0" laneChangedTo="0"/>
        <edge id="6/1to7/1" sampledSeconds="7.60" traveltime="4.90" overlapTraveltime="5.16" density="13.17" laneDensity="13.17" occupancy="6.27" waitingTime="0.00" speed="19.60" departed="0" arrived="0" entered="1" left="1" laneChangedFrom="0" laneChangedTo="0"/>
        <edge id="7/1to8/1" sampledSeconds="9.19" traveltime="4.90" overlapTraveltime="5.16" density="15.93" laneDensity="15.93" occupancy="7.52" waitingTime="0.00" speed="19.60" departed="0" arrived="0" entered="2" left="2" laneChangedFrom="0" laneChangedTo="0"/>
        <edge id="8/1to9/1" sampledSeconds="8.44" traveltime="4.91" overlapTraveltime="5.16" density="14.64" laneDensity="14.64" occupancy="6.99" waitingTime="0.00" speed="19.59" departed="0" arrived="0" entered="2" left="1" laneChangedFrom="0" laneChangedTo="0"/>
        <edge id="9/1to10/1" sampledSeconds="9.54" traveltime="5.45" overlapTraveltime="5.81" density="16.54" laneDensity="16.54" occupancy="7.86" waitingTime="0.00" speed="17.41" departed="0" arrived="0" entered="1" left="2" laneChangedFrom="0" laneChangedTo="0"/>
    </interval>
    <interval begin="72.00" end="78.00" id="dump_6">
        <edge id="1/1to2/1" sampledSeconds="15.30" traveltime="7.83" overlapTraveltime="8.16" density="26.52" laneDensity="26.52" occupancy="12.59" waitingTime="0.00" speed="12.40" departed="0" arrived="0" entered="2" left="1" laneChangedFrom="0" laneChangedTo="0"/>
        <edge id="10/1to1/1" sampledSeconds="21.81" traveltime="11.27" overlapTraveltime="11.93" density="37.80" laneDensity="37.80" occupancy="18.20" waitingTime="0.00" speed="8.47" departed="0" arrived="0" entered="1" left="2" laneChangedFrom="0" laneChangedTo="0"/>
        <edge id="2/1to3/1" sampledSeconds="8.79" traveltime="4.90" overlapTraveltime="5.16" density="15.23" laneDensity="15.23" occupancy="7.29" waitingTime="0.00" speed="19.60" departed="0" arrived="0" entered="1" left="2" laneChangedFrom="0" laneChangedTo="0"/>
        <edge id="3/1to4/1" sampledSeconds="8.89" traveltime="4.90" overlapTraveltime="5.16" density="15.42" laneDensity="15.42" occupancy="7.37" waitingTime="0.00" speed="19.60" departed="0" arrived="0" entered="2" left="2" laneChangedFrom="0" laneChangedTo="0"/>
        <edge id="4/1to5/1" sampledSeconds="6.81" traveltime="4.90" overlapTraveltime="5.16" density="11.80" laneDensity="11.80" occupancy="5.68" waitingTime="0.00" speed="19.60" departed="0" arrived="0" entered="1" left="1" laneChangedFrom="0" laneChangedTo="0"/>
        <edge id="5/1to6/1" sampledSeconds="7.45" traveltime="4.90" overlapTraveltime="5.16" density="12.92" laneDensity="12.92" occupancy="6.13" waitingTime="0.00" speed="19.60" departed="0" arrived="0" entered="1" left="2" laneChangedFrom="0" laneChangedTo="0"/>
        <edge id="6/1to7/1" sampledSeconds="8.37" traveltime="4.90" overlapTraveltime="5.16" density="14.50" laneDensity="14.50" occupancy="6.81" waitingTime="0.00" speed="19.60" departed="0" arrived="0" entered="2" left="2" laneChangedFrom="0" laneChangedTo="0"/>
        <edge id="7/1to8/1" sampledSeconds="8.18" traveltime="4.90" overlapTraveltime="5.16" density="14.18" laneDensity="14.18" occupancy="6.76" waitingTime="0.00" speed="19.60" departed="0" arrived="0" entered="2" left="1" laneChangedFrom="0" laneChangedTo="0"/>
        <edge id="8/1to9/1" sampledSeconds="8.32" traveltime="4.91" overlapTraveltime="5.16" density="14.42" laneDensity="14.42" occupancy="6.88" waitingTime="0.00" speed="19.60" departed="0" arrived="0" entered="1" left="2" laneChangedFrom="0" laneChangedTo="0"/>
        <edge id="9/1to10/1" sampledSeconds="9.93" traveltime="5.32" overlapTraveltime="5.63" density="17.21" laneDensity="17.21" occupancy="8.22" waitingTime="0.00" speed="17.96" departed="0" arrived="0" entered="2" left="2" laneChangedFrom="0" laneChangedTo="0"/>
    </interval>
    <interval begin="78.00" end="84.00" id="dump_6">
        <edge id="1/1to2/1" sampledSeconds="17.73" traveltime="7.88" overlapTraveltime="8.15" density="30.73" laneDensity="30.73" occupancy="14.67" waitingTime="0.00" speed="12.41" departed="0" arrived="0" entered="3" left="2" laneChangedFrom="0" laneChangedTo="0"/>
        <edge id="10/1to1/1" sampledSeconds="19.50" traveltime="8.53" overlapTraveltime="9.06" density="33.81" laneDensity="33.81" occupancy="16.10" waitingTime="0.00" speed="11.16" departed="0" arrived="0" entered="2" left="3" laneChangedFrom="0" laneChangedTo="0"/>
        <edge id="2/1to3/1" sampledSeconds="9.68" traveltime="4.90" overlapTraveltime="5.16" density="16.79" laneDensity="16.79" occupancy="7.95" waitingTime="0.00" speed="19.60" departed="0" arrived="0" entered="2" left="2" laneChangedFrom="0" laneChangedTo="0"/>
        <edge id="3/1to4/1" sampledSeconds="8.34" traveltime="4.90" overlapTraveltime="5.16" density="14.46" laneDensity="14.46" occupancy="6.79" waitingTime="0.00" speed="19.60" departed="0" arrived="0" entered="2" left="1" laneChangedFrom="0" laneChangedTo="0"/>
        <edge id="4/1to5/1" sampledSeconds="9.09" traveltime="4.90" overlapTraveltime="5.16" density="15.76" laneDensity="15.76" occupancy="7.44" waitingTime="0.00" speed="19.60" departed="0" arrived="0" entered="2" left="2" laneChangedFrom="0" laneChangedTo="0"/>