<?xml version="1.0" encoding="UTF-8"?>

<!-- generated on Mon Jun 22 02:31:28 2020 by Eclipse SUMO Version v1_6_0+0887-0dd4682dc5
This data file and the accompanying materials
are made available under the terms of the Eclipse Public License v2.0
which accompanies this distribution, and is available at
http://www.eclipse.org/legal/epl-v20.html
SPDX-License-Identifier: EPL-2.0
<configuration xmlns:xsi="http://www.w3.org/2001/XMLSchema-instance" xsi:noNamespaceSchemaLocation="http://sumo.dlr.de/xsd/sumoConfiguration.xsd">

    <input>
        <net-file value="net3.net.xml"/>
        <route-files value="input_routes.rou.xml"/>
        <additional-files value="input_additional2.add.xml"/>
    </input>

    <output>
        <write-license value="true"/>
        <tripinfo-output value="tripinfos.xml"/>
    </output>

    <processing>
        <collision.check-junctions value="true"/>
        <default.speeddev value="0"/>
        <pedestrian.model value="striping"/>
        <pedestrian.striping.dawdling value="0"/>
    </processing>

    <report>
        <xml-validation value="never"/>
        <no-step-log value="true"/>
    </report>

</configuration>
-->

<tripinfos xmlns:xsi="http://www.w3.org/2001/XMLSchema-instance" xsi:noNamespaceSchemaLocation="http://sumo.dlr.de/xsd/tripinfo_file.xsd">
    <tripinfo id="car_NE.0" depart="46.00" departLane="NC_4" departPos="5.10" departSpeed="0.00" departDelay="0.00" arrival="76.00" arrivalLane="CE_4" arrivalPos="86.15" arrivalSpeed="13.89" duration="30.00" routeLength="192.35" waitingTime="10.00" waitingCount="1" stopTime="0.00" timeLoss="16.12" rerouteNo="0" devices="tripinfo_car_NE.0" vType="car" speedFactor="1.00" vaporized=""/>
    <tripinfo id="car_NE.1" depart="51.00" departLane="NC_4" departPos="5.10" departSpeed="0.00" departDelay="0.00" arrival="78.00" arrivalLane="CE_4" arrivalPos="86.15" arrivalSpeed="13.89" duration="27.00" routeLength="192.35" waitingTime="7.00" waitingCount="1" stopTime="0.00" timeLoss="12.66" rerouteNo="0" devices="tripinfo_car_NE.1" vType="car" speedFactor="1.00" vaporized=""/>
    <personinfo id="p0" depart="0.00" type="p0">
        <walk depart="0.00" departPos="72.90" arrival="134.00" arrivalPos="0.00" duration="134.00" routeLength="186.00" timeLoss="0.08" maxSpeed="1.39"/>
    </personinfo>
</tripinfos>
