<?xml version="1.0" encoding="UTF-8"?>

<!-- generated on 2023-03-22 17:17:59 by Eclipse SUMO sumo Version v1_16_0+1570-ec89ba0
This data file and the accompanying materials
are made available under the terms of the Eclipse Public License v2.0
which accompanies this distribution, and is available at
http://www.eclipse.org/legal/epl-v20.html
This file may also be made available under the following Secondary
Licenses when the conditions for such availability set forth in the Eclipse
Public License 2.0 are satisfied: GNU General Public License, version 2
or later which is available at
https://www.gnu.org/licenses/old-licenses/gpl-2.0-standalone.html
SPDX-License-Identifier: EPL-2.0 OR GPL-2.0-or-later
<configuration xmlns:xsi="http://www.w3.org/2001/XMLSchema-instance" xsi:noNamespaceSchemaLocation="http://sumo.dlr.de/xsd/sumoConfiguration.xsd">

    <input>
        <net-file value="net.net.xml"/>
        <route-files value="input_routes.rou.xml"/>
        <additional-files value="input_additional.add.xml"/>
    </input>

    <output>
        <write-license value="true"/>
        <vehroute-output value="vehroutes.xml"/>
        <stop-output value="stopinfos.xml"/>
    </output>

    <processing>
        <default.speeddev value="0"/>
    </processing>

    <routing>
        <device.rerouting.period value="156"/>
    </routing>

    <report>
        <xml-validation value="never"/>
        <duration-log.disable value="true"/>
        <no-step-log value="true"/>
    </report>

    <mesoscopic>
        <mesosim value="true"/>
    </mesoscopic>

</configuration>
-->

<stops xmlns:xsi="http://www.w3.org/2001/XMLSchema-instance" xsi:noNamespaceSchemaLocation="http://sumo.dlr.de/xsd/stopinfo_file.xsd">
    <stopinfo id="bus" type="bus" edge="a" pos="0.00" parking="0" started="0.00" ended="18.00" initialPersons="0" loadedPersons="0" unloadedPersons="0" initialContainers="0" loadedContainers="0" unloadedContainers="0" busStop="busStop_a"/>
    <stopinfo id="bus" type="bus" edge="c" pos="0.00" parking="0" started="24.40" ended="42.00" initialPersons="0" loadedPersons="0" unloadedPersons="0" initialContainers="0" loadedContainers="0" unloadedContainers="0" busStop="busStop_c"/>
    <stopinfo id="bus" type="bus" edge="-c" pos="0.00" parking="0" started="41.60" ended="59.00" initialPersons="0" loadedPersons="0" unloadedPersons="0" initialContainers="0" loadedContainers="0" unloadedContainers="0" busStop="busStop_-c"/>
    <stopinfo id="bus" type="bus" edge="-a" pos="0.00" parking="0" started="66.00" ended="84.00" initialPersons="0" loadedPersons="0" unloadedPersons="0" initialContainers="0" loadedContainers="0" unloadedContainers="0" busStop="busStop_-a"/>
    <stopinfo id="bus" type="bus" edge="a" pos="0.00" parking="0" started="83.19" ended="101.00" initialPersons="0" loadedPersons="0" unloadedPersons="0" initialContainers="0" loadedContainers="0" unloadedContainers="0" busStop="busStop_a"/>
    <stopinfo id="bus" type="bus" edge="c" pos="0.00" parking="0" started="107.59" ended="125.00" initialPersons="0" loadedPersons="0" unloadedPersons="0" initialContainers="0" loadedContainers="0" unloadedContainers="0" busStop="busStop_c"/>
    <stopinfo id="bus" type="bus" edge="-c" pos="0.00" parking="0" started="124.79" ended="142.00" initialPersons="0" loadedPersons="0" unloadedPersons="0" initialContainers="0" loadedContainers="0" unloadedContainers="0" busStop="busStop_-c"/>
    <stopinfo id="bus" type="bus" edge="-a" pos="0.00" parking="0" started="149.19" ended="167.00" initialPersons="0" loadedPersons="0" unloadedPersons="0" initialContainers="0" loadedContainers="0" unloadedContainers="0" busStop="busStop_-a"/>
    <stopinfo id="bus" type="bus" edge="a" pos="0.00" parking="0" started="166.39" ended="184.00" initialPersons="0" loadedPersons="0" unloadedPersons="0" initialContainers="0" loadedContainers="0" unloadedContainers="0" busStop="busStop_a"/>
    <stopinfo id="bus" type="bus" edge="c" pos="0.00" parking="0" started="190.79" ended="208.00" initialPersons="0" loadedPersons="0" unloadedPersons="0" initialContainers="0" loadedContainers="0" unloadedContainers="0" busStop="busStop_c"/>
    <stopinfo id="bus" type="bus" edge="-c" pos="0.00" parking="0" started="207.99" ended="226.00" initialPersons="0" loadedPersons="0" unloadedPersons="0" initialContainers="0" loadedContainers="0" unloadedContainers="0" busStop="busStop_-c"/>
    <stopinfo id="bus" type="bus" edge="-a" pos="0.00" parking="0" started="232.38" ended="250.00" initialPersons="0" loadedPersons="0" unloadedPersons="0" initialContainers="0" loadedContainers="0" unloadedContainers="0" busStop="busStop_-a"/>
</stops>
