<?xml version="1.0" encoding="UTF-8"?>

<!-- generated on Wed Nov 27 10:01:33 2019 by Eclipse SUMO Version v1_3_1+1134-4107d93
This data file and the accompanying materials
are made available under the terms of the Eclipse Public License v2.0
which accompanies this distribution, and is available at
http://www.eclipse.org/legal/epl-v20.html
SPDX-License-Identifier: EPL-2.0
<configuration xmlns:xsi="http://www.w3.org/2001/XMLSchema-instance" xsi:noNamespaceSchemaLocation="http://sumo.dlr.de/xsd/sumoConfiguration.xsd">

    <input>
        <net-file value="net.net.xml"/>
        <route-files value="input_routes.rou.xml"/>
        <additional-files value="input_additional.add.xml"/>
    </input>

    <output>
        <write-license value="true"/>
        <vehroute-output value="vehroutes.xml"/>
        <stop-output value="stopinfos.xml"/>
    </output>

    <processing>
        <default.speeddev value="0"/>
        <pedestrian.model value="nonInteracting"/>
    </processing>

    <routing>
        <device.rerouting.period value="156"/>
    </routing>

    <report>
        <xml-validation value="never"/>
        <duration-log.disable value="true"/>
        <no-step-log value="true"/>
    </report>

    <mesoscopic>
        <mesosim value="true"/>
    </mesoscopic>

</configuration>
-->

<routes xmlns:xsi="http://www.w3.org/2001/XMLSchema-instance" xsi:noNamespaceSchemaLocation="http://sumo.dlr.de/xsd/routes_file.xsd">
    <vehicle id="bus" type="bus" depart="0.00" departPos="0.00" arrival="370.00">
        <route edges="a b c -c -b -a a b c -c -b -a a b c -c -b -a"/>
        <stop busStop="busStop_a" duration="10.00"/>
        <stop busStop="busStop_c" duration="10.00"/>
        <stop busStop="busStop_-c" duration="10.00"/>
        <stop busStop="busStop_-a" duration="10.00"/>
        <stop busStop="busStop_a" duration="10.00"/>
        <stop busStop="busStop_c" duration="10.00"/>
        <stop busStop="busStop_-c" duration="10.00"/>
        <stop busStop="busStop_-a" duration="10.00"/>
        <stop busStop="busStop_a" duration="10.00"/>
        <stop busStop="busStop_c" duration="10.00"/>
        <stop busStop="busStop_-c" duration="10.00"/>
        <stop busStop="busStop_-a" duration="10.00"/>
    </vehicle>

</routes>
