<?xml version="1.0" encoding="UTF-8"?>

<!-- generated on Fri Mar  1 09:52:42 2019 by Eclipse SUMO Version v1_1_0+0435-678c69824b
This data file and the accompanying materials
are made available under the terms of the Eclipse Public License v2.0
which accompanies this distribution, and is available at
http://www.eclipse.org/legal/epl-v20.html
SPDX-License-Identifier: EPL-2.0
<configuration xmlns:xsi="http://www.w3.org/2001/XMLSchema-instance" xsi:noNamespaceSchemaLocation="http://sumo.dlr.de/xsd/sumoConfiguration.xsd">

    <input>
        <net-file value="net.net.xml"/>
        <route-files value="routes.rou.xml"/>
    </input>

    <output>
        <write-license value="true"/>
        <netstate-dump value="netstate_dump.xml"/>
    </output>

    <report>
        <xml-validation value="never"/>
        <no-step-log value="true"/>
    </report>

    <traci_server>
        <remote-port value="38353"/>
    </traci_server>

</configuration>
-->

<netstate xmlns:xsi="http://www.w3.org/2001/XMLSchema-instance" xsi:noNamespaceSchemaLocation="http://sumo.dlr.de/xsd/netstate_file.xsd">
    <timestep time="0.00">
        <edge id="e_m0">
            <lane id="e_m0_0">
                <vehicle id="VTD_EGO" pos="0.00" speed="0.00"/>
            </lane>
            <lane id="e_m0_1"/>
            <lane id="e_m0_2"/>
        </edge>
    </timestep>
    <timestep time="1.00">
        <edge id="e_m0">
            <lane id="e_m0_0">
                <vehicle id="VTD_EGO" pos="0.80" speed="0.80"/>
            </lane>
            <lane id="e_m0_1"/>
            <lane id="e_m0_2"/>
        </edge>
    </timestep>
    <timestep time="2.00">
        <edge id="e_m0">
            <lane id="e_m0_0">
                <vehicle id="VTD_EGO" pos="2.40" speed="1.60"/>
            </lane>
            <lane id="e_m0_1"/>
            <lane id="e_m0_2"/>
        </edge>
    </timestep>
    <timestep time="3.00">
        <edge id="e_m0">
            <lane id="e_m0_0">
                <vehicle id="VTD_EGO" pos="4.80" speed="2.40"/>
            </lane>
            <lane id="e_m0_1"/>
            <lane id="e_m0_2"/>
        </edge>
    </timestep>
    <timestep time="4.00">
        <edge id="e_m0">
            <lane id="e_m0_0">
                <vehicle id="VTD_EGO" pos="8.00" speed="3.20"/>
            </lane>
            <lane id="e_m0_1"/>
            <lane id="e_m0_2"/>
        </edge>
    </timestep>
    <timestep time="5.00">
        <edge id="e_vo0">
            <lane id="e_vo0_0">
                <vehicle id="VTD_EGO" pos="268.00" speed="17.67"/>
            </lane>
            <lane id="e_vo0_1"/>
        </edge>
    </timestep>
    <timestep time="6.00">
        <edge id="e_vo0">
            <lane id="e_vo0_0">
                <vehicle id="VTD_EGO" pos="285.67" speed="17.67"/>
            </lane>
            <lane id="e_vo0_1"/>
        </edge>
    </timestep>
    <timestep time="7.00">
        <edge id="e_vo0">
            <lane id="e_vo0_0">
                <vehicle id="VTD_EGO" pos="303.34" speed="17.67"/>
            </lane>
            <lane id="e_vo0_1"/>
        </edge>
    </timestep>
    <timestep time="8.00">
        <edge id="e_vo0">
            <lane id="e_vo0_0">
                <vehicle id="VTD_EGO" pos="321.01" speed="17.67"/>
            </lane>
            <lane id="e_vo0_1"/>
        </edge>
    </timestep>
    <timestep time="9.00">
        <edge id="e_vo0">
            <lane id="e_vo0_0">
                <vehicle id="VTD_EGO" pos="338.68" speed="17.67"/>
            </lane>
            <lane id="e_vo0_1"/>
        </edge>
    </timestep>
    <timestep time="10.00">
        <edge id="e_vo0">
            <lane id="e_vo0_0">
                <vehicle id="VTD_EGO" pos="356.35" speed="17.67"/>
            </lane>
            <lane id="e_vo0_1"/>
        </edge>
    </timestep>
    <timestep time="11.00">
        <edge id="e_vo0">
            <lane id="e_vo0_0">
                <vehicle id="VTD_EGO" pos="374.02" speed="17.67"/>
            </lane>
            <lane id="e_vo0_1"/>
        </edge>
    </timestep>
</netstate>
