<?xml version="1.0"?>

<!-- generated on 04/29/10 11:21:59 by SUMO sumo Version dev-SVN-r8657
<configuration>

    <input>
        <net-file value="net.net.xml"/>
        <route-files value="input_routes.rou.xml"/>
    </input>

    <output>
        <vehroute-output value="vehroutes.xml"/>
    </output>

    <report>
        <no-duration-log value="true"/>
        <no-step-log value="true"/>
    </report>

    <mesoscopic>
        <mesosim value="true"/>
    </mesoscopic>

</configuration>
-->

<routes>
    <vehicle id="0" depart="0.00" arrival="108.00">
        <route edges="beg middle end rend"/>
    </vehicle>

    <vehicle id="10" depart="0.00" arrival="109.00">
        <route edges="beg middle end rend"/>
    </vehicle>

    <vehicle id="13" depart="0.00" arrival="110.00">
        <route edges="beg middle end rend"/>
    </vehicle>

    <vehicle id="20" depart="0.00" arrival="112.00">
        <route edges="beg middle end rend"/>
    </vehicle>

    <vehicle id="35" depart="0.00" arrival="113.00">
        <route edges="beg middle end rend"/>
    </vehicle>

    <vehicle id="64" depart="0.00" arrival="115.00">
        <route edges="beg middle end rend"/>
    </vehicle>

    <vehicle id="99" depart="0.00" arrival="116.00">
        <route edges="beg middle end rend"/>
    </vehicle>

    <vehicle id="98" depart="0.00" arrival="117.00">
        <route edges="beg middle end rend"/>
    </vehicle>

    <vehicle id="97" depart="0.00" arrival="119.00">
        <route edges="beg middle end rend"/>
    </vehicle>

    <vehicle id="96" depart="0.00" arrival="120.00">
        <route edges="beg middle end rend"/>
    </vehicle>

    <vehicle id="95" depart="0.00" arrival="122.00">
        <route edges="beg middle end rend"/>
    </vehicle>

    <vehicle id="94" depart="0.00" arrival="123.00">
        <route edges="beg middle end rend"/>
    </vehicle>

    <vehicle id="93" depart="0.00" arrival="124.00">
        <route edges="beg middle end rend"/>
    </vehicle>

    <vehicle id="92" depart="0.00" arrival="126.00">
        <route edges="beg middle end rend"/>
    </vehicle>

    <vehicle id="91" depart="0.00" arrival="127.00">
        <route edges="beg middle end rend"/>
    </vehicle>

    <vehicle id="90" depart="0.00" arrival="129.00">
        <route edges="beg middle end rend"/>
    </vehicle>

    <vehicle id="9" depart="0.00" arrival="130.00">
        <route edges="beg middle end rend"/>
    </vehicle>

    <vehicle id="89" depart="0.00" arrival="131.00">
        <route edges="beg middle end rend"/>
    </vehicle>

    <vehicle id="88" depart="0.00" arrival="133.00">
        <route edges="beg middle end rend"/>
    </vehicle>

    <vehicle id="87" depart="0.00" arrival="134.00">
        <route edges="beg middle end rend"/>
    </vehicle>

    <vehicle id="86" depart="0.00" arrival="136.00">
        <route edges="beg middle end rend"/>
    </vehicle>

    <vehicle id="85" depart="0.00" arrival="137.00">
        <route edges="beg middle end rend"/>
    </vehicle>

    <vehicle id="84" depart="0.00" arrival="138.00">
        <route edges="beg middle end rend"/>
    </vehicle>

    <vehicle id="83" depart="0.00" arrival="140.00">
        <route edges="beg middle end rend"/>
    </vehicle>

    <vehicle id="82" depart="0.00" arrival="142.00">
        <route edges="beg middle end rend"/>
    </vehicle>

    <vehicle id="81" depart="0.00" arrival="144.00">
        <route edges="beg middle end rend"/>
    </vehicle>

    <vehicle id="80" depart="0.00" arrival="146.00">
        <route edges="beg middle end rend"/>
    </vehicle>

    <vehicle id="8" depart="0.00" arrival="148.00">
        <route edges="beg middle end rend"/>
    </vehicle>

    <vehicle id="79" depart="0.00" arrival="150.00">
        <route edges="beg middle end rend"/>
    </vehicle>

    <vehicle id="78" depart="0.00" arrival="152.00">
        <route edges="beg middle end rend"/>
    </vehicle>

    <vehicle id="77" depart="0.00" arrival="154.00">
        <route edges="beg middle end rend"/>
    </vehicle>

    <vehicle id="76" depart="0.00" arrival="156.00">
        <route edges="beg middle end rend"/>
    </vehicle>

    <vehicle id="75" depart="0.00" arrival="158.00">
        <route edges="beg middle end rend"/>
    </vehicle>

    <vehicle id="74" depart="0.00" arrival="160.00">
        <route edges="beg middle end rend"/>
    </vehicle>

    <vehicle id="73" depart="0.00" arrival="162.00">
        <route edges="beg middle end rend"/>
    </vehicle>

    <vehicle id="72" depart="0.00" arrival="164.00">
        <route edges="beg middle end rend"/>
    </vehicle>

    <vehicle id="71" depart="0.00" arrival="166.00">
        <route edges="beg middle end rend"/>
    </vehicle>

    <vehicle id="70" depart="0.00" arrival="168.00">
        <route edges="beg middle end rend"/>
    </vehicle>

    <vehicle id="7" depart="0.00" arrival="170.00">
        <route edges="beg middle end rend"/>
    </vehicle>

    <vehicle id="69" depart="4.00" arrival="172.00">
        <route edges="beg middle end rend"/>
    </vehicle>

    <vehicle id="68" depart="5.00" arrival="174.00">
        <route edges="beg middle end rend"/>
    </vehicle>

    <vehicle id="67" depart="6.00" arrival="176.00">
        <route edges="beg middle end rend"/>
    </vehicle>

    <vehicle id="66" depart="7.00" arrival="178.00">
        <route edges="beg middle end rend"/>
    </vehicle>

    <vehicle id="63" depart="8.00" arrival="180.00">
        <route edges="beg middle end rend"/>
    </vehicle>

    <vehicle id="65" depart="9.00" arrival="182.00">
        <route edges="beg middle end rend"/>
    </vehicle>

    <vehicle id="62" depart="10.00" arrival="184.00">
        <route edges="beg middle end rend"/>
    </vehicle>

    <vehicle id="61" depart="11.00" arrival="186.00">
        <route edges="beg middle end rend"/>
    </vehicle>

    <vehicle id="60" depart="12.00" arrival="188.00">
        <route edges="beg middle end rend"/>
    </vehicle>

    <vehicle id="6" depart="13.00" arrival="190.00">
        <route edges="beg middle end rend"/>
    </vehicle>

    <vehicle id="59" depart="14.00" arrival="192.00">
        <route edges="beg middle end rend"/>
    </vehicle>

    <vehicle id="58" depart="15.00" arrival="194.00">
        <route edges="beg middle end rend"/>
    </vehicle>

    <vehicle id="57" depart="16.00" arrival="196.00">
        <route edges="beg middle end rend"/>
    </vehicle>

    <vehicle id="56" depart="17.00" arrival="198.00">
        <route edges="beg middle end rend"/>
    </vehicle>

    <vehicle id="55" depart="18.00" arrival="200.00">
        <route edges="beg middle end rend"/>
    </vehicle>

    <vehicle id="54" depart="19.00" arrival="202.00">
        <route edges="beg middle end rend"/>
    </vehicle>

    <vehicle id="53" depart="20.00" arrival="204.00">
        <route edges="beg middle end rend"/>
    </vehicle>

    <vehicle id="52" depart="21.00" arrival="206.00">
        <route edges="beg middle end rend"/>
    </vehicle>

    <vehicle id="51" depart="22.00" arrival="208.00">
        <route edges="beg middle end rend"/>
    </vehicle>

    <vehicle id="50" depart="23.00" arrival="210.00">
        <route edges="beg middle end rend"/>
    </vehicle>

    <vehicle id="5" depart="24.00" arrival="212.00">
        <route edges="beg middle end rend"/>
    </vehicle>

    <vehicle id="49" depart="25.00" arrival="214.00">
        <route edges="beg middle end rend"/>
    </vehicle>

    <vehicle id="48" depart="26.00" arrival="216.00">
        <route edges="beg middle end rend"/>
    </vehicle>

    <vehicle id="47" depart="27.00" arrival="218.00">
        <route edges="beg middle end rend"/>
    </vehicle>

    <vehicle id="46" depart="28.00" arrival="220.00">
        <route edges="beg middle end rend"/>
    </vehicle>

    <vehicle id="45" depart="29.00" arrival="222.00">
        <route edges="beg middle end rend"/>
    </vehicle>

    <vehicle id="44" depart="30.00" arrival="224.00">
        <route edges="beg middle end rend"/>
    </vehicle>

    <vehicle id="43" depart="31.00" arrival="226.00">
        <route edges="beg middle end rend"/>
    </vehicle>

    <vehicle id="42" depart="32.00" arrival="228.00">
        <route edges="beg middle end rend"/>
    </vehicle>

    <vehicle id="41" depart="33.00" arrival="230.00">
        <route edges="beg middle end rend"/>
    </vehicle>

    <vehicle id="40" depart="34.00" arrival="232.00">
        <route edges="beg middle end rend"/>
    </vehicle>

    <vehicle id="4" depart="35.00" arrival="234.00">
        <route edges="beg middle end rend"/>
    </vehicle>

    <vehicle id="39" depart="36.00" arrival="236.00">
        <route edges="beg middle end rend"/>
    </vehicle>

    <vehicle id="38" depart="37.00" arrival="238.00">
        <route edges="beg middle end rend"/>
    </vehicle>

    <vehicle id="37" depart="38.00" arrival="240.00">
        <route edges="beg middle end rend"/>
    </vehicle>

    <vehicle id="34" depart="39.00" arrival="242.00">
        <route edges="beg middle end rend"/>
    </vehicle>

    <vehicle id="36" depart="40.00" arrival="244.00">
        <route edges="beg middle end rend"/>
    </vehicle>

    <vehicle id="33" depart="41.00" arrival="246.00">
        <route edges="beg middle end rend"/>
    </vehicle>

    <vehicle id="32" depart="42.00" arrival="248.00">
        <route edges="beg middle end rend"/>
    </vehicle>

    <vehicle id="31" depart="43.00" arrival="250.00">
        <route edges="beg middle end rend"/>
    </vehicle>

    <vehicle id="30" depart="44.00" arrival="252.00">
        <route edges="beg middle end rend"/>
    </vehicle>

    <vehicle id="3" depart="45.00" arrival="254.00">
        <route edges="beg middle end rend"/>
    </vehicle>

    <vehicle id="29" depart="46.00" arrival="256.00">
        <route edges="beg middle end rend"/>
    </vehicle>

    <vehicle id="28" depart="47.00" arrival="258.00">
        <route edges="beg middle end rend"/>
    </vehicle>

    <vehicle id="27" depart="48.00" arrival="260.00">
        <route edges="beg middle end rend"/>
    </vehicle>

    <vehicle id="26" depart="49.00" arrival="262.00">
        <route edges="beg middle end rend"/>
    </vehicle>

    <vehicle id="25" depart="50.00" arrival="264.00">
        <route edges="beg middle end rend"/>
    </vehicle>

    <vehicle id="24" depart="51.00" arrival="266.00">
        <route edges="beg middle end rend"/>
    </vehicle>

    <vehicle id="23" depart="52.00" arrival="268.00">
        <route edges="beg middle end rend"/>
    </vehicle>

    <vehicle id="22" depart="53.00" arrival="270.00">
        <route edges="beg middle end rend"/>
    </vehicle>

    <vehicle id="2" depart="54.00" arrival="272.00">
        <route edges="beg middle end rend"/>
    </vehicle>

    <vehicle id="21" depart="55.00" arrival="274.00">
        <route edges="beg middle end rend"/>
    </vehicle>

    <vehicle id="19" depart="56.00" arrival="275.00">
        <route edges="beg middle end rend"/>
    </vehicle>

    <vehicle id="18" depart="57.00" arrival="277.00">
        <route edges="beg middle end rend"/>
    </vehicle>

    <vehicle id="17" depart="58.00" arrival="278.00">
        <route edges="beg middle end rend"/>
    </vehicle>

    <vehicle id="16" depart="59.00" arrival="279.00">
        <route edges="beg middle end rend"/>
    </vehicle>

    <vehicle id="15" depart="60.00" arrival="281.00">
        <route edges="beg middle end rend"/>
    </vehicle>

    <vehicle id="12" depart="61.00" arrival="282.00">
        <route edges="beg middle end rend"/>
    </vehicle>

    <vehicle id="14" depart="62.00" arrival="284.00">
        <route edges="beg middle end rend"/>
    </vehicle>

    <vehicle id="11" depart="63.00" arrival="285.00">
        <route edges="beg middle end rend"/>
    </vehicle>

    <vehicle id="1" depart="64.00" arrival="286.00">
        <route edges="beg middle end rend"/>
    </vehicle>

    <vehicle id="100" depart="65.00" arrival="288.00">
        <route edges="beg middle end rend"/>
    </vehicle>

</routes>
