<?xml version="1.0"?>

<!-- generated on 07/21/10 12:13:18 by SUMO sumo Version dev-SVN-r8163
<configuration>

    <input>
        <net-file value="net.net.xml"/>
        <route-files value="input_routes.rou.xml"/>
    </input>

    <output>
        <vehroute-output value="vehroutes.xml"/>
    </output>

    <report>
        <no-duration-log value="true"/>
        <no-step-log value="true"/>
    </report>

</configuration>
-->

<routes>
    <vehicle id="0" depart="0.00" arrival="122.00">
        <route edges="beg middle end rend"/>
    </vehicle>

    <vehicle id="10" depart="4.00" arrival="126.00">
        <route edges="beg middle end rend"/>
    </vehicle>

    <vehicle id="13" depart="8.00" arrival="130.00">
        <route edges="beg middle end rend"/>
    </vehicle>

    <vehicle id="20" depart="12.00" arrival="134.00">
        <route edges="beg middle end rend"/>
    </vehicle>

    <vehicle id="35" depart="16.00" arrival="137.00">
        <route edges="beg middle end rend"/>
    </vehicle>

    <vehicle id="64" depart="20.00" arrival="142.00">
        <route edges="beg middle end rend"/>
    </vehicle>

    <vehicle id="99" depart="24.00" arrival="146.00">
        <route edges="beg middle end rend"/>
    </vehicle>

    <vehicle id="98" depart="28.00" arrival="150.00">
        <route edges="beg middle end rend"/>
    </vehicle>

    <vehicle id="97" depart="32.00" arrival="154.00">
        <route edges="beg middle end rend"/>
    </vehicle>

    <vehicle id="96" depart="36.00" arrival="158.00">
        <route edges="beg middle end rend"/>
    </vehicle>

    <vehicle id="95" depart="40.00" arrival="162.00">
        <route edges="beg middle end rend"/>
    </vehicle>

    <vehicle id="94" depart="44.00" arrival="166.00">
        <route edges="beg middle end rend"/>
    </vehicle>

    <vehicle id="93" depart="47.00" arrival="169.00">
        <route edges="beg middle end rend"/>
    </vehicle>

    <vehicle id="92" depart="51.00" arrival="174.00">
        <route edges="beg middle end rend"/>
    </vehicle>

    <vehicle id="91" depart="54.00" arrival="175.00">
        <route edges="beg middle end rend"/>
    </vehicle>

    <vehicle id="90" depart="58.00" arrival="180.00">
        <route edges="beg middle end rend"/>
    </vehicle>

    <vehicle id="9" depart="62.00" arrival="184.00">
        <route edges="beg middle end rend"/>
    </vehicle>

    <vehicle id="89" depart="66.00" arrival="188.00">
        <route edges="beg middle end rend"/>
    </vehicle>

    <vehicle id="88" depart="70.00" arrival="192.00">
        <route edges="beg middle end rend"/>
    </vehicle>

    <vehicle id="87" depart="74.00" arrival="196.00">
        <route edges="beg middle end rend"/>
    </vehicle>

    <vehicle id="86" depart="78.00" arrival="200.00">
        <route edges="beg middle end rend"/>
    </vehicle>

    <vehicle id="85" depart="82.00" arrival="204.00">
        <route edges="beg middle end rend"/>
    </vehicle>

    <vehicle id="84" depart="86.00" arrival="209.00">
        <route edges="beg middle end rend"/>
    </vehicle>

    <vehicle id="83" depart="89.00" arrival="210.00">
        <route edges="beg middle end rend"/>
    </vehicle>

    <vehicle id="82" depart="93.00" arrival="215.00">
        <route edges="beg middle end rend"/>
    </vehicle>

    <vehicle id="81" depart="97.00" arrival="219.00">
        <route edges="beg middle end rend"/>
    </vehicle>

    <vehicle id="80" depart="101.00" arrival="223.00">
        <route edges="beg middle end rend"/>
    </vehicle>

    <vehicle id="8" depart="105.00" arrival="226.00">
        <route edges="beg middle end rend"/>
    </vehicle>

    <vehicle id="79" depart="109.00" arrival="231.00">
        <route edges="beg middle end rend"/>
    </vehicle>

    <vehicle id="78" depart="112.00" arrival="233.00">
        <route edges="beg middle end rend"/>
    </vehicle>

    <vehicle id="77" depart="117.00" arrival="239.00">
        <route edges="beg middle end rend"/>
    </vehicle>

    <vehicle id="76" depart="121.00" arrival="243.00">
        <route edges="beg middle end rend"/>
    </vehicle>

    <vehicle id="75" depart="125.00" arrival="246.00">
        <route edges="beg middle end rend"/>
    </vehicle>

    <vehicle id="74" depart="129.00" arrival="252.00">
        <route edges="beg middle end rend"/>
    </vehicle>

    <vehicle id="73" depart="132.00" arrival="254.00">
        <route edges="beg middle end rend"/>
    </vehicle>

    <vehicle id="72" depart="136.00" arrival="258.00">
        <route edges="beg middle end rend"/>
    </vehicle>

    <vehicle id="71" depart="140.00" arrival="263.00">
        <route edges="beg middle end rend"/>
    </vehicle>

    <vehicle id="70" depart="143.00" arrival="265.00">
        <route edges="beg middle end rend"/>
    </vehicle>

    <vehicle id="7" depart="147.00" arrival="269.00">
        <route edges="beg middle end rend"/>
    </vehicle>

    <vehicle id="69" depart="151.00" arrival="273.00">
        <route edges="beg middle end rend"/>
    </vehicle>

    <vehicle id="68" depart="155.00" arrival="278.00">
        <route edges="beg middle end rend"/>
    </vehicle>

    <vehicle id="67" depart="159.00" arrival="281.00">
        <route edges="beg middle end rend"/>
    </vehicle>

    <vehicle id="66" depart="163.00" arrival="285.00">
        <route edges="beg middle end rend"/>
    </vehicle>

    <vehicle id="63" depart="167.00" arrival="289.00">
        <route edges="beg middle end rend"/>
    </vehicle>

    <vehicle id="65" depart="171.00" arrival="293.00">
        <route edges="beg middle end rend"/>
    </vehicle>

    <vehicle id="62" depart="175.00" arrival="298.00">
        <route edges="beg middle end rend"/>
    </vehicle>

    <vehicle id="61" depart="179.00" arrival="300.00">
        <route edges="beg middle end rend"/>
    </vehicle>

    <vehicle id="60" depart="183.00" arrival="305.00">
        <route edges="beg middle end rend"/>
    </vehicle>

    <vehicle id="6" depart="187.00" arrival="309.00">
        <route edges="beg middle end rend"/>
    </vehicle>

    <vehicle id="59" depart="191.00" arrival="313.00">
        <route edges="beg middle end rend"/>
    </vehicle>

    <vehicle id="58" depart="195.00" arrival="317.00">
        <route edges="beg middle end rend"/>
    </vehicle>

    <vehicle id="57" depart="199.00" arrival="321.00">
        <route edges="beg middle end rend"/>
    </vehicle>

    <vehicle id="56" depart="202.00" arrival="325.00">
        <route edges="beg middle end rend"/>
    </vehicle>

    <vehicle id="55" depart="206.00" arrival="328.00">
        <route edges="beg middle end rend"/>
    </vehicle>

    <vehicle id="54" depart="210.00" arrival="332.00">
        <route edges="beg middle end rend"/>
    </vehicle>

    <vehicle id="53" depart="213.00" arrival="335.00">
        <route edges="beg middle end rend"/>
    </vehicle>

    <vehicle id="52" depart="218.00" arrival="339.00">
        <route edges="beg middle end rend"/>
    </vehicle>

    <vehicle id="51" depart="222.00" arrival="344.00">
        <route edges="beg middle end rend"/>
    </vehicle>

    <vehicle id="50" depart="226.00" arrival="348.00">
        <route edges="beg middle end rend"/>
    </vehicle>

    <vehicle id="5" depart="230.00" arrival="352.00">
        <route edges="beg middle end rend"/>
    </vehicle>

    <vehicle id="49" depart="234.00" arrival="356.00">
        <route edges="beg middle end rend"/>
    </vehicle>

    <vehicle id="48" depart="238.00" arrival="360.00">
        <route edges="beg middle end rend"/>
    </vehicle>

    <vehicle id="47" depart="242.00" arrival="364.00">
        <route edges="beg middle end rend"/>
    </vehicle>

    <vehicle id="46" depart="246.00" arrival="369.00">
        <route edges="beg middle end rend"/>
    </vehicle>

    <vehicle id="45" depart="250.00" arrival="371.00">
        <route edges="beg middle end rend"/>
    </vehicle>

    <vehicle id="44" depart="254.00" arrival="376.00">
        <route edges="beg middle end rend"/>
    </vehicle>

    <vehicle id="43" depart="259.00" arrival="382.00">
        <route edges="beg middle end rend"/>
    </vehicle>

    <vehicle id="42" depart="263.00" arrival="385.00">
        <route edges="beg middle end rend"/>
    </vehicle>

    <vehicle id="41" depart="267.00" arrival="389.00">
        <route edges="beg middle end rend"/>
    </vehicle>

    <vehicle id="40" depart="271.00" arrival="394.00">
        <route edges="beg middle end rend"/>
    </vehicle>

    <vehicle id="4" depart="275.00" arrival="397.00">
        <route edges="beg middle end rend"/>
    </vehicle>

    <vehicle id="39" depart="279.00" arrival="400.00">
        <route edges="beg middle end rend"/>
    </vehicle>

    <vehicle id="38" depart="283.00" arrival="405.00">
        <route edges="beg middle end rend"/>
    </vehicle>

    <vehicle id="37" depart="287.00" arrival="409.00">
        <route edges="beg middle end rend"/>
    </vehicle>

    <vehicle id="34" depart="291.00" arrival="413.00">
        <route edges="beg middle end rend"/>
    </vehicle>

    <vehicle id="36" depart="295.00" arrival="417.00">
        <route edges="beg middle end rend"/>
    </vehicle>

    <vehicle id="33" depart="299.00" arrival="421.00">
        <route edges="beg middle end rend"/>
    </vehicle>

    <vehicle id="32" depart="303.00" arrival="425.00">
        <route edges="beg middle end rend"/>
    </vehicle>

    <vehicle id="31" depart="307.00" arrival="429.00">
        <route edges="beg middle end rend"/>
    </vehicle>

    <vehicle id="30" depart="311.00" arrival="433.00">
        <route edges="beg middle end rend"/>
    </vehicle>

    <vehicle id="3" depart="315.00" arrival="437.00">
        <route edges="beg middle end rend"/>
    </vehicle>

    <vehicle id="29" depart="319.00" arrival="441.00">
        <route edges="beg middle end rend"/>
    </vehicle>

    <vehicle id="28" depart="322.00" arrival="444.00">
        <route edges="beg middle end rend"/>
    </vehicle>

    <vehicle id="27" depart="326.00" arrival="448.00">
        <route edges="beg middle end rend"/>
    </vehicle>

    <vehicle id="26" depart="330.00" arrival="452.00">
        <route edges="beg middle end rend"/>
    </vehicle>

    <vehicle id="25" depart="334.00" arrival="456.00">
        <route edges="beg middle end rend"/>
    </vehicle>

    <vehicle id="24" depart="338.00" arrival="460.00">
        <route edges="beg middle end rend"/>
    </vehicle>

    <vehicle id="23" depart="342.00" arrival="464.00">
        <route edges="beg middle end rend"/>
    </vehicle>

    <vehicle id="22" depart="346.00" arrival="469.00">
        <route edges="beg middle end rend"/>
    </vehicle>

    <vehicle id="2" depart="350.00" arrival="473.00">
        <route edges="beg middle end rend"/>
    </vehicle>

    <vehicle id="21" depart="354.00" arrival="476.00">
        <route edges="beg middle end rend"/>
    </vehicle>

    <vehicle id="19" depart="358.00" arrival="479.00">
        <route edges="beg middle end rend"/>
    </vehicle>

    <vehicle id="18" depart="362.00" arrival="486.00">
        <route edges="beg middle end rend"/>
    </vehicle>

    <vehicle id="17" depart="366.00" arrival="489.00">
        <route edges="beg middle end rend"/>
    </vehicle>

    <vehicle id="16" depart="370.00" arrival="491.00">
        <route edges="beg middle end rend"/>
    </vehicle>

    <vehicle id="15" depart="373.00" arrival="495.00">
        <route edges="beg middle end rend"/>
    </vehicle>

    <vehicle id="12" depart="377.00" arrival="499.00">
        <route edges="beg middle end rend"/>
    </vehicle>

    <vehicle id="14" depart="381.00" arrival="502.00">
        <route edges="beg middle end rend"/>
    </vehicle>

    <vehicle id="11" depart="385.00" arrival="507.00">
        <route edges="beg middle end rend"/>
    </vehicle>

    <vehicle id="1" depart="389.00" arrival="512.00">
        <route edges="beg middle end rend"/>
    </vehicle>

    <vehicle id="100" depart="393.00" arrival="515.00">
        <route edges="beg middle end rend"/>
    </vehicle>

</routes>
