<?xml version="1.0"?>

<!-- generated on Fri Dec  2 20:42:55 2011 by SUMO sumo Version dev-SVN-r11571
<?xml version="1.0" encoding="UTF-8"?>

<configuration xmlns:xsi="http://www.w3.org/2001/XMLSchema-instance" xsi:noNamespaceSchemaLocation="http://sumo.sf.net/xsd/sumoConfiguration.xsd">

    <input>
        <net-file value="net.net.xml"/>
        <route-files value="input_routes.rou.xml"/>
    </input>

    <output>
        <vehroute-output value="vehroutes.xml"/>
    </output>

    <report>
        <no-duration-log value="true"/>
        <no-step-log value="true"/>
    </report>

</configuration>
-->

<routes>
    <vehicle id="10" type="KRAUSS_DEFAULT" depart="3.00" arrival="154.00">
        <route edges="beg middle end rend"/>
    </vehicle>

    <vehicle id="0" type="KRAUSS_DEFAULT" depart="0.00" arrival="156.00">
        <route edges="beg middle end rend"/>
    </vehicle>

    <vehicle id="13" type="KRAUSS_DEFAULT" depart="5.00" arrival="158.00">
        <route edges="beg middle end rend"/>
    </vehicle>

    <vehicle id="20" type="KRAUSS_DEFAULT" depart="8.00" arrival="160.00">
        <route edges="beg middle end rend"/>
    </vehicle>

    <vehicle id="35" type="KRAUSS_DEFAULT" depart="10.00" arrival="163.00">
        <route edges="beg middle end rend"/>
    </vehicle>

    <vehicle id="64" type="KRAUSS_DEFAULT" depart="13.00" arrival="165.00">
        <route edges="beg middle end rend"/>
    </vehicle>

    <vehicle id="99" type="KRAUSS_DEFAULT" depart="15.00" arrival="167.00">
        <route edges="beg middle end rend"/>
    </vehicle>

    <vehicle id="98" type="KRAUSS_DEFAULT" depart="18.00" arrival="169.00">
        <route edges="beg middle end rend"/>
    </vehicle>

    <vehicle id="97" type="KRAUSS_DEFAULT" depart="26.00" arrival="171.00">
        <route edges="beg middle end rend"/>
    </vehicle>

    <vehicle id="95" type="KRAUSS_DEFAULT" depart="33.00" arrival="177.00">
        <route edges="beg middle end rend"/>
    </vehicle>

    <vehicle id="96" type="KRAUSS_DEFAULT" depart="28.00" arrival="181.00">
        <route edges="beg middle end rend"/>
    </vehicle>

    <vehicle id="94" type="KRAUSS_DEFAULT" depart="36.00" arrival="184.00">
        <route edges="beg middle end rend"/>
    </vehicle>

    <vehicle id="93" type="KRAUSS_DEFAULT" depart="43.00" arrival="186.00">
        <route edges="beg middle end rend"/>
    </vehicle>

    <vehicle id="92" type="KRAUSS_DEFAULT" depart="46.00" arrival="188.00">
        <route edges="beg middle end rend"/>
    </vehicle>

    <vehicle id="91" type="KRAUSS_DEFAULT" depart="48.00" arrival="190.00">
        <route edges="beg middle end rend"/>
    </vehicle>

    <vehicle id="90" type="KRAUSS_DEFAULT" depart="50.00" arrival="193.00">
        <route edges="beg middle end rend"/>
    </vehicle>

    <vehicle id="9" type="KRAUSS_DEFAULT" depart="53.00" arrival="195.00">
        <route edges="beg middle end rend"/>
    </vehicle>

    <vehicle id="89" type="KRAUSS_DEFAULT" depart="55.00" arrival="197.00">
        <route edges="beg middle end rend"/>
    </vehicle>

    <vehicle id="88" type="KRAUSS_DEFAULT" depart="58.00" arrival="199.00">
        <route edges="beg middle end rend"/>
    </vehicle>

    <vehicle id="87" type="KRAUSS_DEFAULT" depart="61.00" arrival="202.00">
        <route edges="beg middle end rend"/>
    </vehicle>

    <vehicle id="86" type="KRAUSS_DEFAULT" depart="63.00" arrival="205.00">
        <route edges="beg middle end rend"/>
    </vehicle>

    <vehicle id="85" type="KRAUSS_DEFAULT" depart="66.00" arrival="208.00">
        <route edges="beg middle end rend"/>
    </vehicle>

    <vehicle id="84" type="KRAUSS_DEFAULT" depart="68.00" arrival="210.00">
        <route edges="beg middle end rend"/>
    </vehicle>

    <vehicle id="83" type="KRAUSS_DEFAULT" depart="71.00" arrival="213.00">
        <route edges="beg middle end rend"/>
    </vehicle>

    <vehicle id="82" type="KRAUSS_DEFAULT" depart="73.00" arrival="215.00">
        <route edges="beg middle end rend"/>
    </vehicle>

    <vehicle id="81" type="KRAUSS_DEFAULT" depart="76.00" arrival="218.00">
        <route edges="beg middle end rend"/>
    </vehicle>

    <vehicle id="80" type="KRAUSS_DEFAULT" depart="79.00" arrival="220.00">
        <route edges="beg middle end rend"/>
    </vehicle>

    <vehicle id="8" type="KRAUSS_DEFAULT" depart="81.00" arrival="223.00">
        <route edges="beg middle end rend"/>
    </vehicle>

    <vehicle id="79" type="KRAUSS_DEFAULT" depart="84.00" arrival="226.00">
        <route edges="beg middle end rend"/>
    </vehicle>

    <vehicle id="78" type="KRAUSS_DEFAULT" depart="87.00" arrival="229.00">
        <route edges="beg middle end rend"/>
    </vehicle>

    <vehicle id="77" type="KRAUSS_DEFAULT" depart="90.00" arrival="231.00">
        <route edges="beg middle end rend"/>
    </vehicle>

    <vehicle id="76" type="KRAUSS_DEFAULT" depart="92.00" arrival="235.00">
        <route edges="beg middle end rend"/>
    </vehicle>

    <vehicle id="75" type="KRAUSS_DEFAULT" depart="94.00" arrival="237.00">
        <route edges="beg middle end rend"/>
    </vehicle>

    <vehicle id="74" type="KRAUSS_DEFAULT" depart="97.00" arrival="239.00">
        <route edges="beg middle end rend"/>
    </vehicle>

    <vehicle id="73" type="KRAUSS_DEFAULT" depart="100.00" arrival="241.00">
        <route edges="beg middle end rend"/>
    </vehicle>

    <vehicle id="72" type="KRAUSS_DEFAULT" depart="102.00" arrival="243.00">
        <route edges="beg middle end rend"/>
    </vehicle>

    <vehicle id="71" type="KRAUSS_DEFAULT" depart="105.00" arrival="248.00">
        <route edges="beg middle end rend"/>
    </vehicle>

    <vehicle id="70" type="KRAUSS_DEFAULT" depart="108.00" arrival="250.00">
        <route edges="beg middle end rend"/>
    </vehicle>

    <vehicle id="7" type="KRAUSS_DEFAULT" depart="110.00" arrival="253.00">
        <route edges="beg middle end rend"/>
    </vehicle>

    <vehicle id="69" type="KRAUSS_DEFAULT" depart="113.00" arrival="255.00">
        <route edges="beg middle end rend"/>
    </vehicle>

    <vehicle id="68" type="KRAUSS_DEFAULT" depart="115.00" arrival="258.00">
        <route edges="beg middle end rend"/>
    </vehicle>

    <vehicle id="67" type="KRAUSS_DEFAULT" depart="118.00" arrival="260.00">
        <route edges="beg middle end rend"/>
    </vehicle>

    <vehicle id="66" type="KRAUSS_DEFAULT" depart="120.00" arrival="263.00">
        <route edges="beg middle end rend"/>
    </vehicle>

    <vehicle id="63" type="KRAUSS_DEFAULT" depart="123.00" arrival="265.00">
        <route edges="beg middle end rend"/>
    </vehicle>

    <vehicle id="65" type="KRAUSS_DEFAULT" depart="126.00" arrival="267.00">
        <route edges="beg middle end rend"/>
    </vehicle>

    <vehicle id="62" type="KRAUSS_DEFAULT" depart="128.00" arrival="270.00">
        <route edges="beg middle end rend"/>
    </vehicle>

    <vehicle id="61" type="KRAUSS_DEFAULT" depart="131.00" arrival="272.00">
        <route edges="beg middle end rend"/>
    </vehicle>

    <vehicle id="60" type="KRAUSS_DEFAULT" depart="133.00" arrival="276.00">
        <route edges="beg middle end rend"/>
    </vehicle>

    <vehicle id="6" type="KRAUSS_DEFAULT" depart="136.00" arrival="278.00">
        <route edges="beg middle end rend"/>
    </vehicle>

    <vehicle id="59" type="KRAUSS_DEFAULT" depart="139.00" arrival="281.00">
        <route edges="beg middle end rend"/>
    </vehicle>

    <vehicle id="58" type="KRAUSS_DEFAULT" depart="141.00" arrival="284.00">
        <route edges="beg middle end rend"/>
    </vehicle>

    <vehicle id="57" type="KRAUSS_DEFAULT" depart="144.00" arrival="286.00">
        <route edges="beg middle end rend"/>
    </vehicle>

    <vehicle id="56" type="KRAUSS_DEFAULT" depart="147.00" arrival="289.00">
        <route edges="beg middle end rend"/>
    </vehicle>

    <vehicle id="55" type="KRAUSS_DEFAULT" depart="149.00" arrival="291.00">
        <route edges="beg middle end rend"/>
    </vehicle>

    <vehicle id="54" type="KRAUSS_DEFAULT" depart="152.00" arrival="293.00">
        <route edges="beg middle end rend"/>
    </vehicle>

    <vehicle id="53" type="KRAUSS_DEFAULT" depart="155.00" arrival="297.00">
        <route edges="beg middle end rend"/>
    </vehicle>

    <vehicle id="52" type="KRAUSS_DEFAULT" depart="157.00" arrival="299.00">
        <route edges="beg middle end rend"/>
    </vehicle>

    <vehicle id="51" type="KRAUSS_DEFAULT" depart="160.00" arrival="301.00">
        <route edges="beg middle end rend"/>
    </vehicle>

    <vehicle id="50" type="KRAUSS_DEFAULT" depart="162.00" arrival="304.00">
        <route edges="beg middle end rend"/>
    </vehicle>

    <vehicle id="5" type="KRAUSS_DEFAULT" depart="165.00" arrival="307.00">
        <route edges="beg middle end rend"/>
    </vehicle>

    <vehicle id="49" type="KRAUSS_DEFAULT" depart="168.00" arrival="309.00">
        <route edges="beg middle end rend"/>
    </vehicle>

    <vehicle id="48" type="KRAUSS_DEFAULT" depart="171.00" arrival="313.00">
        <route edges="beg middle end rend"/>
    </vehicle>

    <vehicle id="47" type="KRAUSS_DEFAULT" depart="174.00" arrival="315.00">
        <route edges="beg middle end rend"/>
    </vehicle>

    <vehicle id="46" type="KRAUSS_DEFAULT" depart="176.00" arrival="319.00">
        <route edges="beg middle end rend"/>
    </vehicle>

    <vehicle id="45" type="KRAUSS_DEFAULT" depart="179.00" arrival="322.00">
        <route edges="beg middle end rend"/>
    </vehicle>

    <vehicle id="44" type="KRAUSS_DEFAULT" depart="182.00" arrival="324.00">
        <route edges="beg middle end rend"/>
    </vehicle>

    <vehicle id="43" type="KRAUSS_DEFAULT" depart="185.00" arrival="326.00">
        <route edges="beg middle end rend"/>
    </vehicle>

    <vehicle id="42" type="KRAUSS_DEFAULT" depart="187.00" arrival="329.00">
        <route edges="beg middle end rend"/>
    </vehicle>

    <vehicle id="41" type="KRAUSS_DEFAULT" depart="190.00" arrival="332.00">
        <route edges="beg middle end rend"/>
    </vehicle>

    <vehicle id="40" type="KRAUSS_DEFAULT" depart="193.00" arrival="335.00">
        <route edges="beg middle end rend"/>
    </vehicle>

    <vehicle id="4" type="KRAUSS_DEFAULT" depart="195.00" arrival="337.00">
        <route edges="beg middle end rend"/>
    </vehicle>

    <vehicle id="39" type="KRAUSS_DEFAULT" depart="198.00" arrival="340.00">
        <route edges="beg middle end rend"/>
    </vehicle>

    <vehicle id="38" type="KRAUSS_DEFAULT" depart="201.00" arrival="342.00">
        <route edges="beg middle end rend"/>
    </vehicle>

    <vehicle id="37" type="KRAUSS_DEFAULT" depart="203.00" arrival="345.00">
        <route edges="beg middle end rend"/>
    </vehicle>

    <vehicle id="34" type="KRAUSS_DEFAULT" depart="206.00" arrival="348.00">
        <route edges="beg middle end rend"/>
    </vehicle>

    <vehicle id="36" type="KRAUSS_DEFAULT" depart="208.00" arrival="351.00">
        <route edges="beg middle end rend"/>
    </vehicle>

    <vehicle id="33" type="KRAUSS_DEFAULT" depart="211.00" arrival="353.00">
        <route edges="beg middle end rend"/>
    </vehicle>

    <vehicle id="32" type="KRAUSS_DEFAULT" depart="214.00" arrival="356.00">
        <route edges="beg middle end rend"/>
    </vehicle>

    <vehicle id="31" type="KRAUSS_DEFAULT" depart="217.00" arrival="358.00">
        <route edges="beg middle end rend"/>
    </vehicle>

    <vehicle id="30" type="KRAUSS_DEFAULT" depart="220.00" arrival="361.00">
        <route edges="beg middle end rend"/>
    </vehicle>

    <vehicle id="3" type="KRAUSS_DEFAULT" depart="222.00" arrival="365.00">
        <route edges="beg middle end rend"/>
    </vehicle>

    <vehicle id="29" type="KRAUSS_DEFAULT" depart="225.00" arrival="367.00">
        <route edges="beg middle end rend"/>
    </vehicle>

    <vehicle id="28" type="KRAUSS_DEFAULT" depart="227.00" arrival="369.00">
        <route edges="beg middle end rend"/>
    </vehicle>

    <vehicle id="27" type="KRAUSS_DEFAULT" depart="230.00" arrival="372.00">
        <route edges="beg middle end rend"/>
    </vehicle>

    <vehicle id="26" type="KRAUSS_DEFAULT" depart="233.00" arrival="375.00">
        <route edges="beg middle end rend"/>
    </vehicle>

    <vehicle id="25" type="KRAUSS_DEFAULT" depart="236.00" arrival="377.00">
        <route edges="beg middle end rend"/>
    </vehicle>

    <vehicle id="24" type="KRAUSS_DEFAULT" depart="238.00" arrival="380.00">
        <route edges="beg middle end rend"/>
    </vehicle>

    <vehicle id="23" type="KRAUSS_DEFAULT" depart="241.00" arrival="382.00">
        <route edges="beg middle end rend"/>
    </vehicle>

    <vehicle id="22" type="KRAUSS_DEFAULT" depart="243.00" arrival="385.00">
        <route edges="beg middle end rend"/>
    </vehicle>

    <vehicle id="2" type="KRAUSS_DEFAULT" depart="245.00" arrival="388.00">
        <route edges="beg middle end rend"/>
    </vehicle>

    <vehicle id="21" type="KRAUSS_DEFAULT" depart="248.00" arrival="391.00">
        <route edges="beg middle end rend"/>
    </vehicle>

    <vehicle id="19" type="KRAUSS_DEFAULT" depart="251.00" arrival="393.00">
        <route edges="beg middle end rend"/>
    </vehicle>

    <vehicle id="18" type="KRAUSS_DEFAULT" depart="253.00" arrival="396.00">
        <route edges="beg middle end rend"/>
    </vehicle>

    <vehicle id="17" type="KRAUSS_DEFAULT" depart="256.00" arrival="399.00">
        <route edges="beg middle end rend"/>
    </vehicle>

    <vehicle id="16" type="KRAUSS_DEFAULT" depart="259.00" arrival="400.00">
        <route edges="beg middle end rend"/>
    </vehicle>

    <vehicle id="15" type="KRAUSS_DEFAULT" depart="262.00" arrival="404.00">
        <route edges="beg middle end rend"/>
    </vehicle>

    <vehicle id="12" type="KRAUSS_DEFAULT" depart="265.00" arrival="406.00">
        <route edges="beg middle end rend"/>
    </vehicle>

    <vehicle id="14" type="KRAUSS_DEFAULT" depart="267.00" arrival="409.00">
        <route edges="beg middle end rend"/>
    </vehicle>

    <vehicle id="11" type="KRAUSS_DEFAULT" depart="270.00" arrival="411.00">
        <route edges="beg middle end rend"/>
    </vehicle>

    <vehicle id="1" type="KRAUSS_DEFAULT" depart="272.00" arrival="415.00">
        <route edges="beg middle end rend"/>
    </vehicle>

    <vehicle id="100" type="KRAUSS_DEFAULT" depart="275.00" arrival="417.00">
        <route edges="beg middle end rend"/>
    </vehicle>

</routes>
