<?xml version="1.0" encoding="UTF-8"?>

<!-- generated on 05/02/13 14:09:56 by SUMO sumo Version 0.17.0
<?xml version="1.0" encoding="UTF-8"?>

<configuration xmlns:xsi="http://www.w3.org/2001/XMLSchema-instance" xsi:noNamespaceSchemaLocation="http://sumo-sim.org/xsd/sumoConfiguration.xsd">

    <input>
        <net-file value="net.net.xml"/>
        <route-files value="input_routes.rou.xml"/>
    </input>

    <output>
        <vehroute-output value="vehroutes.xml"/>
    </output>

    <report>
        <no-duration-log value="true"/>
        <no-step-log value="true"/>
    </report>

</configuration>
-->

<routes xmlns:xsi="http://www.w3.org/2001/XMLSchema-instance" xsi:noNamespaceSchemaLocation="http://sumo-sim.org/xsd/routes_file.xsd">
    <vehicle id="0" type="KRAUSS_DEFAULT" depart="0.00" arrival="140.00">
        <route edges="beg middle end rend"/>
    </vehicle>

    <vehicle id="10" type="KRAUSS_DEFAULT" depart="3.00" arrival="142.00">
        <route edges="beg middle end rend"/>
    </vehicle>

    <vehicle id="13" type="KRAUSS_DEFAULT" depart="5.00" arrival="145.00">
        <route edges="beg middle end rend"/>
    </vehicle>

    <vehicle id="20" type="KRAUSS_DEFAULT" depart="7.00" arrival="148.00">
        <route edges="beg middle end rend"/>
    </vehicle>

    <vehicle id="35" type="KRAUSS_DEFAULT" depart="10.00" arrival="151.00">
        <route edges="beg middle end rend"/>
    </vehicle>

    <vehicle id="64" type="KRAUSS_DEFAULT" depart="13.00" arrival="152.00">
        <route edges="beg middle end rend"/>
    </vehicle>

    <vehicle id="99" type="KRAUSS_DEFAULT" depart="15.00" arrival="156.00">
        <route edges="beg middle end rend"/>
    </vehicle>

    <vehicle id="98" type="KRAUSS_DEFAULT" depart="18.00" arrival="158.00">
        <route edges="beg middle end rend"/>
    </vehicle>

    <vehicle id="97" type="KRAUSS_DEFAULT" depart="21.00" arrival="160.00">
        <route edges="beg middle end rend"/>
    </vehicle>

    <vehicle id="96" type="KRAUSS_DEFAULT" depart="24.00" arrival="165.00">
        <route edges="beg middle end rend"/>
    </vehicle>

    <vehicle id="95" type="KRAUSS_DEFAULT" depart="27.00" arrival="167.00">
        <route edges="beg middle end rend"/>
    </vehicle>

    <vehicle id="94" type="KRAUSS_DEFAULT" depart="29.00" arrival="170.00">
        <route edges="beg middle end rend"/>
    </vehicle>

    <vehicle id="93" type="KRAUSS_DEFAULT" depart="32.00" arrival="173.00">
        <route edges="beg middle end rend"/>
    </vehicle>

    <vehicle id="92" type="KRAUSS_DEFAULT" depart="35.00" arrival="176.00">
        <route edges="beg middle end rend"/>
    </vehicle>

    <vehicle id="91" type="KRAUSS_DEFAULT" depart="38.00" arrival="178.00">
        <route edges="beg middle end rend"/>
    </vehicle>

    <vehicle id="90" type="KRAUSS_DEFAULT" depart="40.00" arrival="180.00">
        <route edges="beg middle end rend"/>
    </vehicle>

    <vehicle id="9" type="KRAUSS_DEFAULT" depart="43.00" arrival="183.00">
        <route edges="beg middle end rend"/>
    </vehicle>

    <vehicle id="89" type="KRAUSS_DEFAULT" depart="45.00" arrival="186.00">
        <route edges="beg middle end rend"/>
    </vehicle>

    <vehicle id="88" type="KRAUSS_DEFAULT" depart="48.00" arrival="189.00">
        <route edges="beg middle end rend"/>
    </vehicle>

    <vehicle id="87" type="KRAUSS_DEFAULT" depart="51.00" arrival="191.00">
        <route edges="beg middle end rend"/>
    </vehicle>

    <vehicle id="86" type="KRAUSS_DEFAULT" depart="53.00" arrival="194.00">
        <route edges="beg middle end rend"/>
    </vehicle>

    <vehicle id="85" type="KRAUSS_DEFAULT" depart="56.00" arrival="196.00">
        <route edges="beg middle end rend"/>
    </vehicle>

    <vehicle id="84" type="KRAUSS_DEFAULT" depart="58.00" arrival="199.00">
        <route edges="beg middle end rend"/>
    </vehicle>

    <vehicle id="83" type="KRAUSS_DEFAULT" depart="62.00" arrival="202.00">
        <route edges="beg middle end rend"/>
    </vehicle>

    <vehicle id="82" type="KRAUSS_DEFAULT" depart="65.00" arrival="204.00">
        <route edges="beg middle end rend"/>
    </vehicle>

    <vehicle id="81" type="KRAUSS_DEFAULT" depart="67.00" arrival="206.00">
        <route edges="beg middle end rend"/>
    </vehicle>

    <vehicle id="80" type="KRAUSS_DEFAULT" depart="70.00" arrival="210.00">
        <route edges="beg middle end rend"/>
    </vehicle>

    <vehicle id="8" type="KRAUSS_DEFAULT" depart="72.00" arrival="212.00">
        <route edges="beg middle end rend"/>
    </vehicle>

    <vehicle id="79" type="KRAUSS_DEFAULT" depart="75.00" arrival="215.00">
        <route edges="beg middle end rend"/>
    </vehicle>

    <vehicle id="78" type="KRAUSS_DEFAULT" depart="78.00" arrival="218.00">
        <route edges="beg middle end rend"/>
    </vehicle>

    <vehicle id="77" type="KRAUSS_DEFAULT" depart="80.00" arrival="219.00">
        <route edges="beg middle end rend"/>
    </vehicle>

    <vehicle id="76" type="KRAUSS_DEFAULT" depart="83.00" arrival="223.00">
        <route edges="beg middle end rend"/>
    </vehicle>

    <vehicle id="75" type="KRAUSS_DEFAULT" depart="86.00" arrival="227.00">
        <route edges="beg middle end rend"/>
    </vehicle>

    <vehicle id="74" type="KRAUSS_DEFAULT" depart="89.00" arrival="228.00">
        <route edges="beg middle end rend"/>
    </vehicle>

    <vehicle id="73" type="KRAUSS_DEFAULT" depart="91.00" arrival="230.00">
        <route edges="beg middle end rend"/>
    </vehicle>

    <vehicle id="72" type="KRAUSS_DEFAULT" depart="94.00" arrival="233.00">
        <route edges="beg middle end rend"/>
    </vehicle>

    <vehicle id="71" type="KRAUSS_DEFAULT" depart="96.00" arrival="236.00">
        <route edges="beg middle end rend"/>
    </vehicle>

    <vehicle id="70" type="KRAUSS_DEFAULT" depart="99.00" arrival="239.00">
        <route edges="beg middle end rend"/>
    </vehicle>

    <vehicle id="7" type="KRAUSS_DEFAULT" depart="101.00" arrival="241.00">
        <route edges="beg middle end rend"/>
    </vehicle>

    <vehicle id="69" type="KRAUSS_DEFAULT" depart="104.00" arrival="244.00">
        <route edges="beg middle end rend"/>
    </vehicle>

    <vehicle id="68" type="KRAUSS_DEFAULT" depart="106.00" arrival="246.00">
        <route edges="beg middle end rend"/>
    </vehicle>

    <vehicle id="67" type="KRAUSS_DEFAULT" depart="109.00" arrival="248.00">
        <route edges="beg middle end rend"/>
    </vehicle>

    <vehicle id="66" type="KRAUSS_DEFAULT" depart="112.00" arrival="251.00">
        <route edges="beg middle end rend"/>
    </vehicle>

    <vehicle id="63" type="KRAUSS_DEFAULT" depart="114.00" arrival="255.00">
        <route edges="beg middle end rend"/>
    </vehicle>

    <vehicle id="65" type="KRAUSS_DEFAULT" depart="117.00" arrival="257.00">
        <route edges="beg middle end rend"/>
    </vehicle>

    <vehicle id="62" type="KRAUSS_DEFAULT" depart="120.00" arrival="260.00">
        <route edges="beg middle end rend"/>
    </vehicle>

    <vehicle id="61" type="KRAUSS_DEFAULT" depart="123.00" arrival="263.00">
        <route edges="beg middle end rend"/>
    </vehicle>

    <vehicle id="60" type="KRAUSS_DEFAULT" depart="125.00" arrival="265.00">
        <route edges="beg middle end rend"/>
    </vehicle>

    <vehicle id="6" type="KRAUSS_DEFAULT" depart="128.00" arrival="267.00">
        <route edges="beg middle end rend"/>
    </vehicle>

    <vehicle id="59" type="KRAUSS_DEFAULT" depart="130.00" arrival="270.00">
        <route edges="beg middle end rend"/>
    </vehicle>

    <vehicle id="58" type="KRAUSS_DEFAULT" depart="133.00" arrival="274.00">
        <route edges="beg middle end rend"/>
    </vehicle>

    <vehicle id="57" type="KRAUSS_DEFAULT" depart="135.00" arrival="275.00">
        <route edges="beg middle end rend"/>
    </vehicle>

    <vehicle id="56" type="KRAUSS_DEFAULT" depart="138.00" arrival="279.00">
        <route edges="beg middle end rend"/>
    </vehicle>

    <vehicle id="55" type="KRAUSS_DEFAULT" depart="141.00" arrival="280.00">
        <route edges="beg middle end rend"/>
    </vehicle>

    <vehicle id="54" type="KRAUSS_DEFAULT" depart="143.00" arrival="283.00">
        <route edges="beg middle end rend"/>
    </vehicle>

    <vehicle id="53" type="KRAUSS_DEFAULT" depart="146.00" arrival="286.00">
        <route edges="beg middle end rend"/>
    </vehicle>

    <vehicle id="52" type="KRAUSS_DEFAULT" depart="149.00" arrival="289.00">
        <route edges="beg middle end rend"/>
    </vehicle>

    <vehicle id="51" type="KRAUSS_DEFAULT" depart="151.00" arrival="290.00">
        <route edges="beg middle end rend"/>
    </vehicle>

    <vehicle id="50" type="KRAUSS_DEFAULT" depart="154.00" arrival="295.00">
        <route edges="beg middle end rend"/>
    </vehicle>

    <vehicle id="5" type="KRAUSS_DEFAULT" depart="157.00" arrival="297.00">
        <route edges="beg middle end rend"/>
    </vehicle>

    <vehicle id="49" type="KRAUSS_DEFAULT" depart="159.00" arrival="298.00">
        <route edges="beg middle end rend"/>
    </vehicle>

    <vehicle id="48" type="KRAUSS_DEFAULT" depart="162.00" arrival="302.00">
        <route edges="beg middle end rend"/>
    </vehicle>

    <vehicle id="47" type="KRAUSS_DEFAULT" depart="165.00" arrival="304.00">
        <route edges="beg middle end rend"/>
    </vehicle>

    <vehicle id="46" type="KRAUSS_DEFAULT" depart="167.00" arrival="307.00">
        <route edges="beg middle end rend"/>
    </vehicle>

    <vehicle id="45" type="KRAUSS_DEFAULT" depart="170.00" arrival="311.00">
        <route edges="beg middle end rend"/>
    </vehicle>

    <vehicle id="44" type="KRAUSS_DEFAULT" depart="173.00" arrival="313.00">
        <route edges="beg middle end rend"/>
    </vehicle>

    <vehicle id="43" type="KRAUSS_DEFAULT" depart="176.00" arrival="316.00">
        <route edges="beg middle end rend"/>
    </vehicle>

    <vehicle id="42" type="KRAUSS_DEFAULT" depart="178.00" arrival="319.00">
        <route edges="beg middle end rend"/>
    </vehicle>

    <vehicle id="41" type="KRAUSS_DEFAULT" depart="181.00" arrival="322.00">
        <route edges="beg middle end rend"/>
    </vehicle>

    <vehicle id="40" type="KRAUSS_DEFAULT" depart="184.00" arrival="323.00">
        <route edges="beg middle end rend"/>
    </vehicle>

    <vehicle id="4" type="KRAUSS_DEFAULT" depart="187.00" arrival="326.00">
        <route edges="beg middle end rend"/>
    </vehicle>

    <vehicle id="39" type="KRAUSS_DEFAULT" depart="189.00" arrival="329.00">
        <route edges="beg middle end rend"/>
    </vehicle>

    <vehicle id="38" type="KRAUSS_DEFAULT" depart="192.00" arrival="331.00">
        <route edges="beg middle end rend"/>
    </vehicle>

    <vehicle id="37" type="KRAUSS_DEFAULT" depart="194.00" arrival="333.00">
        <route edges="beg middle end rend"/>
    </vehicle>

    <vehicle id="34" type="KRAUSS_DEFAULT" depart="197.00" arrival="336.00">
        <route edges="beg middle end rend"/>
    </vehicle>

    <vehicle id="36" type="KRAUSS_DEFAULT" depart="199.00" arrival="339.00">
        <route edges="beg middle end rend"/>
    </vehicle>

    <vehicle id="33" type="KRAUSS_DEFAULT" depart="202.00" arrival="342.00">
        <route edges="beg middle end rend"/>
    </vehicle>

    <vehicle id="32" type="KRAUSS_DEFAULT" depart="205.00" arrival="345.00">
        <route edges="beg middle end rend"/>
    </vehicle>

    <vehicle id="31" type="KRAUSS_DEFAULT" depart="207.00" arrival="348.00">
        <route edges="beg middle end rend"/>
    </vehicle>

    <vehicle id="30" type="KRAUSS_DEFAULT" depart="210.00" arrival="350.00">
        <route edges="beg middle end rend"/>
    </vehicle>

    <vehicle id="3" type="KRAUSS_DEFAULT" depart="213.00" arrival="353.00">
        <route edges="beg middle end rend"/>
    </vehicle>

    <vehicle id="29" type="KRAUSS_DEFAULT" depart="215.00" arrival="356.00">
        <route edges="beg middle end rend"/>
    </vehicle>

    <vehicle id="28" type="KRAUSS_DEFAULT" depart="218.00" arrival="358.00">
        <route edges="beg middle end rend"/>
    </vehicle>

    <vehicle id="27" type="KRAUSS_DEFAULT" depart="221.00" arrival="361.00">
        <route edges="beg middle end rend"/>
    </vehicle>

    <vehicle id="26" type="KRAUSS_DEFAULT" depart="223.00" arrival="363.00">
        <route edges="beg middle end rend"/>
    </vehicle>

    <vehicle id="25" type="KRAUSS_DEFAULT" depart="226.00" arrival="366.00">
        <route edges="beg middle end rend"/>
    </vehicle>

    <vehicle id="24" type="KRAUSS_DEFAULT" depart="228.00" arrival="368.00">
        <route edges="beg middle end rend"/>
    </vehicle>

    <vehicle id="23" type="KRAUSS_DEFAULT" depart="231.00" arrival="370.00">
        <route edges="beg middle end rend"/>
    </vehicle>

    <vehicle id="22" type="KRAUSS_DEFAULT" depart="233.00" arrival="374.00">
        <route edges="beg middle end rend"/>
    </vehicle>

    <vehicle id="2" type="KRAUSS_DEFAULT" depart="236.00" arrival="377.00">
        <route edges="beg middle end rend"/>
    </vehicle>

    <vehicle id="21" type="KRAUSS_DEFAULT" depart="239.00" arrival="379.00">
        <route edges="beg middle end rend"/>
    </vehicle>

    <vehicle id="19" type="KRAUSS_DEFAULT" depart="241.00" arrival="382.00">
        <route edges="beg middle end rend"/>
    </vehicle>

    <vehicle id="18" type="KRAUSS_DEFAULT" depart="244.00" arrival="385.00">
        <route edges="beg middle end rend"/>
    </vehicle>

    <vehicle id="17" type="KRAUSS_DEFAULT" depart="247.00" arrival="387.00">
        <route edges="beg middle end rend"/>
    </vehicle>

    <vehicle id="16" type="KRAUSS_DEFAULT" depart="250.00" arrival="390.00">
        <route edges="beg middle end rend"/>
    </vehicle>

    <vehicle id="15" type="KRAUSS_DEFAULT" depart="253.00" arrival="393.00">
        <route edges="beg middle end rend"/>
    </vehicle>

    <vehicle id="12" type="KRAUSS_DEFAULT" depart="255.00" arrival="395.00">
        <route edges="beg middle end rend"/>
    </vehicle>

    <vehicle id="14" type="KRAUSS_DEFAULT" depart="258.00" arrival="397.00">
        <route edges="beg middle end rend"/>
    </vehicle>

    <vehicle id="11" type="KRAUSS_DEFAULT" depart="260.00" arrival="401.00">
        <route edges="beg middle end rend"/>
    </vehicle>

    <vehicle id="1" type="KRAUSS_DEFAULT" depart="263.00" arrival="403.00">
        <route edges="beg middle end rend"/>
    </vehicle>

    <vehicle id="100" type="KRAUSS_DEFAULT" depart="265.00" arrival="406.00">
        <route edges="beg middle end rend"/>
    </vehicle>

</routes>
