<?xml version="1.0"?>

<!-- generated on 03/07/12 10:10:55 by SUMO sumo Version dev-SVN-r12024
<?xml version="1.0" encoding="UTF-8"?>

<configuration xmlns:xsi="http://www.w3.org/2001/XMLSchema-instance" xsi:noNamespaceSchemaLocation="http://sumo.sf.net/xsd/sumoConfiguration.xsd">

    <input>
        <net-file value="net.net.xml"/>
        <route-files value="input_routes.rou.xml"/>
    </input>

    <output>
        <vehroute-output value="vehroutes.xml"/>
    </output>

    <report>
        <no-duration-log value="true"/>
        <no-step-log value="true"/>
    </report>

</configuration>
-->

<routes>
    <vehicle id="0" type="KRAUSS_DEFAULT" depart="0.00" arrival="140.00">
        <route edges="beg middle end rend"/>
    </vehicle>

    <vehicle id="10" type="KRAUSS_DEFAULT" depart="3.00" arrival="143.00">
        <route edges="beg middle end rend"/>
    </vehicle>

    <vehicle id="13" type="KRAUSS_DEFAULT" depart="5.00" arrival="146.00">
        <route edges="beg middle end rend"/>
    </vehicle>

    <vehicle id="20" type="KRAUSS_DEFAULT" depart="8.00" arrival="148.00">
        <route edges="beg middle end rend"/>
    </vehicle>

    <vehicle id="35" type="KRAUSS_DEFAULT" depart="10.00" arrival="151.00">
        <route edges="beg middle end rend"/>
    </vehicle>

    <vehicle id="64" type="KRAUSS_DEFAULT" depart="13.00" arrival="153.00">
        <route edges="beg middle end rend"/>
    </vehicle>

    <vehicle id="99" type="KRAUSS_DEFAULT" depart="15.00" arrival="157.00">
        <route edges="beg middle end rend"/>
    </vehicle>

    <vehicle id="98" type="KRAUSS_DEFAULT" depart="18.00" arrival="159.00">
        <route edges="beg middle end rend"/>
    </vehicle>

    <vehicle id="97" type="KRAUSS_DEFAULT" depart="20.00" arrival="161.00">
        <route edges="beg middle end rend"/>
    </vehicle>

    <vehicle id="96" type="KRAUSS_DEFAULT" depart="23.00" arrival="165.00">
        <route edges="beg middle end rend"/>
    </vehicle>

    <vehicle id="95" type="KRAUSS_DEFAULT" depart="25.00" arrival="167.00">
        <route edges="beg middle end rend"/>
    </vehicle>

    <vehicle id="94" type="KRAUSS_DEFAULT" depart="28.00" arrival="169.00">
        <route edges="beg middle end rend"/>
    </vehicle>

    <vehicle id="93" type="KRAUSS_DEFAULT" depart="30.00" arrival="172.00">
        <route edges="beg middle end rend"/>
    </vehicle>

    <vehicle id="92" type="KRAUSS_DEFAULT" depart="33.00" arrival="175.00">
        <route edges="beg middle end rend"/>
    </vehicle>

    <vehicle id="91" type="KRAUSS_DEFAULT" depart="35.00" arrival="177.00">
        <route edges="beg middle end rend"/>
    </vehicle>

    <vehicle id="90" type="KRAUSS_DEFAULT" depart="38.00" arrival="179.00">
        <route edges="beg middle end rend"/>
    </vehicle>

    <vehicle id="9" type="KRAUSS_DEFAULT" depart="40.00" arrival="182.00">
        <route edges="beg middle end rend"/>
    </vehicle>

    <vehicle id="89" type="KRAUSS_DEFAULT" depart="43.00" arrival="184.00">
        <route edges="beg middle end rend"/>
    </vehicle>

    <vehicle id="88" type="KRAUSS_DEFAULT" depart="45.00" arrival="186.00">
        <route edges="beg middle end rend"/>
    </vehicle>

    <vehicle id="87" type="KRAUSS_DEFAULT" depart="48.00" arrival="190.00">
        <route edges="beg middle end rend"/>
    </vehicle>

    <vehicle id="86" type="KRAUSS_DEFAULT" depart="51.00" arrival="192.00">
        <route edges="beg middle end rend"/>
    </vehicle>

    <vehicle id="85" type="KRAUSS_DEFAULT" depart="53.00" arrival="194.00">
        <route edges="beg middle end rend"/>
    </vehicle>

    <vehicle id="84" type="KRAUSS_DEFAULT" depart="56.00" arrival="197.00">
        <route edges="beg middle end rend"/>
    </vehicle>

    <vehicle id="83" type="KRAUSS_DEFAULT" depart="59.00" arrival="200.00">
        <route edges="beg middle end rend"/>
    </vehicle>

    <vehicle id="82" type="KRAUSS_DEFAULT" depart="61.00" arrival="203.00">
        <route edges="beg middle end rend"/>
    </vehicle>

    <vehicle id="81" type="KRAUSS_DEFAULT" depart="64.00" arrival="205.00">
        <route edges="beg middle end rend"/>
    </vehicle>

    <vehicle id="80" type="KRAUSS_DEFAULT" depart="66.00" arrival="208.00">
        <route edges="beg middle end rend"/>
    </vehicle>

    <vehicle id="8" type="KRAUSS_DEFAULT" depart="69.00" arrival="210.00">
        <route edges="beg middle end rend"/>
    </vehicle>

    <vehicle id="79" type="KRAUSS_DEFAULT" depart="72.00" arrival="213.00">
        <route edges="beg middle end rend"/>
    </vehicle>

    <vehicle id="78" type="KRAUSS_DEFAULT" depart="75.00" arrival="216.00">
        <route edges="beg middle end rend"/>
    </vehicle>

    <vehicle id="77" type="KRAUSS_DEFAULT" depart="78.00" arrival="219.00">
        <route edges="beg middle end rend"/>
    </vehicle>

    <vehicle id="76" type="KRAUSS_DEFAULT" depart="80.00" arrival="221.00">
        <route edges="beg middle end rend"/>
    </vehicle>

    <vehicle id="75" type="KRAUSS_DEFAULT" depart="83.00" arrival="224.00">
        <route edges="beg middle end rend"/>
    </vehicle>

    <vehicle id="74" type="KRAUSS_DEFAULT" depart="86.00" arrival="227.00">
        <route edges="beg middle end rend"/>
    </vehicle>

    <vehicle id="73" type="KRAUSS_DEFAULT" depart="88.00" arrival="229.00">
        <route edges="beg middle end rend"/>
    </vehicle>

    <vehicle id="72" type="KRAUSS_DEFAULT" depart="91.00" arrival="232.00">
        <route edges="beg middle end rend"/>
    </vehicle>

    <vehicle id="71" type="KRAUSS_DEFAULT" depart="94.00" arrival="234.00">
        <route edges="beg middle end rend"/>
    </vehicle>

    <vehicle id="70" type="KRAUSS_DEFAULT" depart="97.00" arrival="238.00">
        <route edges="beg middle end rend"/>
    </vehicle>

    <vehicle id="7" type="KRAUSS_DEFAULT" depart="99.00" arrival="241.00">
        <route edges="beg middle end rend"/>
    </vehicle>

    <vehicle id="69" type="KRAUSS_DEFAULT" depart="102.00" arrival="244.00">
        <route edges="beg middle end rend"/>
    </vehicle>

    <vehicle id="68" type="KRAUSS_DEFAULT" depart="105.00" arrival="247.00">
        <route edges="beg middle end rend"/>
    </vehicle>

    <vehicle id="67" type="KRAUSS_DEFAULT" depart="108.00" arrival="249.00">
        <route edges="beg middle end rend"/>
    </vehicle>

    <vehicle id="66" type="KRAUSS_DEFAULT" depart="111.00" arrival="252.00">
        <route edges="beg middle end rend"/>
    </vehicle>

    <vehicle id="63" type="KRAUSS_DEFAULT" depart="114.00" arrival="255.00">
        <route edges="beg middle end rend"/>
    </vehicle>

    <vehicle id="65" type="KRAUSS_DEFAULT" depart="116.00" arrival="257.00">
        <route edges="beg middle end rend"/>
    </vehicle>

    <vehicle id="62" type="KRAUSS_DEFAULT" depart="119.00" arrival="260.00">
        <route edges="beg middle end rend"/>
    </vehicle>

    <vehicle id="61" type="KRAUSS_DEFAULT" depart="121.00" arrival="263.00">
        <route edges="beg middle end rend"/>
    </vehicle>

    <vehicle id="60" type="KRAUSS_DEFAULT" depart="124.00" arrival="265.00">
        <route edges="beg middle end rend"/>
    </vehicle>

    <vehicle id="6" type="KRAUSS_DEFAULT" depart="126.00" arrival="268.00">
        <route edges="beg middle end rend"/>
    </vehicle>

    <vehicle id="59" type="KRAUSS_DEFAULT" depart="129.00" arrival="270.00">
        <route edges="beg middle end rend"/>
    </vehicle>

    <vehicle id="58" type="KRAUSS_DEFAULT" depart="132.00" arrival="273.00">
        <route edges="beg middle end rend"/>
    </vehicle>

    <vehicle id="57" type="KRAUSS_DEFAULT" depart="134.00" arrival="275.00">
        <route edges="beg middle end rend"/>
    </vehicle>

    <vehicle id="56" type="KRAUSS_DEFAULT" depart="137.00" arrival="278.00">
        <route edges="beg middle end rend"/>
    </vehicle>

    <vehicle id="55" type="KRAUSS_DEFAULT" depart="139.00" arrival="280.00">
        <route edges="beg middle end rend"/>
    </vehicle>

    <vehicle id="54" type="KRAUSS_DEFAULT" depart="142.00" arrival="283.00">
        <route edges="beg middle end rend"/>
    </vehicle>

    <vehicle id="53" type="KRAUSS_DEFAULT" depart="145.00" arrival="286.00">
        <route edges="beg middle end rend"/>
    </vehicle>

    <vehicle id="52" type="KRAUSS_DEFAULT" depart="148.00" arrival="289.00">
        <route edges="beg middle end rend"/>
    </vehicle>

    <vehicle id="51" type="KRAUSS_DEFAULT" depart="151.00" arrival="291.00">
        <route edges="beg middle end rend"/>
    </vehicle>

    <vehicle id="50" type="KRAUSS_DEFAULT" depart="153.00" arrival="294.00">
        <route edges="beg middle end rend"/>
    </vehicle>

    <vehicle id="5" type="KRAUSS_DEFAULT" depart="156.00" arrival="297.00">
        <route edges="beg middle end rend"/>
    </vehicle>

    <vehicle id="49" type="KRAUSS_DEFAULT" depart="159.00" arrival="299.00">
        <route edges="beg middle end rend"/>
    </vehicle>

    <vehicle id="48" type="KRAUSS_DEFAULT" depart="161.00" arrival="302.00">
        <route edges="beg middle end rend"/>
    </vehicle>

    <vehicle id="47" type="KRAUSS_DEFAULT" depart="164.00" arrival="305.00">
        <route edges="beg middle end rend"/>
    </vehicle>

    <vehicle id="46" type="KRAUSS_DEFAULT" depart="166.00" arrival="307.00">
        <route edges="beg middle end rend"/>
    </vehicle>

    <vehicle id="45" type="KRAUSS_DEFAULT" depart="169.00" arrival="310.00">
        <route edges="beg middle end rend"/>
    </vehicle>

    <vehicle id="44" type="KRAUSS_DEFAULT" depart="171.00" arrival="313.00">
        <route edges="beg middle end rend"/>
    </vehicle>

    <vehicle id="43" type="KRAUSS_DEFAULT" depart="174.00" arrival="316.00">
        <route edges="beg middle end rend"/>
    </vehicle>

    <vehicle id="42" type="KRAUSS_DEFAULT" depart="177.00" arrival="319.00">
        <route edges="beg middle end rend"/>
    </vehicle>

    <vehicle id="41" type="KRAUSS_DEFAULT" depart="179.00" arrival="321.00">
        <route edges="beg middle end rend"/>
    </vehicle>

    <vehicle id="40" type="KRAUSS_DEFAULT" depart="182.00" arrival="323.00">
        <route edges="beg middle end rend"/>
    </vehicle>

    <vehicle id="4" type="KRAUSS_DEFAULT" depart="185.00" arrival="326.00">
        <route edges="beg middle end rend"/>
    </vehicle>

    <vehicle id="39" type="KRAUSS_DEFAULT" depart="187.00" arrival="329.00">
        <route edges="beg middle end rend"/>
    </vehicle>

    <vehicle id="38" type="KRAUSS_DEFAULT" depart="190.00" arrival="332.00">
        <route edges="beg middle end rend"/>
    </vehicle>

    <vehicle id="37" type="KRAUSS_DEFAULT" depart="193.00" arrival="334.00">
        <route edges="beg middle end rend"/>
    </vehicle>

    <vehicle id="34" type="KRAUSS_DEFAULT" depart="196.00" arrival="337.00">
        <route edges="beg middle end rend"/>
    </vehicle>

    <vehicle id="36" type="KRAUSS_DEFAULT" depart="199.00" arrival="339.00">
        <route edges="beg middle end rend"/>
    </vehicle>

    <vehicle id="33" type="KRAUSS_DEFAULT" depart="201.00" arrival="342.00">
        <route edges="beg middle end rend"/>
    </vehicle>

    <vehicle id="32" type="KRAUSS_DEFAULT" depart="204.00" arrival="346.00">
        <route edges="beg middle end rend"/>
    </vehicle>

    <vehicle id="31" type="KRAUSS_DEFAULT" depart="207.00" arrival="348.00">
        <route edges="beg middle end rend"/>
    </vehicle>

    <vehicle id="30" type="KRAUSS_DEFAULT" depart="209.00" arrival="351.00">
        <route edges="beg middle end rend"/>
    </vehicle>

    <vehicle id="3" type="KRAUSS_DEFAULT" depart="212.00" arrival="353.00">
        <route edges="beg middle end rend"/>
    </vehicle>

    <vehicle id="29" type="KRAUSS_DEFAULT" depart="215.00" arrival="356.00">
        <route edges="beg middle end rend"/>
    </vehicle>

    <vehicle id="28" type="KRAUSS_DEFAULT" depart="217.00" arrival="359.00">
        <route edges="beg middle end rend"/>
    </vehicle>

    <vehicle id="27" type="KRAUSS_DEFAULT" depart="220.00" arrival="362.00">
        <route edges="beg middle end rend"/>
    </vehicle>

    <vehicle id="26" type="KRAUSS_DEFAULT" depart="222.00" arrival="364.00">
        <route edges="beg middle end rend"/>
    </vehicle>

    <vehicle id="25" type="KRAUSS_DEFAULT" depart="225.00" arrival="367.00">
        <route edges="beg middle end rend"/>
    </vehicle>

    <vehicle id="24" type="KRAUSS_DEFAULT" depart="228.00" arrival="369.00">
        <route edges="beg middle end rend"/>
    </vehicle>

    <vehicle id="23" type="KRAUSS_DEFAULT" depart="231.00" arrival="372.00">
        <route edges="beg middle end rend"/>
    </vehicle>

    <vehicle id="22" type="KRAUSS_DEFAULT" depart="233.00" arrival="375.00">
        <route edges="beg middle end rend"/>
    </vehicle>

    <vehicle id="2" type="KRAUSS_DEFAULT" depart="236.00" arrival="377.00">
        <route edges="beg middle end rend"/>
    </vehicle>

    <vehicle id="21" type="KRAUSS_DEFAULT" depart="239.00" arrival="380.00">
        <route edges="beg middle end rend"/>
    </vehicle>

    <vehicle id="19" type="KRAUSS_DEFAULT" depart="241.00" arrival="383.00">
        <route edges="beg middle end rend"/>
    </vehicle>

    <vehicle id="18" type="KRAUSS_DEFAULT" depart="244.00" arrival="385.00">
        <route edges="beg middle end rend"/>
    </vehicle>

    <vehicle id="17" type="KRAUSS_DEFAULT" depart="247.00" arrival="388.00">
        <route edges="beg middle end rend"/>
    </vehicle>

    <vehicle id="16" type="KRAUSS_DEFAULT" depart="249.00" arrival="390.00">
        <route edges="beg middle end rend"/>
    </vehicle>

    <vehicle id="15" type="KRAUSS_DEFAULT" depart="252.00" arrival="394.00">
        <route edges="beg middle end rend"/>
    </vehicle>

    <vehicle id="12" type="KRAUSS_DEFAULT" depart="255.00" arrival="397.00">
        <route edges="beg middle end rend"/>
    </vehicle>

    <vehicle id="14" type="KRAUSS_DEFAULT" depart="258.00" arrival="399.00">
        <route edges="beg middle end rend"/>
    </vehicle>

    <vehicle id="11" type="KRAUSS_DEFAULT" depart="261.00" arrival="402.00">
        <route edges="beg middle end rend"/>
    </vehicle>

    <vehicle id="1" type="KRAUSS_DEFAULT" depart="263.00" arrival="404.00">
        <route edges="beg middle end rend"/>
    </vehicle>

    <vehicle id="100" type="KRAUSS_DEFAULT" depart="266.00" arrival="407.00">
        <route edges="beg middle end rend"/>
    </vehicle>

</routes>
