<?xml version="1.0"?>

<!-- generated on 09/03/07 15:04:39 by SUMO sumo Version 0.9.6
<configuration>

   <input>
      <net-file>net.net.xml</net-file>
      <route-files>input_routes.rou.xml</route-files>
   </input>

   <output>
      <tripinfo-output>tripinfos.xml</tripinfo-output>
   </output>

   <time>
      <begin>0</begin>
      <end>1000</end>
   </time>

   <processing>
      <no-duration-log>true</no-duration-log>
      <no-step-log>true</no-step-log>
   </processing>

</configuration>
-->

<tripinfos>
   <tripinfo vehicle_id="0" start="0" wished="0" end="128" duration="128" waited="0" reroutes="0" devices="" vtype="t2"/>
   <tripinfo vehicle_id="1" start="10" wished="10" end="133" duration="123" waited="0" reroutes="0" devices="" vtype="t1"/>
   <tripinfo vehicle_id="2" start="20" wished="20" end="142" duration="122" waited="0" reroutes="0" devices="" vtype="t1"/>
   <tripinfo vehicle_id="3" start="30" wished="30" end="149" duration="119" waited="0" reroutes="0" devices="" vtype="t2"/>
   <tripinfo vehicle_id="4" start="40" wished="40" end="154" duration="114" waited="0" reroutes="0" devices="" vtype="t1"/>
   <tripinfo vehicle_id="5" start="50" wished="50" end="161" duration="111" waited="0" reroutes="0" devices="" vtype="t2"/>
   <tripinfo vehicle_id="6" start="60" wished="60" end="187" duration="127" waited="0" reroutes="0" devices="" vtype="t1"/>
   <tripinfo vehicle_id="7" start="70" wished="70" end="195" duration="125" waited="0" reroutes="0" devices="" vtype="t2"/>
   <tripinfo vehicle_id="8" start="80" wished="80" end="202" duration="122" waited="0" reroutes="0" devices="" vtype="t2"/>
   <tripinfo vehicle_id="9" start="90" wished="90" end="209" duration="119" waited="0" reroutes="0" devices="" vtype="t1"/>
</tripinfos>
