<?xml version="1.0"?>

<!-- generated on Fri Nov  9 17:00:58 2012 by SUMO sumo Version dev-SVN-r12945
<?xml version="1.0" encoding="UTF-8"?>

<configuration xmlns:xsi="http://www.w3.org/2001/XMLSchema-instance" xsi:noNamespaceSchemaLocation="http://sumo.sf.net/xsd/sumoConfiguration.xsd">

    <input>
        <net-file value="net.net.xml"/>
        <route-files value="input_routes.rou.xml"/>
    </input>

    <output>
        <tripinfo-output value="tripinfos.xml"/>
    </output>

    <time>
        <begin value="0"/>
        <end value="1000"/>
    </time>

    <processing>
        <route-steps value="0.2"/>
    </processing>

    <report>
        <no-duration-log value="true"/>
        <no-step-log value="true"/>
    </report>

</configuration>
-->

<tripinfos>
    <tripinfo id="0" depart="0.00" departLane="beg_0" departPos="5.10" departSpeed="0.00" departDelay="0.00" arrival="135.00" arrivalLane="rend_0" arrivalPos="516.74" arrivalSpeed="27.80" duration="135.00" routeLength="2499.24" waitSteps="0" rerouteNo="0" devices="tripinfo_0" vType="t2" vaporized=""/>
    <tripinfo id="1" depart="10.00" departLane="beg_0" departPos="5.10" departSpeed="0.00" departDelay="0.00" arrival="145.00" arrivalLane="rend_0" arrivalPos="516.74" arrivalSpeed="27.80" duration="135.00" routeLength="2499.24" waitSteps="0" rerouteNo="0" devices="tripinfo_1" vType="t1" vaporized=""/>
    <tripinfo id="2" depart="20.00" departLane="beg_0" departPos="5.10" departSpeed="0.00" departDelay="0.00" arrival="155.00" arrivalLane="rend_0" arrivalPos="516.74" arrivalSpeed="27.80" duration="135.00" routeLength="2499.24" waitSteps="0" rerouteNo="0" devices="tripinfo_2" vType="t2" vaporized=""/>
    <tripinfo id="3" depart="30.00" departLane="beg_0" departPos="5.10" departSpeed="0.00" departDelay="0.00" arrival="165.00" arrivalLane="rend_0" arrivalPos="516.74" arrivalSpeed="27.80" duration="135.00" routeLength="2499.24" waitSteps="0" rerouteNo="0" devices="tripinfo_3" vType="t2" vaporized=""/>
    <tripinfo id="4" depart="40.00" departLane="beg_0" departPos="5.10" departSpeed="0.00" departDelay="0.00" arrival="175.00" arrivalLane="rend_0" arrivalPos="516.74" arrivalSpeed="27.80" duration="135.00" routeLength="2499.24" waitSteps="0" rerouteNo="0" devices="tripinfo_4" vType="t1" vaporized=""/>
    <tripinfo id="5" depart="50.00" departLane="beg_0" departPos="5.10" departSpeed="0.00" departDelay="0.00" arrival="185.00" arrivalLane="rend_0" arrivalPos="516.74" arrivalSpeed="27.80" duration="135.00" routeLength="2499.24" waitSteps="0" rerouteNo="0" devices="tripinfo_5" vType="t1" vaporized=""/>
    <tripinfo id="6" depart="60.00" departLane="beg_0" departPos="5.10" departSpeed="0.00" departDelay="0.00" arrival="195.00" arrivalLane="rend_0" arrivalPos="516.74" arrivalSpeed="27.80" duration="135.00" routeLength="2499.24" waitSteps="0" rerouteNo="0" devices="tripinfo_6" vType="t1" vaporized=""/>
    <tripinfo id="7" depart="70.00" departLane="beg_0" departPos="5.10" departSpeed="0.00" departDelay="0.00" arrival="205.00" arrivalLane="rend_0" arrivalPos="516.74" arrivalSpeed="27.80" duration="135.00" routeLength="2499.24" waitSteps="0" rerouteNo="0" devices="tripinfo_7" vType="t2" vaporized=""/>
    <tripinfo id="8" depart="80.00" departLane="beg_0" departPos="5.10" departSpeed="0.00" departDelay="0.00" arrival="215.00" arrivalLane="rend_0" arrivalPos="516.74" arrivalSpeed="27.80" duration="135.00" routeLength="2499.24" waitSteps="0" rerouteNo="0" devices="tripinfo_8" vType="t2" vaporized=""/>
    <tripinfo id="9" depart="90.00" departLane="beg_0" departPos="5.10" departSpeed="0.00" departDelay="0.00" arrival="225.00" arrivalLane="rend_0" arrivalPos="516.74" arrivalSpeed="27.80" duration="135.00" routeLength="2499.24" waitSteps="0" rerouteNo="0" devices="tripinfo_9" vType="t1" vaporized=""/>
</tripinfos>
