<?xml version="1.0" encoding="UTF-8"?>

<!-- generated on 2026-07-17T14:15:17.644817+01:00 by Eclipse SUMO sumo v1_27_1+0302-ab1210ba70b
This data file and the accompanying materials
are made available under the terms of the Eclipse Public License v2.0
which accompanies this distribution, and is available at
http://www.eclipse.org/legal/epl-v20.html
This file may also be made available under the following Secondary
Licenses when the conditions for such availability set forth in the Eclipse
Public License 2.0 are satisfied: GNU General Public License, version 2
or later which is available at
https://www.gnu.org/licenses/old-licenses/gpl-2.0-standalone.html
SPDX-License-Identifier: EPL-2.0 OR GPL-2.0-or-later
<sumoConfiguration xmlns:xsi="http://www.w3.org/2001/XMLSchema-instance" xsi:noNamespaceSchemaLocation="http://sumo.dlr.de/xsd/sumoConfiguration.xsd">

    <input>
        <net-file value="net.net.xml"/>
        <route-files value="input_routes.rou.xml"/>
        <additional-files value="input_additional2.add.xml"/>
    </input>

    <output>
        <write-license value="true"/>
        <queue-output value="rawdump.xml"/>
        <queue-output.period value="60"/>
        <queue-output.aggregation value="30"/>
    </output>

    <time>
        <begin value="0"/>
        <end value="100"/>
        <step-length value="0.5"/>
    </time>

    <processing>
        <default.departspeed value="0"/>
        <default.departlane value="first"/>
        <default.speeddev value="0"/>
    </processing>

    <report>
        <xml-validation value="never"/>
        <duration-log.disable value="true"/>
        <no-step-log value="true"/>
    </report>

</sumoConfiguration>
-->

<queue-export xmlns:xsi="http://www.w3.org/2001/XMLSchema-instance" xsi:noNamespaceSchemaLocation="http://sumo.dlr.de/xsd/queue_file.xsd">
    <interval begin="0.00" end="30.00"/>
    <interval begin="60.00" end="90.00">
        <edge id="4/1to3/1" samples="1" maxQueueLengthInVehicles="10.00" medianQueueLengthInVehicles="10.00" percentileQueueLengthInVehicles="10.00" maxQueueLengthInMeters="49.10" medianQueueLengthInMeters="49.10" percentileQueueLengthInMeters="49.10"/>
    </interval>
</queue-export>
