<?xml version="1.0" encoding="UTF-8"?>

<!-- generated on Tue Mar 31 20:02:13 2020 by Eclipse SUMO Version v1_5_0+1038-3e64882b69
This data file and the accompanying materials
are made available under the terms of the Eclipse Public License v2.0
which accompanies this distribution, and is available at
http://www.eclipse.org/legal/epl-v20.html
SPDX-License-Identifier: EPL-2.0
<configuration xmlns:xsi="http://www.w3.org/2001/XMLSchema-instance" xsi:noNamespaceSchemaLocation="http://sumo.dlr.de/xsd/sumoConfiguration.xsd">

    <input>
        <net-file value="net.net.xml"/>
        <route-files value="input_routes.rou.xml"/>
        <additional-files value="input_additional.add.xml"/>
    </input>

    <output>
        <write-license value="true"/>
        <fcd-output value="fcd.xml"/>
        <railsignal-block-output value="railsignal_blocks.xml"/>
    </output>

    <processing>
        <no-internal-links value="true"/>
        <default.speeddev value="0"/>
    </processing>

    <report>
        <xml-validation value="never"/>
        <duration-log.disable value="true"/>
        <no-step-log value="true"/>
    </report>

</configuration>
-->

<fcd-export xmlns:xsi="http://www.w3.org/2001/XMLSchema-instance" xsi:noNamespaceSchemaLocation="http://sumo.dlr.de/xsd/fcd_file.xsd">
    <timestep time="0.00">
        <vehicle id="light_rail_S46:0.0" x="-20.00" y="-100.00" angle="90.00" type="light_rail" speed="0.00" pos="80.00" lane="beg_0" slope="0.00"/>
    </timestep>
    <timestep time="1.00">
        <vehicle id="light_rail_S46:0.0" x="-20.00" y="-100.00" angle="90.00" type="light_rail" speed="0.00" pos="80.00" lane="beg_0" slope="0.00"/>
    </timestep>
    <timestep time="2.00">
        <vehicle id="light_rail_S46:0.0" x="-20.00" y="-100.00" angle="90.00" type="light_rail" speed="0.00" pos="80.00" lane="beg_0" slope="0.00"/>
    </timestep>
    <timestep time="3.00">
        <vehicle id="light_rail_S46:0.0" x="-20.00" y="-100.00" angle="90.00" type="light_rail" speed="0.00" pos="80.00" lane="beg_0" slope="0.00"/>
    </timestep>
    <timestep time="4.00">
        <vehicle id="light_rail_S46:0.0" x="-20.00" y="-100.00" angle="90.00" type="light_rail" speed="0.00" pos="80.00" lane="beg_0" slope="0.00"/>
    </timestep>
    <timestep time="5.00">
        <vehicle id="light_rail_S46:0.0" x="-20.00" y="-100.00" angle="90.00" type="light_rail" speed="0.00" pos="80.00" lane="beg_0" slope="0.00"/>
    </timestep>
    <timestep time="6.00">
        <vehicle id="light_rail_S46:0.0" x="-20.00" y="-100.00" angle="90.00" type="light_rail" speed="0.00" pos="80.00" lane="beg_0" slope="0.00"/>
    </timestep>
    <timestep time="7.00">
        <vehicle id="light_rail_S46:0.0" x="-20.00" y="-100.00" angle="90.00" type="light_rail" speed="0.00" pos="80.00" lane="beg_0" slope="0.00"/>
    </timestep>
    <timestep time="8.00">
        <vehicle id="light_rail_S46:0.0" x="-20.00" y="-100.00" angle="90.00" type="light_rail" speed="0.00" pos="80.00" lane="beg_0" slope="0.00"/>
    </timestep>
    <timestep time="9.00">
        <vehicle id="light_rail_S46:0.0" x="-20.00" y="-100.00" angle="90.00" type="light_rail" speed="0.00" pos="80.00" lane="beg_0" slope="0.00"/>
    </timestep>
    <timestep time="10.00">
        <vehicle id="light_rail_S46:0.0" x="-20.00" y="-100.00" angle="90.00" type="light_rail" speed="0.00" pos="80.00" lane="beg_0" slope="0.00"/>
    </timestep>
    <timestep time="11.00">
        <vehicle id="light_rail_S46:0.0" x="-20.00" y="-100.00" angle="90.00" type="light_rail" speed="0.00" pos="80.00" lane="beg_0" slope="0.00"/>
    </timestep>
    <timestep time="12.00">
        <vehicle id="light_rail_S46:0.0" x="-20.00" y="-100.00" angle="90.00" type="light_rail" speed="0.00" pos="80.00" lane="beg_0" slope="0.00"/>
    </timestep>
    <timestep time="13.00">
        <vehicle id="light_rail_S46:0.0" x="-20.00" y="-100.00" angle="90.00" type="light_rail" speed="0.00" pos="80.00" lane="beg_0" slope="0.00"/>
    </timestep>
    <timestep time="14.00">
        <vehicle id="light_rail_S46:0.0" x="-20.00" y="-100.00" angle="90.00" type="light_rail" speed="0.00" pos="80.00" lane="beg_0" slope="0.00"/>
    </timestep>
    <timestep time="15.00">
        <vehicle id="light_rail_S46:0.0" x="-20.00" y="-100.00" angle="90.00" type="light_rail" speed="0.00" pos="80.00" lane="beg_0" slope="0.00"/>
    </timestep>
    <timestep time="16.00">
        <vehicle id="light_rail_S46:0.0" x="-20.00" y="-100.00" angle="90.00" type="light_rail" speed="0.00" pos="80.00" lane="beg_0" slope="0.00"/>
    </timestep>
    <timestep time="17.00">
        <vehicle id="light_rail_S46:0.0" x="-20.00" y="-100.00" angle="90.00" type="light_rail" speed="0.00" pos="80.00" lane="beg_0" slope="0.00"/>
    </timestep>
    <timestep time="18.00">
        <vehicle id="light_rail_S46:0.0" x="-20.00" y="-100.00" angle="90.00" type="light_rail" speed="0.00" pos="80.00" lane="beg_0" slope="0.00"/>
    </timestep>
    <timestep time="19.00">
        <vehicle id="light_rail_S46:0.0" x="-20.00" y="-100.00" angle="90.00" type="light_rail" speed="0.00" pos="80.00" lane="beg_0" slope="0.00"/>
    </timestep>
    <timestep time="20.00">
        <vehicle id="light_rail_S46:0.0" x="-20.00" y="-100.00" angle="90.00" type="light_rail" speed="0.00" pos="80.00" lane="beg_0" slope="0.00"/>
    </timestep>
    <timestep time="21.00">
        <vehicle id="light_rail_S46:0.0" x="-20.00" y="-100.00" angle="90.00" type="light_rail" speed="0.00" pos="80.00" lane="beg_0" slope="0.00"/>
    </timestep>
    <timestep time="22.00">
        <vehicle id="light_rail_S46:0.0" x="-20.00" y="-100.00" angle="90.00" type="light_rail" speed="0.00" pos="80.00" lane="beg_0" slope="0.00"/>
    </timestep>
    <timestep time="23.00">
        <vehicle id="light_rail_S46:0.0" x="-20.00" y="-100.00" angle="90.00" type="light_rail" speed="0.00" pos="80.00" lane="beg_0" slope="0.00"/>
    </timestep>
    <timestep time="24.00">
        <vehicle id="light_rail_S46:0.0" x="-20.00" y="-100.00" angle="90.00" type="light_rail" speed="0.00" pos="80.00" lane="beg_0" slope="0.00"/>
    </timestep>
    <timestep time="25.00">
        <vehicle id="light_rail_S46:0.0" x="-20.00" y="-100.00" angle="90.00" type="light_rail" speed="0.00" pos="80.00" lane="beg_0" slope="0.00"/>
    </timestep>
    <timestep time="26.00">
        <vehicle id="light_rail_S46:0.0" x="-20.00" y="-100.00" angle="90.00" type="light_rail" speed="0.00" pos="80.00" lane="beg_0" slope="0.00"/>
    </timestep>
    <timestep time="27.00">
        <vehicle id="light_rail_S46:0.0" x="-20.00" y="-100.00" angle="90.00" type="light_rail" speed="0.00" pos="80.00" lane="beg_0" slope="0.00"/>
    </timestep>
    <timestep time="28.00">
        <vehicle id="light_rail_S46:0.0" x="-20.00" y="-100.00" angle="90.00" type="light_rail" speed="0.00" pos="80.00" lane="beg_0" slope="0.00"/>
    </timestep>
    <timestep time="29.00">
        <vehicle id="light_rail_S46:0.0" x="-20.00" y="-100.00" angle="90.00" type="light_rail" speed="0.00" pos="80.00" lane="beg_0" slope="0.00"/>
    </timestep>
    <timestep time="30.00">
        <vehicle id="light_rail_S46:0.0" x="-20.00" y="-100.00" angle="90.00" type="light_rail" speed="0.00" pos="80.00" lane="beg_0" slope="0.00"/>
    </timestep>
    <timestep time="31.00">
        <vehicle id="light_rail_S46:0.0" x="-20.00" y="-100.00" angle="90.00" type="light_rail" speed="0.00" pos="80.00" lane="beg_0" slope="0.00"/>
    </timestep>
    <timestep time="32.00">
        <vehicle id="light_rail_S46:0.0" x="-19.00" y="-100.00" angle="90.00" type="light_rail" speed="1.00" pos="81.00" lane="beg_0" slope="0.00"/>
    </timestep>
    <timestep time="33.00">
        <vehicle id="light_rail_S46:0.0" x="-17.00" y="-100.00" angle="90.00" type="light_rail" speed="2.00" pos="83.00" lane="beg_0" slope="0.00"/>
    </timestep>
    <timestep time="34.00">
        <vehicle id="light_rail_S46:0.0" x="-14.00" y="-100.00" angle="90.00" type="light_rail" speed="3.00" pos="86.00" lane="beg_0" slope="0.00"/>
    </timestep>
    <timestep time="35.00">
        <vehicle id="light_rail_S46:0.0" x="-10.00" y="-100.00" angle="90.00" type="light_rail" speed="4.00" pos="90.00" lane="beg_0" slope="0.00"/>
    </timestep>
    <timestep time="36.00">
        <vehicle id="light_rail_S46:0.0" x="-5.00" y="-100.00" angle="90.00" type="light_rail" speed="5.00" pos="95.00" lane="beg_0" slope="0.00"/>
    </timestep>
    <timestep time="37.00">
        <vehicle id="light_rail_S46:0.0" x="9.98" y="-104.99" angle="92.60" type="light_rail" speed="6.00" pos="2.88" lane="f_0" slope="0.00"/>
    </timestep>
    <timestep time="38.00">
        <vehicle id="light_rail_S46:0.0" x="16.24" y="-108.12" angle="94.00" type="light_rail" speed="7.00" pos="9.88" lane="f_0" slope="0.00"/>
    </timestep>
    <timestep time="39.00">
        <vehicle id="light_rail_S46:0.0" x="23.39" y="-111.70" angle="95.71" type="light_rail" speed="8.00" pos="17.88" lane="f_0" slope="0.00"/>
    </timestep>
    <timestep time="40.00">
        <vehicle id="light_rail_S46:0.0" x="31.44" y="-115.72" angle="97.72" type="light_rail" speed="9.00" pos="26.88" lane="f_0" slope="0.00"/>
    </timestep>
    <timestep time="41.00">
        <vehicle id="light_rail_S46:0.0" x="40.39" y="-120.19" angle="99.97" type="light_rail" speed="10.00" pos="36.88" lane="f_0" slope="0.00"/>
    </timestep>
    <timestep time="42.00">
        <vehicle id="light_rail_S46:0.0" x="50.18" y="-125.18" angle="102.49" type="light_rail" speed="11.00" pos="47.88" lane="f_0" slope="0.00"/>
    </timestep>
    <timestep time="43.00">
        <vehicle id="light_rail_S46:0.0" x="58.67" y="-133.67" angle="106.99" type="light_rail" speed="12.00" pos="59.88" lane="f_0" slope="0.00"/>
    </timestep>
    <timestep time="44.00">
        <vehicle id="light_rail_S46:0.0" x="67.86" y="-142.86" angle="111.95" type="light_rail" speed="13.00" pos="72.88" lane="f_0" slope="0.00"/>
    </timestep>
    <timestep time="45.00">
        <vehicle id="light_rail_S46:0.0" x="76.75" y="-153.49" angle="117.85" type="light_rail" speed="14.00" pos="86.88" lane="f_0" slope="0.00"/>
    </timestep>
    <timestep time="46.00">
        <vehicle id="light_rail_S46:0.0" x="83.45" y="-166.91" angle="125.75" type="light_rail" speed="15.00" pos="101.88" lane="f_0" slope="0.00"/>
    </timestep>
    <timestep time="47.00">
        <vehicle id="light_rail_S46:0.0" x="90.61" y="-181.22" angle="134.26" type="light_rail" speed="16.00" pos="117.88" lane="f_0" slope="0.00"/>
    </timestep>
    <timestep time="48.00">
        <vehicle id="light_rail_S46:0.0" x="100.00" y="-202.58" angle="141.39" type="light_rail" speed="17.00" pos="0.70" lane="h_0" slope="0.00"/>
    </timestep>
    <timestep time="49.00">
        <vehicle id="light_rail_S46:0.0" x="100.00" y="-220.58" angle="151.11" type="light_rail" speed="18.00" pos="18.70" lane="h_0" slope="0.00"/>
    </timestep>
    <timestep time="50.00">
        <vehicle id="light_rail_S46:0.0" x="100.00" y="-239.58" angle="159.20" type="light_rail" speed="19.00" pos="37.70" lane="h_0" slope="0.00"/>
    </timestep>
    <timestep time="51.00">
        <vehicle id="light_rail_S46:0.0" x="100.00" y="-259.58" angle="166.99" type="light_rail" speed="20.00" pos="57.70" lane="h_0" slope="0.00"/>
    </timestep>
    <timestep time="52.00">
        <vehicle id="light_rail_S46:0.0" x="100.00" y="-280.58" angle="171.96" type="light_rail" speed="21.00" pos="78.70" lane="h_0" slope="0.00"/>
    </timestep>
    <timestep time="53.00">
        <vehicle id="light_rail_S46:0.0" x="100.00" y="-302.58" angle="176.99" type="light_rail" speed="22.00" pos="2.58" lane="branch_0" slope="0.00"/>
    </timestep>
    <timestep time="54.00">
        <vehicle id="light_rail_S46:0.0" x="100.00" y="-322.64" angle="180.00" type="light_rail" speed="20.06" pos="22.64" lane="branch_0" slope="0.00"/>
    </timestep>
    <timestep time="55.00">
        <vehicle id="light_rail_S46:0.0" x="100.00" y="-339.70" angle="180.00" type="light_rail" speed="17.06" pos="39.70" lane="branch_0" slope="0.00"/>
    </timestep>
    <timestep time="56.00">
        <vehicle id="light_rail_S46:0.0" x="100.00" y="-353.76" angle="180.00" type="light_rail" speed="14.06" pos="53.76" lane="branch_0" slope="0.00"/>
    </timestep>
    <timestep time="57.00">
        <vehicle id="light_rail_S46:0.0" x="100.00" y="-364.82" angle="180.00" type="light_rail" speed="11.06" pos="64.82" lane="branch_0" slope="0.00"/>
    </timestep>
    <timestep time="58.00">
        <vehicle id="light_rail_S46:0.0" x="100.00" y="-372.88" angle="180.00" type="light_rail" speed="8.06" pos="72.88" lane="branch_0" slope="0.00"/>
    </timestep>
    <timestep time="59.00">
        <vehicle id="light_rail_S46:0.0" x="100.00" y="-377.94" angle="180.00" type="light_rail" speed="5.06" pos="77.94" lane="branch_0" slope="0.00"/>
    </timestep>
    <timestep time="60.00">
        <vehicle id="light_rail_S46:0.0" x="100.00" y="-380.00" angle="180.00" type="light_rail" speed="2.06" pos="80.00" lane="branch_0" slope="0.00"/>
    </timestep>
    <timestep time="61.00">
        <vehicle id="light_rail_S46:0.0" x="100.00" y="-380.00" angle="180.00" type="light_rail" speed="0.00" pos="80.00" lane="branch_0" slope="0.00"/>
    </timestep>
    <timestep time="62.00">
        <vehicle id="light_rail_S46:0.0" x="100.00" y="-380.00" angle="180.00" type="light_rail" speed="0.00" pos="80.00" lane="branch_0" slope="0.00"/>
    </timestep>
    <timestep time="63.00">
        <vehicle id="light_rail_S46:0.0" x="100.00" y="-380.00" angle="180.00" type="light_rail" speed="0.00" pos="80.00" lane="branch_0" slope="0.00"/>
    </timestep>
    <timestep time="64.00">
        <vehicle id="light_rail_S46:0.0" x="100.00" y="-380.00" angle="180.00" type="light_rail" speed="0.00" pos="80.00" lane="branch_0" slope="0.00"/>
    </timestep>
    <timestep time="65.00">
        <vehicle id="light_rail_S46:0.0" x="100.00" y="-380.00" angle="180.00" type="light_rail" speed="0.00" pos="80.00" lane="branch_0" slope="0.00"/>
    </timestep>
    <timestep time="66.00">
        <vehicle id="light_rail_S46:0.0" x="100.00" y="-380.00" angle="180.00" type="light_rail" speed="0.00" pos="80.00" lane="branch_0" slope="0.00"/>
    </timestep>
    <timestep time="67.00">
        <vehicle id="light_rail_S46:0.0" x="100.00" y="-380.00" angle="180.00" type="light_rail" speed="0.00" pos="80.00" lane="branch_0" slope="0.00"/>
    </timestep>
    <timestep time="68.00">
        <vehicle id="light_rail_S46:0.0" x="100.00" y="-380.00" angle="180.00" type="light_rail" speed="0.00" pos="80.00" lane="branch_0" slope="0.00"/>
    </timestep>
    <timestep time="69.00">
        <vehicle id="light_rail_S46:0.0" x="100.00" y="-380.00" angle="180.00" type="light_rail" speed="0.00" pos="80.00" lane="branch_0" slope="0.00"/>
    </timestep>
    <timestep time="70.00">
        <vehicle id="light_rail_S46:0.0" x="100.00" y="-380.00" angle="180.00" type="light_rail" speed="0.00" pos="80.00" lane="branch_0" slope="0.00"/>
    </timestep>
    <timestep time="71.00">
        <vehicle id="light_rail_S46:0.0" x="100.00" y="-380.00" angle="180.00" type="light_rail" speed="0.00" pos="80.00" lane="branch_0" slope="0.00"/>
    </timestep>
    <timestep time="72.00">
        <vehicle id="light_rail_S46:0.0" x="100.00" y="-380.00" angle="180.00" type="light_rail" speed="0.00" pos="80.00" lane="branch_0" slope="0.00"/>
    </timestep>
    <timestep time="73.00">
        <vehicle id="light_rail_S46:0.0" x="100.00" y="-380.00" angle="180.00" type="light_rail" speed="0.00" pos="80.00" lane="branch_0" slope="0.00"/>
    </timestep>
    <timestep time="74.00">
        <vehicle id="light_rail_S46:0.0" x="100.00" y="-380.00" angle="180.00" type="light_rail" speed="0.00" pos="80.00" lane="branch_0" slope="0.00"/>
    </timestep>
    <timestep time="75.00">
        <vehicle id="light_rail_S46:0.0" x="100.00" y="-380.00" angle="180.00" type="light_rail" speed="0.00" pos="80.00" lane="branch_0" slope="0.00"/>
    </timestep>
    <timestep time="76.00">
        <vehicle id="light_rail_S46:0.0" x="100.00" y="-380.00" angle="180.00" type="light_rail" speed="0.00" pos="80.00" lane="branch_0" slope="0.00"/>
    </timestep>
    <timestep time="77.00">
        <vehicle id="light_rail_S46:0.0" x="100.00" y="-380.00" angle="180.00" type="light_rail" speed="0.00" pos="80.00" lane="branch_0" slope="0.00"/>
    </timestep>
    <timestep time="78.00">
        <vehicle id="light_rail_S46:0.0" x="100.00" y="-380.00" angle="180.00" type="light_rail" speed="0.00" pos="80.00" lane="branch_0" slope="0.00"/>
    </timestep>
    <timestep time="79.00">
        <vehicle id="light_rail_S46:0.0" x="100.00" y="-380.00" angle="180.00" type="light_rail" speed="0.00" pos="80.00" lane="branch_0" slope="0.00"/>
    </timestep>
    <timestep time="80.00">
        <vehicle id="light_rail_S46:0.0" x="100.00" y="-380.00" angle="180.00" type="light_rail" speed="0.00" pos="80.00" lane="branch_0" slope="0.00"/>
    </timestep>
    <timestep time="81.00">
        <vehicle id="light_rail_S46:0.0" x="100.00" y="-380.00" angle="180.00" type="light_rail" speed="0.00" pos="80.00" lane="branch_0" slope="0.00"/>
    </timestep>
    <timestep time="82.00">
        <vehicle id="light_rail_S46:0.0" x="100.00" y="-380.00" angle="180.00" type="light_rail" speed="0.00" pos="80.00" lane="branch_0" slope="0.00"/>
    </timestep>
    <timestep time="83.00">
        <vehicle id="light_rail_S46:0.0" x="100.00" y="-380.00" angle="180.00" type="light_rail" speed="0.00" pos="80.00" lane="branch_0" slope="0.00"/>
    </timestep>
    <timestep time="84.00">
        <vehicle id="light_rail_S46:0.0" x="100.00" y="-380.00" angle="180.00" type="light_rail" speed="0.00" pos="80.00" lane="branch_0" slope="0.00"/>
    </timestep>
    <timestep time="85.00">
        <vehicle id="light_rail_S46:0.0" x="100.00" y="-380.00" angle="180.00" type="light_rail" speed="0.00" pos="80.00" lane="branch_0" slope="0.00"/>
    </timestep>
    <timestep time="86.00">
        <vehicle id="light_rail_S46:0.0" x="100.00" y="-380.00" angle="180.00" type="light_rail" speed="0.00" pos="80.00" lane="branch_0" slope="0.00"/>
    </timestep>
    <timestep time="87.00">
        <vehicle id="light_rail_S46:0.0" x="100.00" y="-380.00" angle="180.00" type="light_rail" speed="0.00" pos="80.00" lane="branch_0" slope="0.00"/>
    </timestep>
    <timestep time="88.00">
        <vehicle id="light_rail_S46:0.0" x="100.00" y="-380.00" angle="180.00" type="light_rail" speed="0.00" pos="80.00" lane="branch_0" slope="0.00"/>
    </timestep>
    <timestep time="89.00">
        <vehicle id="light_rail_S46:0.0" x="100.00" y="-380.00" angle="180.00" type="light_rail" speed="0.00" pos="80.00" lane="branch_0" slope="0.00"/>
    </timestep>
    <timestep time="90.00">
        <vehicle id="light_rail_S46:0.0" x="100.00" y="-380.00" angle="180.00" type="light_rail" speed="0.00" pos="80.00" lane="branch_0" slope="0.00"/>
    </timestep>
    <timestep time="91.00">
        <vehicle id="light_rail_S46:0.0" x="100.00" y="-380.00" angle="180.00" type="light_rail" speed="0.00" pos="80.00" lane="branch_0" slope="0.00"/>
    </timestep>
    <timestep time="92.00">
        <vehicle id="light_rail_S46:0.0" x="100.00" y="-380.00" angle="180.00" type="light_rail" speed="0.00" pos="80.00" lane="branch_0" slope="0.00"/>
    </timestep>
    <timestep time="93.00">
        <vehicle id="light_rail_S46:0.0" x="100.00" y="-271.50" angle="0.00" type="light_rail" speed="0.00" pos="28.50" lane="-h_0" slope="0.00"/>
    </timestep>
    <timestep time="94.00">
        <vehicle id="light_rail_S46:0.0" x="100.00" y="-270.50" angle="0.00" type="light_rail" speed="1.00" pos="29.50" lane="-h_0" slope="0.00"/>
    </timestep>
    <timestep time="95.00">
        <vehicle id="light_rail_S46:0.0" x="100.00" y="-268.50" angle="0.00" type="light_rail" speed="2.00" pos="31.50" lane="-h_0" slope="0.00"/>
    </timestep>
    <timestep time="96.00">
        <vehicle id="light_rail_S46:0.0" x="100.00" y="-265.50" angle="0.00" type="light_rail" speed="3.00" pos="34.50" lane="-h_0" slope="0.00"/>
    </timestep>
    <timestep time="97.00">
        <vehicle id="light_rail_S46:0.0" x="100.00" y="-261.50" angle="0.00" type="light_rail" speed="4.00" pos="38.50" lane="-h_0" slope="0.00"/>
    </timestep>
    <timestep time="98.00">
        <vehicle id="light_rail_S46:0.0" x="100.00" y="-256.50" angle="0.00" type="light_rail" speed="5.00" pos="43.50" lane="-h_0" slope="0.00"/>
    </timestep>
    <timestep time="99.00">
        <vehicle id="light_rail_S46:0.0" x="100.00" y="-250.50" angle="0.00" type="light_rail" speed="6.00" pos="49.50" lane="-h_0" slope="0.00"/>
    </timestep>
    <timestep time="100.00">
        <vehicle id="light_rail_S46:0.0" x="100.00" y="-243.50" angle="0.00" type="light_rail" speed="7.00" pos="56.50" lane="-h_0" slope="0.00"/>
    </timestep>
    <timestep time="101.00">
        <vehicle id="light_rail_S46:0.0" x="100.00" y="-235.50" angle="0.00" type="light_rail" speed="8.00" pos="64.50" lane="-h_0" slope="0.00"/>
    </timestep>
    <timestep time="102.00">
        <vehicle id="light_rail_S46:0.0" x="100.00" y="-226.50" angle="0.00" type="light_rail" speed="9.00" pos="73.50" lane="-h_0" slope="0.00"/>
    </timestep>
    <timestep time="103.00">
        <vehicle id="light_rail_S46:0.0" x="100.00" y="-216.50" angle="0.00" type="light_rail" speed="10.00" pos="83.50" lane="-h_0" slope="0.00"/>
    </timestep>
    <timestep time="104.00">
        <vehicle id="light_rail_S46:0.0" x="100.00" y="-205.50" angle="0.00" type="light_rail" speed="11.00" pos="94.50" lane="-h_0" slope="0.00"/>
    </timestep>
    <timestep time="105.00">
        <vehicle id="light_rail_S46:0.0" x="105.85" y="-188.30" angle="2.92" type="light_rail" speed="12.00" pos="8.38" lane="g_0" slope="0.00"/>
    </timestep>
    <timestep time="106.00">
        <vehicle id="light_rail_S46:0.0" x="111.66" y="-176.67" angle="5.88" type="light_rail" speed="13.00" pos="21.38" lane="g_0" slope="0.00"/>
    </timestep>
    <timestep time="107.00">
        <vehicle id="light_rail_S46:0.0" x="117.92" y="-164.15" angle="9.10" type="light_rail" speed="14.00" pos="35.38" lane="g_0" slope="0.00"/>
    </timestep>
    <timestep time="108.00">
        <vehicle id="light_rail_S46:0.0" x="124.63" y="-150.73" angle="12.59" type="light_rail" speed="15.00" pos="50.38" lane="g_0" slope="0.00"/>
    </timestep>
    <timestep time="109.00">
        <vehicle id="light_rail_S46:0.0" x="135.73" y="-139.27" angle="18.67" type="light_rail" speed="16.00" pos="66.38" lane="g_0" slope="0.00"/>
    </timestep>
    <timestep time="110.00">
        <vehicle id="light_rail_S46:0.0" x="147.76" y="-127.24" angle="25.36" type="light_rail" speed="17.00" pos="83.38" lane="g_0" slope="0.00"/>
    </timestep>
    <timestep time="111.00">
        <vehicle id="light_rail_S46:0.0" x="163.26" y="-118.37" angle="34.62" type="light_rail" speed="18.00" pos="101.38" lane="g_0" slope="0.00"/>
    </timestep>
    <timestep time="112.00">
        <vehicle id="light_rail_S46:0.0" x="180.26" y="-109.87" angle="43.89" type="light_rail" speed="19.00" pos="120.38" lane="g_0" slope="0.00"/>
    </timestep>
    <timestep time="113.00">
        <vehicle id="light_rail_S46:0.0" x="208.08" y="-100.00" angle="53.51" type="light_rail" speed="20.00" pos="6.20" lane="end_0" slope="0.00"/>
    </timestep>
    <timestep time="114.00">
        <vehicle id="light_rail_S46:0.0" x="227.62" y="-100.00" angle="63.79" type="light_rail" speed="19.54" pos="25.74" lane="end_0" slope="0.00"/>
    </timestep>
    <timestep time="115.00">
        <vehicle id="light_rail_S46:0.0" x="244.17" y="-100.00" angle="70.22" type="light_rail" speed="16.54" pos="42.29" lane="end_0" slope="0.00"/>
    </timestep>
    <timestep time="116.00">
        <vehicle id="light_rail_S46:0.0" x="257.71" y="-100.00" angle="75.35" type="light_rail" speed="13.54" pos="55.83" lane="end_0" slope="0.00"/>
    </timestep>
    <timestep time="117.00">
        <vehicle id="light_rail_S46:0.0" x="268.25" y="-100.00" angle="78.62" type="light_rail" speed="10.54" pos="66.37" lane="end_0" slope="0.00"/>
    </timestep>
    <timestep time="118.00">
        <vehicle id="light_rail_S46:0.0" x="275.79" y="-100.00" angle="80.32" type="light_rail" speed="7.54" pos="73.91" lane="end_0" slope="0.00"/>
    </timestep>
    <timestep time="119.00">
        <vehicle id="light_rail_S46:0.0" x="280.34" y="-100.00" angle="81.34" type="light_rail" speed="4.54" pos="78.46" lane="end_0" slope="0.00"/>
    </timestep>
    <timestep time="120.00">
        <vehicle id="light_rail_S46:0.0" x="281.88" y="-100.00" angle="81.69" type="light_rail" speed="1.54" pos="80.00" lane="end_0" slope="0.00"/>
    </timestep>
    <timestep time="121.00">
        <vehicle id="light_rail_S46:0.0" x="281.88" y="-100.00" angle="81.69" type="light_rail" speed="0.00" pos="80.00" lane="end_0" slope="0.00"/>
    </timestep>
    <timestep time="122.00">
        <vehicle id="light_rail_S46:0.0" x="281.88" y="-100.00" angle="81.69" type="light_rail" speed="0.00" pos="80.00" lane="end_0" slope="0.00"/>
    </timestep>
    <timestep time="123.00">
        <vehicle id="light_rail_S46:0.0" x="281.88" y="-100.00" angle="81.69" type="light_rail" speed="0.00" pos="80.00" lane="end_0" slope="0.00"/>
    </timestep>
    <timestep time="124.00">
        <vehicle id="light_rail_S46:0.0" x="281.88" y="-100.00" angle="81.69" type="light_rail" speed="0.00" pos="80.00" lane="end_0" slope="0.00"/>
    </timestep>
    <timestep time="125.00">
        <vehicle id="light_rail_S46:0.0" x="281.88" y="-100.00" angle="81.69" type="light_rail" speed="0.00" pos="80.00" lane="end_0" slope="0.00"/>
    </timestep>
    <timestep time="126.00">
        <vehicle id="light_rail_S46:0.0" x="281.88" y="-100.00" angle="81.69" type="light_rail" speed="0.00" pos="80.00" lane="end_0" slope="0.00"/>
    </timestep>
    <timestep time="127.00">
        <vehicle id="light_rail_S46:0.0" x="281.88" y="-100.00" angle="81.69" type="light_rail" speed="0.00" pos="80.00" lane="end_0" slope="0.00"/>
    </timestep>
    <timestep time="128.00">
        <vehicle id="light_rail_S46:0.0" x="281.88" y="-100.00" angle="81.69" type="light_rail" speed="0.00" pos="80.00" lane="end_0" slope="0.00"/>
    </timestep>
    <timestep time="129.00">
        <vehicle id="light_rail_S46:0.0" x="281.88" y="-100.00" angle="81.69" type="light_rail" speed="0.00" pos="80.00" lane="end_0" slope="0.00"/>
    </timestep>
    <timestep time="130.00">
        <vehicle id="light_rail_S46:0.0" x="281.88" y="-100.00" angle="81.69" type="light_rail" speed="0.00" pos="80.00" lane="end_0" slope="0.00"/>
    </timestep>
    <timestep time="131.00">
        <vehicle id="light_rail_S46:0.0" x="281.88" y="-100.00" angle="81.69" type="light_rail" speed="0.00" pos="80.00" lane="end_0" slope="0.00"/>
    </timestep>
    <timestep time="132.00">
        <vehicle id="light_rail_S46:0.0" x="281.88" y="-100.00" angle="81.69" type="light_rail" speed="0.00" pos="80.00" lane="end_0" slope="0.00"/>
    </timestep>
    <timestep time="133.00">
        <vehicle id="light_rail_S46:0.0" x="281.88" y="-100.00" angle="81.69" type="light_rail" speed="0.00" pos="80.00" lane="end_0" slope="0.00"/>
    </timestep>
    <timestep time="134.00">
        <vehicle id="light_rail_S46:0.0" x="281.88" y="-100.00" angle="81.69" type="light_rail" speed="0.00" pos="80.00" lane="end_0" slope="0.00"/>
    </timestep>
    <timestep time="135.00">
        <vehicle id="light_rail_S46:0.0" x="281.88" y="-100.00" angle="81.69" type="light_rail" speed="0.00" pos="80.00" lane="end_0" slope="0.00"/>
    </timestep>
    <timestep time="136.00">
        <vehicle id="light_rail_S46:0.0" x="281.88" y="-100.00" angle="81.69" type="light_rail" speed="0.00" pos="80.00" lane="end_0" slope="0.00"/>
    </timestep>
    <timestep time="137.00">
        <vehicle id="light_rail_S46:0.0" x="281.88" y="-100.00" angle="81.69" type="light_rail" speed="0.00" pos="80.00" lane="end_0" slope="0.00"/>
    </timestep>
    <timestep time="138.00">
        <vehicle id="light_rail_S46:0.0" x="281.88" y="-100.00" angle="81.69" type="light_rail" speed="0.00" pos="80.00" lane="end_0" slope="0.00"/>
    </timestep>
    <timestep time="139.00">
        <vehicle id="light_rail_S46:0.0" x="281.88" y="-100.00" angle="81.69" type="light_rail" speed="0.00" pos="80.00" lane="end_0" slope="0.00"/>
    </timestep>
    <timestep time="140.00">
        <vehicle id="light_rail_S46:0.0" x="281.88" y="-100.00" angle="81.69" type="light_rail" speed="0.00" pos="80.00" lane="end_0" slope="0.00"/>
    </timestep>
    <timestep time="141.00">
        <vehicle id="light_rail_S46:0.0" x="281.88" y="-100.00" angle="81.69" type="light_rail" speed="0.00" pos="80.00" lane="end_0" slope="0.00"/>
    </timestep>
    <timestep time="142.00">
        <vehicle id="light_rail_S46:0.0" x="281.88" y="-100.00" angle="81.69" type="light_rail" speed="0.00" pos="80.00" lane="end_0" slope="0.00"/>
    </timestep>
    <timestep time="143.00">
        <vehicle id="light_rail_S46:0.0" x="281.88" y="-100.00" angle="81.69" type="light_rail" speed="0.00" pos="80.00" lane="end_0" slope="0.00"/>
    </timestep>
    <timestep time="144.00">
        <vehicle id="light_rail_S46:0.0" x="281.88" y="-100.00" angle="81.69" type="light_rail" speed="0.00" pos="80.00" lane="end_0" slope="0.00"/>
    </timestep>
    <timestep time="145.00">
        <vehicle id="light_rail_S46:0.0" x="281.88" y="-100.00" angle="81.69" type="light_rail" speed="0.00" pos="80.00" lane="end_0" slope="0.00"/>
    </timestep>
    <timestep time="146.00">
        <vehicle id="light_rail_S46:0.0" x="281.88" y="-100.00" angle="81.69" type="light_rail" speed="0.00" pos="80.00" lane="end_0" slope="0.00"/>
    </timestep>
    <timestep time="147.00">
        <vehicle id="light_rail_S46:0.0" x="281.88" y="-100.00" angle="81.69" type="light_rail" speed="0.00" pos="80.00" lane="end_0" slope="0.00"/>