<?xml version="1.0" encoding="UTF-8"?>

<!-- generated on Wed Jan 30 09:02:26 2019 by Eclipse SUMO Version v1_0_1+0645-93703db
This data file and the accompanying materials
are made available under the terms of the Eclipse Public License v2.0
which accompanies this distribution, and is available at
http://www.eclipse.org/legal/epl-v20.html
SPDX-License-Identifier: EPL-2.0
<configuration xmlns:xsi="http://www.w3.org/2001/XMLSchema-instance" xsi:noNamespaceSchemaLocation="http://sumo.dlr.de/xsd/sumoConfiguration.xsd">

    <input>
        <net-file value="net.net.xml"/>
        <route-files value="input_routes.rou.xml"/>
    </input>

    <output>
        <write-license value="true"/>
        <tripinfo-output value="tripinfos.xml"/>
    </output>

    <processing>
        <default.speeddev value="0"/>
    </processing>

    <report>
        <xml-validation value="never"/>
        <duration-log.disable value="true"/>
        <no-step-log value="true"/>
    </report>

</configuration>
-->

<tripinfos xmlns:xsi="http://www.w3.org/2001/XMLSchema-instance" xsi:noNamespaceSchemaLocation="http://sumo.dlr.de/xsd/tripinfo_file.xsd">
    <tripinfo id="right" depart="0.00" departLane="beg_0" departPos="388.50" departSpeed="2.00" departDelay="0.00" arrival="87.00" arrivalLane="end_0" arrivalPos="1098.50" arrivalSpeed="13.42" duration="87.00" routeLength="1112.23" waitingTime="0.00" waitingCount="0" stopTime="0.00" timeLoss="6.22" rerouteNo="0" devices="tripinfo_right" vType="DEFAULT_VEHTYPE" speedFactor="1.00" vaporized=""/>
    <tripinfo id="left" depart="0.00" departLane="beg_1" departPos="388.50" departSpeed="2.00" departDelay="0.00" arrival="89.00" arrivalLane="end_0" arrivalPos="1098.50" arrivalSpeed="12.82" duration="89.00" routeLength="1112.23" waitingTime="2.00" waitingCount="1" stopTime="0.00" timeLoss="8.60" rerouteNo="0" devices="tripinfo_left" vType="DEFAULT_VEHTYPE" speedFactor="1.00" vaporized=""/>
</tripinfos>
