<?xml version="1.0" encoding="UTF-8"?>

<!-- generated on Wed Nov 29 23:26:50 2017 by SUMO Version v0_31_0+1360-2e3e85c
<?xml version="1.0" encoding="UTF-8"?>

<configuration xmlns:xsi="http://www.w3.org/2001/XMLSchema-instance" xsi:noNamespaceSchemaLocation="http://sumo.dlr.de/xsd/sumoConfiguration.xsd">

    <input>
        <net-file value="net.net.xml"/>
        <route-files value="input_routes.rou.xml"/>
        <additional-files value="input_additional.add.xml"/>
    </input>

    <output>
        <tripinfo-output value="tripinfos.xml"/>
    </output>

    <report>
        <xml-validation value="never"/>
        <duration-log.disable value="true"/>
        <no-step-log value="true"/>
    </report>

</configuration>
-->

<tripinfos xmlns:xsi="http://www.w3.org/2001/XMLSchema-instance" xsi:noNamespaceSchemaLocation="http://sumo.dlr.de/xsd/tripinfo_file.xsd">
    <tripinfo id="v.0" depart="0.00" departLane="a_0" departPos="5.10" departSpeed="0.00" departDelay="0.00" arrival="114.00" arrivalLane="c_0" arrivalPos="234.85" arrivalSpeed="13.89" duration="114.00" routeLength="842.56" waitSteps="20" timeLoss="30.78" rerouteNo="0" devices="tripinfo_v.0" vType="DEFAULT_VEHTYPE" speedFactor="1.00" vaporized=""/>
    <tripinfo id="v.1" depart="2.00" departLane="a_0" departPos="5.10" departSpeed="0.00" departDelay="0.00" arrival="141.00" arrivalLane="c_0" arrivalPos="234.85" arrivalSpeed="13.89" duration="139.00" routeLength="842.56" waitSteps="39" timeLoss="55.78" rerouteNo="0" devices="tripinfo_v.1" vType="DEFAULT_VEHTYPE" speedFactor="1.00" vaporized=""/>
    <tripinfo id="v.2" depart="5.00" departLane="a_0" departPos="5.10" departSpeed="0.00" departDelay="1.00" arrival="164.00" arrivalLane="c_0" arrivalPos="234.85" arrivalSpeed="13.89" duration="159.00" routeLength="842.56" waitSteps="60" timeLoss="75.94" rerouteNo="0" devices="tripinfo_v.2" vType="DEFAULT_VEHTYPE" speedFactor="1.00" vaporized=""/>
    <tripinfo id="v.3" depart="7.00" departLane="a_0" departPos="5.10" departSpeed="0.00" departDelay="1.00" arrival="187.00" arrivalLane="c_0" arrivalPos="234.85" arrivalSpeed="13.89" duration="180.00" routeLength="842.56" waitSteps="77" timeLoss="97.08" rerouteNo="0" devices="tripinfo_v.3" vType="DEFAULT_VEHTYPE" speedFactor="1.00" vaporized=""/>
</tripinfos>
