<?xml version="1.0" encoding="UTF-8"?>

<!-- generated on 2026-04-23T14:29:33.476573+01:00 by Eclipse SUMO sumo v1_26_0+1357-4cb6fe19152
This data file and the accompanying materials
are made available under the terms of the Eclipse Public License v2.0
which accompanies this distribution, and is available at
http://www.eclipse.org/legal/epl-v20.html
This file may also be made available under the following Secondary
Licenses when the conditions for such availability set forth in the Eclipse
Public License 2.0 are satisfied: GNU General Public License, version 2
or later which is available at
https://www.gnu.org/licenses/old-licenses/gpl-2.0-standalone.html
SPDX-License-Identifier: EPL-2.0 OR GPL-2.0-or-later
<sumoConfiguration xmlns:xsi="http://www.w3.org/2001/XMLSchema-instance" xsi:noNamespaceSchemaLocation="http://sumo.dlr.de/xsd/sumoConfiguration.xsd">

    <input>
        <net-file value="net.net.xml"/>
        <route-files value="input_routes.rou.xml"/>
        <additional-files value="input_additional.add.xml"/>
    </input>

    <output>
        <write-license value="true"/>
        <tripinfo-output value="tripinfos.xml"/>
    </output>

    <processing>
        <default.departspeed value="0"/>
        <default.departlane value="first"/>
        <default.speeddev value="0"/>
    </processing>

    <report>
        <xml-validation value="never"/>
        <duration-log.disable value="true"/>
        <no-step-log value="true"/>
    </report>

</sumoConfiguration>
-->

<tripinfos xmlns:xsi="http://www.w3.org/2001/XMLSchema-instance" xsi:noNamespaceSchemaLocation="http://sumo.dlr.de/xsd/tripinfo_file.xsd">
    <tripinfo id="v.0" depart="0.00" departLane="a_0" departPos="5.10" departSpeed="0.00" departDelay="0.00" arrival="112.00" arrivalLane="c_0" arrivalPos="234.85" arrivalSpeed="13.89" duration="112.00" routeLength="842.56" waitingTime="20.00" waitingCount="1" stopTime="20.00" timeLoss="24.20" rerouteNo="1" devices="tripinfo_v.0" vType="DEFAULT_VEHTYPE" speedFactor="1.00" vaporized=""/>
    <tripinfo id="v.1" depart="2.00" departLane="a_0" departPos="5.10" departSpeed="0.00" departDelay="0.00" arrival="132.00" arrivalLane="c_0" arrivalPos="234.85" arrivalSpeed="13.89" duration="130.00" routeLength="842.56" waitingTime="36.00" waitingCount="3" stopTime="20.00" timeLoss="42.71" rerouteNo="1" devices="tripinfo_v.1" vType="DEFAULT_VEHTYPE" speedFactor="1.00" vaporized=""/>
    <tripinfo id="v.2" depart="5.00" departLane="a_0" departPos="5.10" departSpeed="0.00" departDelay="1.00" arrival="152.00" arrivalLane="c_0" arrivalPos="234.85" arrivalSpeed="13.89" duration="147.00" routeLength="842.56" waitingTime="51.00" waitingCount="4" stopTime="20.00" timeLoss="62.43" rerouteNo="1" devices="tripinfo_v.2" vType="DEFAULT_VEHTYPE" speedFactor="1.00" vaporized=""/>
    <tripinfo id="v.3" depart="7.00" departLane="a_0" departPos="5.10" departSpeed="0.00" departDelay="1.00" arrival="178.00" arrivalLane="c_0" arrivalPos="234.85" arrivalSpeed="13.89" duration="171.00" routeLength="842.56" waitingTime="68.00" waitingCount="5" stopTime="20.00" timeLoss="84.11" rerouteNo="1" devices="tripinfo_v.3" vType="DEFAULT_VEHTYPE" speedFactor="1.00" vaporized=""/>
</tripinfos>
