<?xml version="1.0" encoding="UTF-8"?>

<!-- generated on 10/30/15 22:46:46 by SUMO Version dev-SVN-r19224
<?xml version="1.0" encoding="UTF-8"?>

<configuration xmlns:xsi="http://www.w3.org/2001/XMLSchema-instance" xsi:noNamespaceSchemaLocation="http://sumo.dlr.de/xsd/sumoConfiguration.xsd">

    <input>
        <net-file value="net.net.xml"/>
        <additional-files value="input_additional.add.xml,input_additional2.add.xml"/>
    </input>

    <output>
        <netstate-dump value="rawdump.xml"/>
    </output>

    <processing>
        <pedestrian.model value="striping"/>
        <pedestrian.striping.dawdling value="0"/>
    </processing>

    <report>
        <xml-validation value="never"/>
        <no-step-log value="true"/>
    </report>

</configuration>
-->

<netstate xmlns:xsi="http://www.w3.org/2001/XMLSchema-instance" xsi:noNamespaceSchemaLocation="http://sumo.dlr.de/xsd/netstate_file.xsd">
    <timestep time="0.00">
        <edge id="SC">
            <person id="p0" pos="65.40" angle="0.00" stage="walking"/>
        </edge>
    </timestep>
    <timestep time="1.00">
        <edge id="SC">
            <person id="p0" pos="66.79" angle="0.00" stage="walking"/>
        </edge>
    </timestep>
    <timestep time="2.00">
        <edge id="SC">
            <person id="p0" pos="68.18" angle="0.00" stage="walking"/>
        </edge>
    </timestep>
    <timestep time="3.00">
        <edge id="SC">
            <person id="p0" pos="69.57" angle="0.00" stage="walking"/>
        </edge>
    </timestep>
    <timestep time="4.00">
        <edge id="SC">
            <person id="p0" pos="70.96" angle="0.00" stage="walking"/>
        </edge>
    </timestep>
    <timestep time="5.00">
        <edge id="SC">
            <person id="p0" pos="72.34" angle="0.00" stage="walking"/>
        </edge>
    </timestep>
    <timestep time="6.00">
        <edge id="SC">
            <person id="p0" pos="73.73" angle="0.00" stage="walking"/>
        </edge>
    </timestep>
    <timestep time="7.00">
        <edge id="SC">
            <person id="p0" pos="75.12" angle="0.00" stage="walking"/>
        </edge>
    </timestep>
    <timestep time="8.00">
        <edge id="SC">
            <person id="p0" pos="76.51" angle="0.00" stage="walking"/>
        </edge>
    </timestep>
    <timestep time="9.00">
        <edge id="SC">
            <person id="p0" pos="77.90" angle="0.00" stage="walking"/>
        </edge>
    </timestep>
    <timestep time="10.00">
        <edge id="SC">
            <person id="p0" pos="79.29" angle="0.00" stage="walking"/>
        </edge>
    </timestep>
    <timestep time="11.00">
        <edge id="SC">
            <person id="p0" pos="80.68" angle="0.00" stage="walking"/>
        </edge>
    </timestep>
    <timestep time="12.00">
        <edge id="SC">
            <person id="p0" pos="82.07" angle="0.00" stage="walking"/>
        </edge>
    </timestep>
    <timestep time="13.00">
        <edge id="SC">
            <person id="p0" pos="83.46" angle="0.00" stage="walking"/>
        </edge>
    </timestep>
    <timestep time="14.00">
        <edge id="SC">
            <person id="p0" pos="84.84" angle="0.00" stage="walking"/>
        </edge>
    </timestep>
    <timestep time="15.00">
        <edge id=":C_w2">
            <person id="p0" pos="0.83" angle="0.00" stage="walking"/>
        </edge>
    </timestep>
    <timestep time="16.00">
        <edge id=":C_w2">
            <person id="p0" pos="2.22" angle="299.79" stage="walking"/>
        </edge>
    </timestep>
    <timestep time="17.00">
        <edge id=":C_w2">
            <person id="p0" pos="3.61" angle="270.00" stage="walking"/>
        </edge>
    </timestep>
    <timestep time="18.00">
        <edge id=":C_c2">
            <person id="p0" pos="14.82" angle="270.00" stage="walking"/>
        </edge>
    </timestep>
    <timestep time="19.00">
        <edge id=":C_c2">
            <person id="p0" pos="13.43" angle="270.00" stage="walking"/>
        </edge>
    </timestep>
    <timestep time="20.00">
        <edge id=":C_c2">
            <person id="p0" pos="12.04" angle="270.00" stage="walking"/>
        </edge>
    </timestep>
    <timestep time="21.00">
        <edge id=":C_c2">
            <person id="p0" pos="10.65" angle="270.00" stage="walking"/>
        </edge>
    </timestep>
    <timestep time="22.00">
        <edge id=":C_c2">
            <person id="p0" pos="9.26" angle="270.00" stage="walking"/>
        </edge>
    </timestep>
    <timestep time="23.00">
        <edge id=":C_c2">
            <person id="p0" pos="7.87" angle="270.00" stage="walking"/>
        </edge>
    </timestep>
    <timestep time="24.00">
        <edge id=":C_c2">
            <person id="p0" pos="6.48" angle="270.00" stage="walking"/>
        </edge>
    </timestep>
    <timestep time="25.00">
        <edge id=":C_c2">
            <person id="p0" pos="5.09" angle="270.00" stage="walking"/>
        </edge>
    </timestep>
    <timestep time="26.00">
        <edge id=":C_c2">
            <person id="p0" pos="3.71" angle="270.00" stage="walking"/>
        </edge>
    </timestep>
    <timestep time="27.00">
        <edge id=":C_c2">
            <person id="p0" pos="2.32" angle="270.00" stage="walking"/>
        </edge>
    </timestep>
    <timestep time="28.00">
        <edge id=":C_c2">
            <person id="p0" pos="0.93" angle="270.00" stage="walking"/>
        </edge>
    </timestep>
    <timestep time="29.00">
        <edge id=":C_w3">
            <person id="p0" pos="4.05" angle="270.00" stage="walking"/>
        </edge>
    </timestep>
    <timestep time="30.00">
        <edge id=":C_w3">
            <person id="p0" pos="2.67" angle="240.21" stage="walking"/>
        </edge>
    </timestep>
    <timestep time="31.00">
        <edge id=":C_w3">
            <person id="p0" pos="1.28" angle="240.21" stage="walking"/>
        </edge>
    </timestep>
    <timestep time="32.00">
        <edge id="CS">
            <person id="p0" pos="0.11" angle="180.00" stage="walking"/>
        </edge>
    </timestep>
    <timestep time="33.00">
        <edge id="CS">
            <person id="p0" pos="1.50" angle="180.00" stage="walking"/>
        </edge>
    </timestep>
    <timestep time="34.00">
        <edge id="CS">
            <person id="p0" pos="2.89" angle="180.00" stage="walking"/>
        </edge>
    </timestep>
    <timestep time="35.00">
        <edge id="CS">
            <person id="p0" pos="4.28" angle="180.00" stage="walking"/>
        </edge>
    </timestep>
    <timestep time="36.00">
        <edge id="CS">
            <person id="p0" pos="5.67" angle="180.00" stage="walking"/>
        </edge>
    </timestep>
    <timestep time="37.00">
        <edge id="CS">
            <person id="p0" pos="7.06" angle="180.00" stage="walking"/>
        </edge>
    </timestep>
    <timestep time="38.00">
        <edge id="CS">
            <person id="p0" pos="8.45" angle="180.00" stage="walking"/>
        </edge>
    </timestep>
    <timestep time="39.00">
        <edge id="CS">
            <person id="p0" pos="9.83" angle="180.00" stage="walking"/>
        </edge>
    </timestep>
    <timestep time="40.00">
        <edge id="CS">
            <person id="p0" pos="11.22" angle="180.00" stage="walking"/>
        </edge>
    </timestep>
    <timestep time="41.00">
        <edge id="CS">
            <person id="p0" pos="12.61" angle="180.00" stage="walking"/>
        </edge>
    </timestep>
    <timestep time="42.00">
        <edge id="CS">
            <person id="p0" pos="14.00" angle="180.00" stage="walking"/>
        </edge>
    </timestep>
    <timestep time="43.00">
        <edge id="CS">
            <person id="p0" pos="15.39" angle="180.00" stage="walking"/>
        </edge>
    </timestep>
    <timestep time="44.00">
        <edge id="CS">
            <person id="p0" pos="16.78" angle="180.00" stage="walking"/>
        </edge>
    </timestep>
    <timestep time="45.00">
        <edge id="CS">
            <person id="p0" pos="18.17" angle="180.00" stage="walking"/>
        </edge>
    </timestep>
    <timestep time="46.00">
        <edge id="CS">
            <person id="p0" pos="19.56" angle="180.00" stage="walking"/>
        </edge>
    </timestep>
    <timestep time="47.00"/>
</netstate>
