<?xml version="1.0" encoding="UTF-8"?>

<!-- generated on Thu Nov  2 15:38:07 2017 by SUMO Version v0_31_0-870-g7affc8e
<?xml version="1.0" encoding="UTF-8"?>

<configuration xmlns:xsi="http://www.w3.org/2001/XMLSchema-instance" xsi:noNamespaceSchemaLocation="http://sumo.dlr.de/xsd/sumoConfiguration.xsd">

    <input>
        <net-file value="net.net.xml"/>
        <route-files value="input_routes.rou.xml"/>
        <additional-files value="input_additional.add.xml"/>
    </input>

    <output>
        <vehroute-output value="vehroutes.xml"/>
    </output>

    <report>
        <xml-validation value="never"/>
        <duration-log.disable value="true"/>
        <no-step-log value="true"/>
    </report>

    <mesoscopic>
        <mesosim value="true"/>
    </mesoscopic>

</configuration>
-->

<meandata xmlns:xsi="http://www.w3.org/2001/XMLSchema-instance" xsi:noNamespaceSchemaLocation="http://sumo.dlr.de/xsd/meandata_file.xsd">
    <interval begin="0.00" end="227.00" id="ed">
        <edge id="beg" sampledSeconds="2423.86" traveltime="36.18" overlapTraveltime="36.63" density="26.79" occupancy="6.70" waitingTime="0.00" speed="11.02" departed="67" arrived="0" entered="0" left="67" laneChangedFrom="0" laneChangedTo="0"/>
        <edge id="end" sampledSeconds="5299.03" traveltime="79.09" overlapTraveltime="79.45" density="21.25" occupancy="10.63" waitingTime="0.00" speed="13.89" departed="0" arrived="67" entered="67" left="0" laneChangedFrom="0" laneChangedTo="0"/>
    </interval>
</meandata>
