<?xml version="1.0" encoding="UTF-8"?>

<!-- generated on 2022-04-04 12:20:53 by Eclipse SUMO sumo Version v1_12_0+1914-2b49265
This data file and the accompanying materials
are made available under the terms of the Eclipse Public License v2.0
which accompanies this distribution, and is available at
http://www.eclipse.org/legal/epl-v20.html
This file may also be made available under the following Secondary
Licenses when the conditions for such availability set forth in the Eclipse
Public License 2.0 are satisfied: GNU General Public License, version 2
or later which is available at
https://www.gnu.org/licenses/old-licenses/gpl-2.0-standalone.html
SPDX-License-Identifier: EPL-2.0 OR GPL-2.0-or-later
<configuration xmlns:xsi="http://www.w3.org/2001/XMLSchema-instance" xsi:noNamespaceSchemaLocation="http://sumo.dlr.de/xsd/sumoConfiguration.xsd">

    <input>
        <net-file value="net.net.xml"/>
        <route-files value="input_routes.rou.xml"/>
        <additional-files value="input_additional.add.xml"/>
    </input>

    <output>
        <write-license value="true"/>
        <vehroute-output value="vehroutes.xml"/>
    </output>

    <processing>
        <default.speeddev value="0"/>
    </processing>

    <report>
        <verbose value="true"/>
        <xml-validation value="never"/>
        <xml-validation.routes value="never"/>
        <duration-log.statistics value="true"/>
        <no-step-log value="true"/>
    </report>

</configuration>
-->

<meandata xmlns:xsi="http://www.w3.org/2001/XMLSchema-instance" xsi:noNamespaceSchemaLocation="http://sumo.dlr.de/xsd/meandata_file.xsd">
    <interval begin="0.00" end="248.00" id="ed">
        <edge id="beg" sampledSeconds="3101.49" traveltime="46.51" overlapTraveltime="46.88" density="31.38" laneDensity="15.69" occupancy="7.81" waitingTime="0.00" timeLoss="1179.76" speed="8.61" speedRelative="0.62" departed="67" arrived="0" entered="0" left="67" laneChangedFrom="1" laneChangedTo="1"/>
        <edge id="end" sampledSeconds="5605.34" traveltime="83.36" overlapTraveltime="83.73" density="20.58" laneDensity="20.58" occupancy="10.25" waitingTime="0.00" timeLoss="287.12" speed="13.18" speedRelative="0.95" departed="0" arrived="67" entered="67" left="0" laneChangedFrom="0" laneChangedTo="0"/>
    </interval>
</meandata>
