<?xml version="1.0" encoding="UTF-8"?>

<!-- generated on Mon Aug 27 12:57:05 2018 by Eclipse SUMO Version cac3710
This data file and the accompanying materials
are made available under the terms of the Eclipse Public License v2.0
which accompanies this distribution, and is available at
http://www.eclipse.org/legal/epl-v20.html
SPDX-License-Identifier: EPL-2.0
<configuration xmlns:xsi="http://www.w3.org/2001/XMLSchema-instance" xsi:noNamespaceSchemaLocation="http://sumo.dlr.de/xsd/sumoConfiguration.xsd">

    <input>
        <net-file value="net.net.xml"/>
        <route-files value="input_routes.rou.xml"/>
        <additional-files value="input_additional.add.xml"/>
    </input>

    <output>
        <write-license value="true"/>
        <vehroute-output value="vehroutes.xml"/>
    </output>

    <processing>
        <default.speeddev value="0"/>
    </processing>

    <report>
        <xml-validation value="never"/>
        <duration-log.disable value="true"/>
        <no-step-log value="true"/>
    </report>

</configuration>
-->

<meandata xmlns:xsi="http://www.w3.org/2001/XMLSchema-instance" xsi:noNamespaceSchemaLocation="http://sumo.dlr.de/xsd/meandata_file.xsd">
    <interval begin="0.00" end="274.00" id="ed">
        <edge id="beg" sampledSeconds="3503.25" traveltime="52.40" overlapTraveltime="52.96" density="32.08" occupancy="7.98" waitingTime="25.00" speed="7.62" departed="67" arrived="0" entered="0" left="67" laneChangedFrom="0" laneChangedTo="0"/>
        <edge id="end" sampledSeconds="5625.08" traveltime="83.65" overlapTraveltime="84.03" density="18.69" occupancy="9.30" waitingTime="0.00" speed="13.13" departed="0" arrived="67" entered="67" left="0" laneChangedFrom="0" laneChangedTo="0"/>
    </interval>
</meandata>
