<?xml version="1.0" encoding="UTF-8"?>

<!-- generated on Thu Nov  2 10:46:10 2017 by SUMO Version v0_31_0-860-g677ac9f
<?xml version="1.0" encoding="UTF-8"?>

<configuration xmlns:xsi="http://www.w3.org/2001/XMLSchema-instance" xsi:noNamespaceSchemaLocation="http://sumo.dlr.de/xsd/sumoConfiguration.xsd">

    <input>
        <net-file value="net.net.xml"/>
        <route-files value="input_routes.rou.xml"/>
        <additional-files value="input_additional.add.xml"/>
    </input>

    <output>
        <vehroute-output value="vehroutes.xml"/>
    </output>

    <report>
        <xml-validation value="never"/>
        <duration-log.disable value="true"/>
        <no-step-log value="true"/>
    </report>

</configuration>
-->

<meandata xmlns:xsi="http://www.w3.org/2001/XMLSchema-instance" xsi:noNamespaceSchemaLocation="http://sumo.dlr.de/xsd/meandata_file.xsd">
    <interval begin="0.00" end="253.00" id="ed">
        <edge id="beg" sampledSeconds="2889.75" traveltime="43.16" overlapTraveltime="43.68" density="28.66" occupancy="7.12" waitingTime="10.00" speed="9.24" departed="67" arrived="0" entered="0" left="67" laneChangedFrom="0" laneChangedTo="0"/>
        <edge id="end" sampledSeconds="5642.49" traveltime="83.93" overlapTraveltime="84.31" density="20.30" occupancy="10.11" waitingTime="0.00" speed="13.09" departed="0" arrived="67" entered="67" left="0" laneChangedFrom="0" laneChangedTo="0"/>
    </interval>
</meandata>
