<?xml version="1.0" encoding="UTF-8"?>

<!-- generated on 2025-11-02T21:46:01.811555+01:00 by Eclipse SUMO sumo v1_24_0+1715-28a54f8871d
This data file and the accompanying materials
are made available under the terms of the Eclipse Public License v2.0
which accompanies this distribution, and is available at
http://www.eclipse.org/legal/epl-v20.html
This file may also be made available under the following Secondary
Licenses when the conditions for such availability set forth in the Eclipse
Public License 2.0 are satisfied: GNU General Public License, version 2
or later which is available at
https://www.gnu.org/licenses/old-licenses/gpl-2.0-standalone.html
SPDX-License-Identifier: EPL-2.0 OR GPL-2.0-or-later
<sumoConfiguration xmlns:xsi="http://www.w3.org/2001/XMLSchema-instance" xsi:noNamespaceSchemaLocation="http://sumo.dlr.de/xsd/sumoConfiguration.xsd">

    <input>
        <net-file value="net.net.xml"/>
        <route-files value="input_routes.rou.xml"/>
        <additional-files value="input_additional.add.xml"/>
    </input>

    <output>
        <write-license value="true"/>
        <vehroute-output value="vehroutes.xml"/>
    </output>

    <processing>
        <default.speeddev value="0"/>
    </processing>

    <report>
        <xml-validation value="never"/>
        <duration-log.statistics value="true"/>
        <no-step-log value="true"/>
    </report>

    <mesoscopic>
        <mesosim value="true"/>
    </mesoscopic>

</sumoConfiguration>
-->

<meandata xmlns:xsi="http://www.w3.org/2001/XMLSchema-instance" xsi:noNamespaceSchemaLocation="http://sumo.dlr.de/xsd/meandata_file.xsd">
    <interval begin="0.00" end="219.00" id="ed">
        <edge id="beg" sampledSeconds="2310.04" traveltime="34.48" overlapTraveltime="34.91" density="26.47" overlapDensity="26.47" laneDensity="13.23" occupancy="6.62" waitingTime="50.92" timeLoss="387.92" speed="11.56" speedRelative="0.83" departed="67" arrived="0" entered="0" left="67" laneChangedFrom="0" laneChangedTo="0" flow="1101.37"/>
        <edge id="end" sampledSeconds="5301.24" traveltime="79.12" overlapTraveltime="79.48" density="22.04" overlapDensity="22.04" laneDensity="22.04" occupancy="11.02" waitingTime="0.00" timeLoss="2.50" speed="13.88" speedRelative="1.00" departed="0" arrived="67" entered="67" left="0" laneChangedFrom="0" laneChangedTo="0" flow="1101.37"/>
    </interval>
</meandata>
