<?xml version="1.0" encoding="UTF-8"?>

<!-- generated on Mon Mar  3 10:27:59 2014 by SUMO sumo Version dev-SVN-r15793
<?xml version="1.0" encoding="UTF-8"?>

<configuration xmlns:xsi="http://www.w3.org/2001/XMLSchema-instance" xsi:noNamespaceSchemaLocation="http://sumo-sim.org/xsd/sumoConfiguration.xsd">

    <input>
        <net-file value="net.net.xml"/>
        <route-files value="input_routes.rou.xml"/>
    </input>

    <output>
        <vehroute-output value="vehroutes.xml"/>
        <vehroute-output.exit-times value="true"/>
    </output>

    <time>
        <begin value="0"/>
        <end value="1000"/>
    </time>

    <report>
        <xml-validation value="never"/>
        <no-duration-log value="true"/>
        <no-step-log value="true"/>
    </report>

</configuration>
-->

<routes xmlns:xsi="http://www.w3.org/2001/XMLSchema-instance" xsi:noNamespaceSchemaLocation="http://sumo-sim.org/xsd/routes_file.xsd">
    <vehicle id="1" depart="1.00" arrival="471.00">
        <route edges="0/1to1/1 1/1to2/1 2/1to3/1" exitTimes="344.00 430.00 471.00"/>
    </vehicle>

    <vehicle id="0" depart="0.00" arrival="583.00">
        <route edges="1/1to2/1 2/1to3/1" exitTimes="543.00 583.00"/>
    </vehicle>

</routes>
