<?xml version="1.0" encoding="UTF-8"?>

<!-- generated on 2023-06-07 22:16:01 by Eclipse SUMO sumo Version v1_17_0+0814-370e580
<configuration xmlns:xsi="http://www.w3.org/2001/XMLSchema-instance" xsi:noNamespaceSchemaLocation="http://sumo.dlr.de/xsd/sumoConfiguration.xsd">

    <input>
        <net-file value="input_net2.net.xml"/>
    </input>

    <output>
        <tripinfo-output value="tripinfo.xml"/>
        <vehroute-output value="vehroutes.xml"/>
    </output>

    <report>
        <no-step-log value="true"/>
    </report>

    <traci_server>
        <remote-port value="57286"/>
    </traci_server>

</configuration>
-->

<routes xmlns:xsi="http://www.w3.org/2001/XMLSchema-instance" xsi:noNamespaceSchemaLocation="http://sumo.dlr.de/xsd/routes_file.xsd">
    <person id="p0" depart="triggered" arrival="18.00">
        <ride from="SC" to="CN" arrivalPos="91.95" lines="v0"/>
    </person>

    <vehicle id="v0" depart="0.00" arrival="18.00">
        <route edges="SC CN"/>
    </vehicle>

</routes>
