<?xml version="1.0" encoding="UTF-8"?>

<!-- generated on Wed Aug  9 10:57:37 2017 by SUMO Version dev-SVN-r25518
<?xml version="1.0" encoding="UTF-8"?>

<configuration xmlns:xsi="http://www.w3.org/2001/XMLSchema-instance" xsi:noNamespaceSchemaLocation="http://sumo.dlr.de/xsd/sumoConfiguration.xsd">

    <input>
        <net-file value="net.net.xml"/>
        <route-files value="input_routes.rou.xml"/>
    </input>

    <output>
        <fcd-output value="fcd.xml"/>
        <tripinfo-output value="tripinfos.xml"/>
        <lanechange-output value="lanechanges.xml"/>
    </output>

    <processing>
        <lateral-resolution value="0.4"/>
    </processing>

    <report>
        <verbose value="true"/>
        <xml-validation value="never"/>
        <duration-log.statistics value="true"/>
        <no-step-log value="true"/>
    </report>

</configuration>
-->

<fcd-export xmlns:xsi="http://www.w3.org/2001/XMLSchema-instance" xsi:noNamespaceSchemaLocation="http://sumo.dlr.de/xsd/fcd_file.xsd">
    <timestep time="0.00">
        <vehicle id="B1" x="120.00" y="-1.65" angle="90.00" type="tBlocker" speed="33.33" pos="120.00" lane="beg_1" slope="0.00"/>
        <vehicle id="B2" x="30.00" y="-1.65" angle="90.00" type="tBlocker" speed="33.33" pos="30.00" lane="beg_1" slope="0.00"/>
        <vehicle id="L" x="200.00" y="-4.95" angle="90.00" type="tLeader" speed="20.00" pos="200.00" lane="beg_0" slope="0.00"/>
        <vehicle id="ego" x="80.00" y="-4.95" angle="90.00" type="tEgo" speed="33.33" pos="80.00" lane="beg_0" slope="0.00"/>
    </timestep>
    <timestep time="1.00">
        <vehicle id="B1" x="153.33" y="-1.65" angle="90.00" type="tBlocker" speed="33.33" pos="153.33" lane="beg_1" slope="0.00"/>
        <vehicle id="B2" x="63.33" y="-1.65" angle="90.00" type="tBlocker" speed="33.33" pos="63.33" lane="beg_1" slope="0.00"/>
        <vehicle id="L" x="220.00" y="-4.95" angle="90.00" type="tLeader" speed="20.00" pos="220.00" lane="beg_0" slope="0.00"/>
        <vehicle id="ego" x="113.33" y="-4.95" angle="90.00" type="tEgo" speed="33.33" pos="113.33" lane="beg_0" slope="0.00"/>
    </timestep>
    <timestep time="2.00">
        <vehicle id="B1" x="186.66" y="-1.65" angle="90.00" type="tBlocker" speed="33.33" pos="186.66" lane="beg_1" slope="0.00"/>
        <vehicle id="B2" x="96.66" y="-1.65" angle="90.00" type="tBlocker" speed="33.33" pos="96.66" lane="beg_1" slope="0.00"/>
        <vehicle id="L" x="240.00" y="-4.95" angle="90.00" type="tLeader" speed="20.00" pos="240.00" lane="beg_0" slope="0.00"/>
        <vehicle id="ego" x="145.59" y="-4.95" angle="90.00" type="tEgo" speed="32.26" pos="145.59" lane="beg_0" slope="0.00"/>
    </timestep>
    <timestep time="3.00">
        <vehicle id="B1" x="219.99" y="-1.65" angle="90.00" type="tBlocker" speed="33.33" pos="219.99" lane="beg_1" slope="0.00"/>
        <vehicle id="B2" x="129.99" y="-1.65" angle="90.00" type="tBlocker" speed="33.33" pos="129.99" lane="beg_1" slope="0.00"/>
        <vehicle id="L" x="260.00" y="-4.95" angle="90.00" type="tLeader" speed="20.00" pos="260.00" lane="beg_0" slope="0.00"/>
        <vehicle id="ego" x="176.20" y="-3.95" angle="88.39" type="tEgo" speed="30.62" pos="176.20" lane="beg_0" slope="0.00"/>
    </timestep>
    <timestep time="4.00">
        <vehicle id="B1" x="253.32" y="-1.65" angle="90.00" type="tBlocker" speed="33.33" pos="253.32" lane="beg_1" slope="0.00"/>
        <vehicle id="B2" x="163.32" y="-1.65" angle="90.00" type="tBlocker" speed="33.33" pos="163.32" lane="beg_1" slope="0.00"/>
        <vehicle id="L" x="280.00" y="-4.95" angle="90.00" type="tLeader" speed="20.00" pos="280.00" lane="beg_0" slope="0.00"/>
        <vehicle id="ego" x="209.42" y="-2.85" angle="88.50" type="tEgo" speed="33.22" pos="209.42" lane="beg_1" slope="0.00"/>
    </timestep>
    <timestep time="5.00">
        <vehicle id="B1" x="286.65" y="-1.65" angle="90.00" type="tBlocker" speed="33.33" pos="286.65" lane="beg_1" slope="0.00"/>
        <vehicle id="B2" x="196.65" y="-1.65" angle="90.00" type="tBlocker" speed="33.33" pos="196.65" lane="beg_1" slope="0.00"/>
        <vehicle id="L" x="300.00" y="-4.95" angle="90.00" type="tLeader" speed="20.00" pos="300.00" lane="beg_0" slope="0.00"/>
        <vehicle id="ego" x="242.75" y="-1.85" angle="88.51" type="tEgo" speed="33.33" pos="242.75" lane="beg_1" slope="0.00"/>
    </timestep>
    <timestep time="6.00">
        <vehicle id="B1" x="319.98" y="-1.65" angle="90.00" type="tBlocker" speed="33.33" pos="319.98" lane="beg_1" slope="0.00"/>
        <vehicle id="B2" x="229.98" y="-1.65" angle="90.00" type="tBlocker" speed="33.33" pos="229.98" lane="beg_1" slope="0.00"/>
        <vehicle id="L" x="320.00" y="-5.15" angle="90.43" type="tLeader" speed="20.00" pos="320.00" lane="beg_0" slope="0.00"/>
        <vehicle id="ego" x="276.08" y="-1.65" angle="89.70" type="tEgo" speed="33.33" pos="276.08" lane="beg_1" slope="0.00"/>
    </timestep>
    <timestep time="7.00">
        <vehicle id="B1" x="353.31" y="-1.65" angle="90.00" type="tBlocker" speed="33.33" pos="353.31" lane="beg_1" slope="0.00"/>
        <vehicle id="B2" x="263.31" y="-1.65" angle="90.00" type="tBlocker" speed="33.33" pos="263.31" lane="beg_1" slope="0.00"/>
        <vehicle id="L" x="340.00" y="-4.95" angle="89.57" type="tLeader" speed="20.00" pos="340.00" lane="beg_0" slope="0.00"/>
        <vehicle id="ego" x="309.41" y="-1.65" angle="90.00" type="tEgo" speed="33.33" pos="309.41" lane="beg_1" slope="0.00"/>
    </timestep>
    <timestep time="8.00">
        <vehicle id="B1" x="386.64" y="-1.65" angle="90.00" type="tBlocker" speed="33.33" pos="386.64" lane="beg_1" slope="0.00"/>
        <vehicle id="B2" x="296.64" y="-1.65" angle="90.00" type="tBlocker" speed="33.33" pos="296.64" lane="beg_1" slope="0.00"/>
        <vehicle id="L" x="360.00" y="-4.95" angle="90.00" type="tLeader" speed="20.00" pos="360.00" lane="beg_0" slope="0.00"/>
        <vehicle id="ego" x="342.74" y="-1.65" angle="90.00" type="tEgo" speed="33.33" pos="342.74" lane="beg_1" slope="0.00"/>
    </timestep>
    <timestep time="9.00">
        <vehicle id="B1" x="419.97" y="-1.65" angle="90.00" type="tBlocker" speed="33.33" pos="419.97" lane="beg_1" slope="0.00"/>
        <vehicle id="B2" x="329.97" y="-1.65" angle="90.00" type="tBlocker" speed="33.33" pos="329.97" lane="beg_1" slope="0.00"/>
        <vehicle id="L" x="380.00" y="-4.95" angle="90.00" type="tLeader" speed="20.00" pos="380.00" lane="beg_0" slope="0.00"/>
        <vehicle id="ego" x="376.07" y="-1.65" angle="90.00" type="tEgo" speed="33.33" pos="376.07" lane="beg_1" slope="0.00"/>
    </timestep>
    <timestep time="10.00">
        <vehicle id="B1" x="453.30" y="-1.65" angle="90.00" type="tBlocker" speed="33.33" pos="453.30" lane="beg_1" slope="0.00"/>
        <vehicle id="B2" x="363.30" y="-1.65" angle="90.00" type="tBlocker" speed="33.33" pos="363.30" lane="beg_1" slope="0.00"/>
        <vehicle id="L" x="400.00" y="-4.95" angle="90.00" type="tLeader" speed="20.00" pos="400.00" lane="beg_0" slope="0.00"/>
        <vehicle id="ego" x="409.40" y="-1.65" angle="90.00" type="tEgo" speed="33.33" pos="409.40" lane="beg_1" slope="0.00"/>
    </timestep>
    <timestep time="11.00">
        <vehicle id="B1" x="486.63" y="-1.65" angle="90.00" type="tBlocker" speed="33.33" pos="486.63" lane="beg_1" slope="0.00"/>
        <vehicle id="B2" x="396.63" y="-1.65" angle="90.00" type="tBlocker" speed="33.33" pos="396.63" lane="beg_1" slope="0.00"/>
        <vehicle id="L" x="420.00" y="-4.95" angle="90.00" type="tLeader" speed="20.00" pos="420.00" lane="beg_0" slope="0.00"/>
        <vehicle id="ego" x="442.73" y="-1.65" angle="90.00" type="tEgo" speed="33.33" pos="442.73" lane="beg_1" slope="0.00"/>
    </timestep>
    <timestep time="12.00">
        <vehicle id="B1" x="519.96" y="-1.65" angle="90.00" type="tBlocker" speed="33.33" pos="519.96" lane="beg_1" slope="0.00"/>
        <vehicle id="B2" x="429.96" y="-1.65" angle="90.00" type="tBlocker" speed="33.33" pos="429.96" lane="beg_1" slope="0.00"/>
        <vehicle id="L" x="440.00" y="-4.95" angle="90.00" type="tLeader" speed="20.00" pos="440.00" lane="beg_0" slope="0.00"/>
        <vehicle id="ego" x="476.06" y="-1.65" angle="90.00" type="tEgo" speed="33.33" pos="476.06" lane="beg_1" slope="0.00"/>
    </timestep>
    <timestep time="13.00">
        <vehicle id="B1" x="553.29" y="-1.65" angle="90.00" type="tBlocker" speed="33.33" pos="553.29" lane="beg_1" slope="0.00"/>
        <vehicle id="B2" x="463.29" y="-1.65" angle="90.00" type="tBlocker" speed="33.33" pos="463.29" lane="beg_1" slope="0.00"/>
        <vehicle id="L" x="460.00" y="-5.15" angle="90.43" type="tLeader" speed="20.00" pos="460.00" lane="beg_0" slope="0.00"/>
        <vehicle id="ego" x="509.39" y="-1.65" angle="90.00" type="tEgo" speed="33.33" pos="509.39" lane="beg_1" slope="0.00"/>
    </timestep>
    <timestep time="14.00">
        <vehicle id="B1" x="586.62" y="-1.65" angle="90.00" type="tBlocker" speed="33.33" pos="586.62" lane="beg_1" slope="0.00"/>
        <vehicle id="B2" x="496.62" y="-1.65" angle="90.00" type="tBlocker" speed="33.33" pos="496.62" lane="beg_1" slope="0.00"/>
        <vehicle id="L" x="480.00" y="-4.95" angle="89.57" type="tLeader" speed="20.00" pos="480.00" lane="beg_0" slope="0.00"/>
        <vehicle id="ego" x="542.72" y="-1.65" angle="90.00" type="tEgo" speed="33.33" pos="542.72" lane="beg_1" slope="0.00"/>
    </timestep>
    <timestep time="15.00">
        <vehicle id="B1" x="619.95" y="-1.65" angle="90.00" type="tBlocker" speed="33.33" pos="619.95" lane="beg_1" slope="0.00"/>
        <vehicle id="B2" x="529.95" y="-1.65" angle="90.00" type="tBlocker" speed="33.33" pos="529.95" lane="beg_1" slope="0.00"/>
        <vehicle id="L" x="500.00" y="-4.95" angle="90.00" type="tLeader" speed="20.00" pos="500.00" lane="beg_0" slope="0.00"/>
        <vehicle id="ego" x="576.05" y="-1.65" angle="90.00" type="tEgo" speed="33.33" pos="576.05" lane="beg_1" slope="0.00"/>
    </timestep>
    <timestep time="16.00">
        <vehicle id="B1" x="653.28" y="-1.65" angle="90.00" type="tBlocker" speed="33.33" pos="653.28" lane="beg_1" slope="0.00"/>
        <vehicle id="B2" x="563.28" y="-1.65" angle="90.00" type="tBlocker" speed="33.33" pos="563.28" lane="beg_1" slope="0.00"/>
        <vehicle id="L" x="520.00" y="-4.95" angle="90.00" type="tLeader" speed="20.00" pos="520.00" lane="beg_0" slope="0.00"/>
        <vehicle id="ego" x="609.38" y="-1.65" angle="90.00" type="tEgo" speed="33.33" pos="609.38" lane="beg_1" slope="0.00"/>
    </timestep>
    <timestep time="17.00">
        <vehicle id="B1" x="686.61" y="-1.65" angle="90.00" type="tBlocker" speed="33.33" pos="686.61" lane="beg_1" slope="0.00"/>
        <vehicle id="B2" x="596.61" y="-1.65" angle="90.00" type="tBlocker" speed="33.33" pos="596.61" lane="beg_1" slope="0.00"/>
        <vehicle id="L" x="540.00" y="-4.95" angle="90.00" type="tLeader" speed="20.00" pos="540.00" lane="beg_0" slope="0.00"/>
        <vehicle id="ego" x="642.71" y="-1.65" angle="90.00" type="tEgo" speed="33.33" pos="642.71" lane="beg_1" slope="0.00"/>
    </timestep>
    <timestep time="18.00">
        <vehicle id="B1" x="719.94" y="-1.65" angle="90.00" type="tBlocker" speed="33.33" pos="719.94" lane="beg_1" slope="0.00"/>
        <vehicle id="B2" x="629.94" y="-1.65" angle="90.00" type="tBlocker" speed="33.33" pos="629.94" lane="beg_1" slope="0.00"/>
        <vehicle id="L" x="560.00" y="-4.95" angle="90.00" type="tLeader" speed="20.00" pos="560.00" lane="beg_0" slope="0.00"/>
        <vehicle id="ego" x="676.04" y="-1.65" angle="90.00" type="tEgo" speed="33.33" pos="676.04" lane="beg_1" slope="0.00"/>
    </timestep>
    <timestep time="19.00">
        <vehicle id="B1" x="753.27" y="-1.65" angle="90.00" type="tBlocker" speed="33.33" pos="753.27" lane="beg_1" slope="0.00"/>
        <vehicle id="B2" x="663.27" y="-1.65" angle="90.00" type="tBlocker" speed="33.33" pos="663.27" lane="beg_1" slope="0.00"/>
        <vehicle id="L" x="580.00" y="-4.95" angle="90.00" type="tLeader" speed="20.00" pos="580.00" lane="beg_0" slope="0.00"/>
        <vehicle id="ego" x="709.37" y="-1.65" angle="90.00" type="tEgo" speed="33.33" pos="709.37" lane="beg_1" slope="0.00"/>
    </timestep>
    <timestep time="20.00">
        <vehicle id="B1" x="786.60" y="-1.65" angle="90.00" type="tBlocker" speed="33.33" pos="786.60" lane="beg_1" slope="0.00"/>
        <vehicle id="B2" x="696.60" y="-1.65" angle="90.00" type="tBlocker" speed="33.33" pos="696.60" lane="beg_1" slope="0.00"/>
        <vehicle id="L" x="600.00" y="-4.95" angle="90.00" type="tLeader" speed="20.00" pos="600.00" lane="beg_0" slope="0.00"/>
        <vehicle id="ego" x="742.70" y="-1.65" angle="90.00" type="tEgo" speed="33.33" pos="742.70" lane="beg_1" slope="0.00"/>
    </timestep>
    <timestep time="21.00">
        <vehicle id="B1" x="819.93" y="-1.65" angle="90.00" type="tBlocker" speed="33.33" pos="819.93" lane="beg_1" slope="0.00"/>
        <vehicle id="B2" x="729.93" y="-1.65" angle="90.00" type="tBlocker" speed="33.33" pos="729.93" lane="beg_1" slope="0.00"/>
        <vehicle id="L" x="620.00" y="-4.95" angle="90.00" type="tLeader" speed="20.00" pos="620.00" lane="beg_0" slope="0.00"/>
        <vehicle id="ego" x="776.03" y="-1.65" angle="90.00" type="tEgo" speed="33.33" pos="776.03" lane="beg_1" slope="0.00"/>
    </timestep>
    <timestep time="22.00">
        <vehicle id="B1" x="853.26" y="-1.65" angle="90.00" type="tBlocker" speed="33.33" pos="853.26" lane="beg_1" slope="0.00"/>
        <vehicle id="B2" x="763.26" y="-1.65" angle="90.00" type="tBlocker" speed="33.33" pos="763.26" lane="beg_1" slope="0.00"/>
        <vehicle id="L" x="640.00" y="-4.95" angle="90.00" type="tLeader" speed="20.00" pos="640.00" lane="beg_0" slope="0.00"/>
        <vehicle id="ego" x="809.36" y="-1.65" angle="90.00" type="tEgo" speed="33.33" pos="809.36" lane="beg_1" slope="0.00"/>
    </timestep>
    <timestep time="23.00">
        <vehicle id="B1" x="886.59" y="-1.65" angle="90.00" type="tBlocker" speed="33.33" pos="886.59" lane="beg_1" slope="0.00"/>
        <vehicle id="B2" x="796.59" y="-1.65" angle="90.00" type="tBlocker" speed="33.33" pos="796.59" lane="beg_1" slope="0.00"/>
        <vehicle id="L" x="660.00" y="-4.95" angle="90.00" type="tLeader" speed="20.00" pos="660.00" lane="beg_0" slope="0.00"/>
        <vehicle id="ego" x="842.69" y="-1.65" angle="90.00" type="tEgo" speed="33.33" pos="842.69" lane="beg_1" slope="0.00"/>
    </timestep>
    <timestep time="24.00">
        <vehicle id="B1" x="919.92" y="-1.65" angle="90.00" type="tBlocker" speed="33.33" pos="919.92" lane="beg_1" slope="0.00"/>
        <vehicle id="B2" x="829.92" y="-1.65" angle="90.00" type="tBlocker" speed="33.33" pos="829.92" lane="beg_1" slope="0.00"/>
        <vehicle id="L" x="680.00" y="-4.95" angle="90.00" type="tLeader" speed="20.00" pos="680.00" lane="beg_0" slope="0.00"/>
        <vehicle id="ego" x="876.02" y="-1.65" angle="90.00" type="tEgo" speed="33.33" pos="876.02" lane="beg_1" slope="0.00"/>
    </timestep>
    <timestep time="25.00">
        <vehicle id="B1" x="953.25" y="-1.65" angle="90.00" type="tBlocker" speed="33.33" pos="953.25" lane="beg_1" slope="0.00"/>
        <vehicle id="B2" x="863.25" y="-1.65" angle="90.00" type="tBlocker" speed="33.33" pos="863.25" lane="beg_1" slope="0.00"/>
        <vehicle id="L" x="700.00" y="-4.95" angle="90.00" type="tLeader" speed="20.00" pos="700.00" lane="beg_0" slope="0.00"/>
        <vehicle id="ego" x="909.35" y="-1.65" angle="90.00" type="tEgo" speed="33.33" pos="909.35" lane="beg_1" slope="0.00"/>
    </timestep>
    <timestep time="26.00">
        <vehicle id="B1" x="986.58" y="-1.65" angle="90.00" type="tBlocker" speed="33.33" pos="986.58" lane="beg_1" slope="0.00"/>
        <vehicle id="B2" x="896.58" y="-1.65" angle="90.00" type="tBlocker" speed="33.33" pos="896.58" lane="beg_1" slope="0.00"/>
        <vehicle id="L" x="720.00" y="-4.95" angle="90.00" type="tLeader" speed="20.00" pos="720.00" lane="beg_0" slope="0.00"/>
        <vehicle id="ego" x="942.68" y="-1.65" angle="90.00" type="tEgo" speed="33.33" pos="942.68" lane="beg_1" slope="0.00"/>
    </timestep>
    <timestep time="27.00">
        <vehicle id="B1" x="1019.91" y="-2.65" angle="91.49" type="tBlocker" speed="33.33" pos="1019.91" lane="beg_1" slope="0.00"/>
        <vehicle id="B2" x="929.91" y="-1.65" angle="90.00" type="tBlocker" speed="33.33" pos="929.91" lane="beg_1" slope="0.00"/>
        <vehicle id="L" x="740.00" y="-4.95" angle="90.00" type="tLeader" speed="20.00" pos="740.00" lane="beg_0" slope="0.00"/>
        <vehicle id="ego" x="976.01" y="-1.65" angle="90.00" type="tEgo" speed="33.33" pos="976.01" lane="beg_1" slope="0.00"/>
    </timestep>
    <timestep time="28.00">
        <vehicle id="B1" x="1053.24" y="-3.75" angle="91.49" type="tBlocker" speed="33.33" pos="1053.24" lane="beg_0" slope="0.00"/>
        <vehicle id="B2" x="963.24" y="-1.65" angle="90.00" type="tBlocker" speed="33.33" pos="963.24" lane="beg_1" slope="0.00"/>
        <vehicle id="L" x="760.00" y="-4.95" angle="90.00" type="tLeader" speed="20.00" pos="760.00" lane="beg_0" slope="0.00"/>
        <vehicle id="ego" x="1009.34" y="-1.65" angle="90.00" type="tEgo" speed="33.33" pos="1009.34" lane="beg_1" slope="0.00"/>
    </timestep>
    <timestep time="29.00">
        <vehicle id="B1" x="1086.57" y="-4.75" angle="91.49" type="tBlocker" speed="33.33" pos="1086.57" lane="beg_0" slope="0.00"/>
        <vehicle id="B2" x="996.57" y="-1.65" angle="90.00" type="tBlocker" speed="33.33" pos="996.57" lane="beg_1" slope="0.00"/>
        <vehicle id="L" x="780.00" y="-4.95" angle="90.00" type="tLeader" speed="20.00" pos="780.00" lane="beg_0" slope="0.00"/>
        <vehicle id="ego" x="1042.67" y="-1.65" angle="90.00" type="tEgo" speed="33.33" pos="1042.67" lane="beg_1" slope="0.00"/>
    </timestep>
    <timestep time="30.00">
        <vehicle id="B1" x="1119.90" y="-4.95" angle="90.30" type="tBlocker" speed="33.33" pos="1119.90" lane="beg_0" slope="0.00"/>
        <vehicle id="B2" x="1029.90" y="-1.65" angle="90.00" type="tBlocker" speed="33.33" pos="1029.90" lane="beg_1" slope="0.00"/>
        <vehicle id="L" x="800.00" y="-4.95" angle="90.00" type="tLeader" speed="20.00" pos="800.00" lane="beg_0" slope="0.00"/>
        <vehicle id="ego" x="1076.00" y="-2.65" angle="91.49" type="tEgo" speed="33.33" pos="1076.00" lane="beg_1" slope="0.00"/>
    </timestep>
    <timestep time="31.00">
        <vehicle id="B1" x="1153.23" y="-4.95" angle="90.00" type="tBlocker" speed="33.33" pos="1153.23" lane="beg_0" slope="0.00"/>
        <vehicle id="B2" x="1063.23" y="-1.65" angle="90.00" type="tBlocker" speed="33.33" pos="1063.23" lane="beg_1" slope="0.00"/>
        <vehicle id="L" x="820.00" y="-4.95" angle="90.00" type="tLeader" speed="20.00" pos="820.00" lane="beg_0" slope="0.00"/>
        <vehicle id="ego" x="1109.33" y="-3.75" angle="91.49" type="tEgo" speed="33.33" pos="1109.33" lane="beg_0" slope="0.00"/>
    </timestep>
    <timestep time="32.00">
        <vehicle id="B1" x="1186.56" y="-4.95" angle="90.00" type="tBlocker" speed="33.33" pos="1186.56" lane="beg_0" slope="0.00"/>
        <vehicle id="B2" x="1096.56" y="-2.65" angle="91.49" type="tBlocker" speed="33.33" pos="1096.56" lane="beg_1" slope="0.00"/>
        <vehicle id="L" x="840.00" y="-4.95" angle="90.00" type="tLeader" speed="20.00" pos="840.00" lane="beg_0" slope="0.00"/>
        <vehicle id="ego" x="1142.66" y="-4.75" angle="91.49" type="tEgo" speed="33.33" pos="1142.66" lane="beg_0" slope="0.00"/>
    </timestep>
    <timestep time="33.00">
        <vehicle id="B1" x="1219.89" y="-4.95" angle="90.00" type="tBlocker" speed="33.33" pos="1219.89" lane="beg_0" slope="0.00"/>
        <vehicle id="B2" x="1129.89" y="-3.75" angle="91.49" type="tBlocker" speed="33.33" pos="1129.89" lane="beg_0" slope="0.00"/>
        <vehicle id="L" x="860.00" y="-4.95" angle="90.00" type="tLeader" speed="20.00" pos="860.00" lane="beg_0" slope="0.00"/>
        <vehicle id="ego" x="1175.99" y="-4.95" angle="90.30" type="tEgo" speed="33.33" pos="1175.99" lane="beg_0" slope="0.00"/>
    </timestep>
    <timestep time="34.00">
        <vehicle id="B1" x="1253.22" y="-4.95" angle="90.00" type="tBlocker" speed="33.33" pos="1253.22" lane="beg_0" slope="0.00"/>
        <vehicle id="B2" x="1163.22" y="-4.75" angle="91.49" type="tBlocker" speed="33.33" pos="1163.22" lane="beg_0" slope="0.00"/>
        <vehicle id="L" x="880.00" y="-4.95" angle="90.00" type="tLeader" speed="20.00" pos="880.00" lane="beg_0" slope="0.00"/>
        <vehicle id="ego" x="1209.32" y="-4.95" angle="90.00" type="tEgo" speed="33.33" pos="1209.32" lane="beg_0" slope="0.00"/>
    </timestep>
    <timestep time="35.00">
        <vehicle id="B1" x="1286.55" y="-4.95" angle="90.00" type="tBlocker" speed="33.33" pos="1286.55" lane="beg_0" slope="0.00"/>
        <vehicle id="B2" x="1196.55" y="-4.95" angle="90.30" type="tBlocker" speed="33.33" pos="1196.55" lane="beg_0" slope="0.00"/>
        <vehicle id="L" x="900.00" y="-4.95" angle="90.00" type="tLeader" speed="20.00" pos="900.00" lane="beg_0" slope="0.00"/>
        <vehicle id="ego" x="1242.65" y="-4.95" angle="90.00" type="tEgo" speed="33.33" pos="1242.65" lane="beg_0" slope="0.00"/>
    </timestep>
    <timestep time="36.00">
        <vehicle id="B1" x="1319.88" y="-4.95" angle="90.00" type="tBlocker" speed="33.33" pos="1319.88" lane="beg_0" slope="0.00"/>
        <vehicle id="B2" x="1229.88" y="-4.95" angle="90.00" type="tBlocker" speed="33.33" pos="1229.88" lane="beg_0" slope="0.00"/>
        <vehicle id="L" x="920.00" y="-4.95" angle="90.00" type="tLeader" speed="20.00" pos="920.00" lane="beg_0" slope="0.00"/>
        <vehicle id="ego" x="1275.98" y="-4.95" angle="90.00" type="tEgo" speed="33.33" pos="1275.98" lane="beg_0" slope="0.00"/>
    </timestep>
    <timestep time="37.00">
        <vehicle id="B1" x="1353.21" y="-4.95" angle="90.00" type="tBlocker" speed="33.33" pos="1353.21" lane="beg_0" slope="0.00"/>
        <vehicle id="B2" x="1263.21" y="-4.95" angle="90.00" type="tBlocker" speed="33.33" pos="1263.21" lane="beg_0" slope="0.00"/>
        <vehicle id="L" x="940.00" y="-4.95" angle="90.00" type="tLeader" speed="20.00" pos="940.00" lane="beg_0" slope="0.00"/>
        <vehicle id="ego" x="1309.31" y="-4.95" angle="90.00" type="tEgo" speed="33.33" pos="1309.31" lane="beg_0" slope="0.00"/>
    </timestep>
    <timestep time="38.00">
        <vehicle id="B1" x="1386.54" y="-4.95" angle="90.00" type="tBlocker" speed="33.33" pos="1386.54" lane="beg_0" slope="0.00"/>
        <vehicle id="B2" x="1296.54" y="-4.95" angle="90.00" type="tBlocker" speed="33.33" pos="1296.54" lane="beg_0" slope="0.00"/>
        <vehicle id="L" x="960.00" y="-4.95" angle="90.00" type="tLeader" speed="20.00" pos="960.00" lane="beg_0" slope="0.00"/>
        <vehicle id="ego" x="1342.64" y="-4.95" angle="90.00" type="tEgo" speed="33.33" pos="1342.64" lane="beg_0" slope="0.00"/>
    </timestep>
    <timestep time="39.00">
        <vehicle id="B1" x="1419.87" y="-4.95" angle="90.00" type="tBlocker" speed="33.33" pos="1419.87" lane="beg_0" slope="0.00"/>
        <vehicle id="B2" x="1329.87" y="-4.95" angle="90.00" type="tBlocker" speed="33.33" pos="1329.87" lane="beg_0" slope="0.00"/>
        <vehicle id="L" x="980.00" y="-4.95" angle="90.00" type="tLeader" speed="20.00" pos="980.00" lane="beg_0" slope="0.00"/>
        <vehicle id="ego" x="1375.97" y="-4.95" angle="90.00" type="tEgo" speed="33.33" pos="1375.97" lane="beg_0" slope="0.00"/>
    </timestep>
    <timestep time="40.00">
        <vehicle id="B1" x="1453.20" y="-4.95" angle="90.00" type="tBlocker" speed="33.33" pos="1453.20" lane="beg_0" slope="0.00"/>
        <vehicle id="B2" x="1363.20" y="-4.95" angle="90.00" type="tBlocker" speed="33.33" pos="1363.20" lane="beg_0" slope="0.00"/>
        <vehicle id="L" x="1000.00" y="-4.95" angle="90.00" type="tLeader" speed="20.00" pos="1000.00" lane="beg_0" slope="0.00"/>
        <vehicle id="ego" x="1409.30" y="-4.95" angle="90.00" type="tEgo" speed="33.33" pos="1409.30" lane="beg_0" slope="0.00"/>
    </timestep>
    <timestep time="41.00">
        <vehicle id="B1" x="1486.53" y="-4.95" angle="90.00" type="tBlocker" speed="33.33" pos="1486.53" lane="beg_0" slope="0.00"/>
        <vehicle id="B2" x="1396.53" y="-4.95" angle="90.00" type="tBlocker" speed="33.33" pos="1396.53" lane="beg_0" slope="0.00"/>
        <vehicle id="L" x="1020.00" y="-4.95" angle="90.00" type="tLeader" speed="20.00" pos="1020.00" lane="beg_0" slope="0.00"/>
        <vehicle id="ego" x="1442.63" y="-4.95" angle="90.00" type="tEgo" speed="33.33" pos="1442.63" lane="beg_0" slope="0.00"/>
    </timestep>
    <timestep time="42.00">
        <vehicle id="B1" x="1519.86" y="-4.95" angle="90.00" type="tBlocker" speed="33.33" pos="1519.86" lane="beg_0" slope="0.00"/>
        <vehicle id="B2" x="1429.86" y="-4.95" angle="90.00" type="tBlocker" speed="33.33" pos="1429.86" lane="beg_0" slope="0.00"/>
        <vehicle id="L" x="1040.00" y="-4.95" angle="90.00" type="tLeader" speed="20.00" pos="1040.00" lane="beg_0" slope="0.00"/>
        <vehicle id="ego" x="1475.96" y="-4.95" angle="90.00" type="tEgo" speed="33.33" pos="1475.96" lane="beg_0" slope="0.00"/>
    </timestep>
    <timestep time="43.00">
        <vehicle id="B1" x="1553.19" y="-4.95" angle="90.00" type="tBlocker" speed="33.33" pos="1553.19" lane="beg_0" slope="0.00"/>
        <vehicle id="B2" x="1463.19" y="-4.95" angle="90.00" type="tBlocker" speed="33.33" pos="1463.19" lane="beg_0" slope="0.00"/>
        <vehicle id="L" x="1060.00" y="-4.95" angle="90.00" type="tLeader" speed="20.00" pos="1060.00" lane="beg_0" slope="0.00"/>
        <vehicle id="ego" x="1509.29" y="-4.95" angle="90.00" type="tEgo" speed="33.33" pos="1509.29" lane="beg_0" slope="0.00"/>
    </timestep>
    <timestep time="44.00">
        <vehicle id="B1" x="1586.52" y="-4.95" angle="90.00" type="tBlocker" speed="33.33" pos="1586.52" lane="beg_0" slope="0.00"/>
        <vehicle id="B2" x="1496.52" y="-4.95" angle="90.00" type="tBlocker" speed="33.33" pos="1496.52" lane="beg_0" slope="0.00"/>
        <vehicle id="L" x="1080.00" y="-4.95" angle="90.00" type="tLeader" speed="20.00" pos="1080.00" lane="beg_0" slope="0.00"/>
        <vehicle id="ego" x="1542.62" y="-4.95" angle="90.00" type="tEgo" speed="33.33" pos="1542.62" lane="beg_0" slope="0.00"/>
    </timestep>
    <timestep time="45.00">
        <vehicle id="B1" x="1619.85" y="-4.95" angle="90.00" type="tBlocker" speed="33.33" pos="1619.85" lane="beg_0" slope="0.00"/>
        <vehicle id="B2" x="1529.85" y="-4.95" angle="90.00" type="tBlocker" speed="33.33" pos="1529.85" lane="beg_0" slope="0.00"/>
        <vehicle id="L" x="1100.00" y="-4.95" angle="90.00" type="tLeader" speed="20.00" pos="1100.00" lane="beg_0" slope="0.00"/>
        <vehicle id="ego" x="1575.95" y="-4.95" angle="90.00" type="tEgo" speed="33.33" pos="1575.95" lane="beg_0" slope="0.00"/>
    </timestep>
    <timestep time="46.00">
        <vehicle id="B1" x="1653.18" y="-4.95" angle="90.00" type="tBlocker" speed="33.33" pos="1653.18" lane="beg_0" slope="0.00"/>
        <vehicle id="B2" x="1563.18" y="-4.95" angle="90.00" type="tBlocker" speed="33.33" pos="1563.18" lane="beg_0" slope="0.00"/>
        <vehicle id="L" x="1120.00" y="-4.95" angle="90.00" type="tLeader" speed="20.00" pos="1120.00" lane="beg_0" slope="0.00"/>
        <vehicle id="ego" x="1609.28" y="-4.95" angle="90.00" type="tEgo" speed="33.33" pos="1609.28" lane="beg_0" slope="0.00"/>
    </timestep>
    <timestep time="47.00">
        <vehicle id="B1" x="1686.51" y="-4.95" angle="90.00" type="tBlocker" speed="33.33" pos="1686.51" lane="beg_0" slope="0.00"/>
        <vehicle id="B2" x="1596.51" y="-4.95" angle="90.00" type="tBlocker" speed="33.33" pos="1596.51" lane="beg_0" slope="0.00"/>
        <vehicle id="L" x="1140.00" y="-4.95" angle="90.00" type="tLeader" speed="20.00" pos="1140.00" lane="beg_0" slope="0.00"/>
        <vehicle id="ego" x="1642.61" y="-4.95" angle="90.00" type="tEgo" speed="33.33" pos="1642.61" lane="beg_0" slope="0.00"/>
    </timestep>
    <timestep time="48.00">
        <vehicle id="B1" x="1719.84" y="-4.95" angle="90.00" type="tBlocker" speed="33.33" pos="1719.84" lane="beg_0" slope="0.00"/>
        <vehicle id="B2" x="1629.84" y="-4.95" angle="90.00" type="tBlocker" speed="33.33" pos="1629.84" lane="beg_0" slope="0.00"/>
        <vehicle id="L" x="1160.00" y="-4.95" angle="90.00" type="tLeader" speed="20.00" pos="1160.00" lane="beg_0" slope="0.00"/>
        <vehicle id="ego" x="1675.94" y="-4.95" angle="90.00" type="tEgo" speed="33.33" pos="1675.94" lane="beg_0" slope="0.00"/>
    </timestep>
    <timestep time="49.00">
        <vehicle id="B1" x="1753.17" y="-4.95" angle="90.00" type="tBlocker" speed="33.33" pos="1753.17" lane="beg_0" slope="0.00"/>
        <vehicle id="B2" x="1663.17" y="-4.95" angle="90.00" type="tBlocker" speed="33.33" pos="1663.17" lane="beg_0" slope="0.00"/>
        <vehicle id="L" x="1180.00" y="-4.95" angle="90.00" type="tLeader" speed="20.00" pos="1180.00" lane="beg_0" slope="0.00"/>
        <vehicle id="ego" x="1709.27" y="-4.95" angle="90.00" type="tEgo" speed="33.33" pos="1709.27" lane="beg_0" slope="0.00"/>
    </timestep>
    <timestep time="50.00">
        <vehicle id="B1" x="1786.50" y="-4.95" angle="90.00" type="tBlocker" speed="33.33" pos="1786.50" lane="beg_0" slope="0.00"/>
        <vehicle id="B2" x="1696.50" y="-4.95" angle="90.00" type="tBlocker" speed="33.33" pos="1696.50" lane="beg_0" slope="0.00"/>
        <vehicle id="L" x="1200.00" y="-4.95" angle="90.00" type="tLeader" speed="20.00" pos="1200.00" lane="beg_0" slope="0.00"/>
        <vehicle id="ego" x="1742.60" y="-4.95" angle="90.00" type="tEgo" speed="33.33" pos="1742.60" lane="beg_0" slope="0.00"/>
    </timestep>
    <timestep time="51.00">