<?xml version="1.0" encoding="UTF-8"?>

<!-- generated on 2026-03-14T06:22:20.859796+01:00 by Eclipse SUMO sumo v1_26_0+0586-69dd46f7418
This data file and the accompanying materials
are made available under the terms of the Eclipse Public License v2.0
which accompanies this distribution, and is available at
http://www.eclipse.org/legal/epl-v20.html
This file may also be made available under the following Secondary
Licenses when the conditions for such availability set forth in the Eclipse
Public License 2.0 are satisfied: GNU General Public License, version 2
or later which is available at
https://www.gnu.org/licenses/old-licenses/gpl-2.0-standalone.html
SPDX-License-Identifier: EPL-2.0 OR GPL-2.0-or-later
<sumoConfiguration xmlns:xsi="http://www.w3.org/2001/XMLSchema-instance" xsi:noNamespaceSchemaLocation="http://sumo.dlr.de/xsd/sumoConfiguration.xsd">

    <input>
        <net-file value="three_split.net.xml"/>
        <route-files value="input_routes.rou.xml"/>
        <additional-files value="input_additional.add.xml"/>
    </input>

    <output>
        <write-license value="true"/>
        <fcd-output value="fcd.xml"/>
        <fcd-output.attributes value="speed,pos,lane,edge"/>
    </output>

    <processing>
        <default.speeddev value="0"/>
    </processing>

    <report>
        <xml-validation value="never"/>
        <duration-log.disable value="true"/>
        <no-step-log value="true"/>
    </report>

</sumoConfiguration>
-->

<fcd-export xmlns:xsi="http://www.w3.org/2001/XMLSchema-instance" xsi:noNamespaceSchemaLocation="http://sumo.dlr.de/xsd/fcd_file.xsd">
    <timestep time="0.00"/>
    <timestep time="1.00">
        <vehicle id="veh0" speed="0.00" pos="5.10" lane="beg_0"/>
    </timestep>
    <timestep time="2.00">
        <vehicle id="veh0" speed="2.60" pos="7.70" lane="beg_0"/>
    </timestep>
    <timestep time="3.00">
        <vehicle id="veh0" speed="5.20" pos="12.90" lane="beg_0"/>
    </timestep>
    <timestep time="4.00">
        <vehicle id="veh0" speed="7.80" pos="20.70" lane="beg_0"/>
    </timestep>
    <timestep time="5.00">
        <vehicle id="veh0" speed="10.40" pos="31.10" lane="beg_0"/>
    </timestep>
    <timestep time="6.00">
        <vehicle id="veh0" speed="13.00" pos="44.10" lane="beg_0"/>
    </timestep>
    <timestep time="7.00">
        <vehicle id="veh0" speed="15.60" pos="59.70" lane="beg_0"/>
    </timestep>
    <timestep time="8.00">
        <vehicle id="veh0" speed="18.20" pos="77.90" lane="beg_0"/>
    </timestep>
    <timestep time="9.00">
        <vehicle id="veh0" speed="20.80" pos="98.70" lane="beg_0"/>
    </timestep>
    <timestep time="10.00">
        <vehicle id="veh0" speed="23.40" pos="122.10" lane="beg_0"/>
    </timestep>
    <timestep time="11.00">
        <vehicle id="veh0" speed="26.00" pos="148.10" lane="beg_0"/>
    </timestep>
    <timestep time="12.00">
        <vehicle id="veh0" speed="27.80" pos="175.90" lane="beg_0"/>
    </timestep>
    <timestep time="13.00">
        <vehicle id="veh0" speed="27.80" pos="203.70" lane="beg_0"/>
    </timestep>
    <timestep time="14.00">
        <vehicle id="veh0" speed="27.80" pos="231.50" lane="beg_0"/>
    </timestep>
    <timestep time="15.00">
        <vehicle id="veh0" speed="27.80" pos="259.30" lane="beg_0"/>
    </timestep>
    <timestep time="16.00">
        <vehicle id="veh0" speed="27.80" pos="287.10" lane="beg_0"/>
    </timestep>
    <timestep time="17.00">
        <vehicle id="veh0" speed="27.80" pos="314.90" lane="beg_0"/>
    </timestep>
    <timestep time="18.00">
        <vehicle id="veh0" speed="27.80" pos="342.70" lane="beg_0"/>
    </timestep>
    <timestep time="19.00">
        <vehicle id="veh0" speed="27.80" pos="370.50" lane="beg_0"/>
    </timestep>
    <timestep time="20.00">
        <vehicle id="veh0" speed="27.80" pos="398.30" lane="beg_0"/>
    </timestep>
    <timestep time="21.00">
        <vehicle id="veh0" speed="27.80" pos="426.10" lane="beg_0"/>
    </timestep>
    <timestep time="22.00">
        <vehicle id="veh0" speed="27.80" pos="453.90" lane="beg_0"/>
    </timestep>
    <timestep time="23.00">
        <vehicle id="veh0" speed="27.80" pos="481.70" lane="beg_0"/>
    </timestep>
    <timestep time="24.00">
        <vehicle id="veh0" speed="27.80" pos="9.50" lane="middle_0"/>
    </timestep>
    <timestep time="25.00">
        <vehicle id="veh0" speed="27.80" pos="37.30" lane="middle_0"/>
    </timestep>
    <timestep time="26.00">
        <vehicle id="veh0" speed="27.80" pos="65.10" lane="middle_0"/>
    </timestep>
    <timestep time="27.00">
        <vehicle id="veh0" speed="27.80" pos="92.90" lane="middle_0"/>
    </timestep>
    <timestep time="28.00">
        <vehicle id="veh0" speed="27.80" pos="120.70" lane="middle_0"/>
    </timestep>
    <timestep time="29.00">
        <vehicle id="veh0" speed="27.80" pos="148.50" lane="middle_0"/>
    </timestep>
    <timestep time="30.00">
        <vehicle id="veh0" speed="27.80" pos="176.30" lane="middle_0"/>
    </timestep>
    <timestep time="31.00">
        <vehicle id="veh0" speed="27.80" pos="204.10" lane="middle_0"/>
    </timestep>
    <timestep time="32.00">
        <vehicle id="veh0" speed="27.80" pos="231.90" lane="middle_0"/>
    </timestep>
    <timestep time="33.00">
        <vehicle id="veh0" speed="27.80" pos="259.70" lane="middle_0"/>
    </timestep>
    <timestep time="34.00">
        <vehicle id="veh0" speed="27.80" pos="287.50" lane="middle_0"/>
    </timestep>
    <timestep time="35.00">
        <vehicle id="veh0" speed="27.80" pos="315.30" lane="middle_0"/>
    </timestep>
    <timestep time="36.00">
        <vehicle id="veh0" speed="27.80" pos="343.10" lane="middle_0"/>
    </timestep>
    <timestep time="37.00">
        <vehicle id="veh0" speed="27.80" pos="370.90" lane="middle_0"/>
    </timestep>
    <timestep time="38.00">
        <vehicle id="veh0" speed="27.80" pos="398.70" lane="middle_0"/>
    </timestep>
    <timestep time="39.00">
        <vehicle id="veh0" speed="27.80" pos="426.50" lane="middle_0"/>
    </timestep>
    <timestep time="40.00">
        <vehicle id="veh0" speed="27.80" pos="454.30" lane="middle_0"/>
    </timestep>
    <timestep time="41.00">
        <vehicle id="veh0" speed="27.80" pos="482.10" lane="middle_0"/>
    </timestep>
    <timestep time="42.00">
        <vehicle id="veh0" speed="27.80" pos="509.90" lane="middle_0"/>
    </timestep>
    <timestep time="43.00">
        <vehicle id="veh0" speed="27.80" pos="537.70" lane="middle_0"/>
    </timestep>
    <timestep time="44.00">
        <vehicle id="veh0" speed="27.80" pos="565.50" lane="middle_0"/>
    </timestep>
    <timestep time="45.00">
        <vehicle id="veh0" speed="27.80" pos="593.30" lane="middle_0"/>
    </timestep>
    <timestep time="46.00">
        <vehicle id="veh0" speed="27.80" pos="621.10" lane="middle_0"/>
    </timestep>
    <timestep time="47.00">
        <vehicle id="veh0" speed="27.80" pos="648.90" lane="middle_0"/>
    </timestep>
    <timestep time="48.00">
        <vehicle id="veh0" speed="27.80" pos="676.70" lane="middle_0"/>
    </timestep>
    <timestep time="49.00">
        <vehicle id="veh0" speed="27.80" pos="704.50" lane="middle_0"/>
    </timestep>
    <timestep time="50.00">
        <vehicle id="veh0" speed="27.80" pos="732.30" lane="middle_0"/>
    </timestep>
    <timestep time="51.00">
        <vehicle id="veh0" speed="27.80" pos="760.10" lane="middle_0"/>
    </timestep>
    <timestep time="52.00">
        <vehicle id="veh0" speed="27.80" pos="787.90" lane="middle_0"/>
    </timestep>
    <timestep time="53.00">
        <vehicle id="veh0" speed="27.80" pos="815.70" lane="middle_0"/>
    </timestep>
    <timestep time="54.00">
        <vehicle id="veh0" speed="27.80" pos="843.50" lane="middle_0"/>
    </timestep>
    <timestep time="55.00">
        <vehicle id="veh0" speed="27.80" pos="871.30" lane="middle_0"/>
    </timestep>
    <timestep time="56.00">
        <vehicle id="veh0" speed="27.80" pos="899.10" lane="middle_0"/>
    </timestep>
    <timestep time="57.00">
        <vehicle id="veh0" speed="27.80" pos="926.90" lane="middle_0"/>
    </timestep>
    <timestep time="58.00">
        <vehicle id="veh0" speed="27.80" pos="954.70" lane="middle_0"/>
    </timestep>
    <timestep time="59.00">
        <vehicle id="veh0" speed="27.80" pos="982.50" lane="middle_0"/>
    </timestep>
    <timestep time="60.00">
        <vehicle id="veh0" speed="27.80" pos="10.30" lane="end_0"/>
    </timestep>
    <timestep time="61.00">
        <vehicle id="veh0" speed="27.80" pos="38.10" lane="end_0"/>
    </timestep>
    <timestep time="62.00">
        <vehicle id="veh0" speed="27.80" pos="65.90" lane="end_0"/>
    </timestep>
    <timestep time="63.00">
        <vehicle id="veh0" speed="27.80" pos="93.70" lane="end_0"/>
    </timestep>
    <timestep time="64.00">
        <vehicle id="veh0" speed="27.80" pos="121.50" lane="end_0"/>
    </timestep>
    <timestep time="65.00">
        <vehicle id="veh0" speed="27.80" pos="149.30" lane="end_0"/>
    </timestep>
    <timestep time="66.00">
        <vehicle id="veh0" speed="27.80" pos="177.10" lane="end_0"/>
    </timestep>
    <timestep time="67.00">
        <vehicle id="veh0" speed="27.80" pos="204.90" lane="end_0"/>
    </timestep>
    <timestep time="68.00">
        <vehicle id="veh0" speed="27.80" pos="232.70" lane="end_0"/>
    </timestep>
    <timestep time="69.00">
        <vehicle id="veh0" speed="27.80" pos="260.50" lane="end_0"/>
    </timestep>
    <timestep time="70.00">
        <vehicle id="veh0" speed="27.80" pos="288.30" lane="end_0"/>
    </timestep>
    <timestep time="71.00">
        <vehicle id="veh0" speed="27.80" pos="316.10" lane="end_0"/>
    </timestep>
    <timestep time="72.00">
        <vehicle id="veh0" speed="27.80" pos="343.90" lane="end_0"/>
    </timestep>
    <timestep time="73.00">
        <vehicle id="veh0" speed="27.80" pos="371.70" lane="end_0"/>
    </timestep>
    <timestep time="74.00">
        <vehicle id="veh0" speed="27.80" pos="399.50" lane="end_0"/>
    </timestep>
    <timestep time="75.00">
        <vehicle id="veh0" speed="27.80" pos="427.30" lane="end_0"/>
    </timestep>
    <timestep time="76.00">
        <vehicle id="veh0" speed="27.80" pos="455.10" lane="end_0"/>
    </timestep>
    <timestep time="77.00">
        <vehicle id="calibtest.0.0" speed="27.80" pos="5.10" lane="beg_0"/>
        <vehicle id="veh0" speed="27.80" pos="482.90" lane="end_0"/>
    </timestep>
    <timestep time="78.00">
        <vehicle id="calibtest.0.0" speed="27.80" pos="32.90" lane="beg_0"/>
        <vehicle id="veh0" speed="27.80" pos="10.70" lane="rend_0"/>
    </timestep>
    <timestep time="79.00">
        <vehicle id="calibtest.0.0" speed="27.80" pos="60.70" lane="beg_0"/>
        <vehicle id="veh0" speed="27.80" pos="38.50" lane="rend_0"/>
    </timestep>
    <timestep time="80.00">
        <vehicle id="calibtest.0.0" speed="27.80" pos="88.50" lane="beg_0"/>
        <vehicle id="calibtest.0.1" speed="27.80" pos="5.10" lane="beg_0"/>
        <vehicle id="veh0" speed="27.80" pos="66.30" lane="rend_0"/>
    </timestep>
    <timestep time="81.00">
        <vehicle id="calibtest.0.0" speed="27.80" pos="116.30" lane="beg_0"/>
        <vehicle id="calibtest.0.1" speed="27.80" pos="32.90" lane="beg_0"/>
        <vehicle id="veh0" speed="27.80" pos="94.10" lane="rend_0"/>
    </timestep>
    <timestep time="82.00">
        <vehicle id="calibtest.0.0" speed="27.80" pos="144.10" lane="beg_0"/>
        <vehicle id="calibtest.0.1" speed="27.80" pos="60.70" lane="beg_0"/>
        <vehicle id="veh0" speed="27.80" pos="121.90" lane="rend_0"/>
    </timestep>
    <timestep time="83.00">
        <vehicle id="calibtest.0.0" speed="27.80" pos="171.90" lane="beg_0"/>
        <vehicle id="calibtest.0.1" speed="27.80" pos="88.50" lane="beg_0"/>
        <vehicle id="veh0" speed="27.80" pos="149.70" lane="rend_0"/>
    </timestep>
    <timestep time="84.00">
        <vehicle id="calibtest.0.0" speed="27.80" pos="199.70" lane="beg_0"/>
        <vehicle id="calibtest.0.1" speed="27.80" pos="116.30" lane="beg_0"/>
        <vehicle id="veh0" speed="27.80" pos="177.50" lane="rend_0"/>
    </timestep>
    <timestep time="85.00">
        <vehicle id="calibtest.0.0" speed="27.80" pos="227.50" lane="beg_0"/>
        <vehicle id="calibtest.0.1" speed="27.80" pos="144.10" lane="beg_0"/>
        <vehicle id="veh0" speed="27.80" pos="205.30" lane="rend_0"/>
    </timestep>
    <timestep time="86.00">
        <vehicle id="calibtest.0.0" speed="27.80" pos="255.30" lane="beg_0"/>
        <vehicle id="calibtest.0.1" speed="27.80" pos="171.90" lane="beg_0"/>
        <vehicle id="calibtest.0.2" speed="27.80" pos="5.10" lane="beg_0"/>
        <vehicle id="veh0" speed="27.80" pos="233.10" lane="rend_0"/>
    </timestep>
    <timestep time="87.00">
        <vehicle id="calibtest.0.0" speed="27.80" pos="283.10" lane="beg_0"/>
        <vehicle id="calibtest.0.1" speed="27.80" pos="199.70" lane="beg_0"/>
        <vehicle id="calibtest.0.2" speed="27.80" pos="32.90" lane="beg_0"/>
        <vehicle id="veh0" speed="27.80" pos="260.90" lane="rend_0"/>
    </timestep>
    <timestep time="88.00">
        <vehicle id="calibtest.0.0" speed="27.80" pos="310.90" lane="beg_0"/>
        <vehicle id="calibtest.0.1" speed="27.80" pos="227.50" lane="beg_0"/>
        <vehicle id="calibtest.0.2" speed="27.80" pos="60.70" lane="beg_0"/>
        <vehicle id="veh0" speed="27.80" pos="288.70" lane="rend_0"/>
    </timestep>
    <timestep time="89.00">
        <vehicle id="calibtest.0.0" speed="27.80" pos="338.70" lane="beg_0"/>
        <vehicle id="calibtest.0.1" speed="27.80" pos="255.30" lane="beg_0"/>
        <vehicle id="calibtest.0.2" speed="27.80" pos="88.50" lane="beg_0"/>
        <vehicle id="veh0" speed="27.80" pos="316.50" lane="rend_0"/>
    </timestep>
    <timestep time="90.00">
        <vehicle id="calibtest.0.0" speed="27.80" pos="366.50" lane="beg_0"/>
        <vehicle id="calibtest.0.1" speed="27.80" pos="283.10" lane="beg_0"/>
        <vehicle id="calibtest.0.2" speed="27.80" pos="116.30" lane="beg_0"/>
        <vehicle id="veh0" speed="27.80" pos="344.30" lane="rend_0"/>
    </timestep>
    <timestep time="91.00">
        <vehicle id="calibtest.0.0" speed="27.80" pos="394.30" lane="beg_0"/>
        <vehicle id="calibtest.0.1" speed="27.80" pos="310.90" lane="beg_0"/>
        <vehicle id="calibtest.0.2" speed="27.80" pos="144.10" lane="beg_0"/>
        <vehicle id="veh0" speed="27.80" pos="372.10" lane="rend_0"/>
    </timestep>
    <timestep time="92.00">
        <vehicle id="calibtest.0.0" speed="27.80" pos="422.10" lane="beg_0"/>
        <vehicle id="calibtest.0.1" speed="27.80" pos="338.70" lane="beg_0"/>
        <vehicle id="calibtest.0.2" speed="27.80" pos="171.90" lane="beg_0"/>
        <vehicle id="calibtest.0.3" speed="27.80" pos="5.10" lane="beg_0"/>
        <vehicle id="veh0" speed="27.80" pos="399.90" lane="rend_0"/>
    </timestep>
    <timestep time="93.00">
        <vehicle id="calibtest.0.0" speed="27.80" pos="449.90" lane="beg_0"/>
        <vehicle id="calibtest.0.1" speed="27.80" pos="366.50" lane="beg_0"/>
        <vehicle id="calibtest.0.2" speed="27.80" pos="199.70" lane="beg_0"/>
        <vehicle id="calibtest.0.3" speed="27.80" pos="32.90" lane="beg_0"/>
        <vehicle id="veh0" speed="27.80" pos="427.70" lane="rend_0"/>
    </timestep>
    <timestep time="94.00">
        <vehicle id="calibtest.0.0" speed="27.80" pos="477.70" lane="beg_0"/>
        <vehicle id="calibtest.0.1" speed="27.80" pos="394.30" lane="beg_0"/>
        <vehicle id="calibtest.0.2" speed="27.80" pos="227.50" lane="beg_0"/>
        <vehicle id="calibtest.0.3" speed="27.80" pos="60.70" lane="beg_0"/>
        <vehicle id="veh0" speed="27.80" pos="455.50" lane="rend_0"/>
    </timestep>
    <timestep time="95.00">
        <vehicle id="calibtest.0.0" speed="27.80" pos="5.50" lane="middle_0"/>
        <vehicle id="calibtest.0.1" speed="27.80" pos="422.10" lane="beg_0"/>
        <vehicle id="calibtest.0.2" speed="27.80" pos="255.30" lane="beg_0"/>
        <vehicle id="calibtest.0.3" speed="27.80" pos="88.50" lane="beg_0"/>
        <vehicle id="veh0" speed="27.80" pos="483.30" lane="rend_0"/>
    </timestep>
    <timestep time="96.00">
        <vehicle id="calibtest.0.0" speed="27.80" pos="33.30" lane="middle_0"/>
        <vehicle id="calibtest.0.1" speed="27.80" pos="449.90" lane="beg_0"/>
        <vehicle id="calibtest.0.2" speed="27.80" pos="283.10" lane="beg_0"/>
        <vehicle id="calibtest.0.3" speed="27.80" pos="116.30" lane="beg_0"/>
    </timestep>
    <timestep time="97.00">
        <vehicle id="calibtest.0.0" speed="27.80" pos="61.10" lane="middle_0"/>
        <vehicle id="calibtest.0.1" speed="27.80" pos="477.70" lane="beg_0"/>
        <vehicle id="calibtest.0.2" speed="27.80" pos="310.90" lane="beg_0"/>
        <vehicle id="calibtest.0.3" speed="27.80" pos="144.10" lane="beg_0"/>
    </timestep>
    <timestep time="98.00">
        <vehicle id="calibtest.0.0" speed="27.80" pos="88.90" lane="middle_0"/>
        <vehicle id="calibtest.0.1" speed="27.80" pos="5.50" lane="middle_0"/>
        <vehicle id="calibtest.0.2" speed="27.80" pos="338.70" lane="beg_0"/>
        <vehicle id="calibtest.0.3" speed="27.80" pos="171.90" lane="beg_0"/>
        <vehicle id="calibtest.0.4" speed="27.80" pos="5.10" lane="beg_0"/>
    </timestep>
    <timestep time="99.00">
        <vehicle id="calibtest.0.0" speed="27.80" pos="116.70" lane="middle_0"/>
        <vehicle id="calibtest.0.1" speed="27.80" pos="33.30" lane="middle_0"/>
        <vehicle id="calibtest.0.2" speed="27.80" pos="366.50" lane="beg_0"/>
        <vehicle id="calibtest.0.3" speed="27.80" pos="199.70" lane="beg_0"/>
        <vehicle id="calibtest.0.4" speed="27.80" pos="32.90" lane="beg_0"/>
    </timestep>
    <timestep time="100.00">
        <vehicle id="calibtest.0.0" speed="27.80" pos="144.50" lane="middle_0"/>
        <vehicle id="calibtest.0.1" speed="27.80" pos="61.10" lane="middle_0"/>
        <vehicle id="calibtest.0.2" speed="27.80" pos="394.30" lane="beg_0"/>
        <vehicle id="calibtest.0.3" speed="27.80" pos="227.50" lane="beg_0"/>
        <vehicle id="calibtest.0.4" speed="27.80" pos="60.70" lane="beg_0"/>
    </timestep>
    <timestep time="101.00">
        <vehicle id="calibtest.0.0" speed="27.80" pos="172.30" lane="middle_0"/>
        <vehicle id="calibtest.0.1" speed="27.80" pos="88.90" lane="middle_0"/>
        <vehicle id="calibtest.0.2" speed="27.80" pos="422.10" lane="beg_0"/>
        <vehicle id="calibtest.0.3" speed="27.80" pos="255.30" lane="beg_0"/>
        <vehicle id="calibtest.0.4" speed="27.80" pos="88.50" lane="beg_0"/>
    </timestep>
    <timestep time="102.00">
        <vehicle id="calibtest.0.0" speed="27.80" pos="200.10" lane="middle_0"/>
        <vehicle id="calibtest.0.1" speed="27.80" pos="116.70" lane="middle_0"/>
        <vehicle id="calibtest.0.2" speed="27.80" pos="449.90" lane="beg_0"/>
        <vehicle id="calibtest.0.3" speed="27.80" pos="283.10" lane="beg_0"/>
        <vehicle id="calibtest.0.4" speed="27.80" pos="116.30" lane="beg_0"/>
    </timestep>
    <timestep time="103.00">
        <vehicle id="calibtest.0.0" speed="27.80" pos="227.90" lane="middle_0"/>
        <vehicle id="calibtest.0.1" speed="27.80" pos="144.50" lane="middle_0"/>
        <vehicle id="calibtest.0.2" speed="27.80" pos="477.70" lane="beg_0"/>
        <vehicle id="calibtest.0.3" speed="27.80" pos="310.90" lane="beg_0"/>
        <vehicle id="calibtest.0.4" speed="27.80" pos="144.10" lane="beg_0"/>
    </timestep>
    <timestep time="104.00">
        <vehicle id="calibtest.0.0" speed="27.80" pos="255.70" lane="middle_0"/>
        <vehicle id="calibtest.0.1" speed="27.80" pos="172.30" lane="middle_0"/>
        <vehicle id="calibtest.0.2" speed="27.80" pos="5.50" lane="middle_0"/>
        <vehicle id="calibtest.0.3" speed="27.80" pos="338.70" lane="beg_0"/>
        <vehicle id="calibtest.0.4" speed="27.80" pos="171.90" lane="beg_0"/>
    </timestep>
    <timestep time="105.00">
        <vehicle id="calibtest.0.0" speed="27.80" pos="283.50" lane="middle_0"/>
        <vehicle id="calibtest.0.1" speed="27.80" pos="200.10" lane="middle_0"/>
        <vehicle id="calibtest.0.2" speed="27.80" pos="33.30" lane="middle_0"/>
        <vehicle id="calibtest.0.3" speed="27.80" pos="366.50" lane="beg_0"/>
        <vehicle id="calibtest.0.4" speed="27.80" pos="199.70" lane="beg_0"/>
    </timestep>
    <timestep time="106.00">
        <vehicle id="calibtest.0.0" speed="27.80" pos="311.30" lane="middle_0"/>
        <vehicle id="calibtest.0.1" speed="27.80" pos="227.90" lane="middle_0"/>
        <vehicle id="calibtest.0.2" speed="27.80" pos="61.10" lane="middle_0"/>
        <vehicle id="calibtest.0.3" speed="27.80" pos="394.30" lane="beg_0"/>
        <vehicle id="calibtest.0.4" speed="27.80" pos="227.50" lane="beg_0"/>
    </timestep>
    <timestep time="107.00">
        <vehicle id="calibtest.0.0" speed="27.80" pos="339.10" lane="middle_0"/>
        <vehicle id="calibtest.0.1" speed="27.80" pos="255.70" lane="middle_0"/>
        <vehicle id="calibtest.0.2" speed="27.80" pos="88.90" lane="middle_0"/>
        <vehicle id="calibtest.0.3" speed="27.80" pos="422.10" lane="beg_0"/>
        <vehicle id="calibtest.0.4" speed="27.80" pos="255.30" lane="beg_0"/>
    </timestep>
    <timestep time="108.00">
        <vehicle id="calibtest.0.0" speed="27.80" pos="366.90" lane="middle_0"/>
        <vehicle id="calibtest.0.1" speed="27.80" pos="283.50" lane="middle_0"/>
        <vehicle id="calibtest.0.2" speed="27.80" pos="116.70" lane="middle_0"/>
        <vehicle id="calibtest.0.3" speed="27.80" pos="449.90" lane="beg_0"/>
        <vehicle id="calibtest.0.4" speed="27.80" pos="283.10" lane="beg_0"/>
    </timestep>
    <timestep time="109.00">
        <vehicle id="calibtest.0.0" speed="27.80" pos="394.70" lane="middle_0"/>
        <vehicle id="calibtest.0.1" speed="27.80" pos="311.30" lane="middle_0"/>
        <vehicle id="calibtest.0.2" speed="27.80" pos="144.50" lane="middle_0"/>
        <vehicle id="calibtest.0.3" speed="27.80" pos="477.70" lane="beg_0"/>
        <vehicle id="calibtest.0.4" speed="27.80" pos="310.90" lane="beg_0"/>
    </timestep>
    <timestep time="110.00">
        <vehicle id="calibtest.0.0" speed="27.80" pos="422.50" lane="middle_0"/>
        <vehicle id="calibtest.0.1" speed="27.80" pos="339.10" lane="middle_0"/>
        <vehicle id="calibtest.0.2" speed="27.80" pos="172.30" lane="middle_0"/>
        <vehicle id="calibtest.0.3" speed="27.80" pos="5.50" lane="middle_0"/>
        <vehicle id="calibtest.0.4" speed="27.80" pos="338.70" lane="beg_0"/>
    </timestep>
    <timestep time="111.00">
        <vehicle id="calibtest.0.0" speed="27.80" pos="450.30" lane="middle_0"/>
        <vehicle id="calibtest.0.1" speed="27.80" pos="366.90" lane="middle_0"/>
        <vehicle id="calibtest.0.2" speed="27.80" pos="200.10" lane="middle_0"/>
        <vehicle id="calibtest.0.3" speed="27.80" pos="33.30" lane="middle_0"/>
        <vehicle id="calibtest.0.4" speed="27.80" pos="366.50" lane="beg_0"/>
    </timestep>
    <timestep time="112.00">
        <vehicle id="calibtest.0.0" speed="27.80" pos="478.10" lane="middle_0"/>
        <vehicle id="calibtest.0.1" speed="27.80" pos="394.70" lane="middle_0"/>
        <vehicle id="calibtest.0.2" speed="27.80" pos="227.90" lane="middle_0"/>
        <vehicle id="calibtest.0.3" speed="27.80" pos="61.10" lane="middle_0"/>
        <vehicle id="calibtest.0.4" speed="27.80" pos="394.30" lane="beg_0"/>
    </timestep>
    <timestep time="113.00">
        <vehicle id="calibtest.0.0" speed="27.80" pos="505.90" lane="middle_0"/>
        <vehicle id="calibtest.0.1" speed="27.80" pos="422.50" lane="middle_0"/>
        <vehicle id="calibtest.0.2" speed="27.80" pos="255.70" lane="middle_0"/>
        <vehicle id="calibtest.0.3" speed="27.80" pos="88.90" lane="middle_0"/>
        <vehicle id="calibtest.0.4" speed="27.80" pos="422.10" lane="beg_0"/>
    </timestep>
    <timestep time="114.00">
        <vehicle id="calibtest.0.0" speed="27.80" pos="533.70" lane="middle_0"/>
        <vehicle id="calibtest.0.1" speed="27.80" pos="450.30" lane="middle_0"/>
        <vehicle id="calibtest.0.2" speed="27.80" pos="283.50" lane="middle_0"/>
        <vehicle id="calibtest.0.3" speed="27.80" pos="116.70" lane="middle_0"/>
        <vehicle id="calibtest.0.4" speed="27.80" pos="449.90" lane="beg_0"/>
    </timestep>
    <timestep time="115.00">
        <vehicle id="calibtest.0.0" speed="27.80" pos="561.50" lane="middle_0"/>
        <vehicle id="calibtest.0.1" speed="27.80" pos="478.10" lane="middle_0"/>
        <vehicle id="calibtest.0.2" speed="27.80" pos="311.30" lane="middle_0"/>
        <vehicle id="calibtest.0.3" speed="27.80" pos="144.50" lane="middle_0"/>
        <vehicle id="calibtest.0.4" speed="27.80" pos="477.70" lane="beg_0"/>
    </timestep>
    <timestep time="116.00">
        <vehicle id="calibtest.0.0" speed="27.80" pos="589.30" lane="middle_0"/>
        <vehicle id="calibtest.0.1" speed="27.80" pos="505.90" lane="middle_0"/>
        <vehicle id="calibtest.0.2" speed="27.80" pos="339.10" lane="middle_0"/>
        <vehicle id="calibtest.0.3" speed="27.80" pos="172.30" lane="middle_0"/>
        <vehicle id="calibtest.0.4" speed="27.80" pos="5.50" lane="middle_0"/>
    </timestep>
    <timestep time="117.00">
        <vehicle id="calibtest.0.0" speed="27.80" pos="617.10" lane="middle_0"/>
        <vehicle id="calibtest.0.1" speed="27.80" pos="533.70" lane="middle_0"/>
        <vehicle id="calibtest.0.2" speed="27.80" pos="366.90" lane="middle_0"/>
        <vehicle id="calibtest.0.3" speed="27.80" pos="200.10" lane="middle_0"/>
        <vehicle id="calibtest.0.4" speed="27.80" pos="33.30" lane="middle_0"/>
    </timestep>
    <timestep time="118.00">
        <vehicle id="calibtest.0.0" speed="27.80" pos="644.90" lane="middle_0"/>
        <vehicle id="calibtest.0.1" speed="27.80" pos="561.50" lane="middle_0"/>
        <vehicle id="calibtest.0.2" speed="27.80" pos="394.70" lane="middle_0"/>
        <vehicle id="calibtest.0.3" speed="27.80" pos="227.90" lane="middle_0"/>
        <vehicle id="calibtest.0.4" speed="27.80" pos="61.10" lane="middle_0"/>
    </timestep>
    <timestep time="119.00">
        <vehicle id="calibtest.0.0" speed="27.80" pos="672.70" lane="middle_0"/>
        <vehicle id="calibtest.0.1" speed="27.80" pos="589.30" lane="middle_0"/>
        <vehicle id="calibtest.0.2" speed="27.80" pos="422.50" lane="middle_0"/>
        <vehicle id="calibtest.0.3" speed="27.80" pos="255.70" lane="middle_0"/>
        <vehicle id="calibtest.0.4" speed="27.80" pos="88.90" lane="middle_0"/>
    </timestep>
    <timestep time="120.00">
        <vehicle id="calibtest.0.0" speed="27.80" pos="700.50" lane="middle_0"/>
        <vehicle id="calibtest.0.1" speed="27.80" pos="617.10" lane="middle_0"/>
        <vehicle id="calibtest.0.2" speed="27.80" pos="450.30" lane="middle_0"/>
        <vehicle id="calibtest.0.3" speed="27.80" pos="283.50" lane="middle_0"/>
        <vehicle id="calibtest.0.4" speed="27.80" pos="116.70" lane="middle_0"/>
    </timestep>
    <timestep time="121.00">
        <vehicle id="calibtest.0.0" speed="27.80" pos="728.30" lane="middle_0"/>
        <vehicle id="calibtest.0.1" speed="27.80" pos="644.90" lane="middle_0"/>
        <vehicle id="calibtest.0.2" speed="27.80" pos="478.10" lane="middle_0"/>
        <vehicle id="calibtest.0.3" speed="27.80" pos="311.30" lane="middle_0"/>
        <vehicle id="calibtest.0.4" speed="27.80" pos="144.50" lane="middle_0"/>
    </timestep>
    <timestep time="122.00">
        <vehicle id="calibtest.0.0" speed="27.80" pos="756.10" lane="middle_0"/>
        <vehicle id="calibtest.0.1" speed="27.80" pos="672.70" lane="middle_0"/>
        <vehicle id="calibtest.0.2" speed="27.80" pos="505.90" lane="middle_0"/>
        <vehicle id="calibtest.0.3" speed="27.80" pos="339.10" lane="middle_0"/>
        <vehicle id="calibtest.0.4" speed="27.80" pos="172.30" lane="middle_0"/>
    </timestep>
    <timestep time="123.00">
        <vehicle id="calibtest.0.0" speed="27.80" pos="783.90" lane="middle_0"/>
        <vehicle id="calibtest.0.1" speed="27.80" pos="700.50" lane="middle_0"/>
        <vehicle id="calibtest.0.2" speed="27.80" pos="533.70" lane="middle_0"/>
        <vehicle id="calibtest.0.3" speed="27.80" pos="366.90" lane="middle_0"/>
        <vehicle id="calibtest.0.4" speed="27.80" pos="200.10" lane="middle_0"/>
    </timestep>
    <timestep time="124.00">
        <vehicle id="calibtest.0.0" speed="27.80" pos="811.70" lane="middle_0"/>
        <vehicle id="calibtest.0.1" speed="27.80" pos="728.30" lane="middle_0"/>
        <vehicle id="calibtest.0.2" speed="27.80" pos="561.50" lane="middle_0"/>
        <vehicle id="calibtest.0.3" speed="27.80" pos="394.70" lane="middle_0"/>
        <vehicle id="calibtest.0.4" speed="27.80" pos="227.90" lane="middle_0"/>
    </timestep>
    <timestep time="125.00">
        <vehicle id="calibtest.0.0" speed="27.80" pos="839.50" lane="middle_0"/>
        <vehicle id="calibtest.0.1" speed="27.80" pos="756.10" lane="middle_0"/>
        <vehicle id="calibtest.0.2" speed="27.80" pos="589.30" lane="middle_0"/>
        <vehicle id="calibtest.0.3" speed="27.80" pos="422.50" lane="middle_0"/>
        <vehicle id="calibtest.0.4" speed="27.80" pos="255.70" lane="middle_0"/>
    </timestep>
    <timestep time="126.00">
        <vehicle id="calibtest.0.0" speed="27.80" pos="867.30" lane="middle_0"/>
        <vehicle id="calibtest.0.1" speed="27.80" pos="783.90" lane="middle_0"/>
        <vehicle id="calibtest.0.2" speed="27.80" pos="617.10" lane="middle_0"/>
        <vehicle id="calibtest.0.3" speed="27.80" pos="450.30" lane="middle_0"/>
        <vehicle id="calibtest.0.4" speed="27.80" pos="283.50" lane="middle_0"/>
    </timestep>
    <timestep time="127.00">
        <vehicle id="calibtest.0.0" speed="27.80" pos="895.10" lane="middle_0"/>