<?xml version="1.0" encoding="UTF-8"?>

<!-- generated on Mon Jul 31 16:30:27 2017 by SUMO Version dev-SVN-r25417
<?xml version="1.0" encoding="UTF-8"?>

<configuration xmlns:xsi="http://www.w3.org/2001/XMLSchema-instance" xsi:noNamespaceSchemaLocation="http://sumo.dlr.de/xsd/sumoConfiguration.xsd">

    <input>
        <net-file value="motorway.net.xml"/>
        <route-files value="input_routes.rou.xml"/>
    </input>

    <output>
        <summary-output value="summary.xml"/>
    </output>

    <time>
        <end value="100"/>
    </time>

    <processing>
        <max-num-vehicles value="20"/>
    </processing>

    <report>
        <xml-validation value="never"/>
        <duration-log.disable value="true"/>
        <no-step-log value="true"/>
    </report>

</configuration>
-->

<summary xmlns:xsi="http://www.w3.org/2001/XMLSchema-instance" xsi:noNamespaceSchemaLocation="http://sumo.dlr.de/xsd/summary_file.xsd">
    <step time="0.00" loaded="1" inserted="1" running="1" waiting="0" ended="0" meanWaitingTime="0.00" meanTravelTime="-1.00" halting="0" meanSpeed="38.16" meanSpeedRelative="1.06"/>
    <step time="1.00" loaded="2" inserted="2" running="2" waiting="0" ended="0" meanWaitingTime="0.00" meanTravelTime="-1.00" halting="0" meanSpeed="35.39" meanSpeedRelative="0.98"/>
    <step time="2.00" loaded="2" inserted="2" running="2" waiting="0" ended="0" meanWaitingTime="0.00" meanTravelTime="-1.00" halting="0" meanSpeed="35.48" meanSpeedRelative="0.99"/>
    <step time="3.00" loaded="3" inserted="3" running="3" waiting="0" ended="0" meanWaitingTime="0.00" meanTravelTime="-1.00" halting="0" meanSpeed="34.66" meanSpeedRelative="0.96"/>
    <step time="4.00" loaded="4" inserted="4" running="4" waiting="0" ended="0" meanWaitingTime="0.00" meanTravelTime="-1.00" halting="0" meanSpeed="35.17" meanSpeedRelative="0.98"/>
    <step time="5.00" loaded="4" inserted="4" running="4" waiting="0" ended="0" meanWaitingTime="0.00" meanTravelTime="-1.00" halting="0" meanSpeed="35.14" meanSpeedRelative="0.98"/>
    <step time="6.00" loaded="5" inserted="5" running="5" waiting="0" ended="0" meanWaitingTime="0.00" meanTravelTime="-1.00" halting="0" meanSpeed="35.04" meanSpeedRelative="0.97"/>
    <step time="7.00" loaded="6" inserted="6" running="6" waiting="0" ended="0" meanWaitingTime="0.00" meanTravelTime="-1.00" halting="0" meanSpeed="34.46" meanSpeedRelative="0.96"/>
    <step time="8.00" loaded="6" inserted="6" running="6" waiting="0" ended="0" meanWaitingTime="0.00" meanTravelTime="-1.00" halting="0" meanSpeed="34.26" meanSpeedRelative="0.95"/>
    <step time="9.00" loaded="7" inserted="7" running="7" waiting="0" ended="0" meanWaitingTime="0.00" meanTravelTime="-1.00" halting="0" meanSpeed="34.23" meanSpeedRelative="0.95"/>
    <step time="10.00" loaded="8" inserted="8" running="8" waiting="0" ended="0" meanWaitingTime="0.00" meanTravelTime="-1.00" halting="0" meanSpeed="33.84" meanSpeedRelative="0.94"/>
    <step time="11.00" loaded="8" inserted="8" running="8" waiting="0" ended="0" meanWaitingTime="0.00" meanTravelTime="-1.00" halting="0" meanSpeed="33.73" meanSpeedRelative="0.94"/>
    <step time="12.00" loaded="9" inserted="9" running="9" waiting="0" ended="0" meanWaitingTime="0.00" meanTravelTime="-1.00" halting="0" meanSpeed="33.48" meanSpeedRelative="0.93"/>
    <step time="13.00" loaded="10" inserted="10" running="10" waiting="0" ended="0" meanWaitingTime="0.00" meanTravelTime="-1.00" halting="0" meanSpeed="33.14" meanSpeedRelative="0.92"/>
    <step time="14.00" loaded="10" inserted="10" running="10" waiting="0" ended="0" meanWaitingTime="0.00" meanTravelTime="-1.00" halting="0" meanSpeed="32.97" meanSpeedRelative="0.92"/>
    <step time="15.00" loaded="11" inserted="11" running="11" waiting="0" ended="0" meanWaitingTime="0.00" meanTravelTime="-1.00" halting="0" meanSpeed="33.17" meanSpeedRelative="0.92"/>
    <step time="16.00" loaded="12" inserted="12" running="12" waiting="0" ended="0" meanWaitingTime="0.00" meanTravelTime="-1.00" halting="0" meanSpeed="32.75" meanSpeedRelative="0.91"/>
    <step time="17.00" loaded="12" inserted="12" running="12" waiting="0" ended="0" meanWaitingTime="0.00" meanTravelTime="-1.00" halting="0" meanSpeed="32.49" meanSpeedRelative="0.90"/>
    <step time="18.00" loaded="13" inserted="13" running="13" waiting="0" ended="0" meanWaitingTime="0.00" meanTravelTime="-1.00" halting="0" meanSpeed="32.59" meanSpeedRelative="0.91"/>
    <step time="19.00" loaded="14" inserted="14" running="14" waiting="0" ended="0" meanWaitingTime="0.00" meanTravelTime="-1.00" halting="0" meanSpeed="32.57" meanSpeedRelative="0.90"/>
    <step time="20.00" loaded="14" inserted="14" running="14" waiting="0" ended="0" meanWaitingTime="0.00" meanTravelTime="-1.00" halting="0" meanSpeed="32.26" meanSpeedRelative="0.90"/>
    <step time="21.00" loaded="15" inserted="15" running="15" waiting="0" ended="0" meanWaitingTime="0.00" meanTravelTime="-1.00" halting="0" meanSpeed="32.17" meanSpeedRelative="0.89"/>
    <step time="22.00" loaded="16" inserted="16" running="16" waiting="0" ended="0" meanWaitingTime="0.00" meanTravelTime="-1.00" halting="0" meanSpeed="32.08" meanSpeedRelative="0.89"/>
    <step time="23.00" loaded="16" inserted="16" running="16" waiting="0" ended="0" meanWaitingTime="0.00" meanTravelTime="-1.00" halting="0" meanSpeed="32.19" meanSpeedRelative="0.89"/>
    <step time="24.00" loaded="17" inserted="17" running="17" waiting="0" ended="0" meanWaitingTime="0.00" meanTravelTime="-1.00" halting="0" meanSpeed="32.11" meanSpeedRelative="0.89"/>
    <step time="25.00" loaded="18" inserted="18" running="18" waiting="0" ended="0" meanWaitingTime="0.00" meanTravelTime="-1.00" halting="0" meanSpeed="31.80" meanSpeedRelative="0.88"/>
    <step time="26.00" loaded="18" inserted="18" running="18" waiting="0" ended="0" meanWaitingTime="0.00" meanTravelTime="-1.00" halting="0" meanSpeed="31.65" meanSpeedRelative="0.88"/>
    <step time="27.00" loaded="19" inserted="19" running="19" waiting="0" ended="0" meanWaitingTime="0.00" meanTravelTime="-1.00" halting="0" meanSpeed="31.73" meanSpeedRelative="0.88"/>
    <step time="28.00" loaded="20" inserted="20" running="20" waiting="0" ended="0" meanWaitingTime="0.00" meanTravelTime="-1.00" halting="0" meanSpeed="31.46" meanSpeedRelative="0.87"/>
    <step time="29.00" loaded="20" inserted="20" running="20" waiting="0" ended="0" meanWaitingTime="0.00" meanTravelTime="-1.00" halting="0" meanSpeed="31.22" meanSpeedRelative="0.87"/>
    <step time="30.00" loaded="21" inserted="20" running="20" waiting="1" ended="0" meanWaitingTime="0.00" meanTravelTime="-1.00" halting="0" meanSpeed="31.30" meanSpeedRelative="0.87"/>
    <step time="31.00" loaded="22" inserted="20" running="20" waiting="2" ended="0" meanWaitingTime="0.00" meanTravelTime="-1.00" halting="0" meanSpeed="31.16" meanSpeedRelative="0.87"/>
    <step time="32.00" loaded="22" inserted="20" running="20" waiting="2" ended="0" meanWaitingTime="0.00" meanTravelTime="-1.00" halting="0" meanSpeed="30.96" meanSpeedRelative="0.86"/>
    <step time="33.00" loaded="23" inserted="20" running="20" waiting="3" ended="0" meanWaitingTime="0.00" meanTravelTime="-1.00" halting="0" meanSpeed="31.06" meanSpeedRelative="0.86"/>
    <step time="34.00" loaded="24" inserted="20" running="20" waiting="4" ended="0" meanWaitingTime="0.00" meanTravelTime="-1.00" halting="0" meanSpeed="31.07" meanSpeedRelative="0.86"/>
    <step time="35.00" loaded="24" inserted="20" running="20" waiting="4" ended="0" meanWaitingTime="0.00" meanTravelTime="-1.00" halting="0" meanSpeed="31.01" meanSpeedRelative="0.86"/>
    <step time="36.00" loaded="25" inserted="20" running="20" waiting="5" ended="0" meanWaitingTime="0.00" meanTravelTime="-1.00" halting="0" meanSpeed="30.99" meanSpeedRelative="0.86"/>
    <step time="37.00" loaded="26" inserted="20" running="20" waiting="6" ended="0" meanWaitingTime="0.00" meanTravelTime="-1.00" halting="0" meanSpeed="31.04" meanSpeedRelative="0.86"/>
    <step time="38.00" loaded="26" inserted="20" running="20" waiting="6" ended="0" meanWaitingTime="0.00" meanTravelTime="-1.00" halting="0" meanSpeed="30.94" meanSpeedRelative="0.86"/>
    <step time="39.00" loaded="27" inserted="20" running="20" waiting="7" ended="0" meanWaitingTime="0.00" meanTravelTime="-1.00" halting="0" meanSpeed="31.08" meanSpeedRelative="0.86"/>
    <step time="40.00" loaded="28" inserted="20" running="20" waiting="8" ended="0" meanWaitingTime="0.00" meanTravelTime="-1.00" halting="0" meanSpeed="31.15" meanSpeedRelative="0.87"/>
    <step time="41.00" loaded="28" inserted="20" running="20" waiting="8" ended="0" meanWaitingTime="0.00" meanTravelTime="-1.00" halting="0" meanSpeed="31.09" meanSpeedRelative="0.86"/>
    <step time="42.00" loaded="29" inserted="20" running="20" waiting="9" ended="0" meanWaitingTime="0.00" meanTravelTime="-1.00" halting="0" meanSpeed="31.13" meanSpeedRelative="0.86"/>
    <step time="43.00" loaded="30" inserted="20" running="20" waiting="10" ended="0" meanWaitingTime="0.00" meanTravelTime="-1.00" halting="0" meanSpeed="31.11" meanSpeedRelative="0.86"/>
    <step time="44.00" loaded="30" inserted="20" running="20" waiting="10" ended="0" meanWaitingTime="0.00" meanTravelTime="-1.00" halting="0" meanSpeed="30.84" meanSpeedRelative="0.86"/>
    <step time="45.00" loaded="31" inserted="20" running="20" waiting="11" ended="0" meanWaitingTime="0.00" meanTravelTime="-1.00" halting="0" meanSpeed="30.84" meanSpeedRelative="0.86"/>
    <step time="46.00" loaded="32" inserted="20" running="20" waiting="12" ended="0" meanWaitingTime="0.00" meanTravelTime="-1.00" halting="0" meanSpeed="30.82" meanSpeedRelative="0.86"/>
    <step time="47.00" loaded="32" inserted="20" running="20" waiting="12" ended="0" meanWaitingTime="0.00" meanTravelTime="-1.00" halting="0" meanSpeed="30.85" meanSpeedRelative="0.86"/>
    <step time="48.00" loaded="33" inserted="20" running="20" waiting="13" ended="0" meanWaitingTime="0.00" meanTravelTime="-1.00" halting="0" meanSpeed="30.89" meanSpeedRelative="0.86"/>
    <step time="49.00" loaded="34" inserted="20" running="20" waiting="14" ended="0" meanWaitingTime="0.00" meanTravelTime="-1.00" halting="0" meanSpeed="30.93" meanSpeedRelative="0.86"/>
    <step time="50.00" loaded="34" inserted="20" running="20" waiting="14" ended="0" meanWaitingTime="0.00" meanTravelTime="-1.00" halting="0" meanSpeed="30.86" meanSpeedRelative="0.86"/>
    <step time="51.00" loaded="35" inserted="20" running="20" waiting="15" ended="0" meanWaitingTime="0.00" meanTravelTime="-1.00" halting="0" meanSpeed="30.83" meanSpeedRelative="0.86"/>
    <step time="52.00" loaded="36" inserted="20" running="20" waiting="16" ended="0" meanWaitingTime="0.00" meanTravelTime="-1.00" halting="0" meanSpeed="30.96" meanSpeedRelative="0.86"/>
    <step time="53.00" loaded="36" inserted="20" running="20" waiting="16" ended="0" meanWaitingTime="0.00" meanTravelTime="-1.00" halting="0" meanSpeed="30.88" meanSpeedRelative="0.86"/>
    <step time="54.00" loaded="37" inserted="20" running="20" waiting="17" ended="0" meanWaitingTime="0.00" meanTravelTime="-1.00" halting="0" meanSpeed="30.88" meanSpeedRelative="0.86"/>
    <step time="55.00" loaded="38" inserted="20" running="20" waiting="18" ended="0" meanWaitingTime="0.00" meanTravelTime="-1.00" halting="0" meanSpeed="30.83" meanSpeedRelative="0.86"/>
    <step time="56.00" loaded="38" inserted="20" running="20" waiting="18" ended="0" meanWaitingTime="0.00" meanTravelTime="-1.00" halting="0" meanSpeed="30.75" meanSpeedRelative="0.85"/>
    <step time="57.00" loaded="39" inserted="20" running="20" waiting="19" ended="0" meanWaitingTime="0.00" meanTravelTime="-1.00" halting="0" meanSpeed="30.84" meanSpeedRelative="0.86"/>
    <step time="58.00" loaded="40" inserted="20" running="20" waiting="20" ended="0" meanWaitingTime="0.00" meanTravelTime="-1.00" halting="0" meanSpeed="30.86" meanSpeedRelative="0.86"/>
    <step time="59.00" loaded="40" inserted="20" running="20" waiting="20" ended="0" meanWaitingTime="0.00" meanTravelTime="-1.00" halting="0" meanSpeed="30.85" meanSpeedRelative="0.86"/>
    <step time="60.00" loaded="41" inserted="20" running="20" waiting="21" ended="0" meanWaitingTime="0.00" meanTravelTime="-1.00" halting="0" meanSpeed="30.82" meanSpeedRelative="0.86"/>
    <step time="61.00" loaded="42" inserted="20" running="20" waiting="22" ended="0" meanWaitingTime="0.00" meanTravelTime="-1.00" halting="0" meanSpeed="30.80" meanSpeedRelative="0.86"/>
    <step time="62.00" loaded="42" inserted="20" running="20" waiting="22" ended="0" meanWaitingTime="0.00" meanTravelTime="-1.00" halting="0" meanSpeed="30.76" meanSpeedRelative="0.85"/>
    <step time="63.00" loaded="43" inserted="20" running="20" waiting="23" ended="0" meanWaitingTime="0.00" meanTravelTime="-1.00" halting="0" meanSpeed="30.70" meanSpeedRelative="0.85"/>
    <step time="64.00" loaded="44" inserted="20" running="20" waiting="24" ended="0" meanWaitingTime="0.00" meanTravelTime="-1.00" halting="0" meanSpeed="30.69" meanSpeedRelative="0.85"/>
    <step time="65.00" loaded="44" inserted="20" running="20" waiting="24" ended="0" meanWaitingTime="0.00" meanTravelTime="-1.00" halting="0" meanSpeed="30.58" meanSpeedRelative="0.85"/>
    <step time="66.00" loaded="45" inserted="20" running="20" waiting="25" ended="0" meanWaitingTime="0.00" meanTravelTime="-1.00" halting="0" meanSpeed="30.63" meanSpeedRelative="0.85"/>
    <step time="67.00" loaded="46" inserted="20" running="20" waiting="26" ended="0" meanWaitingTime="0.00" meanTravelTime="-1.00" halting="0" meanSpeed="30.44" meanSpeedRelative="0.85"/>
    <step time="68.00" loaded="46" inserted="20" running="20" waiting="26" ended="0" meanWaitingTime="0.00" meanTravelTime="-1.00" halting="0" meanSpeed="30.43" meanSpeedRelative="0.85"/>
    <step time="69.00" loaded="47" inserted="20" running="20" waiting="27" ended="0" meanWaitingTime="0.00" meanTravelTime="-1.00" halting="0" meanSpeed="30.22" meanSpeedRelative="0.84"/>
    <step time="70.00" loaded="48" inserted="20" running="20" waiting="28" ended="0" meanWaitingTime="0.00" meanTravelTime="-1.00" halting="0" meanSpeed="30.31" meanSpeedRelative="0.84"/>
    <step time="71.00" loaded="48" inserted="20" running="20" waiting="28" ended="0" meanWaitingTime="0.00" meanTravelTime="-1.00" halting="0" meanSpeed="30.43" meanSpeedRelative="0.85"/>
    <step time="72.00" loaded="49" inserted="20" running="20" waiting="29" ended="0" meanWaitingTime="0.00" meanTravelTime="-1.00" halting="0" meanSpeed="30.41" meanSpeedRelative="0.84"/>
    <step time="73.00" loaded="50" inserted="20" running="20" waiting="30" ended="0" meanWaitingTime="0.00" meanTravelTime="-1.00" halting="0" meanSpeed="30.37" meanSpeedRelative="0.84"/>
    <step time="74.00" loaded="50" inserted="20" running="20" waiting="30" ended="0" meanWaitingTime="0.00" meanTravelTime="-1.00" halting="0" meanSpeed="30.30" meanSpeedRelative="0.84"/>
    <step time="75.00" loaded="51" inserted="20" running="20" waiting="31" ended="0" meanWaitingTime="0.00" meanTravelTime="-1.00" halting="0" meanSpeed="30.47" meanSpeedRelative="0.85"/>
    <step time="76.00" loaded="52" inserted="20" running="20" waiting="32" ended="0" meanWaitingTime="0.00" meanTravelTime="-1.00" halting="0" meanSpeed="30.36" meanSpeedRelative="0.84"/>
    <step time="77.00" loaded="52" inserted="20" running="20" waiting="32" ended="0" meanWaitingTime="0.00" meanTravelTime="-1.00" halting="0" meanSpeed="30.21" meanSpeedRelative="0.84"/>
    <step time="78.00" loaded="53" inserted="20" running="20" waiting="33" ended="0" meanWaitingTime="0.00" meanTravelTime="-1.00" halting="0" meanSpeed="30.39" meanSpeedRelative="0.84"/>
    <step time="79.00" loaded="54" inserted="20" running="20" waiting="34" ended="0" meanWaitingTime="0.00" meanTravelTime="-1.00" halting="0" meanSpeed="30.24" meanSpeedRelative="0.84"/>
    <step time="80.00" loaded="54" inserted="20" running="20" waiting="34" ended="0" meanWaitingTime="0.00" meanTravelTime="-1.00" halting="0" meanSpeed="30.36" meanSpeedRelative="0.84"/>
    <step time="81.00" loaded="55" inserted="20" running="20" waiting="35" ended="0" meanWaitingTime="0.00" meanTravelTime="-1.00" halting="0" meanSpeed="30.24" meanSpeedRelative="0.84"/>
    <step time="82.00" loaded="56" inserted="20" running="20" waiting="36" ended="0" meanWaitingTime="0.00" meanTravelTime="-1.00" halting="0" meanSpeed="30.41" meanSpeedRelative="0.84"/>
    <step time="83.00" loaded="56" inserted="20" running="20" waiting="36" ended="0" meanWaitingTime="0.00" meanTravelTime="-1.00" halting="0" meanSpeed="30.49" meanSpeedRelative="0.85"/>
    <step time="84.00" loaded="57" inserted="20" running="20" waiting="37" ended="0" meanWaitingTime="0.00" meanTravelTime="-1.00" halting="0" meanSpeed="30.61" meanSpeedRelative="0.85"/>
    <step time="85.00" loaded="58" inserted="20" running="20" waiting="38" ended="0" meanWaitingTime="0.00" meanTravelTime="-1.00" halting="0" meanSpeed="30.60" meanSpeedRelative="0.85"/>
    <step time="86.00" loaded="58" inserted="21" running="20" waiting="37" ended="1" meanWaitingTime="2.67" meanTravelTime="85.00" halting="0" meanSpeed="30.34" meanSpeedRelative="0.84"/>
    <step time="87.00" loaded="59" inserted="22" running="20" waiting="37" ended="2" meanWaitingTime="5.09" meanTravelTime="86.00" halting="0" meanSpeed="30.42" meanSpeedRelative="0.85"/>
    <step time="88.00" loaded="60" inserted="23" running="20" waiting="37" ended="3" meanWaitingTime="7.26" meanTravelTime="85.67" halting="0" meanSpeed="30.47" meanSpeedRelative="0.85"/>
    <step time="89.00" loaded="60" inserted="23" running="20" waiting="37" ended="3" meanWaitingTime="7.26" meanTravelTime="85.67" halting="0" meanSpeed="31.00" meanSpeedRelative="0.86"/>
    <step time="90.00" loaded="61" inserted="24" running="20" waiting="37" ended="4" meanWaitingTime="9.29" meanTravelTime="85.75" halting="0" meanSpeed="30.91" meanSpeedRelative="0.86"/>
    <step time="91.00" loaded="62" inserted="25" running="20" waiting="37" ended="5" meanWaitingTime="11.12" meanTravelTime="85.60" halting="0" meanSpeed="30.60" meanSpeedRelative="0.85"/>
    <step time="92.00" loaded="62" inserted="25" running="20" waiting="37" ended="5" meanWaitingTime="11.12" meanTravelTime="85.60" halting="0" meanSpeed="30.55" meanSpeedRelative="0.85"/>
    <step time="93.00" loaded="63" inserted="25" running="20" waiting="38" ended="5" meanWaitingTime="11.12" meanTravelTime="85.60" halting="0" meanSpeed="30.48" meanSpeedRelative="0.85"/>
    <step time="94.00" loaded="64" inserted="25" running="20" waiting="39" ended="5" meanWaitingTime="11.12" meanTravelTime="85.60" halting="0" meanSpeed="30.43" meanSpeedRelative="0.85"/>
    <step time="95.00" loaded="64" inserted="25" running="20" waiting="39" ended="5" meanWaitingTime="11.12" meanTravelTime="85.60" halting="0" meanSpeed="30.30" meanSpeedRelative="0.84"/>
    <step time="96.00" loaded="65" inserted="25" running="20" waiting="40" ended="5" meanWaitingTime="11.12" meanTravelTime="85.60" halting="0" meanSpeed="30.07" meanSpeedRelative="0.84"/>
    <step time="97.00" loaded="66" inserted="25" running="20" waiting="41" ended="5" meanWaitingTime="11.12" meanTravelTime="85.60" halting="0" meanSpeed="30.07" meanSpeedRelative="0.84"/>
    <step time="98.00" loaded="66" inserted="25" running="20" waiting="41" ended="5" meanWaitingTime="11.12" meanTravelTime="85.60" halting="0" meanSpeed="30.16" meanSpeedRelative="0.84"/>
    <step time="99.00" loaded="67" inserted="25" running="20" waiting="42" ended="5" meanWaitingTime="11.12" meanTravelTime="85.60" halting="0" meanSpeed="30.02" meanSpeedRelative="0.83"/>
</summary>
