<?xml version="1.0" encoding="UTF-8"?>

<!-- generated on 06/27/14 15:14:34 by SUMO sumo Version dev-SVN-r16662
<?xml version="1.0" encoding="UTF-8"?>

<configuration xmlns:xsi="http://www.w3.org/2001/XMLSchema-instance" xsi:noNamespaceSchemaLocation="http://sumo.dlr.de/xsd/sumoConfiguration.xsd">

    <input>
        <net-file value="net.net.xml"/>
        <additional-files value="input_routes.rou.xml"/>
    </input>

    <output>
        <netstate-dump value="rawdump.xml"/>
    </output>

    <time>
        <step-length value="0.25"/>
    </time>

    <report>
        <xml-validation value="never"/>
        <no-duration-log value="true"/>
        <no-step-log value="true"/>
    </report>

</configuration>
-->

<netstate xmlns:xsi="http://www.w3.org/2001/XMLSchema-instance" xsi:noNamespaceSchemaLocation="http://sumo.dlr.de/xsd/netstate_file.xsd">
    <timestep time="0.00">
        <edge id="fast">
            <lane id="fast_0">
                <vehicle id="v0" pos="1800.00" speed="28.00"/>
            </lane>
        </edge>
    </timestep>
    <timestep time="0.25">
        <edge id="fast">
            <lane id="fast_0">
                <vehicle id="v0" pos="1807.00" speed="28.00"/>
            </lane>
        </edge>
    </timestep>
    <timestep time="0.50">
        <edge id="fast">
            <lane id="fast_0">
                <vehicle id="v0" pos="1814.00" speed="28.00"/>
            </lane>
        </edge>
    </timestep>
    <timestep time="0.75">
        <edge id="fast">
            <lane id="fast_0">
                <vehicle id="v0" pos="1821.00" speed="28.00"/>
            </lane>
        </edge>
    </timestep>
    <timestep time="1.00">
        <edge id="fast">
            <lane id="fast_0">
                <vehicle id="v0" pos="1828.00" speed="28.00"/>
            </lane>
        </edge>
    </timestep>
    <timestep time="1.25">
        <edge id="fast">
            <lane id="fast_0">
                <vehicle id="v0" pos="1835.00" speed="28.00"/>
            </lane>
        </edge>
    </timestep>
    <timestep time="1.50">
        <edge id="fast">
            <lane id="fast_0">
                <vehicle id="v0" pos="1842.00" speed="28.00"/>
            </lane>
        </edge>
    </timestep>
    <timestep time="1.75">
        <edge id="fast">
            <lane id="fast_0">
                <vehicle id="v0" pos="1849.00" speed="28.00"/>
            </lane>
        </edge>
    </timestep>
    <timestep time="2.00">
        <edge id="fast">
            <lane id="fast_0">
                <vehicle id="v0" pos="1856.00" speed="28.00"/>
            </lane>
        </edge>
    </timestep>
    <timestep time="2.25">
        <edge id="fast">
            <lane id="fast_0">
                <vehicle id="v0" pos="1863.00" speed="28.00"/>
            </lane>
        </edge>
    </timestep>
    <timestep time="2.50">
        <edge id="fast">
            <lane id="fast_0">
                <vehicle id="v0" pos="1870.00" speed="28.00"/>
            </lane>
        </edge>
    </timestep>
    <timestep time="2.75">
        <edge id="fast">
            <lane id="fast_0">
                <vehicle id="v0" pos="1877.00" speed="28.00"/>
            </lane>
        </edge>
    </timestep>
    <timestep time="3.00">
        <edge id="fast">
            <lane id="fast_0">
                <vehicle id="v0" pos="1884.00" speed="28.00"/>
            </lane>
        </edge>
    </timestep>
    <timestep time="3.25">
        <edge id="fast">
            <lane id="fast_0">
                <vehicle id="v0" pos="1891.00" speed="28.00"/>
            </lane>
        </edge>
    </timestep>
    <timestep time="3.50">
        <edge id="fast">
            <lane id="fast_0">
                <vehicle id="v0" pos="1898.00" speed="28.00"/>
            </lane>
        </edge>
    </timestep>
    <timestep time="3.75">
        <edge id="fast">
            <lane id="fast_0">
                <vehicle id="v0" pos="1905.00" speed="28.00"/>
            </lane>
        </edge>
    </timestep>
    <timestep time="4.00">
        <edge id="fast">
            <lane id="fast_0">
                <vehicle id="v0" pos="1912.00" speed="28.00"/>
            </lane>
        </edge>
    </timestep>
    <timestep time="4.25">
        <edge id="fast">
            <lane id="fast_0">
                <vehicle id="v0" pos="1919.00" speed="28.00"/>
            </lane>
        </edge>
    </timestep>
    <timestep time="4.50">
        <edge id="fast">
            <lane id="fast_0">
                <vehicle id="v0" pos="1925.72" speed="26.89"/>
            </lane>
        </edge>
    </timestep>
    <timestep time="4.75">
        <edge id="fast">
            <lane id="fast_0">
                <vehicle id="v0" pos="1932.16" speed="25.76"/>
            </lane>
        </edge>
    </timestep>
    <timestep time="5.00">
        <edge id="fast">
            <lane id="fast_0">
                <vehicle id="v0" pos="1938.32" speed="24.64"/>
            </lane>
        </edge>
    </timestep>
    <timestep time="5.25">
        <edge id="fast">
            <lane id="fast_0">
                <vehicle id="v0" pos="1944.20" speed="23.51"/>
            </lane>
        </edge>
    </timestep>
    <timestep time="5.50">
        <edge id="fast">
            <lane id="fast_0">
                <vehicle id="v0" pos="1949.80" speed="22.39"/>
            </lane>
        </edge>
    </timestep>
    <timestep time="5.75">
        <edge id="fast">
            <lane id="fast_0">
                <vehicle id="v0" pos="1955.11" speed="21.26"/>
            </lane>
        </edge>
    </timestep>
    <timestep time="6.00">
        <edge id="fast">
            <lane id="fast_0">
                <vehicle id="v0" pos="1960.15" speed="20.14"/>
            </lane>
        </edge>
    </timestep>
    <timestep time="6.25">
        <edge id="fast">
            <lane id="fast_0">
                <vehicle id="v0" pos="1964.90" speed="19.01"/>
            </lane>
        </edge>
    </timestep>
    <timestep time="6.50">
        <edge id="fast">
            <lane id="fast_0">
                <vehicle id="v0" pos="1969.37" speed="17.89"/>
            </lane>
        </edge>
    </timestep>
    <timestep time="6.75">
        <edge id="fast">
            <lane id="fast_0">
                <vehicle id="v0" pos="1973.56" speed="16.76"/>
            </lane>
        </edge>
    </timestep>
    <timestep time="7.00">
        <edge id="fast">
            <lane id="fast_0">
                <vehicle id="v0" pos="1977.47" speed="15.64"/>
            </lane>
        </edge>
    </timestep>
    <timestep time="7.25">
        <edge id="fast">
            <lane id="fast_0">
                <vehicle id="v0" pos="1981.10" speed="14.51"/>
            </lane>
        </edge>
    </timestep>
    <timestep time="7.50">
        <edge id="fast">
            <lane id="fast_0">
                <vehicle id="v0" pos="1984.45" speed="13.39"/>
            </lane>
        </edge>
    </timestep>
    <timestep time="7.75">
        <edge id="fast">
            <lane id="fast_0">
                <vehicle id="v0" pos="1987.51" speed="12.26"/>
            </lane>
        </edge>
    </timestep>
    <timestep time="8.00">
        <edge id="fast">
            <lane id="fast_0">
                <vehicle id="v0" pos="1990.30" speed="11.14"/>
            </lane>
        </edge>
    </timestep>
    <timestep time="8.25">
        <edge id="fast">
            <lane id="fast_0">
                <vehicle id="v0" pos="1992.80" speed="10.01"/>
            </lane>
        </edge>
    </timestep>
    <timestep time="8.50">
        <edge id="fast">
            <lane id="fast_0">
                <vehicle id="v0" pos="1995.02" speed="8.89"/>
            </lane>
        </edge>
    </timestep>
    <timestep time="8.75">
        <edge id="fast">
            <lane id="fast_0">
                <vehicle id="v0" pos="1996.96" speed="7.76"/>
            </lane>
        </edge>
    </timestep>
    <timestep time="9.00">
        <edge id="fast">
            <lane id="fast_0">
                <vehicle id="v0" pos="1998.62" speed="6.64"/>
            </lane>
        </edge>
    </timestep>
    <timestep time="9.25">
        <edge id="slow">
            <lane id="slow_0">
                <vehicle id="v0" pos="0.00" speed="5.51"/>
            </lane>
        </edge>
    </timestep>
    <timestep time="9.50">
        <edge id="slow">
            <lane id="slow_0">
                <vehicle id="v0" pos="1.25" speed="5.00"/>
            </lane>
        </edge>
    </timestep>
    <timestep time="9.75">
        <edge id="slow">
            <lane id="slow_0">
                <vehicle id="v0" pos="2.50" speed="5.00"/>
            </lane>
        </edge>
    </timestep>
    <timestep time="10.00">
        <edge id="slow">
            <lane id="slow_0">
                <vehicle id="v0" pos="3.75" speed="5.00"/>
            </lane>
        </edge>
    </timestep>
    <timestep time="10.25">
        <edge id="slow">
            <lane id="slow_0">
                <vehicle id="v0" pos="5.00" speed="5.00"/>
            </lane>
        </edge>
    </timestep>
    <timestep time="10.50">
        <edge id="slow">
            <lane id="slow_0">
                <vehicle id="v0" pos="6.25" speed="5.00"/>
            </lane>
        </edge>
    </timestep>
    <timestep time="10.75">
        <edge id="slow">
            <lane id="slow_0">
                <vehicle id="v0" pos="7.50" speed="5.00"/>
            </lane>
        </edge>
    </timestep>
    <timestep time="11.00">
        <edge id="slow">
            <lane id="slow_0">
                <vehicle id="v0" pos="8.75" speed="5.00"/>
            </lane>
        </edge>
    </timestep>
    <timestep time="11.25">
        <edge id="slow">
            <lane id="slow_0">
                <vehicle id="v0" pos="10.00" speed="5.00"/>
            </lane>
        </edge>
    </timestep>
    <timestep time="11.50">
        <edge id="slow">
            <lane id="slow_0">
                <vehicle id="v0" pos="11.25" speed="5.00"/>
            </lane>
        </edge>
    </timestep>
    <timestep time="11.75">
        <edge id="slow">
            <lane id="slow_0">
                <vehicle id="v0" pos="12.50" speed="5.00"/>
            </lane>
        </edge>
    </timestep>
    <timestep time="12.00">
        <edge id="slow">
            <lane id="slow_0">
                <vehicle id="v0" pos="13.75" speed="5.00"/>
            </lane>
        </edge>
    </timestep>
    <timestep time="12.25">
        <edge id="slow">
            <lane id="slow_0">
                <vehicle id="v0" pos="15.00" speed="5.00"/>
            </lane>
        </edge>
    </timestep>
    <timestep time="12.50">
        <edge id="slow">
            <lane id="slow_0">
                <vehicle id="v0" pos="16.25" speed="5.00"/>
            </lane>
        </edge>
    </timestep>
    <timestep time="12.75">
        <edge id="slow">
            <lane id="slow_0">
                <vehicle id="v0" pos="17.50" speed="5.00"/>
            </lane>
        </edge>
    </timestep>
    <timestep time="13.00">
        <edge id="slow">
            <lane id="slow_0">
                <vehicle id="v0" pos="18.75" speed="5.00"/>
            </lane>
        </edge>
    </timestep>
    <timestep time="13.25">
        <edge id="slow">
            <lane id="slow_0">
                <vehicle id="v0" pos="20.00" speed="5.00"/>
            </lane>
        </edge>
    </timestep>
    <timestep time="13.50">
        <edge id="slow">
            <lane id="slow_0">
                <vehicle id="v0" pos="21.25" speed="5.00"/>
            </lane>
        </edge>
    </timestep>
    <timestep time="13.75">
        <edge id="slow">
            <lane id="slow_0">
                <vehicle id="v0" pos="22.50" speed="5.00"/>
            </lane>
        </edge>
    </timestep>
    <timestep time="14.00">
        <edge id="slow">
            <lane id="slow_0">
                <vehicle id="v0" pos="23.75" speed="5.00"/>
            </lane>
        </edge>
    </timestep>
    <timestep time="14.25">
        <edge id="slow">
            <lane id="slow_0">
                <vehicle id="v0" pos="25.00" speed="5.00"/>
            </lane>
        </edge>
    </timestep>
    <timestep time="14.50">
        <edge id="slow">
            <lane id="slow_0">
                <vehicle id="v0" pos="26.25" speed="5.00"/>
            </lane>
        </edge>
    </timestep>
    <timestep time="14.75">
        <edge id="slow">
            <lane id="slow_0">
                <vehicle id="v0" pos="27.50" speed="5.00"/>
            </lane>
        </edge>
    </timestep>
    <timestep time="15.00">
        <edge id="slow">
            <lane id="slow_0">
                <vehicle id="v0" pos="28.75" speed="5.00"/>
            </lane>
        </edge>
    </timestep>
    <timestep time="15.25">
        <edge id="slow">
            <lane id="slow_0">
                <vehicle id="v0" pos="30.00" speed="5.00"/>
            </lane>
        </edge>
    </timestep>
    <timestep time="15.50">
        <edge id="slow">
            <lane id="slow_0">
                <vehicle id="v0" pos="31.25" speed="5.00"/>
            </lane>
        </edge>
    </timestep>
    <timestep time="15.75">
        <edge id="slow">
            <lane id="slow_0">
                <vehicle id="v0" pos="32.50" speed="5.00"/>
            </lane>
        </edge>
    </timestep>
    <timestep time="16.00">
        <edge id="slow">
            <lane id="slow_0">
                <vehicle id="v0" pos="33.75" speed="5.00"/>
            </lane>
        </edge>
    </timestep>
    <timestep time="16.25">
        <edge id="slow">
            <lane id="slow_0">
                <vehicle id="v0" pos="35.00" speed="5.00"/>
            </lane>
        </edge>
    </timestep>
    <timestep time="16.50">
        <edge id="slow">
            <lane id="slow_0">
                <vehicle id="v0" pos="36.25" speed="5.00"/>
            </lane>
        </edge>
    </timestep>
    <timestep time="16.75">
        <edge id="slow">
            <lane id="slow_0">
                <vehicle id="v0" pos="37.50" speed="5.00"/>
            </lane>
        </edge>
    </timestep>
    <timestep time="17.00">
        <edge id="slow">
            <lane id="slow_0">
                <vehicle id="v0" pos="38.75" speed="5.00"/>
            </lane>
        </edge>
    </timestep>
    <timestep time="17.25">
        <edge id="slow">
            <lane id="slow_0">
                <vehicle id="v0" pos="40.00" speed="5.00"/>
            </lane>
        </edge>
    </timestep>
    <timestep time="17.50">
        <edge id="slow">
            <lane id="slow_0">
                <vehicle id="v0" pos="41.25" speed="5.00"/>
            </lane>
        </edge>
    </timestep>
    <timestep time="17.75">
        <edge id="slow">
            <lane id="slow_0">
                <vehicle id="v0" pos="42.50" speed="5.00"/>
            </lane>
        </edge>
    </timestep>
    <timestep time="18.00">
        <edge id="slow">
            <lane id="slow_0">
                <vehicle id="v0" pos="43.75" speed="5.00"/>
            </lane>
        </edge>
    </timestep>
    <timestep time="18.25">
        <edge id="slow">
            <lane id="slow_0">
                <vehicle id="v0" pos="45.00" speed="5.00"/>
            </lane>
        </edge>
    </timestep>
    <timestep time="18.50">
        <edge id="slow">
            <lane id="slow_0">
                <vehicle id="v0" pos="46.25" speed="5.00"/>
            </lane>
        </edge>
    </timestep>
    <timestep time="18.75">
        <edge id="slow">
            <lane id="slow_0">
                <vehicle id="v0" pos="47.50" speed="5.00"/>
            </lane>
        </edge>
    </timestep>
    <timestep time="19.00">
        <edge id="slow">
            <lane id="slow_0">
                <vehicle id="v0" pos="48.75" speed="5.00"/>
            </lane>
        </edge>
    </timestep>
    <timestep time="19.25"/>
</netstate>
