<?xml version="1.0" encoding="UTF-8"?>

<!-- generated on Thu Jun 11 15:04:34 2020 by Eclipse SUMO Version v1_6_0+0680-3599babf66
This data file and the accompanying materials
are made available under the terms of the Eclipse Public License v2.0
which accompanies this distribution, and is available at
http://www.eclipse.org/legal/epl-v20.html
SPDX-License-Identifier: EPL-2.0
<configuration xmlns:xsi="http://www.w3.org/2001/XMLSchema-instance" xsi:noNamespaceSchemaLocation="http://sumo.dlr.de/xsd/sumoConfiguration.xsd">

    <input>
        <net-file value="net3.net.xml"/>
        <route-files value="input_routes.rou.xml"/>
        <additional-files value="input_additional2.add.xml"/>
    </input>

    <output>
        <write-license value="true"/>
        <tripinfo-output value="tripinfos.xml"/>
    </output>

    <processing>
        <collision.check-junctions value="true"/>
        <default.speeddev value="0"/>
        <pedestrian.model value="striping"/>
        <pedestrian.striping.dawdling value="0"/>
    </processing>

    <report>
        <xml-validation value="never"/>
        <no-step-log value="true"/>
    </report>

</configuration>
-->

<tripinfos xmlns:xsi="http://www.w3.org/2001/XMLSchema-instance" xsi:noNamespaceSchemaLocation="http://sumo.dlr.de/xsd/tripinfo_file.xsd">
    <tripinfo id="v0" depart="18.00" departLane="SC_1" departPos="60.00" departSpeed="0.00" departDelay="0.00" arrival="37.00" arrivalLane="CN_1" arrivalPos="90.45" arrivalSpeed="13.89" duration="19.00" routeLength="140.00" waitingTime="2.00" waitingCount="1" stopTime="0.00" timeLoss="8.01" rerouteNo="0" devices="tripinfo_v0" vType="t1" speedFactor="1.00" vaporized=""/>
    <personinfo id="blocker2" depart="18.00" type="tB">
        <walk depart="18.00" departPos="1.00" arrival="42.00" arrivalPos="90.44" duration="24.00" routeLength="20.11" timeLoss="9.52" maxSpeed="1.39"/>
    </personinfo>
    <personinfo id="blocker" depart="18.00" type="tB">
        <walk depart="18.00" departPos="1.00" arrival="42.00" arrivalPos="90.44" duration="24.00" routeLength="20.11" timeLoss="9.52" maxSpeed="1.39"/>
    </personinfo>
    <personinfo id="p0" depart="10.00" type="tB">
        <walk depart="10.00" departPos="89.45" arrival="91.00" arrivalPos="90.44" duration="81.00" routeLength="110.54" timeLoss="1.41" maxSpeed="1.39"/>
    </personinfo>
    <personinfo id="p1" depart="10.00" type="tB">
        <walk depart="10.00" departPos="87.45" arrival="92.00" arrivalPos="90.44" duration="82.00" routeLength="112.54" timeLoss="0.97" maxSpeed="1.39"/>
    </personinfo>
    <personinfo id="p2" depart="10.00" type="tB">
        <walk depart="10.00" departPos="85.45" arrival="94.00" arrivalPos="90.44" duration="84.00" routeLength="114.54" timeLoss="1.53" maxSpeed="1.39"/>
    </personinfo>
</tripinfos>
