<?xml version="1.0" encoding="UTF-8"?>

<!-- generated on Thu Feb 23 15:38:43 2017 by SUMO Version svn
<?xml version="1.0" encoding="UTF-8"?>

<configuration xmlns:xsi="http://www.w3.org/2001/XMLSchema-instance" xsi:noNamespaceSchemaLocation="http://sumo.dlr.de/xsd/sumoConfiguration.xsd">

    <input>
        <net-file value="net.net.xml"/>
        <route-files value="input_routes.rou.xml"/>
    </input>

    <output>
        <fcd-output value="fcd.xml"/>
    </output>

    <time>
        <begin value="0"/>
        <end value="3000"/>
    </time>

    <report>
        <xml-validation value="never"/>
        <duration-log.disable value="true"/>
        <no-step-log value="true"/>
    </report>

</configuration>
-->

<fcd-export xmlns:xsi="http://www.w3.org/2001/XMLSchema-instance" xsi:noNamespaceSchemaLocation="http://sumo.dlr.de/xsd/fcd_file.xsd">
    <timestep time="0.00">
        <vehicle id="r0" x="135.10" y="-0.37" z="0.68" angle="89.46" type="0" speed="0.00" pos="135.10" lane="e0_0" slope="0.29"/>
    </timestep>
    <timestep time="1.00">
        <vehicle id="r0" x="135.73" y="-0.37" z="0.68" angle="89.46" type="0" speed="0.62" pos="135.72" lane="e0_0" slope="0.29"/>
    </timestep>
    <timestep time="2.00">
        <vehicle id="r0" x="136.97" y="-0.36" z="0.69" angle="89.46" type="0" speed="1.25" pos="136.97" lane="e0_0" slope="0.29"/>
    </timestep>
    <timestep time="3.00">
        <vehicle id="r0" x="138.84" y="-0.34" z="0.69" angle="89.46" type="0" speed="1.87" pos="138.83" lane="e0_0" slope="0.29"/>
    </timestep>
    <timestep time="4.00">
        <vehicle id="r0" x="141.33" y="-0.31" z="0.71" angle="89.46" type="0" speed="2.49" pos="141.32" lane="e0_0" slope="0.29"/>
    </timestep>
    <timestep time="5.00">
        <vehicle id="r0" x="144.44" y="-0.29" z="0.72" angle="89.46" type="0" speed="3.11" pos="144.43" lane="e0_0" slope="0.29"/>
    </timestep>
    <timestep time="6.00">
        <vehicle id="r0" x="148.17" y="-0.25" z="0.74" angle="89.46" type="0" speed="3.73" pos="148.17" lane="e0_0" slope="0.29"/>
    </timestep>
    <timestep time="7.00">
        <vehicle id="r0" x="152.52" y="-0.21" z="0.76" angle="89.46" type="0" speed="4.35" pos="152.52" lane="e0_0" slope="0.29"/>
    </timestep>
    <timestep time="8.00">
        <vehicle id="r0" x="157.49" y="-0.16" z="0.79" angle="89.46" type="0" speed="4.97" pos="157.49" lane="e0_0" slope="0.29"/>
    </timestep>
    <timestep time="9.00">
        <vehicle id="r0" x="163.08" y="-0.11" z="0.82" angle="89.46" type="0" speed="5.59" pos="163.08" lane="e0_0" slope="0.29"/>
    </timestep>
    <timestep time="10.00">
        <vehicle id="r0" x="169.30" y="-0.05" z="0.85" angle="89.46" type="0" speed="6.21" pos="169.30" lane="e0_0" slope="0.29"/>
    </timestep>
    <timestep time="11.00">
        <vehicle id="r0" x="176.13" y="0.01" z="0.88" angle="89.46" type="0" speed="6.83" pos="176.13" lane="e0_0" slope="0.29"/>
    </timestep>
    <timestep time="12.00">
        <vehicle id="r0" x="183.58" y="0.08" z="0.92" angle="89.46" type="0" speed="7.45" pos="183.58" lane="e0_0" slope="0.29"/>
    </timestep>
    <timestep time="13.00">
        <vehicle id="r0" x="191.65" y="0.16" z="0.96" angle="89.46" type="0" speed="8.07" pos="191.65" lane="e0_0" slope="0.29"/>
    </timestep>
    <timestep time="14.00">
        <vehicle id="r0" x="200.33" y="0.24" z="1.00" angle="89.46" type="0" speed="8.69" pos="200.34" lane="e0_0" slope="0.29"/>
    </timestep>
    <timestep time="15.00">
        <vehicle id="r0" x="209.64" y="0.33" z="1.05" angle="89.46" type="0" speed="9.31" pos="209.65" lane="e0_0" slope="0.29"/>
    </timestep>
    <timestep time="16.00">
        <vehicle id="r0" x="219.57" y="0.42" z="1.10" angle="89.46" type="0" speed="9.93" pos="219.57" lane="e0_0" slope="0.29"/>
    </timestep>
    <timestep time="17.00">
        <vehicle id="r0" x="230.11" y="0.52" z="1.15" angle="89.46" type="0" speed="10.54" pos="230.12" lane="e0_0" slope="0.29"/>
    </timestep>
    <timestep time="18.00">
        <vehicle id="r0" x="241.27" y="0.63" z="1.21" angle="89.46" type="0" speed="11.16" pos="241.28" lane="e0_0" slope="0.29"/>
    </timestep>
    <timestep time="19.00">
        <vehicle id="r0" x="253.04" y="0.74" z="1.27" angle="89.46" type="0" speed="11.78" pos="253.05" lane="e0_0" slope="0.29"/>
    </timestep>
    <timestep time="20.00">
        <vehicle id="r0" x="265.44" y="0.86" z="1.33" angle="89.46" type="0" speed="12.40" pos="265.45" lane="e0_0" slope="0.29"/>
    </timestep>
    <timestep time="21.00">
        <vehicle id="r0" x="278.45" y="0.98" z="1.39" angle="89.46" type="0" speed="13.01" pos="278.46" lane="e0_0" slope="0.29"/>
    </timestep>
    <timestep time="22.00">
        <vehicle id="r0" x="292.07" y="1.11" z="1.46" angle="89.46" type="0" speed="13.63" pos="292.09" lane="e0_0" slope="0.29"/>
    </timestep>
    <timestep time="23.00">
        <vehicle id="r0" x="306.32" y="1.24" z="1.53" angle="89.46" type="0" speed="14.25" pos="306.34" lane="e0_0" slope="0.29"/>
    </timestep>
    <timestep time="24.00">
        <vehicle id="r0" x="321.18" y="1.38" z="1.61" angle="89.46" type="0" speed="14.86" pos="321.20" lane="e0_0" slope="0.29"/>
    </timestep>
    <timestep time="25.00">
        <vehicle id="r0" x="336.65" y="1.53" z="1.68" angle="89.46" type="0" speed="15.48" pos="336.67" lane="e0_0" slope="0.29"/>
    </timestep>
    <timestep time="26.00">
        <vehicle id="r0" x="352.74" y="1.68" z="1.77" angle="89.46" type="0" speed="16.09" pos="352.77" lane="e0_0" slope="0.29"/>
    </timestep>
    <timestep time="27.00">
        <vehicle id="r0" x="369.45" y="1.84" z="1.85" angle="89.46" type="0" speed="16.71" pos="369.48" lane="e0_0" slope="0.29"/>
    </timestep>
    <timestep time="28.00">
        <vehicle id="r0" x="386.77" y="2.00" z="1.94" angle="89.46" type="0" speed="17.32" pos="386.80" lane="e0_0" slope="0.29"/>
    </timestep>
    <timestep time="29.00">
        <vehicle id="r0" x="404.71" y="2.17" z="2.03" angle="89.46" type="0" speed="17.94" pos="404.74" lane="e0_0" slope="0.29"/>
    </timestep>
    <timestep time="30.00">
        <vehicle id="r0" x="423.26" y="2.35" z="2.12" angle="89.46" type="0" speed="18.55" pos="423.30" lane="e0_0" slope="0.29"/>
    </timestep>
    <timestep time="31.00">
        <vehicle id="r0" x="442.43" y="2.53" z="2.21" angle="89.46" type="0" speed="19.17" pos="442.47" lane="e0_0" slope="0.29"/>
    </timestep>
    <timestep time="32.00">
        <vehicle id="r0" x="462.21" y="2.72" z="2.31" angle="89.46" type="0" speed="19.78" pos="462.25" lane="e0_0" slope="0.29"/>
    </timestep>
    <timestep time="33.00">
        <vehicle id="r0" x="482.61" y="2.91" z="2.41" angle="89.46" type="0" speed="20.40" pos="482.65" lane="e0_0" slope="0.29"/>
    </timestep>
    <timestep time="34.00">
        <vehicle id="r0" x="503.62" y="3.11" z="2.52" angle="89.46" type="0" speed="21.01" pos="503.66" lane="e0_0" slope="0.29"/>
    </timestep>
    <timestep time="35.00">
        <vehicle id="r0" x="525.24" y="3.31" z="2.63" angle="89.46" type="0" speed="21.63" pos="525.29" lane="e0_0" slope="0.29"/>
    </timestep>
    <timestep time="36.00">
        <vehicle id="r0" x="547.48" y="3.52" z="2.74" angle="89.46" type="0" speed="22.24" pos="547.53" lane="e0_0" slope="0.29"/>
    </timestep>
    <timestep time="37.00">
        <vehicle id="r0" x="570.33" y="3.74" z="2.85" angle="89.46" type="0" speed="22.85" pos="570.38" lane="e0_0" slope="0.29"/>
    </timestep>
    <timestep time="38.00">
        <vehicle id="r0" x="593.80" y="3.96" z="2.97" angle="89.46" type="0" speed="23.47" pos="593.85" lane="e0_0" slope="0.29"/>
    </timestep>
    <timestep time="39.00">
        <vehicle id="r0" x="617.87" y="4.19" z="3.09" angle="89.46" type="0" speed="24.08" pos="617.93" lane="e0_0" slope="0.29"/>
    </timestep>
    <timestep time="40.00">
        <vehicle id="r0" x="642.56" y="4.42" z="3.22" angle="89.46" type="0" speed="24.69" pos="642.62" lane="e0_0" slope="0.29"/>
    </timestep>
    <timestep time="41.00">
        <vehicle id="r0" x="667.86" y="4.66" z="3.34" angle="89.46" type="0" speed="25.30" pos="667.93" lane="e0_0" slope="0.29"/>
    </timestep>
    <timestep time="42.00">
        <vehicle id="r0" x="693.77" y="4.90" z="3.47" angle="89.46" type="0" speed="25.92" pos="693.84" lane="e0_0" slope="0.29"/>
    </timestep>
    <timestep time="43.00">
        <vehicle id="r0" x="720.30" y="5.15" z="3.60" angle="89.46" type="0" speed="26.53" pos="720.37" lane="e0_0" slope="0.29"/>
    </timestep>
    <timestep time="44.00">
        <vehicle id="r0" x="747.43" y="5.41" z="3.74" angle="89.46" type="0" speed="27.14" pos="747.50" lane="e0_0" slope="0.29"/>
    </timestep>
    <timestep time="45.00">
        <vehicle id="r0" x="775.17" y="5.67" z="3.88" angle="89.46" type="0" speed="27.75" pos="775.25" lane="e0_0" slope="0.29"/>
    </timestep>
    <timestep time="46.00">
        <vehicle id="r0" x="803.53" y="5.94" z="4.02" angle="89.46" type="0" speed="28.36" pos="803.61" lane="e0_0" slope="0.29"/>
    </timestep>
    <timestep time="47.00">
        <vehicle id="r0" x="832.49" y="6.21" z="4.17" angle="89.46" type="0" speed="28.97" pos="832.58" lane="e0_0" slope="0.29"/>
    </timestep>
    <timestep time="48.00">
        <vehicle id="r0" x="862.07" y="6.49" z="4.31" angle="89.46" type="0" speed="29.58" pos="862.15" lane="e0_0" slope="0.29"/>
    </timestep>
    <timestep time="49.00">
        <vehicle id="r0" x="892.25" y="6.78" z="4.46" angle="89.46" type="0" speed="30.19" pos="892.34" lane="e0_0" slope="0.29"/>
    </timestep>
    <timestep time="50.00">
        <vehicle id="r0" x="923.04" y="7.07" z="4.62" angle="89.46" type="0" speed="30.80" pos="923.14" lane="e0_0" slope="0.29"/>
    </timestep>
    <timestep time="51.00">
        <vehicle id="r0" x="954.44" y="7.37" z="4.78" angle="89.46" type="0" speed="31.40" pos="954.54" lane="e0_0" slope="0.29"/>
    </timestep>
    <timestep time="52.00">
        <vehicle id="r0" x="986.45" y="7.67" z="4.94" angle="89.46" type="0" speed="32.01" pos="986.55" lane="e0_0" slope="0.29"/>
    </timestep>
    <timestep time="53.00">
        <vehicle id="r0" x="1019.06" y="7.98" z="5.10" angle="89.46" type="0" speed="32.62" pos="1019.17" lane="e0_0" slope="0.29"/>
    </timestep>
    <timestep time="54.00">
        <vehicle id="r0" x="1052.29" y="8.29" z="5.27" angle="89.46" type="0" speed="33.23" pos="1052.40" lane="e0_0" slope="0.29"/>
    </timestep>
    <timestep time="55.00">
        <vehicle id="r0" x="1086.12" y="8.61" z="5.43" angle="89.46" type="0" speed="33.83" pos="1086.23" lane="e0_0" slope="0.29"/>
    </timestep>
    <timestep time="56.00">
        <vehicle id="r0" x="1120.55" y="8.94" z="5.61" angle="89.46" type="0" speed="34.44" pos="1120.67" lane="e0_0" slope="0.29"/>
    </timestep>
    <timestep time="57.00">
        <vehicle id="r0" x="1155.59" y="9.27" z="5.78" angle="89.46" type="0" speed="35.05" pos="1155.72" lane="e0_0" slope="0.29"/>
    </timestep>
    <timestep time="58.00">
        <vehicle id="r0" x="1191.24" y="9.60" z="5.96" angle="89.46" type="0" speed="35.65" pos="1191.37" lane="e0_0" slope="0.29"/>
    </timestep>
    <timestep time="59.00">
        <vehicle id="r0" x="1227.49" y="9.95" z="6.14" angle="89.46" type="0" speed="36.26" pos="1227.63" lane="e0_0" slope="0.29"/>
    </timestep>
    <timestep time="60.00">
        <vehicle id="r0" x="1264.35" y="10.30" z="6.33" angle="89.46" type="0" speed="36.86" pos="1264.49" lane="e0_0" slope="0.29"/>
    </timestep>
    <timestep time="61.00">
        <vehicle id="r0" x="1301.82" y="10.65" z="6.51" angle="89.46" type="0" speed="37.47" pos="1301.96" lane="e0_0" slope="0.29"/>
    </timestep>
    <timestep time="62.00">
        <vehicle id="r0" x="1339.88" y="11.01" z="6.70" angle="89.46" type="0" speed="38.07" pos="1340.03" lane="e0_0" slope="0.29"/>
    </timestep>
    <timestep time="63.00">
        <vehicle id="r0" x="1378.55" y="11.37" z="6.90" angle="89.46" type="0" speed="38.68" pos="1378.71" lane="e0_0" slope="0.29"/>
    </timestep>
    <timestep time="64.00">
        <vehicle id="r0" x="1417.83" y="11.75" z="7.09" angle="89.46" type="0" speed="39.28" pos="1417.99" lane="e0_0" slope="0.29"/>
    </timestep>
    <timestep time="65.00">
        <vehicle id="r0" x="1457.71" y="12.12" z="7.29" angle="89.46" type="0" speed="39.88" pos="1457.87" lane="e0_0" slope="0.29"/>
    </timestep>
    <timestep time="66.00">
        <vehicle id="r0" x="1498.19" y="12.50" z="7.50" angle="89.46" type="0" speed="40.49" pos="1498.35" lane="e0_0" slope="0.29"/>
    </timestep>
    <timestep time="67.00">
        <vehicle id="r0" x="1539.27" y="12.89" z="7.70" angle="89.46" type="0" speed="41.09" pos="1539.44" lane="e0_0" slope="0.29"/>
    </timestep>
    <timestep time="68.00">
        <vehicle id="r0" x="1580.95" y="13.29" z="7.91" angle="89.46" type="0" speed="41.69" pos="1581.13" lane="e0_0" slope="0.29"/>
    </timestep>
    <timestep time="69.00">
        <vehicle id="r0" x="1623.24" y="13.69" z="8.12" angle="89.46" type="0" speed="42.29" pos="1623.43" lane="e0_0" slope="0.29"/>
    </timestep>
    <timestep time="70.00">
        <vehicle id="r0" x="1666.13" y="14.09" z="8.34" angle="89.46" type="0" speed="42.89" pos="1666.32" lane="e0_0" slope="0.29"/>
    </timestep>
    <timestep time="71.00">
        <vehicle id="r0" x="1709.62" y="14.50" z="8.55" angle="89.46" type="0" speed="43.50" pos="1709.82" lane="e0_0" slope="0.29"/>
    </timestep>
    <timestep time="72.00">
        <vehicle id="r0" x="1753.71" y="14.92" z="8.78" angle="89.46" type="0" speed="44.10" pos="1753.91" lane="e0_0" slope="0.29"/>
    </timestep>
    <timestep time="73.00">
        <vehicle id="r0" x="1798.41" y="15.34" z="9.00" angle="89.46" type="0" speed="44.70" pos="1798.61" lane="e0_0" slope="0.29"/>
    </timestep>
    <timestep time="74.00">
        <vehicle id="r0" x="1843.70" y="15.77" z="9.23" angle="89.46" type="0" speed="45.30" pos="1843.91" lane="e0_0" slope="0.29"/>
    </timestep>
    <timestep time="75.00">
        <vehicle id="r0" x="1889.60" y="16.20" z="9.46" angle="89.46" type="0" speed="45.90" pos="1889.81" lane="e0_0" slope="0.29"/>
    </timestep>
    <timestep time="76.00">
        <vehicle id="r0" x="1936.09" y="16.64" z="9.69" angle="89.46" type="0" speed="46.50" pos="1936.31" lane="e0_0" slope="0.29"/>
    </timestep>
    <timestep time="77.00">
        <vehicle id="r0" x="1983.19" y="17.09" z="9.92" angle="89.46" type="0" speed="47.10" pos="1983.41" lane="e0_0" slope="0.29"/>
    </timestep>
    <timestep time="78.00">
        <vehicle id="r0" x="2001.93" y="17.22" z="9.98" angle="89.48" type="0" speed="47.70" pos="32.50" lane="e1_0" slope="-0.29"/>
    </timestep>
    <timestep time="79.00">
        <vehicle id="r0" x="2006.76" y="17.20" z="9.96" angle="89.56" type="0" speed="48.40" pos="80.89" lane="e1_0" slope="-0.29"/>
    </timestep>
    <timestep time="80.00">
        <vehicle id="r0" x="2011.67" y="17.18" z="9.94" angle="90.00" type="0" speed="49.09" pos="129.98" lane="e1_0" slope="-0.29"/>
    </timestep>
    <timestep time="81.00">
        <vehicle id="r0" x="2016.64" y="17.16" z="9.91" angle="90.21" type="0" speed="49.78" pos="179.76" lane="e1_0" slope="-0.29"/>
    </timestep>
    <timestep time="82.00">
        <vehicle id="r0" x="2021.69" y="17.14" z="9.88" angle="90.21" type="0" speed="50.48" pos="230.24" lane="e1_0" slope="-0.29"/>
    </timestep>
    <timestep time="83.00">
        <vehicle id="r0" x="2026.80" y="17.13" z="9.86" angle="90.21" type="0" speed="51.17" pos="281.41" lane="e1_0" slope="-0.29"/>
    </timestep>
    <timestep time="84.00">
        <vehicle id="r0" x="2031.98" y="17.11" z="9.83" angle="90.21" type="0" speed="51.86" pos="333.27" lane="e1_0" slope="-0.29"/>
    </timestep>
    <timestep time="85.00">
        <vehicle id="r0" x="2037.24" y="17.09" z="9.81" angle="90.21" type="0" speed="52.55" pos="385.82" lane="e1_0" slope="-0.29"/>
    </timestep>
    <timestep time="86.00">
        <vehicle id="r0" x="2042.56" y="17.07" z="9.78" angle="90.21" type="0" speed="53.24" pos="439.07" lane="e1_0" slope="-0.29"/>
    </timestep>
    <timestep time="87.00">
        <vehicle id="r0" x="2047.95" y="17.05" z="9.75" angle="90.21" type="0" speed="53.94" pos="493.00" lane="e1_0" slope="-0.29"/>
    </timestep>
    <timestep time="88.00">
        <vehicle id="r0" x="2053.41" y="17.03" z="9.73" angle="90.21" type="0" speed="54.63" pos="547.63" lane="e1_0" slope="-0.29"/>
    </timestep>
    <timestep time="89.00">
        <vehicle id="r0" x="2058.93" y="17.01" z="9.70" angle="90.21" type="0" speed="55.32" pos="602.95" lane="e1_0" slope="-0.29"/>
    </timestep>
    <timestep time="90.00">
        <vehicle id="r0" x="2064.53" y="16.98" z="9.67" angle="90.21" type="0" speed="56.01" pos="658.95" lane="e1_0" slope="-0.29"/>
    </timestep>
    <timestep time="91.00">
        <vehicle id="r0" x="2070.20" y="16.96" z="9.64" angle="90.21" type="0" speed="56.70" pos="715.65" lane="e1_0" slope="-0.29"/>
    </timestep>
    <timestep time="92.00">
        <vehicle id="r0" x="2075.93" y="16.94" z="9.61" angle="90.21" type="0" speed="57.38" pos="773.03" lane="e1_0" slope="-0.29"/>
    </timestep>
    <timestep time="93.00">
        <vehicle id="r0" x="2081.73" y="16.92" z="9.58" angle="90.21" type="0" speed="58.07" pos="831.11" lane="e1_0" slope="-0.29"/>
    </timestep>
    <timestep time="94.00">
        <vehicle id="r0" x="2087.61" y="16.90" z="9.56" angle="90.21" type="0" speed="58.76" pos="889.87" lane="e1_0" slope="-0.29"/>
    </timestep>
    <timestep time="95.00">
        <vehicle id="r0" x="2093.55" y="16.88" z="9.53" angle="90.21" type="0" speed="59.45" pos="949.31" lane="e1_0" slope="-0.29"/>
    </timestep>
    <timestep time="96.00">
        <vehicle id="r0" x="2099.56" y="16.85" z="9.50" angle="90.21" type="0" speed="60.14" pos="1009.45" lane="e1_0" slope="-0.29"/>
    </timestep>
    <timestep time="97.00">
        <vehicle id="r0" x="2105.64" y="16.83" z="9.46" angle="90.21" type="0" speed="60.82" pos="1070.27" lane="e1_0" slope="-0.29"/>
    </timestep>
    <timestep time="98.00">
        <vehicle id="r0" x="2111.78" y="16.81" z="9.43" angle="90.21" type="0" speed="61.51" pos="1131.78" lane="e1_0" slope="-0.29"/>
    </timestep>
    <timestep time="99.00">
        <vehicle id="r0" x="2118.00" y="16.78" z="9.40" angle="90.21" type="0" speed="62.19" pos="1193.97" lane="e1_0" slope="-0.29"/>
    </timestep>
    <timestep time="100.00">
        <vehicle id="r0" x="2124.28" y="16.76" z="9.37" angle="90.21" type="0" speed="62.88" pos="1256.85" lane="e1_0" slope="-0.29"/>
    </timestep>
    <timestep time="101.00">
        <vehicle id="r0" x="2130.63" y="16.74" z="9.34" angle="90.21" type="0" speed="63.56" pos="1320.41" lane="e1_0" slope="-0.29"/>
    </timestep>
    <timestep time="102.00">
        <vehicle id="r0" x="2137.05" y="16.71" z="9.31" angle="90.21" type="0" speed="64.25" pos="1384.66" lane="e1_0" slope="-0.29"/>
    </timestep>
    <timestep time="103.00">
        <vehicle id="r0" x="2143.54" y="16.69" z="9.28" angle="90.21" type="0" speed="64.93" pos="1449.59" lane="e1_0" slope="-0.29"/>
    </timestep>
    <timestep time="104.00">
        <vehicle id="r0" x="2150.10" y="16.66" z="9.24" angle="90.21" type="0" speed="65.61" pos="1515.21" lane="e1_0" slope="-0.29"/>
    </timestep>
    <timestep time="105.00">
        <vehicle id="r0" x="2156.72" y="16.64" z="9.21" angle="90.21" type="0" speed="66.30" pos="1581.50" lane="e1_0" slope="-0.29"/>
    </timestep>
    <timestep time="106.00">
        <vehicle id="r0" x="2163.42" y="16.62" z="9.18" angle="90.21" type="0" speed="66.98" pos="1648.48" lane="e1_0" slope="-0.29"/>
    </timestep>
    <timestep time="107.00">
        <vehicle id="r0" x="2170.18" y="16.59" z="9.14" angle="90.21" type="0" speed="67.66" pos="1716.14" lane="e1_0" slope="-0.29"/>
    </timestep>
    <timestep time="108.00">
        <vehicle id="r0" x="2177.01" y="16.56" z="9.11" angle="90.21" type="0" speed="68.34" pos="1784.49" lane="e1_0" slope="-0.29"/>
    </timestep>
    <timestep time="109.00">
        <vehicle id="r0" x="2183.91" y="16.54" z="9.07" angle="90.21" type="0" speed="69.02" pos="1853.51" lane="e1_0" slope="-0.29"/>
    </timestep>
    <timestep time="110.00">
        <vehicle id="r0" x="2190.87" y="16.51" z="9.04" angle="90.21" type="0" speed="69.70" pos="1923.21" lane="e1_0" slope="-0.29"/>
    </timestep>
    <timestep time="111.00">
        <vehicle id="r0" x="2197.91" y="16.49" z="9.00" angle="90.21" type="0" speed="70.38" pos="1993.60" lane="e1_0" slope="-0.29"/>
    </timestep>
    <timestep time="112.00">
        <vehicle id="r0" x="2205.01" y="16.46" z="8.97" angle="90.21" type="0" speed="71.06" pos="2064.66" lane="e1_0" slope="-0.29"/>
    </timestep>
    <timestep time="113.00">
        <vehicle id="r0" x="2212.18" y="16.43" z="8.93" angle="90.21" type="0" speed="71.74" pos="2136.40" lane="e1_0" slope="-0.29"/>
    </timestep>
    <timestep time="114.00">
        <vehicle id="r0" x="2219.41" y="16.41" z="8.90" angle="90.21" type="0" speed="72.42" pos="2208.82" lane="e1_0" slope="-0.29"/>
    </timestep>
    <timestep time="115.00">
        <vehicle id="r0" x="2226.72" y="16.38" z="8.86" angle="90.21" type="0" speed="73.10" pos="2281.92" lane="e1_0" slope="-0.29"/>
    </timestep>
    <timestep time="116.00">
        <vehicle id="r0" x="2234.09" y="16.35" z="8.82" angle="90.21" type="0" speed="73.78" pos="2355.70" lane="e1_0" slope="-0.29"/>
    </timestep>
    <timestep time="117.00">
        <vehicle id="r0" x="2241.53" y="16.32" z="8.78" angle="90.21" type="0" speed="74.45" pos="2430.15" lane="e1_0" slope="-0.29"/>
    </timestep>
    <timestep time="118.00">
        <vehicle id="r0" x="2249.04" y="16.30" z="8.75" angle="90.21" type="0" speed="75.13" pos="2505.28" lane="e1_0" slope="-0.29"/>
    </timestep>
    <timestep time="119.00">
        <vehicle id="r0" x="2256.62" y="16.27" z="8.71" angle="90.21" type="0" speed="75.81" pos="2581.09" lane="e1_0" slope="-0.29"/>
    </timestep>
    <timestep time="120.00">
        <vehicle id="r0" x="2264.26" y="16.24" z="8.67" angle="90.21" type="0" speed="76.48" pos="2657.58" lane="e1_0" slope="-0.29"/>
    </timestep>
    <timestep time="121.00">
        <vehicle id="r0" x="2271.97" y="16.21" z="8.63" angle="90.21" type="0" speed="77.16" pos="2734.74" lane="e1_0" slope="-0.29"/>
    </timestep>
    <timestep time="122.00">
        <vehicle id="r0" x="2279.75" y="16.18" z="8.59" angle="90.21" type="0" speed="77.84" pos="2812.57" lane="e1_0" slope="-0.29"/>
    </timestep>
    <timestep time="123.00">
        <vehicle id="r0" x="2287.59" y="16.15" z="8.55" angle="90.21" type="0" speed="78.51" pos="2891.08" lane="e1_0" slope="-0.29"/>
    </timestep>
    <timestep time="124.00">
        <vehicle id="r0" x="2295.51" y="16.12" z="8.51" angle="90.21" type="0" speed="79.19" pos="2970.27" lane="e1_0" slope="-0.29"/>
    </timestep>
    <timestep time="125.00">
        <vehicle id="r0" x="2303.49" y="16.09" z="8.47" angle="90.21" type="0" speed="79.86" pos="3050.13" lane="e1_0" slope="-0.29"/>
    </timestep>
    <timestep time="126.00">
        <vehicle id="r0" x="2311.54" y="16.06" z="8.43" angle="90.21" type="0" speed="80.53" pos="3130.66" lane="e1_0" slope="-0.29"/>
    </timestep>
    <timestep time="127.00">
        <vehicle id="r0" x="2319.65" y="16.03" z="8.39" angle="90.21" type="0" speed="81.21" pos="3211.87" lane="e1_0" slope="-0.29"/>
    </timestep>
    <timestep time="128.00">
        <vehicle id="r0" x="2327.83" y="16.00" z="8.35" angle="90.21" type="0" speed="81.88" pos="3293.75" lane="e1_0" slope="-0.29"/>
    </timestep>
    <timestep time="129.00">
        <vehicle id="r0" x="2336.08" y="15.97" z="8.31" angle="90.21" type="0" speed="82.55" pos="3376.30" lane="e1_0" slope="-0.29"/>
    </timestep>
    <timestep time="130.00">
        <vehicle id="r0" x="2344.40" y="15.94" z="8.27" angle="90.21" type="0" speed="83.22" pos="3459.53" lane="e1_0" slope="-0.29"/>
    </timestep>
    <timestep time="131.00">
        <vehicle id="r0" x="2352.78" y="15.91" z="8.23" angle="90.21" type="0" speed="83.90" pos="3543.42" lane="e1_0" slope="-0.29"/>
    </timestep>
    <timestep time="132.00">
        <vehicle id="r0" x="2361.11" y="15.88" z="8.19" angle="90.21" type="0" speed="83.33" pos="3626.76" lane="e1_0" slope="-0.29"/>
    </timestep>
    <timestep time="133.00">
        <vehicle id="r0" x="2369.44" y="15.85" z="8.14" angle="90.21" type="0" speed="83.33" pos="3710.09" lane="e1_0" slope="-0.29"/>
    </timestep>
    <timestep time="134.00">
        <vehicle id="r0" x="2377.77" y="15.82" z="8.10" angle="90.21" type="0" speed="83.33" pos="3793.42" lane="e1_0" slope="-0.29"/>
    </timestep>
    <timestep time="135.00">
        <vehicle id="r0" x="2386.10" y="15.78" z="8.06" angle="90.21" type="0" speed="83.33" pos="3876.76" lane="e1_0" slope="-0.29"/>
    </timestep>
    <timestep time="136.00">
        <vehicle id="r0" x="2394.42" y="15.75" z="8.02" angle="90.21" type="0" speed="83.33" pos="3960.09" lane="e1_0" slope="-0.29"/>
    </timestep>
    <timestep time="137.00">
        <vehicle id="r0" x="2402.75" y="15.72" z="7.98" angle="90.21" type="0" speed="83.33" pos="4043.42" lane="e1_0" slope="-0.29"/>
    </timestep>
    <timestep time="138.00">
        <vehicle id="r0" x="2411.08" y="15.69" z="7.94" angle="90.21" type="0" speed="83.33" pos="4126.76" lane="e1_0" slope="-0.29"/>
    </timestep>
    <timestep time="139.00">
        <vehicle id="r0" x="2419.41" y="15.66" z="7.89" angle="90.21" type="0" speed="83.33" pos="4210.09" lane="e1_0" slope="-0.29"/>
    </timestep>
    <timestep time="140.00">
        <vehicle id="r0" x="2427.73" y="15.63" z="7.85" angle="90.21" type="0" speed="83.33" pos="4293.42" lane="e1_0" slope="-0.29"/>
    </timestep>
    <timestep time="141.00">
        <vehicle id="r0" x="2436.06" y="15.60" z="7.81" angle="90.21" type="0" speed="83.33" pos="4376.76" lane="e1_0" slope="-0.29"/>
    </timestep>
    <timestep time="142.00">
        <vehicle id="r0" x="2444.39" y="15.57" z="7.77" angle="90.21" type="0" speed="83.33" pos="4460.09" lane="e1_0" slope="-0.29"/>
    </timestep>
    <timestep time="143.00">
        <vehicle id="r0" x="2452.72" y="15.54" z="7.73" angle="90.21" type="0" speed="83.33" pos="4543.42" lane="e1_0" slope="-0.29"/>
    </timestep>
    <timestep time="144.00">
        <vehicle id="r0" x="2461.05" y="15.50" z="7.69" angle="90.21" type="0" speed="83.33" pos="4626.76" lane="e1_0" slope="-0.29"/>
    </timestep>
    <timestep time="145.00">
        <vehicle id="r0" x="2469.37" y="15.47" z="7.64" angle="90.21" type="0" speed="83.33" pos="4710.09" lane="e1_0" slope="-0.29"/>
    </timestep>
    <timestep time="146.00">
        <vehicle id="r0" x="2477.70" y="15.44" z="7.60" angle="90.21" type="0" speed="83.33" pos="4793.42" lane="e1_0" slope="-0.29"/>
    </timestep>
    <timestep time="147.00">
        <vehicle id="r0" x="2486.03" y="15.41" z="7.56" angle="90.21" type="0" speed="83.33" pos="4876.76" lane="e1_0" slope="-0.29"/>
    </timestep>
    <timestep time="148.00">
        <vehicle id="r0" x="2494.36" y="15.38" z="7.52" angle="90.21" type="0" speed="83.33" pos="4960.09" lane="e1_0" slope="-0.29"/>
    </timestep>
    <timestep time="149.00">
        <vehicle id="r0" x="2502.68" y="15.35" z="7.48" angle="90.21" type="0" speed="83.33" pos="5043.42" lane="e1_0" slope="-0.29"/>
    </timestep>
    <timestep time="150.00">
        <vehicle id="r0" x="2511.01" y="15.32" z="7.44" angle="90.21" type="0" speed="83.33" pos="5126.76" lane="e1_0" slope="-0.29"/>
    </timestep>
    <timestep time="151.00">
        <vehicle id="r0" x="2519.34" y="15.29" z="7.39" angle="90.21" type="0" speed="83.33" pos="5210.09" lane="e1_0" slope="-0.29"/>
    </timestep>
    <timestep time="152.00">
        <vehicle id="r0" x="2527.67" y="15.26" z="7.35" angle="90.21" type="0" speed="83.33" pos="5293.42" lane="e1_0" slope="-0.29"/>
    </timestep>
    <timestep time="153.00">
        <vehicle id="r0" x="2536.00" y="15.22" z="7.31" angle="90.21" type="0" speed="83.33" pos="5376.76" lane="e1_0" slope="-0.29"/>
    </timestep>
    <timestep time="154.00">
        <vehicle id="r0" x="2544.32" y="15.19" z="7.27" angle="90.21" type="0" speed="83.33" pos="5460.09" lane="e1_0" slope="-0.29"/>
    </timestep>
    <timestep time="155.00">
        <vehicle id="r0" x="2552.65" y="15.16" z="7.23" angle="90.21" type="0" speed="83.33" pos="5543.42" lane="e1_0" slope="-0.29"/>
    </timestep>
    <timestep time="156.00">
        <vehicle id="r0" x="2560.98" y="15.13" z="7.19" angle="90.21" type="0" speed="83.33" pos="5626.76" lane="e1_0" slope="-0.29"/>
    </timestep>
    <timestep time="157.00">
        <vehicle id="r0" x="2569.31" y="15.10" z="7.14" angle="90.21" type="0" speed="83.33" pos="5710.09" lane="e1_0" slope="-0.29"/>
    </timestep>
    <timestep time="158.00">
        <vehicle id="r0" x="2577.63" y="15.07" z="7.10" angle="90.21" type="0" speed="83.33" pos="5793.42" lane="e1_0" slope="-0.29"/>
    </timestep>
    <timestep time="159.00">
        <vehicle id="r0" x="2585.96" y="15.04" z="7.06" angle="90.21" type="0" speed="83.33" pos="5876.76" lane="e1_0" slope="-0.29"/>
    </timestep>
    <timestep time="160.00">
        <vehicle id="r0" x="2594.29" y="15.01" z="7.02" angle="90.21" type="0" speed="83.33" pos="5960.09" lane="e1_0" slope="-0.29"/>
    </timestep>
    <timestep time="161.00">
        <vehicle id="r0" x="2602.62" y="14.98" z="6.98" angle="90.21" type="0" speed="83.33" pos="6043.42" lane="e1_0" slope="-0.29"/>
    </timestep>
    <timestep time="162.00">
        <vehicle id="r0" x="2610.95" y="14.94" z="6.94" angle="90.21" type="0" speed="83.33" pos="6126.76" lane="e1_0" slope="-0.29"/>
    </timestep>
    <timestep time="163.00">
        <vehicle id="r0" x="2619.27" y="14.91" z="6.89" angle="90.21" type="0" speed="83.33" pos="6210.09" lane="e1_0" slope="-0.29"/>
    </timestep>