<?xml version="1.0"?>

<!-- generated on 03/25/10 08:21:47 by SUMO sumo Version dev-SVN-r8511
<configuration>

    <input>
        <net-file value="three_split.net.xml"/>
        <route-files value="input_routes.rou.xml"/>
        <additional-files value="input_additional.add.xml"/>
    </input>

    <output>
        <vehroute-output value="vehroutes.xml"/>
    </output>

    <report>
        <no-duration-log value="true"/>
        <no-step-log value="true"/>
    </report>

    <mesoscopic>
        <mesosim value="true"/>
    </mesoscopic>

</configuration>
-->

<routes>
    <vehicle id="veh0" depart="1" arrival="73.00">
        <route edges="beg middle end rend"/>
    </vehicle>

    <vehicle id="inserted_calibtest_time_36.00_0" depart="36" arrival="104.00">
        <route edges="beg middle end rend"/>
    </vehicle>

    <vehicle id="inserted_calibtest_time_54.00_1" depart="54" arrival="122.00">
        <route edges="beg middle end rend"/>
    </vehicle>

    <vehicle id="inserted_calibtest_time_72.00_2" depart="72" arrival="140.00">
        <route edges="beg middle end rend"/>
    </vehicle>

    <vehicle id="inserted_calibtest_time_90.00_3" depart="90" arrival="158.00">
        <route edges="beg middle end rend"/>
    </vehicle>

</routes>
