<?xml version="1.0" encoding="UTF-8"?>

<!-- generated on 2025-06-12 11:30:17 by Eclipse SUMO sumo Version v1_23_1+0530-a9b9ae50053
This data file and the accompanying materials
are made available under the terms of the Eclipse Public License v2.0
which accompanies this distribution, and is available at
http://www.eclipse.org/legal/epl-v20.html
This file may also be made available under the following Secondary
Licenses when the conditions for such availability set forth in the Eclipse
Public License 2.0 are satisfied: GNU General Public License, version 2
or later which is available at
https://www.gnu.org/licenses/old-licenses/gpl-2.0-standalone.html
SPDX-License-Identifier: EPL-2.0 OR GPL-2.0-or-later
<sumoConfiguration xmlns:xsi="http://www.w3.org/2001/XMLSchema-instance" xsi:noNamespaceSchemaLocation="http://sumo.dlr.de/xsd/sumoConfiguration.xsd">

    <input>
        <net-file value="net.net.xml"/>
        <route-files value="input_routes.rou.xml"/>
        <additional-files value="input_additional.add.xml"/>
    </input>

    <output>
        <write-license value="true"/>
        <vehroute-output value="vehroutes.xml"/>
        <railsignal-block-output value="railsignal_blocks.xml"/>
        <stop-output value="stopinfos.xml"/>
    </output>

    <processing>
        <time-to-teleport.railsignal-deadlock value="200"/>
        <default.speeddev value="0"/>
    </processing>

    <routing>
        <device.rerouting.mode value="8"/>
    </routing>

    <report>
        <xml-validation value="never"/>
        <duration-log.disable value="true"/>
        <no-step-log value="true"/>
    </report>

    <mesoscopic>
        <mesosim value="true"/>
        <meso-junction-control value="true"/>
    </mesoscopic>

</sumoConfiguration>
-->

<stops xmlns:xsi="http://www.w3.org/2001/XMLSchema-instance" xsi:noNamespaceSchemaLocation="http://sumo.dlr.de/xsd/stopinfo_file.xsd">
    <stopinfo id="v_0" type="train" edge="E0" pos="100.00" parking="0" started="7.20" ended="28.00" delay="8.00" initialPersons="0" loadedPersons="0" unloadedPersons="0" initialContainers="0" loadedContainers="0" unloadedContainers="0" blockedDuration="0.00"/>
    <stopinfo id="v_0" type="train" edge="E4" pos="100.00" parking="0" started="61.96" ended="208.00" delay="8.00" initialPersons="0" loadedPersons="0" unloadedPersons="0" initialContainers="0" loadedContainers="0" unloadedContainers="0" blockedDuration="0.00"/>
</stops>
