<?xml version="1.0" encoding="UTF-8"?>

<meandata xmlns:xsi="http://www.w3.org/2001/XMLSchema-instance" xsi:noNamespaceSchemaLocation="http://sumo.dlr.de/xsd/meandata_file.xsd">
    <interval begin="0" end="100" id="ABC">
        <edge id="2/1to1/1"/>
        <edge id="1/1to2/1"/>
        <edge id="2/1to3/1"/>
    </interval>
</meandata>
