<?xml version="1.0"?>

<!-- generated on 11/11/09 14:50:41 by SUMO sumo Version dev-SVN-r7969
<configuration>

    <input>
        <net-file value="net.net.xml"/>
        <additional-files value="input_routes.rou.xml,input_additional.add.xml,input_additional2.add.xml"/>
    </input>

    <time>
        <begin value="0"/>
        <end value="100"/>
    </time>

    <report>
        <no-duration-log value="true"/>
        <no-step-log value="true"/>
    </report>

    <mesoscopic>
        <mesosim value="true"/>
    </mesoscopic>

</configuration>
-->

<detector>
   <interval begin="0" end="10" id="3/1to2/1" sampledSeconds="0.00" departed="0" arrived="0" entered="0" left="0"/>
   <interval begin="0" end="10" id="4/1to3/1" sampledSeconds="9.00" density="9.22" occupancy="4.61" waitingTime="0.00" speed="10.00" departed="1" arrived="0" entered="0" left="0"/>
   <interval begin="10" end="20" id="3/1to2/1" sampledSeconds="0.00" departed="0" arrived="0" entered="0" left="0"/>
   <interval begin="10" end="20" id="4/1to3/1" sampledSeconds="0.76" density="0.78" occupancy="0.39" waitingTime="0.00" speed="10.00" departed="0" arrived="0" entered="0" left="1"/>
   <interval begin="20" end="30" id="3/1to2/1" sampledSeconds="0.00" departed="0" arrived="0" entered="0" left="0"/>
   <interval begin="20" end="30" id="4/1to3/1" sampledSeconds="0.00" departed="0" arrived="0" entered="0" left="0"/>
   <interval begin="30" end="40" id="3/1to2/1" sampledSeconds="0.00" departed="0" arrived="0" entered="0" left="0"/>
   <interval begin="30" end="40" id="4/1to3/1" sampledSeconds="0.00" departed="0" arrived="0" entered="0" left="0"/>
   <interval begin="40" end="50" id="3/1to2/1" sampledSeconds="9.76" density="10.00" occupancy="5.00" waitingTime="0.00" speed="10.00" departed="0" arrived="0" entered="1" left="1"/>
   <interval begin="40" end="50" id="4/1to3/1" sampledSeconds="0.00" departed="0" arrived="0" entered="0" left="0"/>
   <interval begin="50" end="60" id="3/1to2/1" sampledSeconds="0.00" departed="0" arrived="0" entered="0" left="0"/>
   <interval begin="50" end="60" id="4/1to3/1" sampledSeconds="0.00" departed="0" arrived="0" entered="0" left="0"/>
   <interval begin="60" end="70" id="3/1to2/1" sampledSeconds="0.00" departed="0" arrived="0" entered="0" left="0"/>
   <interval begin="60" end="70" id="4/1to3/1" sampledSeconds="0.00" departed="0" arrived="0" entered="0" left="0"/>
   <interval begin="70" end="80" id="3/1to2/1" sampledSeconds="0.00" departed="0" arrived="0" entered="0" left="0"/>
   <interval begin="70" end="80" id="4/1to3/1" sampledSeconds="0.00" departed="0" arrived="0" entered="0" left="0"/>
   <interval begin="80" end="90" id="3/1to2/1" sampledSeconds="0.00" departed="0" arrived="0" entered="0" left="0"/>
   <interval begin="80" end="90" id="4/1to3/1" sampledSeconds="0.00" departed="0" arrived="0" entered="0" left="0"/>
   <interval begin="90" end="100" id="3/1to2/1" sampledSeconds="0.00" departed="0" arrived="0" entered="0" left="0"/>
   <interval begin="90" end="100" id="4/1to3/1" sampledSeconds="0.00" departed="0" arrived="0" entered="0" left="0"/>
</detector>
