<?xml version="1.0" encoding="UTF-8"?>

<!-- generated on Mon Jan 27 08:18:07 2020 by Eclipse SUMO Version v1_4_0+0803-c6e5395
This data file and the accompanying materials
are made available under the terms of the Eclipse Public License v2.0
which accompanies this distribution, and is available at
http://www.eclipse.org/legal/epl-v20.html
SPDX-License-Identifier: EPL-2.0
<configuration xmlns:xsi="http://www.w3.org/2001/XMLSchema-instance" xsi:noNamespaceSchemaLocation="http://sumo.dlr.de/xsd/sumoConfiguration.xsd">

    <input>
        <net-file value="net.net.xml"/>
        <additional-files value="input_additional.add.xml"/>
    </input>

    <output>
        <write-license value="true"/>
        <vehroute-output value="vehroutes.xml"/>
        <vehroute-output.write-unfinished value="true"/>
    </output>

    <time>
        <end value="300"/>
    </time>

    <processing>
        <default.speeddev value="0"/>
    </processing>

    <report>
        <xml-validation value="never"/>
        <duration-log.disable value="true"/>
        <no-step-log value="true"/>
    </report>

</configuration>
-->

<routes xmlns:xsi="http://www.w3.org/2001/XMLSchema-instance" xsi:noNamespaceSchemaLocation="http://sumo.dlr.de/xsd/routes_file.xsd">
    <vehicle id="veh1" type="type1" depart="0.00">
        <routeDistribution>
            <route replacedOnEdge="1o" reason="rerouter" replacedAtTime="46.00" probability="0" edges="1fi 1si 1o 1fi 1si 1o"/>
            <route replacedOnEdge="1o" reason="rerouter" replacedAtTime="136.00" probability="0" edges="1fi 1si 1o 1fi 1si 1o"/>
            <route replacedOnEdge="1o" reason="rerouter" replacedAtTime="226.00" probability="0" edges="1fi 1si 1o 1fi 1si 1o"/>
            <route edges="1fi 1si 1o 1fi 1si 1o"/>
        </routeDistribution>
    </vehicle>

</routes>
