<?xml version="1.0" encoding="UTF-8"?>

<!-- generated on 2022-02-07 13:04:18 by Eclipse SUMO sumo Version v1_12_0+0296-f036efb
This data file and the accompanying materials
are made available under the terms of the Eclipse Public License v2.0
which accompanies this distribution, and is available at
http://www.eclipse.org/legal/epl-v20.html
This file may also be made available under the following Secondary
Licenses when the conditions for such availability set forth in the Eclipse
Public License 2.0 are satisfied: GNU General Public License, version 2
or later which is available at
https://www.gnu.org/licenses/old-licenses/gpl-2.0-standalone.html
SPDX-License-Identifier: EPL-2.0 OR GPL-2.0-or-later
<configuration xmlns:xsi="http://www.w3.org/2001/XMLSchema-instance" xsi:noNamespaceSchemaLocation="http://sumo.dlr.de/xsd/sumoConfiguration.xsd">

    <input>
        <net-file value="net.net.xml"/>
        <additional-files value="input_additional.add.xml"/>
    </input>

    <output>
        <write-license value="true"/>
        <vehroute-output value="vehroutes.xml"/>
        <vehroute-output.write-unfinished value="true"/>
    </output>

    <time>
        <end value="300"/>
    </time>

    <processing>
        <default.speeddev value="0"/>
        <pedestrian.model value="nonInteracting"/>
    </processing>

    <report>
        <xml-validation value="never"/>
        <xml-validation.routes value="never"/>
        <duration-log.disable value="true"/>
        <no-step-log value="true"/>
    </report>

    <mesoscopic>
        <mesosim value="true"/>
    </mesoscopic>

</configuration>
-->

<routes xmlns:xsi="http://www.w3.org/2001/XMLSchema-instance" xsi:noNamespaceSchemaLocation="http://sumo.dlr.de/xsd/routes_file.xsd">
    <vehicle id="veh1" type="type1" depart="0.00">
        <routeDistribution>
            <route replacedOnEdge="1o" replacedOnIndex="2" reason="rerouter" replacedAtTime="40.00" probability="0" edges="1fi 1si 1o 1fi 1si 1o"/>
            <route replacedOnEdge="1o" replacedOnIndex="5" reason="rerouter" replacedAtTime="123.00" probability="0" edges="1fi 1si 1o 1fi 1si 1o"/>
            <route replacedOnEdge="1o" replacedOnIndex="5" reason="rerouter" replacedAtTime="207.00" probability="0" edges="1fi 1si 1o 1fi 1si 1o 1fi 1si 1o"/>
            <route replacedOnEdge="1o" replacedOnIndex="5" reason="rerouter" replacedAtTime="290.00" probability="0" edges="1fi 1si 1o 1fi 1si 1o 1fi 1si 1o 1fi 1si 1o"/>
            <route edges="1fi 1si 1o 1fi 1si 1o 1fi 1si 1o 1fi 1si 1o 1fi 1si 1o"/>
        </routeDistribution>
    </vehicle>

</routes>
