<?xml version="1.0" encoding="UTF-8"?>

<!-- generated on 2025-09-18T10:21:43.057964+01:00 by Eclipse SUMO sumo v1_24_0+0856-ee089b9b33e
This data file and the accompanying materials
are made available under the terms of the Eclipse Public License v2.0
which accompanies this distribution, and is available at
http://www.eclipse.org/legal/epl-v20.html
This file may also be made available under the following Secondary
Licenses when the conditions for such availability set forth in the Eclipse
Public License 2.0 are satisfied: GNU General Public License, version 2
or later which is available at
https://www.gnu.org/licenses/old-licenses/gpl-2.0-standalone.html
SPDX-License-Identifier: EPL-2.0 OR GPL-2.0-or-later
<sumoConfiguration xmlns:xsi="http://www.w3.org/2001/XMLSchema-instance" xsi:noNamespaceSchemaLocation="http://sumo.dlr.de/xsd/sumoConfiguration.xsd">

    <input>
        <net-file value="net2.net.xml"/>
        <route-files value="input_routes.rou.xml"/>
        <additional-files value="input_additional.add.xml"/>
    </input>

    <output>
        <write-license value="true"/>
        <vehroute-output value="vehroutes.xml"/>
        <vehroute-output.skip-ptlines value="true"/>
    </output>

    <processing>
        <default.speeddev value="0"/>
    </processing>

    <report>
        <xml-validation value="never"/>
        <no-step-log value="true"/>
    </report>

</sumoConfiguration>
-->

<routes xmlns:xsi="http://www.w3.org/2001/XMLSchema-instance" xsi:noNamespaceSchemaLocation="http://sumo.dlr.de/xsd/routes_file.xsd">
    <person id="p_0" type="t_0" depart="0.00" arrival="200.00">
        <walk edges="E0 E1 E2"/>
    </person>

    <person id="p_2" depart="0.00" arrival="201.00">
        <walk edges="E0 E1 E2"/>
    </person>

    <person id="p_1" type="t_1" depart="0.00" arrival="203.00">
        <walk edges="E0 E1 E2"/>
    </person>

</routes>
