<?xml version="1.0" encoding="UTF-8"?>

<!-- generated on Thu Jul 24 09:29:47 2014 by SUMO sumo Version dev-SVN-r16781
<?xml version="1.0" encoding="UTF-8"?>

<configuration xmlns:xsi="http://www.w3.org/2001/XMLSchema-instance" xsi:noNamespaceSchemaLocation="http://sumo.dlr.de/xsd/sumoConfiguration.xsd">

    <input>
        <net-file value="net.net.xml"/>
        <route-files value="input_routes.rou.xml"/>
    </input>

    <output>
        <vehroute-output value="vehroutes.xml"/>
    </output>

    <report>
        <xml-validation value="never"/>
        <no-duration-log value="true"/>
        <no-step-log value="true"/>
    </report>

    <mesoscopic>
        <mesosim value="true"/>
    </mesoscopic>

</configuration>
-->

<routes xmlns:xsi="http://www.w3.org/2001/XMLSchema-instance" xsi:noNamespaceSchemaLocation="http://sumo.dlr.de/xsd/routes_file.xsd">
    <vehicle id="l.0" depart="0.00" arrival="127.00">
        <route edges="beg beg2left left left2end end rend"/>
    </vehicle>

    <vehicle id="l.1" depart="1.00" arrival="128.00">
        <route edges="beg beg2left left left2end end rend"/>
    </vehicle>

    <vehicle id="l.2" depart="2.00" arrival="130.00">
        <route edges="beg beg2left left left2end end rend"/>
    </vehicle>

    <vehicle id="l.3" depart="3.00" arrival="131.00">
        <route edges="beg beg2left left left2end end rend"/>
    </vehicle>

    <vehicle id="l.4" depart="4.00" arrival="132.00">
        <route edges="beg beg2left left left2end end rend"/>
    </vehicle>

    <vehicle id="l.5" depart="5.00" arrival="134.00">
        <route edges="beg beg2left left left2end end rend"/>
    </vehicle>

    <vehicle id="m.0" depart="5.00" arrival="135.00">
        <route edges="beg middle end rend"/>
    </vehicle>

    <vehicle id="l.6" depart="6.00" arrival="138.00">
        <route edges="beg beg2left left left2end end rend"/>
    </vehicle>

    <vehicle id="m.1" depart="6.00" arrival="139.00">
        <route edges="beg middle end rend"/>
    </vehicle>

    <vehicle id="l.7" depart="7.00" arrival="142.00">
        <route edges="beg beg2left left left2end end rend"/>
    </vehicle>

    <vehicle id="m.2" depart="8.00" arrival="143.00">
        <route edges="beg middle end rend"/>
    </vehicle>

    <vehicle id="l.8" depart="9.00" arrival="146.00">
        <route edges="beg beg2left left left2end end rend"/>
    </vehicle>

    <vehicle id="m.3" depart="10.00" arrival="147.00">
        <route edges="beg middle end rend"/>
    </vehicle>

    <vehicle id="m.4" depart="10.00" arrival="149.00">
        <route edges="beg middle end rend"/>
    </vehicle>

    <vehicle id="l.9" depart="11.00" arrival="152.00">
        <route edges="beg beg2left left left2end end rend"/>
    </vehicle>

    <vehicle id="l.10" depart="12.00" arrival="154.00">
        <route edges="beg beg2left left left2end end rend"/>
    </vehicle>

    <vehicle id="m.5" depart="13.00" arrival="155.00">
        <route edges="beg middle end rend"/>
    </vehicle>

    <vehicle id="m.6" depart="13.00" arrival="156.00">
        <route edges="beg middle end rend"/>
    </vehicle>

    <vehicle id="m.7" depart="14.00" arrival="158.00">
        <route edges="beg middle end rend"/>
    </vehicle>

    <vehicle id="m.8" depart="15.00" arrival="159.00">
        <route edges="beg middle end rend"/>
    </vehicle>

    <vehicle id="m.9" depart="15.00" arrival="160.00">
        <route edges="beg middle end rend"/>
    </vehicle>

    <vehicle id="m.10" depart="16.00" arrival="162.00">
        <route edges="beg middle end rend"/>
    </vehicle>

</routes>
