<?xml version="1.0" encoding="UTF-8"?>

<!-- generated on 2022-12-11 20:57:20 by Eclipse SUMO sumo Version v1_15_0+0944-c751163
This data file and the accompanying materials
are made available under the terms of the Eclipse Public License v2.0
which accompanies this distribution, and is available at
http://www.eclipse.org/legal/epl-v20.html
This file may also be made available under the following Secondary
Licenses when the conditions for such availability set forth in the Eclipse
Public License 2.0 are satisfied: GNU General Public License, version 2
or later which is available at
https://www.gnu.org/licenses/old-licenses/gpl-2.0-standalone.html
SPDX-License-Identifier: EPL-2.0 OR GPL-2.0-or-later
<configuration xmlns:xsi="http://www.w3.org/2001/XMLSchema-instance" xsi:noNamespaceSchemaLocation="http://sumo.dlr.de/xsd/sumoConfiguration.xsd">

    <input>
        <net-file value="net.net.xml"/>
        <route-files value="input_routes.rou.xml"/>
        <additional-files value="input_additional.add.xml"/>
    </input>

    <output>
        <write-license value="true"/>
        <fcd-output value="fcd.xml"/>
    </output>

    <time>
        <step-length value="0.5"/>
    </time>

    <processing>
        <lanechange.duration value="10"/>
        <default.speeddev value="0"/>
    </processing>

    <report>
        <xml-validation value="never"/>
        <duration-log.disable value="true"/>
        <no-step-log value="true"/>
    </report>

</configuration>
-->

<fcd-export xmlns:xsi="http://www.w3.org/2001/XMLSchema-instance" xsi:noNamespaceSchemaLocation="http://sumo.dlr.de/xsd/fcd_file.xsd">
    <timestep time="0.00">
        <vehicle id="v0" x="256.34" y="491.75" angle="90.00" type="DEFAULT_VEHTYPE" speed="0.00" pos="5.10" lane="1si_0" slope="0.00"/>
    </timestep>
    <timestep time="0.50">
        <vehicle id="v0" x="256.95" y="491.75" angle="90.00" type="DEFAULT_VEHTYPE" speed="1.30" pos="5.75" lane="1si_0" slope="0.00"/>
    </timestep>
    <timestep time="1.00">
        <vehicle id="v0" x="258.19" y="491.75" angle="90.00" type="DEFAULT_VEHTYPE" speed="2.60" pos="7.05" lane="1si_0" slope="0.00"/>
    </timestep>
    <timestep time="1.50">
        <vehicle id="v0" x="260.04" y="491.75" angle="90.00" type="DEFAULT_VEHTYPE" speed="3.90" pos="9.00" lane="1si_0" slope="0.00"/>
    </timestep>
    <timestep time="2.00">
        <vehicle id="v0" x="262.50" y="491.75" angle="90.00" type="DEFAULT_VEHTYPE" speed="5.20" pos="11.60" lane="1si_0" slope="0.00"/>
    </timestep>
    <timestep time="2.50">
        <vehicle id="v0" x="265.59" y="491.75" angle="90.00" type="DEFAULT_VEHTYPE" speed="6.50" pos="14.85" lane="1si_0" slope="0.00"/>
    </timestep>
    <timestep time="3.00">
        <vehicle id="v0" x="269.29" y="491.75" angle="90.00" type="DEFAULT_VEHTYPE" speed="7.80" pos="18.75" lane="1si_0" slope="0.00"/>
    </timestep>
    <timestep time="3.50">
        <vehicle id="v0" x="273.60" y="491.75" angle="90.00" type="DEFAULT_VEHTYPE" speed="9.10" pos="23.30" lane="1si_0" slope="0.00"/>
    </timestep>
    <timestep time="4.00">
        <vehicle id="v0" x="278.54" y="491.91" angle="88.24" type="DEFAULT_VEHTYPE" speed="10.40" pos="28.50" lane="1si_0" slope="0.00"/>
    </timestep>
    <timestep time="4.50">
        <vehicle id="v0" x="284.08" y="492.07" angle="88.43" type="DEFAULT_VEHTYPE" speed="11.70" pos="34.35" lane="1si_0" slope="0.00"/>
    </timestep>
    <timestep time="5.00">
        <vehicle id="v0" x="290.25" y="492.23" angle="88.59" type="DEFAULT_VEHTYPE" speed="13.00" pos="40.85" lane="1si_0" slope="0.00"/>
    </timestep>
    <timestep time="5.50">
        <vehicle id="v0" x="296.84" y="492.39" angle="88.68" type="DEFAULT_VEHTYPE" speed="13.89" pos="47.80" lane="1si_0" slope="0.00"/>
    </timestep>
    <timestep time="6.00">
        <vehicle id="v0" x="303.43" y="492.55" angle="88.68" type="DEFAULT_VEHTYPE" speed="13.89" pos="54.74" lane="1si_0" slope="0.00"/>
    </timestep>
    <timestep time="6.50">
        <vehicle id="v0" x="310.01" y="492.71" angle="88.68" type="DEFAULT_VEHTYPE" speed="13.89" pos="61.69" lane="1si_0" slope="0.00"/>
    </timestep>
    <timestep time="7.00">
        <vehicle id="v0" x="316.60" y="492.87" angle="88.68" type="DEFAULT_VEHTYPE" speed="13.89" pos="68.63" lane="1si_0" slope="0.00"/>
    </timestep>
    <timestep time="7.50">
        <vehicle id="v0" x="323.19" y="493.03" angle="88.68" type="DEFAULT_VEHTYPE" speed="13.89" pos="75.57" lane="1si_0" slope="0.00"/>
    </timestep>
    <timestep time="8.00">
        <vehicle id="v0" x="329.78" y="493.19" angle="88.68" type="DEFAULT_VEHTYPE" speed="13.89" pos="82.52" lane="1si_0" slope="0.00"/>
    </timestep>
    <timestep time="8.50">
        <vehicle id="v0" x="336.37" y="493.35" angle="88.68" type="DEFAULT_VEHTYPE" speed="13.89" pos="89.46" lane="1si_0" slope="0.00"/>
    </timestep>
    <timestep time="9.00">
        <vehicle id="v0" x="342.95" y="493.61" angle="88.68" type="DEFAULT_VEHTYPE" speed="13.89" pos="96.41" lane="1si_1" slope="0.00"/>
    </timestep>
    <timestep time="9.50">
        <vehicle id="v0" x="349.54" y="493.77" angle="88.68" type="DEFAULT_VEHTYPE" speed="13.89" pos="103.35" lane="1si_1" slope="0.00"/>
    </timestep>
    <timestep time="10.00">
        <vehicle id="v0" x="356.13" y="493.93" angle="88.68" type="DEFAULT_VEHTYPE" speed="13.89" pos="110.30" lane="1si_1" slope="0.00"/>
    </timestep>
    <timestep time="10.50">
        <vehicle id="v0" x="362.72" y="494.09" angle="88.68" type="DEFAULT_VEHTYPE" speed="13.89" pos="117.24" lane="1si_1" slope="0.00"/>
    </timestep>
    <timestep time="11.00">
        <vehicle id="v0" x="369.31" y="494.25" angle="88.68" type="DEFAULT_VEHTYPE" speed="13.89" pos="124.19" lane="1si_1" slope="0.00"/>
    </timestep>
    <timestep time="11.50">
        <vehicle id="v0" x="375.89" y="494.41" angle="88.68" type="DEFAULT_VEHTYPE" speed="13.89" pos="131.13" lane="1si_1" slope="0.00"/>
    </timestep>
    <timestep time="12.00">
        <vehicle id="v0" x="382.48" y="494.57" angle="88.68" type="DEFAULT_VEHTYPE" speed="13.89" pos="138.08" lane="1si_1" slope="0.00"/>
    </timestep>
    <timestep time="12.50">
        <vehicle id="v0" x="389.07" y="494.73" angle="88.68" type="DEFAULT_VEHTYPE" speed="13.89" pos="145.02" lane="1si_1" slope="0.00"/>
    </timestep>
    <timestep time="13.00">
        <vehicle id="v0" x="395.66" y="494.89" angle="88.68" type="DEFAULT_VEHTYPE" speed="13.89" pos="151.97" lane="1si_1" slope="0.00"/>
    </timestep>
    <timestep time="13.50">
        <vehicle id="v0" x="402.25" y="495.05" angle="88.68" type="DEFAULT_VEHTYPE" speed="13.89" pos="158.91" lane="1si_1" slope="0.00"/>
    </timestep>
    <timestep time="14.00">
        <vehicle id="v0" x="408.83" y="495.05" angle="90.00" type="DEFAULT_VEHTYPE" speed="13.89" pos="165.86" lane="1si_1" slope="0.00"/>
    </timestep>
    <timestep time="14.50">
        <vehicle id="v0" x="415.42" y="495.05" angle="90.00" type="DEFAULT_VEHTYPE" speed="13.89" pos="172.80" lane="1si_1" slope="0.00"/>
    </timestep>
    <timestep time="15.00">
        <vehicle id="v0" x="422.01" y="495.05" angle="90.00" type="DEFAULT_VEHTYPE" speed="13.89" pos="179.75" lane="1si_1" slope="0.00"/>
    </timestep>
    <timestep time="15.50">
        <vehicle id="v0" x="428.60" y="495.05" angle="90.00" type="DEFAULT_VEHTYPE" speed="13.89" pos="186.69" lane="1si_1" slope="0.00"/>
    </timestep>
    <timestep time="16.00">
        <vehicle id="v0" x="435.19" y="495.05" angle="90.00" type="DEFAULT_VEHTYPE" speed="13.89" pos="193.64" lane="1si_1" slope="0.00"/>
    </timestep>
    <timestep time="16.50">
        <vehicle id="v0" x="441.77" y="495.05" angle="90.00" type="DEFAULT_VEHTYPE" speed="13.89" pos="200.58" lane="1si_1" slope="0.00"/>
    </timestep>
    <timestep time="17.00">
        <vehicle id="v0" x="448.36" y="495.05" angle="90.00" type="DEFAULT_VEHTYPE" speed="13.89" pos="207.53" lane="1si_1" slope="0.00"/>
    </timestep>
    <timestep time="17.50">
        <vehicle id="v0" x="454.95" y="495.05" angle="90.00" type="DEFAULT_VEHTYPE" speed="13.89" pos="214.47" lane="1si_1" slope="0.00"/>
    </timestep>
    <timestep time="18.00">
        <vehicle id="v0" x="461.54" y="495.05" angle="90.00" type="DEFAULT_VEHTYPE" speed="13.89" pos="221.42" lane="1si_1" slope="0.00"/>
    </timestep>
    <timestep time="18.50">
        <vehicle id="v0" x="468.13" y="495.05" angle="90.00" type="DEFAULT_VEHTYPE" speed="13.89" pos="228.36" lane="1si_1" slope="0.00"/>
    </timestep>
    <timestep time="19.00">
        <vehicle id="v0" x="474.20" y="495.05" angle="90.00" type="DEFAULT_VEHTYPE" speed="12.80" pos="234.77" lane="1si_1" slope="0.00"/>
    </timestep>
    <timestep time="19.50">
        <vehicle id="v0" x="479.20" y="495.05" angle="90.00" type="DEFAULT_VEHTYPE" speed="10.55" pos="240.04" lane="1si_1" slope="0.00"/>
    </timestep>
    <timestep time="20.00">
        <vehicle id="v0" x="483.14" y="495.05" angle="90.00" type="DEFAULT_VEHTYPE" speed="8.30" pos="244.19" lane="1si_1" slope="0.00"/>
    </timestep>
    <timestep time="20.50">
        <vehicle id="v0" x="486.01" y="495.05" angle="90.00" type="DEFAULT_VEHTYPE" speed="6.05" pos="247.22" lane="1si_1" slope="0.00"/>
    </timestep>
    <timestep time="21.00">
        <vehicle id="v0" x="512.23" y="498.35" angle="83.15" type="DEFAULT_VEHTYPE" speed="7.35" pos="0.90" lane="2o_0" slope="0.00"/>
    </timestep>
    <timestep time="21.50">
        <vehicle id="v0" x="516.46" y="498.35" angle="90.00" type="DEFAULT_VEHTYPE" speed="8.65" pos="5.22" lane="2o_0" slope="0.00"/>
    </timestep>
    <timestep time="22.00">
        <vehicle id="v0" x="521.32" y="498.35" angle="90.00" type="DEFAULT_VEHTYPE" speed="9.95" pos="10.20" lane="2o_0" slope="0.00"/>
    </timestep>
    <timestep time="22.50">
        <vehicle id="v0" x="526.75" y="498.35" angle="90.00" type="DEFAULT_VEHTYPE" speed="11.11" pos="15.76" lane="2o_0" slope="0.00"/>
    </timestep>
    <timestep time="23.00">
        <vehicle id="v0" x="532.18" y="498.35" angle="90.00" type="DEFAULT_VEHTYPE" speed="11.11" pos="21.31" lane="2o_0" slope="0.00"/>
    </timestep>
    <timestep time="23.50">
        <vehicle id="v0" x="537.61" y="498.35" angle="90.00" type="DEFAULT_VEHTYPE" speed="11.11" pos="26.87" lane="2o_0" slope="0.00"/>
    </timestep>
    <timestep time="24.00">
        <vehicle id="v0" x="543.03" y="498.35" angle="90.00" type="DEFAULT_VEHTYPE" speed="11.11" pos="32.42" lane="2o_0" slope="0.00"/>
    </timestep>
    <timestep time="24.50">
        <vehicle id="v0" x="548.46" y="498.35" angle="90.00" type="DEFAULT_VEHTYPE" speed="11.11" pos="37.98" lane="2o_0" slope="0.00"/>
    </timestep>
    <timestep time="25.00">
        <vehicle id="v0" x="553.89" y="498.35" angle="90.00" type="DEFAULT_VEHTYPE" speed="11.11" pos="43.53" lane="2o_0" slope="0.00"/>
    </timestep>
    <timestep time="25.50">
        <vehicle id="v0" x="559.32" y="498.35" angle="90.00" type="DEFAULT_VEHTYPE" speed="11.11" pos="49.09" lane="2o_0" slope="0.00"/>
    </timestep>
    <timestep time="26.00">
        <vehicle id="v0" x="564.75" y="498.35" angle="90.00" type="DEFAULT_VEHTYPE" speed="11.11" pos="54.64" lane="2o_0" slope="0.00"/>
    </timestep>
    <timestep time="26.50">
        <vehicle id="v0" x="570.18" y="498.35" angle="90.00" type="DEFAULT_VEHTYPE" speed="11.11" pos="60.20" lane="2o_0" slope="0.00"/>
    </timestep>
    <timestep time="27.00">
        <vehicle id="v0" x="575.61" y="498.35" angle="90.00" type="DEFAULT_VEHTYPE" speed="11.11" pos="65.75" lane="2o_0" slope="0.00"/>
    </timestep>
    <timestep time="27.50">
        <vehicle id="v0" x="581.04" y="498.35" angle="90.00" type="DEFAULT_VEHTYPE" speed="11.11" pos="71.31" lane="2o_0" slope="0.00"/>
    </timestep>
    <timestep time="28.00">
        <vehicle id="v0" x="586.47" y="498.35" angle="90.00" type="DEFAULT_VEHTYPE" speed="11.11" pos="76.86" lane="2o_0" slope="0.00"/>
    </timestep>
    <timestep time="28.50">
        <vehicle id="v0" x="591.89" y="498.35" angle="90.00" type="DEFAULT_VEHTYPE" speed="11.11" pos="82.42" lane="2o_0" slope="0.00"/>
    </timestep>
    <timestep time="29.00">
        <vehicle id="v0" x="597.32" y="498.35" angle="90.00" type="DEFAULT_VEHTYPE" speed="11.11" pos="87.97" lane="2o_0" slope="0.00"/>
    </timestep>
    <timestep time="29.50">
        <vehicle id="v0" x="602.75" y="498.35" angle="90.00" type="DEFAULT_VEHTYPE" speed="11.11" pos="93.53" lane="2o_0" slope="0.00"/>
    </timestep>
    <timestep time="30.00">
        <vehicle id="v0" x="608.18" y="498.35" angle="90.00" type="DEFAULT_VEHTYPE" speed="11.11" pos="99.08" lane="2o_0" slope="0.00"/>
    </timestep>
    <timestep time="30.50">
        <vehicle id="v0" x="613.61" y="498.35" angle="90.00" type="DEFAULT_VEHTYPE" speed="11.11" pos="104.64" lane="2o_0" slope="0.00"/>
    </timestep>
    <timestep time="31.00">
        <vehicle id="v0" x="619.04" y="498.35" angle="90.00" type="DEFAULT_VEHTYPE" speed="11.11" pos="110.19" lane="2o_0" slope="0.00"/>
    </timestep>
    <timestep time="31.50">
        <vehicle id="v0" x="624.47" y="498.35" angle="90.00" type="DEFAULT_VEHTYPE" speed="11.11" pos="115.75" lane="2o_0" slope="0.00"/>
    </timestep>
    <timestep time="32.00">
        <vehicle id="v0" x="629.90" y="498.35" angle="90.00" type="DEFAULT_VEHTYPE" speed="11.11" pos="121.30" lane="2o_0" slope="0.00"/>
    </timestep>
    <timestep time="32.50">
        <vehicle id="v0" x="635.33" y="498.35" angle="90.00" type="DEFAULT_VEHTYPE" speed="11.11" pos="126.86" lane="2o_0" slope="0.00"/>
    </timestep>
    <timestep time="33.00">
        <vehicle id="v0" x="640.75" y="498.35" angle="90.00" type="DEFAULT_VEHTYPE" speed="11.11" pos="132.41" lane="2o_0" slope="0.00"/>
    </timestep>
    <timestep time="33.50">
        <vehicle id="v0" x="646.18" y="498.35" angle="90.00" type="DEFAULT_VEHTYPE" speed="11.11" pos="137.97" lane="2o_0" slope="0.00"/>
    </timestep>
    <timestep time="34.00">
        <vehicle id="v0" x="651.61" y="498.35" angle="90.00" type="DEFAULT_VEHTYPE" speed="11.11" pos="143.52" lane="2o_0" slope="0.00"/>
    </timestep>
    <timestep time="34.50">
        <vehicle id="v0" x="657.04" y="498.35" angle="90.00" type="DEFAULT_VEHTYPE" speed="11.11" pos="149.08" lane="2o_0" slope="0.00"/>
    </timestep>
    <timestep time="35.00">
        <vehicle id="v0" x="662.47" y="498.35" angle="90.00" type="DEFAULT_VEHTYPE" speed="11.11" pos="154.63" lane="2o_0" slope="0.00"/>
    </timestep>
    <timestep time="35.50">
        <vehicle id="v0" x="667.90" y="498.35" angle="90.00" type="DEFAULT_VEHTYPE" speed="11.11" pos="160.19" lane="2o_0" slope="0.00"/>
    </timestep>
    <timestep time="36.00">
        <vehicle id="v0" x="673.33" y="498.35" angle="90.00" type="DEFAULT_VEHTYPE" speed="11.11" pos="165.74" lane="2o_0" slope="0.00"/>
    </timestep>
    <timestep time="36.50">
        <vehicle id="v0" x="678.76" y="498.35" angle="90.00" type="DEFAULT_VEHTYPE" speed="11.11" pos="171.30" lane="2o_0" slope="0.00"/>
    </timestep>
    <timestep time="37.00">
        <vehicle id="v0" x="684.19" y="498.35" angle="90.00" type="DEFAULT_VEHTYPE" speed="11.11" pos="176.85" lane="2o_0" slope="0.00"/>
    </timestep>
    <timestep time="37.50">
        <vehicle id="v0" x="689.61" y="498.35" angle="90.00" type="DEFAULT_VEHTYPE" speed="11.11" pos="182.41" lane="2o_0" slope="0.00"/>
    </timestep>
    <timestep time="38.00">
        <vehicle id="v0" x="695.04" y="498.35" angle="90.00" type="DEFAULT_VEHTYPE" speed="11.11" pos="187.96" lane="2o_0" slope="0.00"/>
    </timestep>
    <timestep time="38.50">
        <vehicle id="v0" x="700.47" y="498.35" angle="90.00" type="DEFAULT_VEHTYPE" speed="11.11" pos="193.52" lane="2o_0" slope="0.00"/>
    </timestep>
    <timestep time="39.00">
        <vehicle id="v0" x="705.90" y="498.35" angle="90.00" type="DEFAULT_VEHTYPE" speed="11.11" pos="199.07" lane="2o_0" slope="0.00"/>
    </timestep>
    <timestep time="39.50">
        <vehicle id="v0" x="711.33" y="498.35" angle="90.00" type="DEFAULT_VEHTYPE" speed="11.11" pos="204.63" lane="2o_0" slope="0.00"/>
    </timestep>
    <timestep time="40.00">
        <vehicle id="v0" x="716.76" y="498.35" angle="90.00" type="DEFAULT_VEHTYPE" speed="11.11" pos="210.18" lane="2o_0" slope="0.00"/>
    </timestep>
    <timestep time="40.50">
        <vehicle id="v0" x="722.19" y="498.35" angle="90.00" type="DEFAULT_VEHTYPE" speed="11.11" pos="215.74" lane="2o_0" slope="0.00"/>
    </timestep>
    <timestep time="41.00">
        <vehicle id="v0" x="727.62" y="498.35" angle="90.00" type="DEFAULT_VEHTYPE" speed="11.11" pos="221.29" lane="2o_0" slope="0.00"/>
    </timestep>
    <timestep time="41.50">
        <vehicle id="v0" x="733.05" y="498.35" angle="90.00" type="DEFAULT_VEHTYPE" speed="11.11" pos="226.85" lane="2o_0" slope="0.00"/>
    </timestep>
    <timestep time="42.00">
        <vehicle id="v0" x="738.48" y="498.35" angle="90.00" type="DEFAULT_VEHTYPE" speed="11.11" pos="232.40" lane="2o_0" slope="0.00"/>
    </timestep>
    <timestep time="42.50">
        <vehicle id="v0" x="743.90" y="498.35" angle="90.00" type="DEFAULT_VEHTYPE" speed="11.11" pos="237.96" lane="2o_0" slope="0.00"/>
    </timestep>
    <timestep time="43.00">
        <vehicle id="v0" x="749.33" y="498.35" angle="90.00" type="DEFAULT_VEHTYPE" speed="11.11" pos="243.51" lane="2o_0" slope="0.00"/>
    </timestep>
    <timestep time="43.50">
        <vehicle id="v0" x="754.76" y="498.35" angle="90.00" type="DEFAULT_VEHTYPE" speed="11.11" pos="249.07" lane="2o_0" slope="0.00"/>
    </timestep>
    <timestep time="44.00">
        <vehicle id="v0" x="760.19" y="498.35" angle="90.00" type="DEFAULT_VEHTYPE" speed="11.11" pos="254.62" lane="2o_0" slope="0.00"/>
    </timestep>
    <timestep time="44.50">
        <vehicle id="v0" x="765.62" y="498.35" angle="90.00" type="DEFAULT_VEHTYPE" speed="11.11" pos="260.18" lane="2o_0" slope="0.00"/>
    </timestep>
    <timestep time="45.00">
        <vehicle id="v0" x="771.05" y="498.35" angle="90.00" type="DEFAULT_VEHTYPE" speed="11.11" pos="265.73" lane="2o_0" slope="0.00"/>
    </timestep>
    <timestep time="45.50">
        <vehicle id="v0" x="776.48" y="498.35" angle="90.00" type="DEFAULT_VEHTYPE" speed="11.11" pos="271.29" lane="2o_0" slope="0.00"/>
    </timestep>
    <timestep time="46.00">
        <vehicle id="v0" x="781.91" y="498.35" angle="90.00" type="DEFAULT_VEHTYPE" speed="11.11" pos="276.84" lane="2o_0" slope="0.00"/>
    </timestep>
    <timestep time="46.50">
        <vehicle id="v0" x="787.34" y="498.35" angle="90.00" type="DEFAULT_VEHTYPE" speed="11.11" pos="282.40" lane="2o_0" slope="0.00"/>
    </timestep>
    <timestep time="47.00">
        <vehicle id="v0" x="792.76" y="498.35" angle="90.00" type="DEFAULT_VEHTYPE" speed="11.11" pos="287.95" lane="2o_0" slope="0.00"/>
    </timestep>
    <timestep time="47.50">
        <vehicle id="v0" x="798.19" y="498.35" angle="90.00" type="DEFAULT_VEHTYPE" speed="11.11" pos="293.51" lane="2o_0" slope="0.00"/>
    </timestep>
    <timestep time="48.00">
        <vehicle id="v0" x="803.62" y="498.35" angle="90.00" type="DEFAULT_VEHTYPE" speed="11.11" pos="299.06" lane="2o_0" slope="0.00"/>
    </timestep>
    <timestep time="48.50">
        <vehicle id="v0" x="809.05" y="498.35" angle="90.00" type="DEFAULT_VEHTYPE" speed="11.11" pos="304.62" lane="2o_0" slope="0.00"/>
    </timestep>
    <timestep time="49.00">
        <vehicle id="v0" x="814.48" y="498.35" angle="90.00" type="DEFAULT_VEHTYPE" speed="11.11" pos="310.17" lane="2o_0" slope="0.00"/>
    </timestep>
    <timestep time="49.50">
        <vehicle id="v0" x="819.91" y="498.35" angle="90.00" type="DEFAULT_VEHTYPE" speed="11.11" pos="315.73" lane="2o_0" slope="0.00"/>
    </timestep>
    <timestep time="50.00">
        <vehicle id="v0" x="825.34" y="498.35" angle="90.00" type="DEFAULT_VEHTYPE" speed="11.11" pos="321.28" lane="2o_0" slope="0.00"/>
    </timestep>
    <timestep time="50.50">
        <vehicle id="v0" x="830.77" y="498.35" angle="90.00" type="DEFAULT_VEHTYPE" speed="11.11" pos="326.84" lane="2o_0" slope="0.00"/>
    </timestep>
    <timestep time="51.00">
        <vehicle id="v0" x="836.20" y="498.35" angle="90.00" type="DEFAULT_VEHTYPE" speed="11.11" pos="332.39" lane="2o_0" slope="0.00"/>
    </timestep>
    <timestep time="51.50">
        <vehicle id="v0" x="841.62" y="498.35" angle="90.00" type="DEFAULT_VEHTYPE" speed="11.11" pos="337.95" lane="2o_0" slope="0.00"/>
    </timestep>
    <timestep time="52.00">
        <vehicle id="v0" x="847.05" y="498.35" angle="90.00" type="DEFAULT_VEHTYPE" speed="11.11" pos="343.50" lane="2o_0" slope="0.00"/>
    </timestep>
    <timestep time="52.50">
        <vehicle id="v0" x="852.48" y="498.35" angle="90.00" type="DEFAULT_VEHTYPE" speed="11.11" pos="349.06" lane="2o_0" slope="0.00"/>
    </timestep>
    <timestep time="53.00">
        <vehicle id="v0" x="857.91" y="498.35" angle="90.00" type="DEFAULT_VEHTYPE" speed="11.11" pos="354.61" lane="2o_0" slope="0.00"/>
    </timestep>
    <timestep time="53.50">
        <vehicle id="v0" x="863.34" y="498.35" angle="90.00" type="DEFAULT_VEHTYPE" speed="11.11" pos="360.17" lane="2o_0" slope="0.00"/>
    </timestep>
    <timestep time="54.00">
        <vehicle id="v0" x="868.77" y="498.35" angle="90.00" type="DEFAULT_VEHTYPE" speed="11.11" pos="365.72" lane="2o_0" slope="0.00"/>
    </timestep>
    <timestep time="54.50">
        <vehicle id="v0" x="874.20" y="498.35" angle="90.00" type="DEFAULT_VEHTYPE" speed="11.11" pos="371.28" lane="2o_0" slope="0.00"/>
    </timestep>
    <timestep time="55.00">
        <vehicle id="v0" x="879.63" y="498.35" angle="90.00" type="DEFAULT_VEHTYPE" speed="11.11" pos="376.83" lane="2o_0" slope="0.00"/>
    </timestep>
    <timestep time="55.50">
        <vehicle id="v0" x="885.06" y="498.35" angle="90.00" type="DEFAULT_VEHTYPE" speed="11.11" pos="382.39" lane="2o_0" slope="0.00"/>
    </timestep>
    <timestep time="56.00">
        <vehicle id="v0" x="890.48" y="498.35" angle="90.00" type="DEFAULT_VEHTYPE" speed="11.11" pos="387.94" lane="2o_0" slope="0.00"/>
    </timestep>
    <timestep time="56.50">
        <vehicle id="v0" x="895.91" y="498.35" angle="90.00" type="DEFAULT_VEHTYPE" speed="11.11" pos="393.50" lane="2o_0" slope="0.00"/>
    </timestep>
    <timestep time="57.00">
        <vehicle id="v0" x="901.34" y="498.35" angle="90.00" type="DEFAULT_VEHTYPE" speed="11.11" pos="399.05" lane="2o_0" slope="0.00"/>
    </timestep>
    <timestep time="57.50">
        <vehicle id="v0" x="906.77" y="498.35" angle="90.00" type="DEFAULT_VEHTYPE" speed="11.11" pos="404.61" lane="2o_0" slope="0.00"/>
    </timestep>
    <timestep time="58.00">
        <vehicle id="v0" x="912.20" y="498.35" angle="90.00" type="DEFAULT_VEHTYPE" speed="11.11" pos="410.16" lane="2o_0" slope="0.00"/>
    </timestep>
    <timestep time="58.50">
        <vehicle id="v0" x="917.63" y="498.35" angle="90.00" type="DEFAULT_VEHTYPE" speed="11.11" pos="415.72" lane="2o_0" slope="0.00"/>
    </timestep>
    <timestep time="59.00">
        <vehicle id="v0" x="923.06" y="498.35" angle="90.00" type="DEFAULT_VEHTYPE" speed="11.11" pos="421.27" lane="2o_0" slope="0.00"/>
    </timestep>
    <timestep time="59.50">
        <vehicle id="v0" x="928.49" y="498.35" angle="90.00" type="DEFAULT_VEHTYPE" speed="11.11" pos="426.83" lane="2o_0" slope="0.00"/>
    </timestep>
    <timestep time="60.00">
        <vehicle id="v0" x="933.92" y="498.35" angle="90.00" type="DEFAULT_VEHTYPE" speed="11.11" pos="432.38" lane="2o_0" slope="0.00"/>
    </timestep>
    <timestep time="60.50">
        <vehicle id="v0" x="939.34" y="498.35" angle="90.00" type="DEFAULT_VEHTYPE" speed="11.11" pos="437.94" lane="2o_0" slope="0.00"/>
    </timestep>
    <timestep time="61.00">
        <vehicle id="v0" x="944.77" y="498.35" angle="90.00" type="DEFAULT_VEHTYPE" speed="11.11" pos="443.49" lane="2o_0" slope="0.00"/>
    </timestep>
    <timestep time="61.50">
        <vehicle id="v0" x="950.20" y="498.35" angle="90.00" type="DEFAULT_VEHTYPE" speed="11.11" pos="449.05" lane="2o_0" slope="0.00"/>
    </timestep>
    <timestep time="62.00">
        <vehicle id="v0" x="955.63" y="498.35" angle="90.00" type="DEFAULT_VEHTYPE" speed="11.11" pos="454.60" lane="2o_0" slope="0.00"/>
    </timestep>
    <timestep time="62.50">
        <vehicle id="v0" x="961.06" y="498.35" angle="90.00" type="DEFAULT_VEHTYPE" speed="11.11" pos="460.16" lane="2o_0" slope="0.00"/>
    </timestep>
    <timestep time="63.00">
        <vehicle id="v0" x="966.49" y="498.35" angle="90.00" type="DEFAULT_VEHTYPE" speed="11.11" pos="465.71" lane="2o_0" slope="0.00"/>
    </timestep>
    <timestep time="63.50">
        <vehicle id="v0" x="971.92" y="498.35" angle="90.00" type="DEFAULT_VEHTYPE" speed="11.11" pos="471.27" lane="2o_0" slope="0.00"/>
    </timestep>
    <timestep time="64.00">
        <vehicle id="v0" x="977.35" y="498.35" angle="90.00" type="DEFAULT_VEHTYPE" speed="11.11" pos="476.82" lane="2o_0" slope="0.00"/>
    </timestep>
    <timestep time="64.50">
        <vehicle id="v0" x="982.78" y="498.35" angle="90.00" type="DEFAULT_VEHTYPE" speed="11.11" pos="482.38" lane="2o_0" slope="0.00"/>
    </timestep>
    <timestep time="65.00">
        <vehicle id="v0" x="988.20" y="498.35" angle="90.00" type="DEFAULT_VEHTYPE" speed="11.11" pos="487.93" lane="2o_0" slope="0.00"/>
    </timestep>
    <timestep time="65.50">
        <vehicle id="v0" x="993.63" y="498.35" angle="90.00" type="DEFAULT_VEHTYPE" speed="11.11" pos="493.49" lane="2o_0" slope="0.00"/>
    </timestep>
    <timestep time="66.00">
        <vehicle id="v0" x="999.06" y="498.35" angle="90.00" type="DEFAULT_VEHTYPE" speed="11.11" pos="499.04" lane="2o_0" slope="0.00"/>
    </timestep>
    <timestep time="66.50"/>
</fcd-export>
