<?xml version="1.0" encoding="UTF-8"?>

<!-- generated on 2025-10-09T21:49:53.802975+01:00 by Eclipse SUMO sumo v1_24_0+1329-e45c39789b9
<sumoConfiguration xmlns:xsi="http://www.w3.org/2001/XMLSchema-instance" xsi:noNamespaceSchemaLocation="http://sumo.dlr.de/xsd/sumoConfiguration.xsd">

    <input>
        <net-file value="input_net3.net.xml"/>
        <route-files value="input_routes.rou.xml"/>
    </input>

    <output>
        <fcd-output value="fcd.xml"/>
    </output>

    <report>
        <no-step-log value="true"/>
    </report>

    <traci_server>
        <remote-port value="57121"/>
    </traci_server>

</sumoConfiguration>
-->

<fcd-export xmlns:xsi="http://www.w3.org/2001/XMLSchema-instance" xsi:noNamespaceSchemaLocation="http://sumo.dlr.de/xsd/fcd_file.xsd">
    <timestep time="0.00">
        <person id="p0" x="111.59" y="10.00" angle="0.00" type="DEFAULT_PEDTYPE" speed="0.00" pos="10.00" edge="SC" slope="0.00"/>
    </timestep>
    <timestep time="1.00">
        <person id="p0" x="112.59" y="10.00" angle="90.00" type="DEFAULT_PEDTYPE" speed="0.00" pos="10.00" edge="SC" slope="0.00"/>
    </timestep>
</fcd-export>
