<?xml version="1.0" encoding="UTF-8"?>

<!-- generated on Thu Mar 26 18:06:49 2015 by SUMO Version dev-SVN-r18156I
<?xml version="1.0" encoding="UTF-8"?>

<configuration xmlns:xsi="http://www.w3.org/2001/XMLSchema-instance" xsi:noNamespaceSchemaLocation="http://sumo.dlr.de/xsd/sumoConfiguration.xsd">

    <input>
        <net-file value="net.net.xml"/>
        <additional-files value="input_additional.add.xml,input_additional2.add.xml"/>
    </input>

    <output>
        <netstate-dump value="rawdump.xml"/>
    </output>

    <processing>
        <pedestrian.model value="striping"/>
        <pedestrian.striping.stripe-width value="0.75"/>
        <pedestrian.striping.dawdling value="0"/>
    </processing>

    <report>
        <xml-validation value="never"/>
        <no-step-log value="true"/>
    </report>

</configuration>
-->

<netstate xmlns:xsi="http://www.w3.org/2001/XMLSchema-instance" xsi:noNamespaceSchemaLocation="http://sumo.dlr.de/xsd/netstate_file.xsd">
    <timestep time="0.00">
        <edge id="WC">
            <person id="p5" pos="80.15" angle="90.00" stage="walking"/>
            <person id="p4" pos="81.15" angle="90.00" stage="walking"/>
            <person id="p3" pos="82.15" angle="90.00" stage="walking"/>
            <person id="p2" pos="83.15" angle="90.00" stage="walking"/>
            <person id="p1" pos="84.15" angle="90.00" stage="walking"/>
            <person id="p0" pos="85.15" angle="90.00" stage="walking"/>
        </edge>
    </timestep>
    <timestep time="1.00">
        <edge id="WC">
            <person id="p5" pos="80.15" angle="90.00" stage="walking"/>
            <person id="p4" pos="81.15" angle="90.00" stage="walking"/>
            <person id="p3" pos="82.88" angle="90.00" stage="walking"/>
            <person id="p2" pos="83.15" angle="90.00" stage="walking"/>
            <person id="p1" pos="84.15" angle="90.00" stage="walking"/>
            <person id="p0" pos="85.95" angle="90.00" stage="walking"/>
        </edge>
    </timestep>
    <timestep time="2.00">
        <edge id=":C_w3">
            <person id="p0" pos="0.60" angle="90.00" stage="walking"/>
        </edge>
        <edge id="WC">
            <person id="p5" pos="80.15" angle="90.00" stage="walking"/>
            <person id="p4" pos="82.75" angle="90.00" stage="walking"/>
            <person id="p2" pos="83.15" angle="90.00" stage="walking"/>
            <person id="p3" pos="83.64" angle="90.00" stage="walking"/>
            <person id="p1" pos="84.15" angle="90.00" stage="walking"/>
        </edge>
    </timestep>
    <timestep time="3.00">
        <edge id=":C_w3">
            <person id="p0" pos="1.40" angle="90.00" stage="walking"/>
        </edge>
        <edge id="WC">
            <person id="p5" pos="80.72" angle="90.00" stage="walking"/>
            <person id="p4" pos="82.75" angle="90.00" stage="walking"/>
            <person id="p2" pos="83.15" angle="90.00" stage="walking"/>
            <person id="p3" pos="83.64" angle="90.00" stage="walking"/>
            <person id="p1" pos="84.85" angle="90.00" stage="walking"/>
        </edge>
    </timestep>
    <timestep time="4.00">
        <edge id=":C_w3">
            <person id="p0" pos="2.20" angle="63.52" stage="walking"/>
        </edge>
        <edge id="WC">
            <person id="p5" pos="82.52" angle="90.00" stage="walking"/>
            <person id="p4" pos="82.75" angle="90.00" stage="walking"/>
            <person id="p2" pos="83.15" angle="90.00" stage="walking"/>
            <person id="p3" pos="83.64" angle="90.00" stage="walking"/>
            <person id="p1" pos="85.32" angle="90.00" stage="walking"/>
        </edge>
    </timestep>
    <timestep time="5.00">
        <edge id=":C_w3">
            <person id="p1" pos="0.17" angle="90.00" stage="walking"/>
            <person id="p0" pos="3.00" angle="63.52" stage="walking"/>
        </edge>
        <edge id="WC">
            <person id="p4" pos="82.75" angle="90.00" stage="walking"/>
            <person id="p5" pos="84.32" angle="90.00" stage="walking"/>
            <person id="p2" pos="84.35" angle="90.00" stage="walking"/>
            <person id="p3" pos="85.04" angle="90.00" stage="walking"/>
        </edge>
    </timestep>
    <timestep time="6.00">
        <edge id=":C_w3">
            <person id="p3" pos="0.29" angle="90.00" stage="walking"/>
            <person id="p1" pos="1.17" angle="90.00" stage="walking"/>
            <person id="p0" pos="3.80" angle="63.52" stage="walking"/>
        </edge>
        <edge id="WC">
            <person id="p4" pos="82.75" angle="90.00" stage="walking"/>
            <person id="p2" pos="85.55" angle="90.00" stage="walking"/>
            <person id="p5" pos="86.12" angle="90.00" stage="walking"/>
        </edge>
    </timestep>
    <timestep time="7.00">
        <edge id=":C_w3">
            <person id="p2" pos="0.60" angle="90.00" stage="walking"/>
            <person id="p3" pos="1.69" angle="63.52" stage="walking"/>
            <person id="p5" pos="1.77" angle="63.52" stage="walking"/>
            <person id="p1" pos="2.17" angle="63.52" stage="walking"/>
            <person id="p0" pos="4.60" angle="63.52" stage="walking"/>
        </edge>
        <edge id="WC">
            <person id="p4" pos="83.58" angle="90.00" stage="walking"/>
        </edge>
    </timestep>
    <timestep time="8.00">
        <edge id=":C_w3">
            <person id="p2" pos="1.80" angle="63.52" stage="walking"/>
            <person id="p5" pos="2.41" angle="63.52" stage="walking"/>
            <person id="p3" pos="3.09" angle="63.52" stage="walking"/>
            <person id="p1" pos="3.17" angle="63.52" stage="walking"/>
            <person id="p0" pos="5.40" angle="90.00" stage="walking"/>
        </edge>
        <edge id="WC">
            <person id="p4" pos="85.00" angle="90.00" stage="walking"/>
        </edge>
    </timestep>
    <timestep time="9.00">
        <edge id=":C_w3">
            <person id="p4" pos="0.10" angle="90.00" stage="walking"/>
            <person id="p2" pos="3.00" angle="63.52" stage="walking"/>
            <person id="p5" pos="3.13" angle="63.52" stage="walking"/>
            <person id="p1" pos="4.17" angle="63.52" stage="walking"/>
            <person id="p3" pos="4.49" angle="63.52" stage="walking"/>
            <person id="p0" pos="6.20" angle="90.00" stage="walking"/>
        </edge>
    </timestep>
    <timestep time="10.00">
        <edge id=":C_c2">
            <person id="p0" pos="0.45" angle="90.00" stage="walking"/>
        </edge>
        <edge id=":C_w3">
            <person id="p4" pos="0.98" angle="90.00" stage="walking"/>
            <person id="p5" pos="3.89" angle="63.52" stage="walking"/>
            <person id="p2" pos="4.20" angle="63.52" stage="walking"/>
            <person id="p1" pos="5.17" angle="90.00" stage="walking"/>
            <person id="p3" pos="5.89" angle="90.00" stage="walking"/>
        </edge>
    </timestep>
    <timestep time="11.00">
        <edge id=":C_c2">
            <person id="p3" pos="0.73" angle="90.00" stage="walking"/>
            <person id="p0" pos="1.25" angle="90.00" stage="walking"/>
        </edge>
        <edge id=":C_w3">
            <person id="p4" pos="2.01" angle="63.52" stage="walking"/>
            <person id="p5" pos="4.67" angle="63.52" stage="walking"/>
            <person id="p2" pos="5.40" angle="90.00" stage="walking"/>
            <person id="p1" pos="6.17" angle="90.00" stage="walking"/>
        </edge>
    </timestep>
    <timestep time="12.00">
        <edge id=":C_c2">
            <person id="p2" pos="0.05" angle="90.00" stage="walking"/>
            <person id="p1" pos="0.61" angle="90.00" stage="walking"/>
            <person id="p0" pos="2.05" angle="90.00" stage="walking"/>
            <person id="p3" pos="2.13" angle="90.00" stage="walking"/>
        </edge>
        <edge id=":C_w3">
            <person id="p4" pos="3.13" angle="63.52" stage="walking"/>
            <person id="p5" pos="5.46" angle="90.00" stage="walking"/>
        </edge>
    </timestep>
    <timestep time="13.00">
        <edge id=":C_c2">
            <person id="p2" pos="1.25" angle="90.00" stage="walking"/>
            <person id="p1" pos="1.61" angle="90.00" stage="walking"/>
            <person id="p0" pos="2.85" angle="90.00" stage="walking"/>
            <person id="p3" pos="3.53" angle="90.00" stage="walking"/>
        </edge>
        <edge id=":C_w3">
            <person id="p4" pos="4.29" angle="63.52" stage="walking"/>
            <person id="p5" pos="6.25" angle="90.00" stage="walking"/>
        </edge>
        <edge id="SC">
            <person id="p15" pos="70.40" angle="-180.00" stage="walking"/>
            <person id="p14" pos="71.40" angle="-180.00" stage="walking"/>
            <person id="p13" pos="72.40" angle="-180.00" stage="walking"/>
            <person id="p12" pos="73.40" angle="-180.00" stage="walking"/>
            <person id="p11" pos="74.40" angle="-180.00" stage="walking"/>
            <person id="p10" pos="75.40" angle="-180.00" stage="walking"/>
        </edge>
    </timestep>
    <timestep time="14.00">
        <edge id=":C_c2">
            <person id="p5" pos="0.50" angle="90.00" stage="walking"/>
            <person id="p2" pos="2.45" angle="90.00" stage="walking"/>
            <person id="p1" pos="2.61" angle="90.00" stage="walking"/>
            <person id="p0" pos="3.65" angle="90.00" stage="walking"/>
            <person id="p3" pos="4.93" angle="90.00" stage="walking"/>
        </edge>
        <edge id=":C_w3">
            <person id="p4" pos="5.47" angle="90.00" stage="walking"/>
        </edge>
        <edge id="SC">
            <person id="p15" pos="70.40" angle="-180.00" stage="walking"/>
            <person id="p14" pos="71.40" angle="-180.00" stage="walking"/>
            <person id="p13" pos="73.12" angle="-180.00" stage="walking"/>
            <person id="p12" pos="73.40" angle="-180.00" stage="walking"/>
            <person id="p11" pos="74.40" angle="-180.00" stage="walking"/>
            <person id="p10" pos="76.20" angle="-180.00" stage="walking"/>
        </edge>
    </timestep>
    <timestep time="15.00">
        <edge id=":C_c2">
            <person id="p4" pos="0.11" angle="90.00" stage="walking"/>
            <person id="p5" pos="1.30" angle="90.00" stage="walking"/>
            <person id="p1" pos="3.61" angle="90.00" stage="walking"/>
            <person id="p2" pos="3.65" angle="90.00" stage="walking"/>
            <person id="p0" pos="4.45" angle="90.00" stage="walking"/>
            <person id="p3" pos="6.33" angle="90.00" stage="walking"/>
        </edge>
        <edge id="SC">
            <person id="p15" pos="70.40" angle="-180.00" stage="walking"/>
            <person id="p14" pos="73.00" angle="-180.00" stage="walking"/>
            <person id="p12" pos="73.40" angle="-180.00" stage="walking"/>
            <person id="p13" pos="73.89" angle="-180.00" stage="walking"/>
            <person id="p11" pos="74.40" angle="-180.00" stage="walking"/>
            <person id="p10" pos="77.00" angle="-180.00" stage="walking"/>
        </edge>
    </timestep>
    <timestep time="16.00">
        <edge id=":C_c2">
            <person id="p4" pos="1.30" angle="90.00" stage="walking"/>
            <person id="p5" pos="2.10" angle="90.00" stage="walking"/>
            <person id="p1" pos="4.61" angle="90.00" stage="walking"/>
            <person id="p2" pos="4.85" angle="90.00" stage="walking"/>
            <person id="p0" pos="5.25" angle="90.00" stage="walking"/>
            <person id="p3" pos="7.73" angle="90.00" stage="walking"/>
        </edge>
        <edge id="SC">
            <person id="p15" pos="70.97" angle="-180.00" stage="walking"/>
            <person id="p14" pos="73.00" angle="-180.00" stage="walking"/>
            <person id="p12" pos="73.40" angle="-180.00" stage="walking"/>
            <person id="p13" pos="73.89" angle="-180.00" stage="walking"/>
            <person id="p11" pos="74.93" angle="-180.00" stage="walking"/>
            <person id="p10" pos="77.80" angle="-180.00" stage="walking"/>
        </edge>
    </timestep>
    <timestep time="17.00">
        <edge id=":C_c2">
            <person id="p4" pos="2.50" angle="90.00" stage="walking"/>
            <person id="p5" pos="2.90" angle="90.00" stage="walking"/>
            <person id="p1" pos="5.61" angle="90.00" stage="walking"/>
            <person id="p0" pos="6.05" angle="90.00" stage="walking"/>
            <person id="p2" pos="6.05" angle="90.00" stage="walking"/>
            <person id="p3" pos="9.13" angle="90.00" stage="walking"/>
        </edge>
        <edge id="SC">
            <person id="p15" pos="72.10" angle="-180.00" stage="walking"/>
            <person id="p14" pos="73.00" angle="-180.00" stage="walking"/>
            <person id="p12" pos="74.60" angle="-180.00" stage="walking"/>
            <person id="p13" pos="75.29" angle="-180.00" stage="walking"/>
            <person id="p11" pos="75.59" angle="-180.00" stage="walking"/>
            <person id="p10" pos="78.60" angle="-180.00" stage="walking"/>
        </edge>
    </timestep>
    <timestep time="18.00">
        <edge id=":C_c2">
            <person id="p5" pos="3.70" angle="90.00" stage="walking"/>
            <person id="p4" pos="3.70" angle="90.00" stage="walking"/>
            <person id="p1" pos="6.61" angle="90.00" stage="walking"/>
            <person id="p0" pos="6.85" angle="90.00" stage="walking"/>
            <person id="p2" pos="7.25" angle="90.00" stage="walking"/>
            <person id="p3" pos="10.53" angle="90.00" stage="walking"/>
        </edge>
        <edge id="SC">
            <person id="p14" pos="73.00" angle="-180.00" stage="walking"/>
            <person id="p15" pos="73.04" angle="-180.00" stage="walking"/>
            <person id="p12" pos="75.80" angle="-180.00" stage="walking"/>
            <person id="p11" pos="76.32" angle="-180.00" stage="walking"/>
            <person id="p13" pos="76.69" angle="-180.00" stage="walking"/>
            <person id="p10" pos="79.40" angle="-180.00" stage="walking"/>
        </edge>
    </timestep>
    <timestep time="19.00">
        <edge id=":C_c2">
            <person id="p5" pos="4.50" angle="90.00" stage="walking"/>
            <person id="p4" pos="4.90" angle="90.00" stage="walking"/>
            <person id="p1" pos="7.61" angle="90.00" stage="walking"/>
            <person id="p0" pos="7.65" angle="90.00" stage="walking"/>
            <person id="p2" pos="8.45" angle="90.00" stage="walking"/>
            <person id="p3" pos="11.93" angle="90.00" stage="walking"/>
        </edge>
        <edge id="SC">
            <person id="p14" pos="73.83" angle="-180.00" stage="walking"/>
            <person id="p15" pos="73.89" angle="-180.00" stage="walking"/>
            <person id="p12" pos="77.00" angle="-180.00" stage="walking"/>
            <person id="p11" pos="77.08" angle="-180.00" stage="walking"/>
            <person id="p13" pos="78.09" angle="-180.00" stage="walking"/>
            <person id="p10" pos="80.20" angle="-180.00" stage="walking"/>
        </edge>
    </timestep>
    <timestep time="20.00">
        <edge id=":C_c2">
            <person id="p5" pos="5.30" angle="90.00" stage="walking"/>
            <person id="p4" pos="6.10" angle="90.00" stage="walking"/>
            <person id="p0" pos="8.45" angle="90.00" stage="walking"/>
            <person id="p1" pos="8.61" angle="90.00" stage="walking"/>
            <person id="p2" pos="9.65" angle="90.00" stage="walking"/>
            <person id="p3" pos="13.33" angle="90.00" stage="walking"/>
        </edge>
        <edge id="SC">
            <person id="p15" pos="74.70" angle="-180.00" stage="walking"/>
            <person id="p14" pos="74.84" angle="-180.00" stage="walking"/>
            <person id="p11" pos="77.87" angle="-180.00" stage="walking"/>
            <person id="p12" pos="78.20" angle="-180.00" stage="walking"/>
            <person id="p13" pos="79.49" angle="-180.00" stage="walking"/>
            <person id="p10" pos="81.00" angle="-180.00" stage="walking"/>
        </edge>
    </timestep>
    <timestep time="21.00">
        <edge id=":C_c2">
            <person id="p5" pos="6.10" angle="90.00" stage="walking"/>
            <person id="p4" pos="7.30" angle="90.00" stage="walking"/>
            <person id="p0" pos="9.25" angle="90.00" stage="walking"/>
            <person id="p1" pos="9.61" angle="90.00" stage="walking"/>
            <person id="p2" pos="10.85" angle="90.00" stage="walking"/>
            <person id="p3" pos="14.73" angle="90.00" stage="walking"/>
        </edge>
        <edge id="SC">
            <person id="p15" pos="75.50" angle="-180.00" stage="walking"/>
            <person id="p14" pos="75.94" angle="-180.00" stage="walking"/>
            <person id="p11" pos="78.66" angle="-180.00" stage="walking"/>
            <person id="p12" pos="79.40" angle="-180.00" stage="walking"/>
            <person id="p13" pos="80.89" angle="-180.00" stage="walking"/>
            <person id="p10" pos="81.80" angle="-180.00" stage="walking"/>
        </edge>
    </timestep>
    <timestep time="22.00">
        <edge id=":C_c2">
            <person id="p5" pos="6.90" angle="90.00" stage="walking"/>
            <person id="p4" pos="8.50" angle="90.00" stage="walking"/>
            <person id="p0" pos="10.05" angle="90.00" stage="walking"/>
            <person id="p1" pos="10.61" angle="90.00" stage="walking"/>
            <person id="p2" pos="12.05" angle="90.00" stage="walking"/>
        </edge>
        <edge id=":C_w2">
            <person id="p3" pos="0.83" angle="90.00" stage="walking"/>
        </edge>
        <edge id="SC">
            <person id="p15" pos="76.30" angle="-180.00" stage="walking"/>
            <person id="p14" pos="77.10" angle="-180.00" stage="walking"/>
            <person id="p11" pos="79.45" angle="-180.00" stage="walking"/>
            <person id="p12" pos="80.60" angle="-180.00" stage="walking"/>
            <person id="p13" pos="82.29" angle="-180.00" stage="walking"/>
            <person id="p10" pos="82.60" angle="-180.00" stage="walking"/>
        </edge>
    </timestep>
    <timestep time="23.00">
        <edge id=":C_c2">
            <person id="p5" pos="7.70" angle="90.00" stage="walking"/>
            <person id="p4" pos="9.70" angle="90.00" stage="walking"/>
            <person id="p0" pos="10.85" angle="90.00" stage="walking"/>
            <person id="p1" pos="11.61" angle="90.00" stage="walking"/>
            <person id="p2" pos="13.25" angle="90.00" stage="walking"/>
        </edge>
        <edge id=":C_w2">
            <person id="p3" pos="2.23" angle="60.21" stage="walking"/>
        </edge>
        <edge id="SC">
            <person id="p15" pos="77.10" angle="-180.00" stage="walking"/>
            <person id="p14" pos="78.27" angle="-180.00" stage="walking"/>
            <person id="p11" pos="80.25" angle="-180.00" stage="walking"/>
            <person id="p12" pos="81.80" angle="-180.00" stage="walking"/>
            <person id="p10" pos="83.40" angle="-180.00" stage="walking"/>
            <person id="p13" pos="83.69" angle="-180.00" stage="walking"/>
        </edge>
    </timestep>
    <timestep time="24.00">
        <edge id=":C_c2">
            <person id="p5" pos="8.50" angle="90.00" stage="walking"/>
            <person id="p4" pos="10.90" angle="90.00" stage="walking"/>
            <person id="p0" pos="11.65" angle="90.00" stage="walking"/>
            <person id="p1" pos="12.61" angle="90.00" stage="walking"/>
            <person id="p2" pos="14.45" angle="90.00" stage="walking"/>
        </edge>
        <edge id=":C_w2">
            <person id="p3" pos="3.63" angle="0.00" stage="walking"/>
        </edge>
        <edge id="SC">
            <person id="p15" pos="77.90" angle="-180.00" stage="walking"/>
            <person id="p14" pos="79.87" angle="-180.00" stage="walking"/>
            <person id="p11" pos="81.05" angle="-180.00" stage="walking"/>
            <person id="p12" pos="81.80" angle="-180.00" stage="walking"/>
            <person id="p13" pos="83.98" angle="-180.00" stage="walking"/>
            <person id="p10" pos="84.20" angle="-180.00" stage="walking"/>
        </edge>
    </timestep>
    <timestep time="25.00">
        <edge id=":C_c2">
            <person id="p5" pos="9.30" angle="90.00" stage="walking"/>
            <person id="p4" pos="12.10" angle="90.00" stage="walking"/>
            <person id="p0" pos="12.45" angle="90.00" stage="walking"/>
            <person id="p1" pos="13.61" angle="90.00" stage="walking"/>
        </edge>
        <edge id=":C_w2">
            <person id="p2" pos="0.35" angle="90.00" stage="walking"/>
            <person id="p3" pos="3.78" angle="0.00" stage="walking"/>
        </edge>
        <edge id="SC">
            <person id="p15" pos="78.70" angle="-180.00" stage="walking"/>
            <person id="p14" pos="81.45" angle="-180.00" stage="walking"/>
            <person id="p11" pos="81.85" angle="-180.00" stage="walking"/>
            <person id="p12" pos="82.97" angle="-180.00" stage="walking"/>
            <person id="p10" pos="85.00" angle="-180.00" stage="walking"/>
            <person id="p13" pos="85.38" angle="-180.00" stage="walking"/>
        </edge>
    </timestep>
    <timestep time="26.00">
        <edge id=":C_c2">
            <person id="p5" pos="10.10" angle="90.00" stage="walking"/>
            <person id="p4" pos="12.87" angle="90.00" stage="walking"/>
            <person id="p0" pos="13.25" angle="90.00" stage="walking"/>
            <person id="p1" pos="14.61" angle="90.00" stage="walking"/>
        </edge>
        <edge id=":C_w2">
            <person id="p13" pos="1.38" angle="-180.00" stage="walking"/>
            <person id="p2" pos="1.43" angle="60.21" stage="walking"/>
            <person id="p3" pos="3.78" angle="0.00" stage="walking"/>
        </edge>
        <edge id="SC">
            <person id="p15" pos="79.60" angle="-180.00" stage="walking"/>
            <person id="p14" pos="81.45" angle="-180.00" stage="walking"/>
            <person id="p11" pos="82.85" angle="-180.00" stage="walking"/>
            <person id="p12" pos="82.97" angle="-180.00" stage="walking"/>
            <person id="p10" pos="85.00" angle="-180.00" stage="walking"/>
        </edge>
    </timestep>
    <timestep time="27.00">
        <edge id=":C_c2">
            <person id="p5" pos="10.90" angle="90.00" stage="walking"/>
            <person id="p0" pos="14.05" angle="90.00" stage="walking"/>
            <person id="p4" pos="14.47" angle="90.00" stage="walking"/>
        </edge>
        <edge id=":C_w2">
            <person id="p1" pos="0.07" angle="90.00" stage="walking"/>
            <person id="p13" pos="1.38" angle="-180.00" stage="walking"/>
            <person id="p2" pos="1.97" angle="60.21" stage="walking"/>
        </edge>
        <edge id="SC">
            <person id="p15" pos="80.55" angle="-180.00" stage="walking"/>
            <person id="p14" pos="82.05" angle="-180.00" stage="walking"/>
            <person id="p12" pos="82.97" angle="-180.00" stage="walking"/>
            <person id="p11" pos="83.85" angle="-180.00" stage="walking"/>
            <person id="p3" pos="84.79" angle="0.00" stage="walking"/>
            <person id="p10" pos="85.00" angle="-180.00" stage="walking"/>
        </edge>
    </timestep>
    <timestep time="28.00">
        <edge id=":C_c2">
            <person id="p5" pos="11.70" angle="90.00" stage="walking"/>
            <person id="p0" pos="14.85" angle="90.00" stage="walking"/>
        </edge>
        <edge id=":C_w2">
            <person id="p4" pos="0.77" angle="90.00" stage="walking"/>
            <person id="p1" pos="1.07" angle="60.21" stage="walking"/>
            <person id="p2" pos="1.97" angle="60.21" stage="walking"/>
            <person id="p13" pos="2.78" angle="167.75" stage="walking"/>
        </edge>
        <edge id="SC">
            <person id="p15" pos="81.53" angle="-180.00" stage="walking"/>
            <person id="p14" pos="82.05" angle="-180.00" stage="walking"/>
            <person id="p3" pos="83.39" angle="0.00" stage="walking"/>
            <person id="p12" pos="84.17" angle="-180.00" stage="walking"/>
            <person id="p11" pos="84.85" angle="-180.00" stage="walking"/>
            <person id="p10" pos="85.37" angle="-180.00" stage="walking"/>
        </edge>
    </timestep>
    <timestep time="29.00">
        <edge id=":C_c2">
            <person id="p5" pos="12.50" angle="90.00" stage="walking"/>
        </edge>
        <edge id=":C_w2">
            <person id="p0" pos="0.35" angle="90.00" stage="walking"/>
            <person id="p11" pos="0.45" angle="-180.00" stage="walking"/>
            <person id="p10" pos="0.76" angle="-180.00" stage="walking"/>
            <person id="p1" pos="1.07" angle="60.21" stage="walking"/>
            <person id="p4" pos="1.64" angle="60.21" stage="walking"/>
            <person id="p2" pos="1.97" angle="60.21" stage="walking"/>
            <person id="p13" pos="4.18" angle="167.75" stage="walking"/>
        </edge>
        <edge id="SC">
            <person id="p3" pos="81.99" angle="0.00" stage="walking"/>
            <person id="p15" pos="82.51" angle="-180.00" stage="walking"/>
            <person id="p14" pos="82.53" angle="-180.00" stage="walking"/>
            <person id="p12" pos="85.37" angle="-180.00" stage="walking"/>
        </edge>
    </timestep>
    <timestep time="30.00">
        <edge id=":C_c2">
            <person id="p5" pos="13.07" angle="90.00" stage="walking"/>
        </edge>
        <edge id=":C_w2">
            <person id="p0" pos="0.35" angle="90.00" stage="walking"/>
            <person id="p11" pos="1.45" angle="-180.00" stage="walking"/>
            <person id="p10" pos="1.56" angle="-180.00" stage="walking"/>
            <person id="p4" pos="1.64" angle="60.21" stage="walking"/>
            <person id="p1" pos="2.07" angle="60.21" stage="walking"/>
            <person id="p2" pos="3.17" angle="60.21" stage="walking"/>
            <person id="p13" pos="5.58" angle="-180.00" stage="walking"/>
        </edge>
        <edge id="SC">
            <person id="p3" pos="80.59" angle="0.00" stage="walking"/>
            <person id="p14" pos="83.38" angle="-180.00" stage="walking"/>
            <person id="p15" pos="83.68" angle="-180.00" stage="walking"/>
            <person id="p12" pos="85.37" angle="-180.00" stage="walking"/>
        </edge>
    </timestep>
    <timestep time="31.00">
        <edge id=":C_c2">
            <person id="p5" pos="13.36" angle="90.00" stage="walking"/>
        </edge>
        <edge id=":C_w2">
            <person id="p0" pos="0.35" angle="90.00" stage="walking"/>
            <person id="p4" pos="1.64" angle="60.21" stage="walking"/>
            <person id="p1" pos="2.31" angle="60.21" stage="walking"/>
            <person id="p10" pos="2.36" angle="167.75" stage="walking"/>
            <person id="p11" pos="2.45" angle="167.75" stage="walking"/>
            <person id="p2" pos="3.17" angle="60.21" stage="walking"/>
            <person id="p13" pos="6.98" angle="-180.00" stage="walking"/>
        </edge>
        <edge id="SC">
            <person id="p3" pos="79.19" angle="0.00" stage="walking"/>
            <person id="p14" pos="83.38" angle="-180.00" stage="walking"/>
            <person id="p15" pos="84.64" angle="-180.00" stage="walking"/>
            <person id="p12" pos="85.37" angle="-180.00" stage="walking"/>
        </edge>
    </timestep>
    <timestep time="32.00">
        <edge id=":C_c2">
            <person id="p5" pos="14.01" angle="90.00" stage="walking"/>
        </edge>
        <edge id=":C_w2">
            <person id="p15" pos="0.21" angle="-180.00" stage="walking"/>
            <person id="p0" pos="1.15" angle="60.21" stage="walking"/>
            <person id="p12" pos="1.17" angle="-180.00" stage="walking"/>
            <person id="p4" pos="1.64" angle="60.21" stage="walking"/>
            <person id="p1" pos="2.31" angle="60.21" stage="walking"/>
            <person id="p10" pos="3.16" angle="167.75" stage="walking"/>
            <person id="p11" pos="3.45" angle="167.75" stage="walking"/>
            <person id="p2" pos="4.37" angle="0.00" stage="walking"/>
            <person id="p13" pos="6.98" angle="-180.00" stage="walking"/>
        </edge>
        <edge id="SC">
            <person id="p3" pos="77.79" angle="0.00" stage="walking"/>
            <person id="p14" pos="83.38" angle="-180.00" stage="walking"/>
        </edge>
    </timestep>
    <timestep time="33.00">
        <edge id=":C_c2">
            <person id="p5" pos="14.69" angle="90.00" stage="walking"/>
        </edge>
        <edge id=":C_w2">
            <person id="p0" pos="1.15" angle="60.21" stage="walking"/>
            <person id="p15" pos="1.15" angle="-180.00" stage="walking"/>
            <person id="p12" pos="1.17" angle="-180.00" stage="walking"/>
            <person id="p4" pos="1.64" angle="60.21" stage="walking"/>
            <person id="p1" pos="2.31" angle="60.21" stage="walking"/>
            <person id="p10" pos="3.96" angle="167.75" stage="walking"/>
            <person id="p11" pos="4.45" angle="167.75" stage="walking"/>
            <person id="p13" pos="6.98" angle="-180.00" stage="walking"/>
        </edge>
        <edge id="SC">
            <person id="p3" pos="76.39" angle="0.00" stage="walking"/>
            <person id="p14" pos="83.97" angle="-180.00" stage="walking"/>
            <person id="p2" pos="84.34" angle="0.00" stage="walking"/>
        </edge>
    </timestep>
    <timestep time="34.00">
        <edge id=":C_c2">
            <person id="p5" pos="14.69" angle="90.00" stage="walking"/>
        </edge>
        <edge id=":C_w2">
            <person id="p0" pos="1.83" angle="60.21" stage="walking"/>
            <person id="p15" pos="2.13" angle="167.75" stage="walking"/>