<?xml version="1.0" encoding="UTF-8"?>

<!-- generated on 11/30/15 21:55:09 by SUMO Version dev-SVN-r19465
<?xml version="1.0" encoding="UTF-8"?>

<configuration xmlns:xsi="http://www.w3.org/2001/XMLSchema-instance" xsi:noNamespaceSchemaLocation="http://sumo.dlr.de/xsd/sumoConfiguration.xsd">

    <input>
        <net-file value="net.net.xml"/>
        <additional-files value="input_additional.add.xml,input_additional2.add.xml"/>
    </input>

    <output>
        <netstate-dump value="rawdump.xml"/>
    </output>

    <processing>
        <pedestrian.model value="striping"/>
        <pedestrian.striping.stripe-width value="0.75"/>
        <pedestrian.striping.dawdling value="0"/>
    </processing>

    <report>
        <xml-validation value="never"/>
        <no-step-log value="true"/>
    </report>

</configuration>
-->

<netstate xmlns:xsi="http://www.w3.org/2001/XMLSchema-instance" xsi:noNamespaceSchemaLocation="http://sumo.dlr.de/xsd/netstate_file.xsd">
    <timestep time="0.00">
        <edge id="WC">
            <person id="p5" pos="80.15" angle="90.00" stage="walking"/>
            <person id="p4" pos="81.15" angle="90.00" stage="walking"/>
            <person id="p3" pos="82.15" angle="90.00" stage="walking"/>
            <person id="p2" pos="83.15" angle="90.00" stage="walking"/>
            <person id="p1" pos="84.15" angle="90.00" stage="walking"/>
            <person id="p0" pos="85.15" angle="90.00" stage="walking"/>
        </edge>
    </timestep>
    <timestep time="1.00">
        <edge id="WC">
            <person id="p5" pos="80.15" angle="90.00" stage="walking"/>
            <person id="p4" pos="81.90" angle="90.00" stage="walking"/>
            <person id="p2" pos="83.15" angle="90.00" stage="walking"/>
            <person id="p3" pos="83.25" angle="90.00" stage="walking"/>
            <person id="p1" pos="84.60" angle="90.00" stage="walking"/>
            <person id="p0" pos="85.95" angle="90.00" stage="walking"/>
        </edge>
    </timestep>
    <timestep time="2.00">
        <edge id=":C_w3">
            <person id="p0" pos="0.60" angle="90.00" stage="walking"/>
        </edge>
        <edge id="WC">
            <person id="p5" pos="81.95" angle="90.00" stage="walking"/>
            <person id="p2" pos="83.15" angle="90.00" stage="walking"/>
            <person id="p4" pos="83.30" angle="90.00" stage="walking"/>
            <person id="p3" pos="84.65" angle="90.00" stage="walking"/>
            <person id="p1" pos="85.40" angle="90.00" stage="walking"/>
        </edge>
    </timestep>
    <timestep time="3.00">
        <edge id=":C_w3">
            <person id="p1" pos="0.05" angle="90.00" stage="walking"/>
            <person id="p0" pos="1.40" angle="90.00" stage="walking"/>
        </edge>
        <edge id="WC">
            <person id="p2" pos="83.15" angle="90.00" stage="walking"/>
            <person id="p5" pos="83.75" angle="90.00" stage="walking"/>
            <person id="p4" pos="84.70" angle="90.00" stage="walking"/>
            <person id="p3" pos="86.05" angle="90.00" stage="walking"/>
        </edge>
    </timestep>
    <timestep time="4.00">
        <edge id=":C_w3">
            <person id="p1" pos="0.85" angle="90.00" stage="walking"/>
            <person id="p3" pos="1.30" angle="90.00" stage="walking"/>
            <person id="p0" pos="2.20" angle="116.48" stage="walking"/>
        </edge>
        <edge id="WC">
            <person id="p2" pos="84.35" angle="90.00" stage="walking"/>
            <person id="p5" pos="85.55" angle="90.00" stage="walking"/>
            <person id="p4" pos="86.10" angle="90.00" stage="walking"/>
        </edge>
    </timestep>
    <timestep time="5.00">
        <edge id=":C_w3">
            <person id="p4" pos="1.06" angle="90.00" stage="walking"/>
            <person id="p5" pos="1.20" angle="90.00" stage="walking"/>
            <person id="p1" pos="1.65" angle="116.48" stage="walking"/>
            <person id="p3" pos="2.70" angle="116.48" stage="walking"/>
            <person id="p0" pos="3.00" angle="116.48" stage="walking"/>
        </edge>
        <edge id="WC">
            <person id="p2" pos="85.55" angle="90.00" stage="walking"/>
        </edge>
    </timestep>
    <timestep time="6.00">
        <edge id=":C_w3">
            <person id="p2" pos="0.60" angle="90.00" stage="walking"/>
            <person id="p1" pos="2.45" angle="116.48" stage="walking"/>
            <person id="p4" pos="2.66" angle="116.48" stage="walking"/>
            <person id="p5" pos="3.00" angle="116.48" stage="walking"/>
            <person id="p0" pos="3.80" angle="116.48" stage="walking"/>
            <person id="p3" pos="4.10" angle="116.48" stage="walking"/>
        </edge>
    </timestep>
    <timestep time="7.00">
        <edge id=":C_w3">
            <person id="p2" pos="1.80" angle="116.48" stage="walking"/>
            <person id="p1" pos="3.25" angle="116.48" stage="walking"/>
            <person id="p4" pos="4.15" angle="116.48" stage="walking"/>
            <person id="p0" pos="4.60" angle="116.48" stage="walking"/>
            <person id="p5" pos="4.80" angle="116.48" stage="walking"/>
            <person id="p3" pos="5.50" angle="90.00" stage="walking"/>
        </edge>
    </timestep>
    <timestep time="8.00">
        <edge id=":C_c2">
            <person id="p5" pos="0.05" angle="90.00" stage="walking"/>
            <person id="p3" pos="0.35" angle="90.00" stage="walking"/>
        </edge>
        <edge id=":C_w3">
            <person id="p2" pos="3.00" angle="116.48" stage="walking"/>
            <person id="p1" pos="4.05" angle="116.48" stage="walking"/>
            <person id="p0" pos="5.40" angle="90.00" stage="walking"/>
            <person id="p4" pos="5.55" angle="90.00" stage="walking"/>
        </edge>
    </timestep>
    <timestep time="9.00">
        <edge id=":C_c2">
            <person id="p4" pos="0.39" angle="90.00" stage="walking"/>
            <person id="p3" pos="1.75" angle="90.00" stage="walking"/>
            <person id="p5" pos="1.85" angle="90.00" stage="walking"/>
        </edge>
        <edge id=":C_w3">
            <person id="p2" pos="4.20" angle="116.48" stage="walking"/>
            <person id="p1" pos="4.85" angle="116.48" stage="walking"/>
            <person id="p0" pos="6.20" angle="90.00" stage="walking"/>
        </edge>
    </timestep>
    <timestep time="10.00">
        <edge id=":C_c2">
            <person id="p0" pos="0.45" angle="90.00" stage="walking"/>
            <person id="p4" pos="1.79" angle="90.00" stage="walking"/>
            <person id="p3" pos="3.15" angle="90.00" stage="walking"/>
            <person id="p5" pos="3.65" angle="90.00" stage="walking"/>
        </edge>
        <edge id=":C_w3">
            <person id="p2" pos="5.40" angle="90.00" stage="walking"/>
            <person id="p1" pos="5.65" angle="90.00" stage="walking"/>
        </edge>
    </timestep>
    <timestep time="11.00">
        <edge id=":C_c2">
            <person id="p2" pos="0.05" angle="90.00" stage="walking"/>
            <person id="p0" pos="1.25" angle="90.00" stage="walking"/>
            <person id="p4" pos="3.19" angle="90.00" stage="walking"/>
            <person id="p3" pos="4.55" angle="90.00" stage="walking"/>
            <person id="p5" pos="5.45" angle="90.00" stage="walking"/>
        </edge>
        <edge id=":C_w3">
            <person id="p1" pos="6.45" angle="90.00" stage="walking"/>
        </edge>
    </timestep>
    <timestep time="12.00">
        <edge id=":C_c2">
            <person id="p1" pos="0.70" angle="90.00" stage="walking"/>
            <person id="p2" pos="1.25" angle="90.00" stage="walking"/>
            <person id="p0" pos="2.05" angle="90.00" stage="walking"/>
            <person id="p4" pos="4.59" angle="90.00" stage="walking"/>
            <person id="p3" pos="5.95" angle="90.00" stage="walking"/>
            <person id="p5" pos="7.25" angle="90.00" stage="walking"/>
        </edge>
    </timestep>
    <timestep time="13.00">
        <edge id=":C_c2">
            <person id="p1" pos="1.50" angle="90.00" stage="walking"/>
            <person id="p2" pos="2.45" angle="90.00" stage="walking"/>
            <person id="p0" pos="2.85" angle="90.00" stage="walking"/>
            <person id="p4" pos="5.99" angle="90.00" stage="walking"/>
            <person id="p3" pos="7.35" angle="90.00" stage="walking"/>
            <person id="p5" pos="9.05" angle="90.00" stage="walking"/>
        </edge>
        <edge id="SC">
            <person id="p15" pos="70.40" angle="0.00" stage="walking"/>
            <person id="p14" pos="71.40" angle="0.00" stage="walking"/>
            <person id="p13" pos="72.40" angle="0.00" stage="walking"/>
            <person id="p12" pos="73.40" angle="0.00" stage="walking"/>
            <person id="p11" pos="74.40" angle="0.00" stage="walking"/>
            <person id="p10" pos="75.40" angle="0.00" stage="walking"/>
        </edge>
    </timestep>
    <timestep time="14.00">
        <edge id=":C_c2">
            <person id="p1" pos="2.30" angle="90.00" stage="walking"/>
            <person id="p0" pos="3.65" angle="90.00" stage="walking"/>
            <person id="p2" pos="3.65" angle="90.00" stage="walking"/>
            <person id="p4" pos="7.39" angle="90.00" stage="walking"/>
            <person id="p3" pos="8.75" angle="90.00" stage="walking"/>
            <person id="p5" pos="10.85" angle="90.00" stage="walking"/>
        </edge>
        <edge id="SC">
            <person id="p15" pos="70.40" angle="0.00" stage="walking"/>
            <person id="p14" pos="72.15" angle="0.00" stage="walking"/>
            <person id="p12" pos="73.40" angle="0.00" stage="walking"/>
            <person id="p13" pos="73.50" angle="0.00" stage="walking"/>
            <person id="p11" pos="74.85" angle="0.00" stage="walking"/>
            <person id="p10" pos="76.20" angle="0.00" stage="walking"/>
        </edge>
    </timestep>
    <timestep time="15.00">
        <edge id=":C_c2">
            <person id="p1" pos="3.10" angle="90.00" stage="walking"/>
            <person id="p0" pos="4.45" angle="90.00" stage="walking"/>
            <person id="p2" pos="4.85" angle="90.00" stage="walking"/>
            <person id="p4" pos="8.79" angle="90.00" stage="walking"/>
            <person id="p3" pos="10.15" angle="90.00" stage="walking"/>
            <person id="p5" pos="12.65" angle="90.00" stage="walking"/>
        </edge>
        <edge id="SC">
            <person id="p15" pos="72.20" angle="0.00" stage="walking"/>
            <person id="p12" pos="73.40" angle="0.00" stage="walking"/>
            <person id="p14" pos="73.55" angle="0.00" stage="walking"/>
            <person id="p13" pos="74.90" angle="0.00" stage="walking"/>
            <person id="p11" pos="75.65" angle="0.00" stage="walking"/>
            <person id="p10" pos="77.00" angle="0.00" stage="walking"/>
        </edge>
    </timestep>
    <timestep time="16.00">
        <edge id=":C_c2">
            <person id="p1" pos="3.90" angle="90.00" stage="walking"/>
            <person id="p0" pos="5.25" angle="90.00" stage="walking"/>
            <person id="p2" pos="6.05" angle="90.00" stage="walking"/>
            <person id="p4" pos="10.19" angle="90.00" stage="walking"/>
            <person id="p3" pos="11.55" angle="90.00" stage="walking"/>
            <person id="p5" pos="14.45" angle="90.00" stage="walking"/>
        </edge>
        <edge id="SC">
            <person id="p12" pos="73.40" angle="0.00" stage="walking"/>
            <person id="p15" pos="74.00" angle="0.00" stage="walking"/>
            <person id="p14" pos="74.95" angle="0.00" stage="walking"/>
            <person id="p13" pos="76.30" angle="0.00" stage="walking"/>
            <person id="p11" pos="76.45" angle="0.00" stage="walking"/>
            <person id="p10" pos="77.80" angle="0.00" stage="walking"/>
        </edge>
    </timestep>
    <timestep time="17.00">
        <edge id=":C_c2">
            <person id="p1" pos="4.70" angle="90.00" stage="walking"/>
            <person id="p0" pos="6.05" angle="90.00" stage="walking"/>
            <person id="p2" pos="7.25" angle="90.00" stage="walking"/>
            <person id="p4" pos="11.59" angle="90.00" stage="walking"/>
            <person id="p3" pos="12.95" angle="90.00" stage="walking"/>
        </edge>
        <edge id=":C_w2">
            <person id="p5" pos="0.95" angle="90.00" stage="walking"/>
        </edge>
        <edge id="SC">
            <person id="p12" pos="74.60" angle="0.00" stage="walking"/>
            <person id="p15" pos="75.80" angle="0.00" stage="walking"/>
            <person id="p14" pos="76.35" angle="0.00" stage="walking"/>
            <person id="p11" pos="77.25" angle="0.00" stage="walking"/>
            <person id="p13" pos="77.70" angle="0.00" stage="walking"/>
            <person id="p10" pos="78.60" angle="0.00" stage="walking"/>
        </edge>
    </timestep>
    <timestep time="18.00">
        <edge id=":C_c2">
            <person id="p1" pos="5.50" angle="90.00" stage="walking"/>
            <person id="p0" pos="6.85" angle="90.00" stage="walking"/>
            <person id="p2" pos="8.45" angle="90.00" stage="walking"/>
            <person id="p4" pos="12.99" angle="90.00" stage="walking"/>
            <person id="p3" pos="14.35" angle="90.00" stage="walking"/>
        </edge>
        <edge id=":C_w2">
            <person id="p5" pos="2.75" angle="119.79" stage="walking"/>
        </edge>
        <edge id="SC">
            <person id="p12" pos="75.80" angle="0.00" stage="walking"/>
            <person id="p15" pos="77.60" angle="0.00" stage="walking"/>
            <person id="p14" pos="77.75" angle="0.00" stage="walking"/>
            <person id="p11" pos="78.05" angle="0.00" stage="walking"/>
            <person id="p13" pos="79.10" angle="0.00" stage="walking"/>
            <person id="p10" pos="79.40" angle="0.00" stage="walking"/>
        </edge>
    </timestep>
    <timestep time="19.00">
        <edge id=":C_c2">
            <person id="p1" pos="6.30" angle="90.00" stage="walking"/>
            <person id="p0" pos="7.65" angle="90.00" stage="walking"/>
            <person id="p2" pos="9.65" angle="90.00" stage="walking"/>
            <person id="p4" pos="14.39" angle="90.00" stage="walking"/>
        </edge>
        <edge id=":C_w2">
            <person id="p3" pos="0.45" angle="90.00" stage="walking"/>
        </edge>
        <edge id="SC">
            <person id="p12" pos="77.00" angle="0.00" stage="walking"/>
            <person id="p11" pos="78.85" angle="0.00" stage="walking"/>
            <person id="p15" pos="79.15" angle="0.00" stage="walking"/>
            <person id="p14" pos="79.35" angle="0.00" stage="walking"/>
            <person id="p10" pos="80.20" angle="0.00" stage="walking"/>
            <person id="p13" pos="80.50" angle="0.00" stage="walking"/>
            <person id="p5" pos="85.37" angle="180.00" stage="walking"/>
        </edge>
    </timestep>
    <timestep time="20.00">
        <edge id=":C_c2">
            <person id="p1" pos="7.10" angle="90.00" stage="walking"/>
            <person id="p0" pos="8.45" angle="90.00" stage="walking"/>
            <person id="p2" pos="10.85" angle="90.00" stage="walking"/>
            <person id="p4" pos="14.39" angle="90.00" stage="walking"/>
        </edge>
        <edge id=":C_w2">
            <person id="p3" pos="1.85" angle="119.79" stage="walking"/>
        </edge>
        <edge id="SC">
            <person id="p12" pos="78.20" angle="0.00" stage="walking"/>
            <person id="p11" pos="79.65" angle="0.00" stage="walking"/>
            <person id="p15" pos="80.55" angle="0.00" stage="walking"/>
            <person id="p14" pos="80.95" angle="0.00" stage="walking"/>
            <person id="p10" pos="81.00" angle="0.00" stage="walking"/>
            <person id="p13" pos="81.90" angle="0.00" stage="walking"/>
            <person id="p5" pos="83.90" angle="180.00" stage="walking"/>
        </edge>
    </timestep>
    <timestep time="21.00">
        <edge id=":C_c2">
            <person id="p1" pos="7.90" angle="90.00" stage="walking"/>
            <person id="p0" pos="9.25" angle="90.00" stage="walking"/>
            <person id="p2" pos="12.05" angle="90.00" stage="walking"/>
        </edge>
        <edge id=":C_w2">
            <person id="p4" pos="0.69" angle="90.00" stage="walking"/>
            <person id="p3" pos="3.25" angle="119.79" stage="walking"/>
        </edge>
        <edge id="SC">
            <person id="p12" pos="79.40" angle="0.00" stage="walking"/>
            <person id="p11" pos="80.45" angle="0.00" stage="walking"/>
            <person id="p15" pos="81.20" angle="0.00" stage="walking"/>
            <person id="p10" pos="81.80" angle="0.00" stage="walking"/>
            <person id="p13" pos="81.90" angle="0.00" stage="walking"/>
            <person id="p14" pos="82.55" angle="0.00" stage="walking"/>
            <person id="p5" pos="83.90" angle="180.00" stage="walking"/>
        </edge>
    </timestep>
    <timestep time="22.00">
        <edge id=":C_c2">
            <person id="p1" pos="8.70" angle="90.00" stage="walking"/>
            <person id="p0" pos="10.05" angle="90.00" stage="walking"/>
            <person id="p2" pos="13.25" angle="90.00" stage="walking"/>
        </edge>
        <edge id=":C_w2">
            <person id="p4" pos="2.29" angle="119.79" stage="walking"/>
        </edge>
        <edge id="SC">
            <person id="p12" pos="80.55" angle="0.00" stage="walking"/>
            <person id="p11" pos="81.25" angle="0.00" stage="walking"/>
            <person id="p13" pos="81.90" angle="0.00" stage="walking"/>
            <person id="p5" pos="82.10" angle="180.00" stage="walking"/>
            <person id="p10" pos="82.60" angle="0.00" stage="walking"/>
            <person id="p15" pos="82.80" angle="0.00" stage="walking"/>
            <person id="p14" pos="84.15" angle="0.00" stage="walking"/>
            <person id="p3" pos="85.27" angle="180.00" stage="walking"/>
        </edge>
    </timestep>
    <timestep time="23.00">
        <edge id=":C_c2">
            <person id="p1" pos="9.50" angle="90.00" stage="walking"/>
            <person id="p0" pos="10.85" angle="90.00" stage="walking"/>
            <person id="p2" pos="14.45" angle="90.00" stage="walking"/>
        </edge>
        <edge id=":C_w2">
            <person id="p4" pos="3.89" angle="180.00" stage="walking"/>
        </edge>
        <edge id="SC">
            <person id="p5" pos="80.30" angle="180.00" stage="walking"/>
            <person id="p12" pos="81.75" angle="0.00" stage="walking"/>
            <person id="p11" pos="81.89" angle="0.00" stage="walking"/>
            <person id="p10" pos="83.25" angle="0.00" stage="walking"/>
            <person id="p13" pos="83.27" angle="0.00" stage="walking"/>
            <person id="p14" pos="84.15" angle="0.00" stage="walking"/>
            <person id="p15" pos="84.60" angle="0.00" stage="walking"/>
            <person id="p3" pos="85.27" angle="180.00" stage="walking"/>
        </edge>
    </timestep>
    <timestep time="24.00">
        <edge id=":C_c2">
            <person id="p1" pos="10.30" angle="90.00" stage="walking"/>
            <person id="p0" pos="11.65" angle="90.00" stage="walking"/>
        </edge>
        <edge id=":C_w2">
            <person id="p14" pos="0.35" angle="0.00" stage="walking"/>
            <person id="p2" pos="0.35" angle="90.00" stage="walking"/>
            <person id="p15" pos="1.00" angle="0.00" stage="walking"/>
        </edge>
        <edge id="SC">
            <person id="p5" pos="78.50" angle="180.00" stage="walking"/>
            <person id="p11" pos="82.89" angle="0.00" stage="walking"/>
            <person id="p12" pos="82.95" angle="0.00" stage="walking"/>
            <person id="p10" pos="83.25" angle="0.00" stage="walking"/>
            <person id="p13" pos="83.27" angle="0.00" stage="walking"/>
            <person id="p3" pos="85.25" angle="180.00" stage="walking"/>
            <person id="p4" pos="85.25" angle="180.00" stage="walking"/>
        </edge>
    </timestep>
    <timestep time="25.00">
        <edge id=":C_c2">
            <person id="p1" pos="11.10" angle="90.00" stage="walking"/>
            <person id="p0" pos="12.45" angle="90.00" stage="walking"/>
        </edge>
        <edge id=":C_w2">
            <person id="p14" pos="1.38" angle="0.00" stage="walking"/>
            <person id="p2" pos="1.55" angle="119.79" stage="walking"/>
            <person id="p15" pos="2.80" angle="12.25" stage="walking"/>
        </edge>
        <edge id="SC">
            <person id="p5" pos="76.70" angle="180.00" stage="walking"/>
            <person id="p11" pos="82.89" angle="0.00" stage="walking"/>
            <person id="p10" pos="83.25" angle="0.00" stage="walking"/>
            <person id="p4" pos="83.65" angle="180.00" stage="walking"/>
            <person id="p12" pos="84.15" angle="0.00" stage="walking"/>
            <person id="p13" pos="84.67" angle="0.00" stage="walking"/>
            <person id="p3" pos="85.25" angle="180.00" stage="walking"/>
        </edge>
    </timestep>
    <timestep time="26.00">
        <edge id=":C_c2">
            <person id="p1" pos="11.90" angle="90.00" stage="walking"/>
            <person id="p0" pos="13.25" angle="90.00" stage="walking"/>
        </edge>
        <edge id=":C_w2">
            <person id="p13" pos="0.67" angle="0.00" stage="walking"/>
            <person id="p14" pos="1.38" angle="0.00" stage="walking"/>
            <person id="p2" pos="1.55" angle="119.79" stage="walking"/>
            <person id="p15" pos="4.60" angle="12.25" stage="walking"/>
        </edge>
        <edge id="SC">
            <person id="p5" pos="74.90" angle="180.00" stage="walking"/>
            <person id="p4" pos="82.05" angle="180.00" stage="walking"/>
            <person id="p11" pos="82.89" angle="0.00" stage="walking"/>
            <person id="p10" pos="83.25" angle="0.00" stage="walking"/>
            <person id="p3" pos="83.85" angle="180.00" stage="walking"/>
            <person id="p12" pos="84.72" angle="0.00" stage="walking"/>
        </edge>
    </timestep>
    <timestep time="27.00">
        <edge id=":C_c2">
            <person id="p1" pos="12.70" angle="90.00" stage="walking"/>
            <person id="p0" pos="14.05" angle="90.00" stage="walking"/>
        </edge>
        <edge id=":C_w2">
            <person id="p12" pos="0.52" angle="0.00" stage="walking"/>
            <person id="p13" pos="2.07" angle="12.25" stage="walking"/>
            <person id="p2" pos="2.75" angle="119.79" stage="walking"/>
            <person id="p14" pos="2.98" angle="12.25" stage="walking"/>
            <person id="p15" pos="6.03" angle="0.00" stage="walking"/>
        </edge>
        <edge id="SC">
            <person id="p5" pos="73.10" angle="180.00" stage="walking"/>
            <person id="p4" pos="80.45" angle="180.00" stage="walking"/>
            <person id="p3" pos="82.45" angle="180.00" stage="walking"/>
            <person id="p11" pos="83.89" angle="0.00" stage="walking"/>
            <person id="p10" pos="84.05" angle="0.00" stage="walking"/>
        </edge>
    </timestep>
    <timestep time="28.00">
        <edge id=":C_c2">
            <person id="p1" pos="13.50" angle="90.00" stage="walking"/>
            <person id="p0" pos="14.85" angle="90.00" stage="walking"/>
        </edge>
        <edge id=":C_w2">
            <person id="p12" pos="1.72" angle="0.00" stage="walking"/>
            <person id="p13" pos="3.23" angle="12.25" stage="walking"/>
            <person id="p2" pos="3.95" angle="180.00" stage="walking"/>
            <person id="p14" pos="4.58" angle="12.25" stage="walking"/>
            <person id="p15" pos="6.03" angle="0.00" stage="walking"/>
        </edge>
        <edge id="SC">
            <person id="p5" pos="71.30" angle="180.00" stage="walking"/>
            <person id="p4" pos="78.85" angle="180.00" stage="walking"/>
            <person id="p3" pos="81.05" angle="180.00" stage="walking"/>
            <person id="p10" pos="84.84" angle="0.00" stage="walking"/>
            <person id="p11" pos="84.89" angle="0.00" stage="walking"/>
        </edge>
    </timestep>
    <timestep time="29.00">
        <edge id=":C_c2">
            <person id="p1" pos="14.30" angle="90.00" stage="walking"/>
        </edge>
        <edge id=":C_w2">
            <person id="p10" pos="0.24" angle="0.00" stage="walking"/>
            <person id="p0" pos="0.35" angle="90.00" stage="walking"/>
            <person id="p11" pos="0.49" angle="0.00" stage="walking"/>
            <person id="p12" pos="2.92" angle="12.25" stage="walking"/>
            <person id="p13" pos="4.63" angle="12.25" stage="walking"/>
            <person id="p14" pos="6.03" angle="0.00" stage="walking"/>
            <person id="p15" pos="6.03" angle="0.00" stage="walking"/>
        </edge>
        <edge id="SC">
            <person id="p5" pos="69.50" angle="180.00" stage="walking"/>
            <person id="p4" pos="77.25" angle="180.00" stage="walking"/>
            <person id="p3" pos="79.65" angle="180.00" stage="walking"/>
            <person id="p2" pos="84.77" angle="180.00" stage="walking"/>
        </edge>
    </timestep>
    <timestep time="30.00">
        <edge id=":C_c2">
            <person id="p1" pos="14.30" angle="90.00" stage="walking"/>
        </edge>
        <edge id=":C_w2">
            <person id="p0" pos="0.80" angle="90.00" stage="walking"/>
            <person id="p10" pos="1.04" angle="0.00" stage="walking"/>
            <person id="p11" pos="1.49" angle="0.00" stage="walking"/>
            <person id="p12" pos="4.12" angle="12.25" stage="walking"/>
            <person id="p13" pos="4.68" angle="12.25" stage="walking"/>
            <person id="p14" pos="6.03" angle="0.00" stage="walking"/>
            <person id="p15" pos="6.03" angle="0.00" stage="walking"/>
        </edge>
        <edge id="SC">
            <person id="p5" pos="67.70" angle="180.00" stage="walking"/>
            <person id="p4" pos="75.65" angle="180.00" stage="walking"/>
            <person id="p3" pos="78.25" angle="180.00" stage="walking"/>
            <person id="p2" pos="83.57" angle="180.00" stage="walking"/>
        </edge>
    </timestep>
    <timestep time="31.00">
        <edge id=":C_c2">
            <person id="p1" pos="15.30" angle="90.00" stage="walking"/>
        </edge>
        <edge id=":C_w2">
            <person id="p0" pos="1.60" angle="119.79" stage="walking"/>
            <person id="p10" pos="1.84" angle="12.25" stage="walking"/>
            <person id="p11" pos="2.49" angle="12.25" stage="walking"/>
            <person id="p12" pos="4.68" angle="12.25" stage="walking"/>
            <person id="p13" pos="6.03" angle="0.00" stage="walking"/>
            <person id="p14" pos="6.03" angle="0.00" stage="walking"/>
            <person id="p15" pos="6.03" angle="0.00" stage="walking"/>
        </edge>
        <edge id="SC">
            <person id="p5" pos="65.90" angle="180.00" stage="walking"/>
            <person id="p4" pos="74.05" angle="180.00" stage="walking"/>
            <person id="p3" pos="76.85" angle="180.00" stage="walking"/>
            <person id="p2" pos="82.37" angle="180.00" stage="walking"/>
        </edge>
    </timestep>
    <timestep time="32.00">
        <edge id=":C_w2">
            <person id="p1" pos="0.91" angle="90.00" stage="walking"/>
            <person id="p10" pos="2.14" angle="12.25" stage="walking"/>
            <person id="p0" pos="2.40" angle="119.79" stage="walking"/>
            <person id="p11" pos="3.49" angle="12.25" stage="walking"/>
            <person id="p12" pos="4.68" angle="12.25" stage="walking"/>
            <person id="p13" pos="6.03" angle="0.00" stage="walking"/>
            <person id="p14" pos="6.03" angle="0.00" stage="walking"/>
            <person id="p15" pos="6.03" angle="0.00" stage="walking"/>
        </edge>
        <edge id="SC">
            <person id="p5" pos="64.10" angle="180.00" stage="walking"/>
            <person id="p4" pos="72.45" angle="180.00" stage="walking"/>
            <person id="p3" pos="75.45" angle="180.00" stage="walking"/>
            <person id="p2" pos="81.17" angle="180.00" stage="walking"/>
        </edge>
    </timestep>
    <timestep time="33.00">
        <edge id=":C_w2">
            <person id="p1" pos="0.91" angle="90.00" stage="walking"/>
            <person id="p10" pos="2.94" angle="12.25" stage="walking"/>
            <person id="p0" pos="3.20" angle="119.79" stage="walking"/>
            <person id="p11" pos="4.49" angle="12.25" stage="walking"/>
            <person id="p12" pos="5.88" angle="0.00" stage="walking"/>
            <person id="p13" pos="6.03" angle="0.00" stage="walking"/>
            <person id="p14" pos="6.03" angle="0.00" stage="walking"/>
            <person id="p15" pos="6.03" angle="0.00" stage="walking"/>
        </edge>
        <edge id="SC">
            <person id="p5" pos="62.30" angle="180.00" stage="walking"/>
            <person id="p4" pos="70.85" angle="180.00" stage="walking"/>
            <person id="p3" pos="74.05" angle="180.00" stage="walking"/>
            <person id="p2" pos="79.97" angle="180.00" stage="walking"/>
        </edge>
    </timestep>
    <timestep time="34.00">
        <edge id=":C_w2">
            <person id="p1" pos="1.91" angle="119.79" stage="walking"/>
            <person id="p10" pos="3.74" angle="12.25" stage="walking"/>
            <person id="p0" pos="4.00" angle="180.00" stage="walking"/>
            <person id="p11" pos="4.68" angle="12.25" stage="walking"/>
            <person id="p12" pos="6.03" angle="0.00" stage="walking"/>
            <person id="p13" pos="6.03" angle="0.00" stage="walking"/>
            <person id="p14" pos="6.03" angle="0.00" stage="walking"/>
            <person id="p15" pos="6.03" angle="0.00" stage="walking"/>
        </edge>