<?xml version="1.0" encoding="UTF-8"?>

<!-- generated on Wed Feb  8 14:26:17 2017 by SUMO Version dev-SVN-r22880
<?xml version="1.0" encoding="UTF-8"?>

<configuration xmlns:xsi="http://www.w3.org/2001/XMLSchema-instance" xsi:noNamespaceSchemaLocation="http://sumo.dlr.de/xsd/sumoConfiguration.xsd">

    <input>
        <net-file value="net.net.xml"/>
        <additional-files value="input_additional.add.xml,input_additional2.add.xml"/>
    </input>

    <output>
        <netstate-dump value="rawdump.xml"/>
    </output>

    <processing>
        <pedestrian.model value="striping"/>
        <pedestrian.striping.stripe-width value="0.75"/>
        <pedestrian.striping.dawdling value="0"/>
    </processing>

    <report>
        <xml-validation value="never"/>
        <no-step-log value="true"/>
    </report>

</configuration>
-->

<netstate xmlns:xsi="http://www.w3.org/2001/XMLSchema-instance" xsi:noNamespaceSchemaLocation="http://sumo.dlr.de/xsd/netstate_file.xsd">
    <timestep time="0.00">
        <edge id="WC">
            <person id="p5" pos="80.15" angle="90.00" stage="walking"/>
            <person id="p4" pos="81.15" angle="90.00" stage="walking"/>
            <person id="p3" pos="82.15" angle="90.00" stage="walking"/>
            <person id="p2" pos="83.15" angle="90.00" stage="walking"/>
            <person id="p1" pos="84.15" angle="90.00" stage="walking"/>
            <person id="p0" pos="85.15" angle="90.00" stage="walking"/>
        </edge>
    </timestep>
    <timestep time="1.00">
        <edge id="WC">
            <person id="p5" pos="80.15" angle="90.00" stage="walking"/>
            <person id="p4" pos="81.90" angle="90.00" stage="walking"/>
            <person id="p2" pos="83.15" angle="90.00" stage="walking"/>
            <person id="p3" pos="83.25" angle="90.00" stage="walking"/>
            <person id="p1" pos="84.60" angle="90.00" stage="walking"/>
            <person id="p0" pos="85.95" angle="90.00" stage="walking"/>
        </edge>
    </timestep>
    <timestep time="2.00">
        <edge id=":C_w3">
            <person id="p0" pos="0.60" angle="90.00" stage="walking"/>
        </edge>
        <edge id="WC">
            <person id="p5" pos="81.95" angle="90.00" stage="walking"/>
            <person id="p2" pos="83.15" angle="90.00" stage="walking"/>
            <person id="p4" pos="83.50" angle="90.00" stage="walking"/>
            <person id="p3" pos="84.05" angle="90.00" stage="walking"/>
            <person id="p1" pos="85.40" angle="90.00" stage="walking"/>
        </edge>
    </timestep>
    <timestep time="3.00">
        <edge id=":C_w3">
            <person id="p1" pos="0.05" angle="90.00" stage="walking"/>
            <person id="p0" pos="1.40" angle="90.00" stage="walking"/>
        </edge>
        <edge id="WC">
            <person id="p5" pos="82.75" angle="90.00" stage="walking"/>
            <person id="p2" pos="83.15" angle="90.00" stage="walking"/>
            <person id="p4" pos="84.10" angle="90.00" stage="walking"/>
            <person id="p3" pos="85.45" angle="90.00" stage="walking"/>
        </edge>
    </timestep>
    <timestep time="4.00">
        <edge id=":C_w3">
            <person id="p3" pos="0.70" angle="90.00" stage="walking"/>
            <person id="p1" pos="0.85" angle="90.00" stage="walking"/>
            <person id="p0" pos="2.20" angle="116.48" stage="walking"/>
        </edge>
        <edge id="WC">
            <person id="p2" pos="83.15" angle="90.00" stage="walking"/>
            <person id="p5" pos="84.55" angle="90.00" stage="walking"/>
            <person id="p4" pos="85.50" angle="90.00" stage="walking"/>
        </edge>
    </timestep>
    <timestep time="5.00">
        <edge id=":C_w3">
            <person id="p5" pos="0.20" angle="90.00" stage="walking"/>
            <person id="p4" pos="0.53" angle="90.00" stage="walking"/>
            <person id="p1" pos="1.65" angle="116.48" stage="walking"/>
            <person id="p3" pos="2.10" angle="116.48" stage="walking"/>
            <person id="p0" pos="3.00" angle="116.48" stage="walking"/>
        </edge>
        <edge id="WC">
            <person id="p2" pos="84.35" angle="90.00" stage="walking"/>
        </edge>
    </timestep>
    <timestep time="6.00">
        <edge id=":C_w3">
            <person id="p5" pos="2.00" angle="116.48" stage="walking"/>
            <person id="p4" pos="2.13" angle="116.48" stage="walking"/>
            <person id="p1" pos="2.45" angle="116.48" stage="walking"/>
            <person id="p3" pos="3.50" angle="116.48" stage="walking"/>
            <person id="p0" pos="3.80" angle="116.48" stage="walking"/>
        </edge>
        <edge id="WC">
            <person id="p2" pos="85.55" angle="90.00" stage="walking"/>
        </edge>
    </timestep>
    <timestep time="7.00">
        <edge id=":C_w3">
            <person id="p2" pos="0.60" angle="90.00" stage="walking"/>
            <person id="p1" pos="3.25" angle="116.48" stage="walking"/>
            <person id="p4" pos="3.55" angle="116.48" stage="walking"/>
            <person id="p5" pos="3.80" angle="116.48" stage="walking"/>
            <person id="p0" pos="4.60" angle="116.48" stage="walking"/>
            <person id="p3" pos="4.90" angle="116.48" stage="walking"/>
        </edge>
    </timestep>
    <timestep time="8.00">
        <edge id=":C_w3">
            <person id="p2" pos="1.80" angle="116.48" stage="walking"/>
            <person id="p1" pos="4.05" angle="116.48" stage="walking"/>
            <person id="p4" pos="4.95" angle="116.48" stage="walking"/>
            <person id="p0" pos="5.40" angle="90.00" stage="walking"/>
            <person id="p5" pos="5.60" angle="90.00" stage="walking"/>
            <person id="p3" pos="6.30" angle="90.00" stage="walking"/>
        </edge>
    </timestep>
    <timestep time="9.00">
        <edge id=":C_c2">
            <person id="p5" pos="0.84" angle="90.00" stage="walking"/>
            <person id="p3" pos="1.15" angle="90.00" stage="walking"/>
        </edge>
        <edge id=":C_w3">
            <person id="p2" pos="3.00" angle="116.48" stage="walking"/>
            <person id="p1" pos="4.85" angle="116.48" stage="walking"/>
            <person id="p0" pos="6.20" angle="90.00" stage="walking"/>
            <person id="p4" pos="6.35" angle="90.00" stage="walking"/>
        </edge>
    </timestep>
    <timestep time="10.00">
        <edge id=":C_c2">
            <person id="p0" pos="0.45" angle="90.00" stage="walking"/>
            <person id="p4" pos="1.19" angle="90.00" stage="walking"/>
            <person id="p3" pos="2.55" angle="90.00" stage="walking"/>
            <person id="p5" pos="2.64" angle="90.00" stage="walking"/>
        </edge>
        <edge id=":C_w3">
            <person id="p2" pos="4.20" angle="116.48" stage="walking"/>
            <person id="p1" pos="5.65" angle="90.00" stage="walking"/>
        </edge>
    </timestep>
    <timestep time="11.00">
        <edge id=":C_c2">
            <person id="p0" pos="1.25" angle="90.00" stage="walking"/>
            <person id="p4" pos="2.59" angle="90.00" stage="walking"/>
            <person id="p3" pos="3.95" angle="90.00" stage="walking"/>
            <person id="p5" pos="4.44" angle="90.00" stage="walking"/>
        </edge>
        <edge id=":C_w3">
            <person id="p2" pos="5.40" angle="90.00" stage="walking"/>
            <person id="p1" pos="6.45" angle="90.00" stage="walking"/>
        </edge>
    </timestep>
    <timestep time="12.00">
        <edge id=":C_c2">
            <person id="p2" pos="0.05" angle="90.00" stage="walking"/>
            <person id="p1" pos="0.70" angle="90.00" stage="walking"/>
            <person id="p0" pos="2.05" angle="90.00" stage="walking"/>
            <person id="p4" pos="3.99" angle="90.00" stage="walking"/>
            <person id="p3" pos="5.35" angle="90.00" stage="walking"/>
            <person id="p5" pos="6.24" angle="90.00" stage="walking"/>
        </edge>
    </timestep>
    <timestep time="13.00">
        <edge id=":C_c2">
            <person id="p2" pos="1.25" angle="90.00" stage="walking"/>
            <person id="p1" pos="1.50" angle="90.00" stage="walking"/>
            <person id="p0" pos="2.85" angle="90.00" stage="walking"/>
            <person id="p4" pos="5.39" angle="90.00" stage="walking"/>
            <person id="p3" pos="6.75" angle="90.00" stage="walking"/>
            <person id="p5" pos="8.04" angle="90.00" stage="walking"/>
        </edge>
        <edge id="SC">
            <person id="p15" pos="70.40" angle="0.00" stage="walking"/>
            <person id="p14" pos="71.40" angle="0.00" stage="walking"/>
            <person id="p13" pos="72.40" angle="0.00" stage="walking"/>
            <person id="p12" pos="73.40" angle="0.00" stage="walking"/>
            <person id="p11" pos="74.40" angle="0.00" stage="walking"/>
            <person id="p10" pos="75.40" angle="0.00" stage="walking"/>
        </edge>
    </timestep>
    <timestep time="14.00">
        <edge id=":C_c2">
            <person id="p1" pos="2.30" angle="90.00" stage="walking"/>
            <person id="p2" pos="2.45" angle="90.00" stage="walking"/>
            <person id="p0" pos="3.65" angle="90.00" stage="walking"/>
            <person id="p4" pos="6.79" angle="90.00" stage="walking"/>
            <person id="p3" pos="8.15" angle="90.00" stage="walking"/>
            <person id="p5" pos="9.84" angle="90.00" stage="walking"/>
        </edge>
        <edge id="SC">
            <person id="p15" pos="70.40" angle="0.00" stage="walking"/>
            <person id="p14" pos="72.15" angle="0.00" stage="walking"/>
            <person id="p12" pos="73.40" angle="0.00" stage="walking"/>
            <person id="p13" pos="73.50" angle="0.00" stage="walking"/>
            <person id="p11" pos="74.85" angle="0.00" stage="walking"/>
            <person id="p10" pos="76.20" angle="0.00" stage="walking"/>
        </edge>
    </timestep>
    <timestep time="15.00">
        <edge id=":C_c2">
            <person id="p1" pos="3.10" angle="90.00" stage="walking"/>
            <person id="p2" pos="3.65" angle="90.00" stage="walking"/>
            <person id="p0" pos="4.45" angle="90.00" stage="walking"/>
            <person id="p4" pos="8.19" angle="90.00" stage="walking"/>
            <person id="p3" pos="9.55" angle="90.00" stage="walking"/>
            <person id="p5" pos="11.64" angle="90.00" stage="walking"/>
        </edge>
        <edge id="SC">
            <person id="p15" pos="72.20" angle="0.00" stage="walking"/>
            <person id="p12" pos="73.40" angle="0.00" stage="walking"/>
            <person id="p14" pos="73.75" angle="0.00" stage="walking"/>
            <person id="p13" pos="74.30" angle="0.00" stage="walking"/>
            <person id="p11" pos="75.65" angle="0.00" stage="walking"/>
            <person id="p10" pos="77.00" angle="0.00" stage="walking"/>
        </edge>
    </timestep>
    <timestep time="16.00">
        <edge id=":C_c2">
            <person id="p1" pos="3.90" angle="90.00" stage="walking"/>
            <person id="p2" pos="4.85" angle="90.00" stage="walking"/>
            <person id="p0" pos="5.25" angle="90.00" stage="walking"/>
            <person id="p4" pos="9.59" angle="90.00" stage="walking"/>
            <person id="p3" pos="10.95" angle="90.00" stage="walking"/>
            <person id="p5" pos="13.44" angle="90.00" stage="walking"/>
        </edge>
        <edge id="SC">
            <person id="p15" pos="73.00" angle="0.00" stage="walking"/>
            <person id="p12" pos="73.40" angle="0.00" stage="walking"/>
            <person id="p14" pos="74.35" angle="0.00" stage="walking"/>
            <person id="p13" pos="75.70" angle="0.00" stage="walking"/>
            <person id="p11" pos="76.45" angle="0.00" stage="walking"/>
            <person id="p10" pos="77.80" angle="0.00" stage="walking"/>
        </edge>
    </timestep>
    <timestep time="17.00">
        <edge id=":C_c2">
            <person id="p1" pos="4.70" angle="90.00" stage="walking"/>
            <person id="p0" pos="6.05" angle="90.00" stage="walking"/>
            <person id="p2" pos="6.05" angle="90.00" stage="walking"/>
            <person id="p4" pos="10.99" angle="90.00" stage="walking"/>
            <person id="p3" pos="12.35" angle="90.00" stage="walking"/>
            <person id="p5" pos="15.24" angle="90.00" stage="walking"/>
        </edge>
        <edge id="SC">
            <person id="p12" pos="73.40" angle="0.00" stage="walking"/>
            <person id="p15" pos="74.80" angle="0.00" stage="walking"/>
            <person id="p14" pos="75.75" angle="0.00" stage="walking"/>
            <person id="p13" pos="77.10" angle="0.00" stage="walking"/>
            <person id="p11" pos="77.25" angle="0.00" stage="walking"/>
            <person id="p10" pos="78.60" angle="0.00" stage="walking"/>
        </edge>
    </timestep>
    <timestep time="18.00">
        <edge id=":C_c2">
            <person id="p1" pos="5.50" angle="90.00" stage="walking"/>
            <person id="p0" pos="6.85" angle="90.00" stage="walking"/>
            <person id="p2" pos="7.25" angle="90.00" stage="walking"/>
            <person id="p4" pos="12.39" angle="90.00" stage="walking"/>
            <person id="p3" pos="13.75" angle="90.00" stage="walking"/>
        </edge>
        <edge id=":C_w2">
            <person id="p5" pos="1.74" angle="119.79" stage="walking"/>
        </edge>
        <edge id="SC">
            <person id="p12" pos="74.60" angle="0.00" stage="walking"/>
            <person id="p15" pos="76.60" angle="0.00" stage="walking"/>
            <person id="p14" pos="77.15" angle="0.00" stage="walking"/>
            <person id="p11" pos="78.05" angle="0.00" stage="walking"/>
            <person id="p13" pos="78.50" angle="0.00" stage="walking"/>
            <person id="p10" pos="79.40" angle="0.00" stage="walking"/>
        </edge>
    </timestep>
    <timestep time="19.00">
        <edge id=":C_c2">
            <person id="p1" pos="6.30" angle="90.00" stage="walking"/>
            <person id="p0" pos="7.65" angle="90.00" stage="walking"/>
            <person id="p2" pos="8.45" angle="90.00" stage="walking"/>
            <person id="p4" pos="13.79" angle="90.00" stage="walking"/>
            <person id="p3" pos="15.15" angle="90.00" stage="walking"/>
        </edge>
        <edge id=":C_w2">
            <person id="p5" pos="3.54" angle="180.00" stage="walking"/>
        </edge>
        <edge id="SC">
            <person id="p12" pos="75.80" angle="0.00" stage="walking"/>
            <person id="p15" pos="78.40" angle="0.00" stage="walking"/>
            <person id="p14" pos="78.55" angle="0.00" stage="walking"/>
            <person id="p11" pos="78.85" angle="0.00" stage="walking"/>
            <person id="p13" pos="79.90" angle="0.00" stage="walking"/>
            <person id="p10" pos="80.20" angle="0.00" stage="walking"/>
        </edge>
    </timestep>
    <timestep time="20.00">
        <edge id=":C_c2">
            <person id="p1" pos="7.10" angle="90.00" stage="walking"/>
            <person id="p0" pos="8.45" angle="90.00" stage="walking"/>
            <person id="p2" pos="9.65" angle="90.00" stage="walking"/>
            <person id="p4" pos="15.19" angle="90.00" stage="walking"/>
        </edge>
        <edge id=":C_w2">
            <person id="p3" pos="1.25" angle="119.79" stage="walking"/>
        </edge>
        <edge id="SC">
            <person id="p12" pos="77.00" angle="0.00" stage="walking"/>
            <person id="p11" pos="79.65" angle="0.00" stage="walking"/>
            <person id="p14" pos="79.95" angle="0.00" stage="walking"/>
            <person id="p15" pos="80.20" angle="0.00" stage="walking"/>
            <person id="p10" pos="81.00" angle="0.00" stage="walking"/>
            <person id="p13" pos="81.30" angle="0.00" stage="walking"/>
            <person id="p5" pos="84.57" angle="180.00" stage="walking"/>
        </edge>
    </timestep>
    <timestep time="21.00">
        <edge id=":C_c2">
            <person id="p1" pos="7.90" angle="90.00" stage="walking"/>
            <person id="p0" pos="9.25" angle="90.00" stage="walking"/>
            <person id="p2" pos="10.85" angle="90.00" stage="walking"/>
            <person id="p4" pos="15.19" angle="90.00" stage="walking"/>
        </edge>
        <edge id=":C_w2">
            <person id="p3" pos="2.65" angle="119.79" stage="walking"/>
        </edge>
        <edge id="SC">
            <person id="p12" pos="78.20" angle="0.00" stage="walking"/>
            <person id="p11" pos="80.45" angle="0.00" stage="walking"/>
            <person id="p14" pos="81.22" angle="0.00" stage="walking"/>
            <person id="p10" pos="81.80" angle="0.00" stage="walking"/>
            <person id="p15" pos="82.00" angle="0.00" stage="walking"/>
            <person id="p13" pos="82.57" angle="0.00" stage="walking"/>
            <person id="p5" pos="84.57" angle="180.00" stage="walking"/>
        </edge>
    </timestep>
    <timestep time="22.00">
        <edge id=":C_c2">
            <person id="p1" pos="8.70" angle="90.00" stage="walking"/>
            <person id="p0" pos="10.05" angle="90.00" stage="walking"/>
            <person id="p2" pos="12.05" angle="90.00" stage="walking"/>
        </edge>
        <edge id=":C_w2">
            <person id="p4" pos="1.49" angle="119.79" stage="walking"/>
            <person id="p3" pos="3.99" angle="180.00" stage="walking"/>
        </edge>
        <edge id="SC">
            <person id="p12" pos="79.40" angle="0.00" stage="walking"/>
            <person id="p11" pos="81.25" angle="0.00" stage="walking"/>
            <person id="p15" pos="82.57" angle="0.00" stage="walking"/>
            <person id="p10" pos="82.60" angle="0.00" stage="walking"/>
            <person id="p14" pos="82.62" angle="0.00" stage="walking"/>
            <person id="p5" pos="82.77" angle="180.00" stage="walking"/>
            <person id="p13" pos="83.97" angle="0.00" stage="walking"/>
        </edge>
    </timestep>
    <timestep time="23.00">
        <edge id=":C_c2">
            <person id="p1" pos="9.50" angle="90.00" stage="walking"/>
            <person id="p0" pos="10.85" angle="90.00" stage="walking"/>
            <person id="p2" pos="13.25" angle="90.00" stage="walking"/>
        </edge>
        <edge id=":C_w2">
            <person id="p4" pos="3.09" angle="119.79" stage="walking"/>
        </edge>
        <edge id="SC">
            <person id="p12" pos="80.60" angle="0.00" stage="walking"/>
            <person id="p11" pos="82.05" angle="0.00" stage="walking"/>
            <person id="p5" pos="82.60" angle="180.00" stage="walking"/>
            <person id="p10" pos="83.40" angle="0.00" stage="walking"/>
            <person id="p14" pos="84.02" angle="0.00" stage="walking"/>
            <person id="p15" pos="84.37" angle="0.00" stage="walking"/>
            <person id="p3" pos="84.52" angle="180.00" stage="walking"/>
            <person id="p13" pos="85.37" angle="0.00" stage="walking"/>
        </edge>
    </timestep>
    <timestep time="24.00">
        <edge id=":C_c2">
            <person id="p1" pos="10.30" angle="90.00" stage="walking"/>
            <person id="p0" pos="11.65" angle="90.00" stage="walking"/>
            <person id="p2" pos="14.45" angle="90.00" stage="walking"/>
        </edge>
        <edge id=":C_w2">
            <person id="p14" pos="0.02" angle="0.00" stage="walking"/>
            <person id="p15" pos="0.77" angle="0.00" stage="walking"/>
            <person id="p13" pos="1.37" angle="0.00" stage="walking"/>
            <person id="p4" pos="3.09" angle="119.79" stage="walking"/>
        </edge>
        <edge id="SC">
            <person id="p5" pos="80.80" angle="180.00" stage="walking"/>
            <person id="p12" pos="81.80" angle="0.00" stage="walking"/>
            <person id="p11" pos="82.85" angle="0.00" stage="walking"/>
            <person id="p3" pos="83.80" angle="180.00" stage="walking"/>
            <person id="p10" pos="84.20" angle="0.00" stage="walking"/>
        </edge>
    </timestep>
    <timestep time="25.00">
        <edge id=":C_c2">
            <person id="p1" pos="11.10" angle="90.00" stage="walking"/>
            <person id="p0" pos="12.45" angle="90.00" stage="walking"/>
        </edge>
        <edge id=":C_w2">
            <person id="p2" pos="0.35" angle="90.00" stage="walking"/>
            <person id="p14" pos="1.42" angle="0.00" stage="walking"/>
            <person id="p15" pos="2.57" angle="12.25" stage="walking"/>
            <person id="p13" pos="2.77" angle="12.25" stage="walking"/>
            <person id="p4" pos="3.09" angle="119.79" stage="walking"/>
        </edge>
        <edge id="SC">
            <person id="p5" pos="79.00" angle="180.00" stage="walking"/>
            <person id="p3" pos="82.40" angle="180.00" stage="walking"/>
            <person id="p12" pos="83.00" angle="0.00" stage="walking"/>
            <person id="p11" pos="83.65" angle="0.00" stage="walking"/>
            <person id="p10" pos="85.00" angle="0.00" stage="walking"/>
        </edge>
    </timestep>
    <timestep time="26.00">
        <edge id=":C_c2">
            <person id="p1" pos="11.90" angle="90.00" stage="walking"/>
            <person id="p0" pos="13.25" angle="90.00" stage="walking"/>
        </edge>
        <edge id=":C_w2">
            <person id="p2" pos="0.35" angle="90.00" stage="walking"/>
            <person id="p10" pos="0.40" angle="0.00" stage="walking"/>
            <person id="p14" pos="2.82" angle="12.25" stage="walking"/>
            <person id="p13" pos="4.17" angle="12.25" stage="walking"/>
            <person id="p15" pos="4.37" angle="12.25" stage="walking"/>
        </edge>
        <edge id="SC">
            <person id="p5" pos="77.20" angle="180.00" stage="walking"/>
            <person id="p3" pos="81.00" angle="180.00" stage="walking"/>
            <person id="p12" pos="83.22" angle="0.00" stage="walking"/>
            <person id="p11" pos="84.45" angle="0.00" stage="walking"/>
            <person id="p4" pos="85.22" angle="180.00" stage="walking"/>
        </edge>
    </timestep>
    <timestep time="27.00">
        <edge id=":C_c2">
            <person id="p1" pos="12.70" angle="90.00" stage="walking"/>
            <person id="p0" pos="14.05" angle="90.00" stage="walking"/>
        </edge>
        <edge id=":C_w2">
            <person id="p10" pos="1.20" angle="0.00" stage="walking"/>
            <person id="p2" pos="1.55" angle="119.79" stage="walking"/>
            <person id="p14" pos="4.22" angle="12.25" stage="walking"/>
            <person id="p13" pos="5.57" angle="0.00" stage="walking"/>
            <person id="p15" pos="6.03" angle="0.00" stage="walking"/>
        </edge>
        <edge id="SC">
            <person id="p5" pos="75.40" angle="180.00" stage="walking"/>
            <person id="p3" pos="79.60" angle="180.00" stage="walking"/>
            <person id="p12" pos="83.22" angle="0.00" stage="walking"/>
            <person id="p4" pos="85.22" angle="180.00" stage="walking"/>
            <person id="p11" pos="85.25" angle="0.00" stage="walking"/>
        </edge>
    </timestep>
    <timestep time="28.00">
        <edge id=":C_c2">
            <person id="p1" pos="13.50" angle="90.00" stage="walking"/>
            <person id="p0" pos="14.85" angle="90.00" stage="walking"/>
        </edge>
        <edge id=":C_w2">
            <person id="p11" pos="0.40" angle="0.00" stage="walking"/>
            <person id="p10" pos="2.00" angle="12.25" stage="walking"/>
            <person id="p2" pos="2.75" angle="119.79" stage="walking"/>
            <person id="p14" pos="4.68" angle="12.25" stage="walking"/>
            <person id="p13" pos="6.03" angle="0.00" stage="walking"/>
            <person id="p15" pos="6.03" angle="0.00" stage="walking"/>
        </edge>
        <edge id="SC">
            <person id="p5" pos="73.60" angle="180.00" stage="walking"/>
            <person id="p3" pos="78.20" angle="180.00" stage="walking"/>
            <person id="p4" pos="83.62" angle="180.00" stage="walking"/>
            <person id="p12" pos="84.42" angle="0.00" stage="walking"/>
        </edge>
    </timestep>
    <timestep time="29.00">
        <edge id=":C_c2">
            <person id="p1" pos="14.30" angle="90.00" stage="walking"/>
        </edge>
        <edge id=":C_w2">
            <person id="p12" pos="0.22" angle="0.00" stage="walking"/>
            <person id="p0" pos="0.35" angle="90.00" stage="walking"/>
            <person id="p11" pos="1.40" angle="0.00" stage="walking"/>
            <person id="p10" pos="2.80" angle="12.25" stage="walking"/>
            <person id="p2" pos="3.95" angle="180.00" stage="walking"/>
            <person id="p14" pos="4.68" angle="12.25" stage="walking"/>
            <person id="p13" pos="6.03" angle="0.00" stage="walking"/>
            <person id="p15" pos="6.03" angle="0.00" stage="walking"/>
        </edge>
        <edge id="SC">
            <person id="p5" pos="71.80" angle="180.00" stage="walking"/>
            <person id="p3" pos="76.80" angle="180.00" stage="walking"/>
            <person id="p4" pos="82.02" angle="180.00" stage="walking"/>
        </edge>
    </timestep>
    <timestep time="30.00">
        <edge id=":C_c2">
            <person id="p1" pos="14.30" angle="90.00" stage="walking"/>
        </edge>
        <edge id=":C_w2">
            <person id="p0" pos="1.15" angle="119.79" stage="walking"/>
            <person id="p12" pos="1.42" angle="0.00" stage="walking"/>
            <person id="p11" pos="2.25" angle="12.25" stage="walking"/>
            <person id="p10" pos="3.60" angle="12.25" stage="walking"/>
            <person id="p13" pos="6.03" angle="0.00" stage="walking"/>
            <person id="p14" pos="6.03" angle="0.00" stage="walking"/>
            <person id="p15" pos="6.03" angle="0.00" stage="walking"/>
        </edge>
        <edge id="SC">
            <person id="p5" pos="70.00" angle="180.00" stage="walking"/>
            <person id="p3" pos="75.40" angle="180.00" stage="walking"/>
            <person id="p4" pos="80.42" angle="180.00" stage="walking"/>
            <person id="p2" pos="84.77" angle="180.00" stage="walking"/>
        </edge>
    </timestep>
    <timestep time="31.00">
        <edge id=":C_c2">
            <person id="p1" pos="14.30" angle="90.00" stage="walking"/>
        </edge>
        <edge id=":C_w2">
            <person id="p0" pos="1.95" angle="119.79" stage="walking"/>
            <person id="p12" pos="2.62" angle="12.25" stage="walking"/>
            <person id="p11" pos="3.05" angle="12.25" stage="walking"/>
            <person id="p10" pos="4.40" angle="12.25" stage="walking"/>
            <person id="p13" pos="6.03" angle="0.00" stage="walking"/>
            <person id="p14" pos="6.03" angle="0.00" stage="walking"/>
            <person id="p15" pos="6.03" angle="0.00" stage="walking"/>
        </edge>
        <edge id="SC">
            <person id="p5" pos="68.20" angle="180.00" stage="walking"/>
            <person id="p3" pos="74.00" angle="180.00" stage="walking"/>
            <person id="p4" pos="78.82" angle="180.00" stage="walking"/>
            <person id="p2" pos="83.57" angle="180.00" stage="walking"/>
        </edge>
    </timestep>
    <timestep time="32.00">
        <edge id=":C_c2">
            <person id="p1" pos="15.30" angle="90.00" stage="walking"/>
        </edge>
        <edge id=":C_w2">
            <person id="p0" pos="2.75" angle="119.79" stage="walking"/>
            <person id="p12" pos="3.82" angle="12.25" stage="walking"/>
            <person id="p11" pos="3.85" angle="12.25" stage="walking"/>
            <person id="p10" pos="5.20" angle="12.25" stage="walking"/>
            <person id="p13" pos="6.03" angle="0.00" stage="walking"/>
            <person id="p14" pos="6.03" angle="0.00" stage="walking"/>
            <person id="p15" pos="6.03" angle="0.00" stage="walking"/>
        </edge>
        <edge id="SC">
            <person id="p5" pos="66.40" angle="180.00" stage="walking"/>
            <person id="p3" pos="72.60" angle="180.00" stage="walking"/>
            <person id="p4" pos="77.22" angle="180.00" stage="walking"/>
            <person id="p2" pos="82.37" angle="180.00" stage="walking"/>
        </edge>
    </timestep>
    <timestep time="33.00">
        <edge id=":C_w2">
            <person id="p1" pos="1.00" angle="119.79" stage="walking"/>
            <person id="p0" pos="3.55" angle="180.00" stage="walking"/>
            <person id="p11" pos="4.65" angle="12.25" stage="walking"/>
            <person id="p12" pos="4.68" angle="12.25" stage="walking"/>
            <person id="p10" pos="6.00" angle="0.00" stage="walking"/>
            <person id="p13" pos="6.03" angle="0.00" stage="walking"/>
            <person id="p14" pos="6.03" angle="0.00" stage="walking"/>
            <person id="p15" pos="6.03" angle="0.00" stage="walking"/>
        </edge>
        <edge id="SC">
            <person id="p5" pos="64.60" angle="180.00" stage="walking"/>
            <person id="p3" pos="71.20" angle="180.00" stage="walking"/>
            <person id="p4" pos="75.62" angle="180.00" stage="walking"/>
            <person id="p2" pos="81.17" angle="180.00" stage="walking"/>
        </edge>
    </timestep>
    <timestep time="34.00">
        <edge id=":C_w2">
            <person id="p1" pos="2.00" angle="119.79" stage="walking"/>
            <person id="p0" pos="4.35" angle="180.00" stage="walking"/>
            <person id="p11" pos="4.68" angle="12.25" stage="walking"/>
            <person id="p12" pos="4.68" angle="12.25" stage="walking"/>
            <person id="p10" pos="6.03" angle="0.00" stage="walking"/>
            <person id="p13" pos="6.03" angle="0.00" stage="walking"/>
            <person id="p14" pos="6.03" angle="0.00" stage="walking"/>
            <person id="p15" pos="6.03" angle="0.00" stage="walking"/>
        </edge>