<?xml version="1.0" encoding="UTF-8"?>

<!-- generated on Fri Mar 22 10:47:51 2019 by Eclipse SUMO Version v1_1_0+0417-c407ef5
This data file and the accompanying materials
are made available under the terms of the Eclipse Public License v2.0
which accompanies this distribution, and is available at
http://www.eclipse.org/legal/epl-v20.html
SPDX-License-Identifier: EPL-2.0
<configuration xmlns:xsi="http://www.w3.org/2001/XMLSchema-instance" xsi:noNamespaceSchemaLocation="http://sumo.dlr.de/xsd/sumoConfiguration.xsd">

    <input>
        <net-file value="net.net.xml"/>
        <additional-files value="input_routes.rou.xml,input_additional.add.xml,input_additional2.add.xml"/>
    </input>

    <output>
        <write-license value="true"/>
    </output>

    <time>
        <begin value="0"/>
        <end value="100"/>
    </time>

    <processing>
        <default.speeddev value="0"/>
    </processing>

    <report>
        <xml-validation value="never"/>
        <duration-log.disable value="true"/>
        <no-step-log value="true"/>
    </report>

</configuration>
-->

<detector xmlns:xsi="http://www.w3.org/2001/XMLSchema-instance" xsi:noNamespaceSchemaLocation="http://sumo.dlr.de/xsd/det_e1_file.xsd">
    <interval begin="0.00" end="100.00" id="filter" nVehContrib="2" flow="72.00" occupancy="1.00" speed="10.00" harmonicMeanSpeed="10.00" length="5.00" nVehEntered="2"/>
    <interval begin="0.00" end="100.00" id="noFilter" nVehContrib="3" flow="108.00" occupancy="1.50" speed="10.00" harmonicMeanSpeed="10.00" length="5.00" nVehEntered="3"/>
</detector>
