<?xml version="1.0" encoding="UTF-8"?>

<!-- generated on Thu Jan  5 15:09:57 2017 by SUMO Version dev-SVN-r22466
<?xml version="1.0" encoding="UTF-8"?>

<configuration xmlns:xsi="http://www.w3.org/2001/XMLSchema-instance" xsi:noNamespaceSchemaLocation="http://sumo.dlr.de/xsd/sumoConfiguration.xsd">

    <input>
        <net-file value="net.net.xml"/>
        <route-files value="input_routes.rou.xml"/>
    </input>

    <output>
        <emission-output value="emissions.xml"/>
    </output>

    <time>
        <begin value="0"/>
        <end value="120"/>
    </time>

    <report>
        <xml-validation value="never"/>
        <duration-log.disable value="true"/>
        <no-step-log value="true"/>
    </report>

    <mesoscopic>
        <mesosim value="true"/>
    </mesoscopic>

</configuration>
-->

<emission-export xmlns:xsi="http://www.w3.org/2001/XMLSchema-instance" xsi:noNamespaceSchemaLocation="http://sumo.dlr.de/xsd/emission_file.xsd">
    <timestep time="0.00"/>
    <timestep time="1.00"/>
    <timestep time="2.00"/>
    <timestep time="3.00"/>
    <timestep time="4.00"/>
    <timestep time="5.00"/>
    <timestep time="6.00"/>
    <timestep time="7.00"/>
    <timestep time="8.00"/>
    <timestep time="9.00"/>
    <timestep time="10.00"/>
    <timestep time="11.00"/>
    <timestep time="12.00"/>
    <timestep time="13.00"/>
    <timestep time="14.00"/>
    <timestep time="15.00"/>
    <timestep time="16.00"/>
    <timestep time="17.00"/>
    <timestep time="18.00"/>
    <timestep time="19.00"/>
    <timestep time="20.00"/>
    <timestep time="21.00"/>
    <timestep time="22.00"/>
    <timestep time="23.00"/>
    <timestep time="24.00"/>
    <timestep time="25.00"/>
    <timestep time="26.00"/>
    <timestep time="27.00"/>
    <timestep time="28.00"/>
    <timestep time="29.00"/>
    <timestep time="30.00"/>
    <timestep time="31.00"/>
    <timestep time="32.00"/>
    <timestep time="33.00"/>
    <timestep time="34.00"/>
    <timestep time="35.00"/>
    <timestep time="36.00"/>
    <timestep time="37.00"/>
    <timestep time="38.00"/>
    <timestep time="39.00"/>
    <timestep time="40.00"/>
    <timestep time="41.00"/>
    <timestep time="42.00"/>
    <timestep time="43.00"/>
    <timestep time="44.00"/>
    <timestep time="45.00"/>
    <timestep time="46.00"/>
    <timestep time="47.00"/>
    <timestep time="48.00"/>
    <timestep time="49.00"/>
    <timestep time="50.00"/>
    <timestep time="51.00"/>
    <timestep time="52.00"/>
    <timestep time="53.00"/>
    <timestep time="54.00"/>
    <timestep time="55.00"/>
    <timestep time="56.00"/>
    <timestep time="57.00"/>
    <timestep time="58.00"/>
    <timestep time="59.00"/>
    <timestep time="60.00"/>
    <timestep time="61.00"/>
    <timestep time="62.00"/>
    <timestep time="63.00"/>
    <timestep time="64.00"/>
    <timestep time="65.00"/>
    <timestep time="66.00"/>
    <timestep time="67.00"/>
    <timestep time="68.00"/>
    <timestep time="69.00"/>
    <timestep time="70.00"/>
    <timestep time="71.00"/>
    <timestep time="72.00"/>
    <timestep time="73.00"/>
    <timestep time="74.00"/>
    <timestep time="75.00"/>
    <timestep time="76.00"/>
    <timestep time="77.00"/>
    <timestep time="78.00"/>
    <timestep time="79.00"/>
    <timestep time="80.00"/>
    <timestep time="81.00"/>
    <timestep time="82.00"/>
    <timestep time="83.00"/>
    <timestep time="84.00"/>
    <timestep time="85.00"/>
    <timestep time="86.00"/>
    <timestep time="87.00"/>
    <timestep time="88.00"/>
    <timestep time="89.00"/>
    <timestep time="90.00"/>
    <timestep time="91.00"/>
    <timestep time="92.00"/>
    <timestep time="93.00"/>
    <timestep time="94.00"/>
    <timestep time="95.00"/>
    <timestep time="96.00"/>
    <timestep time="97.00"/>
    <timestep time="98.00"/>
    <timestep time="99.00"/>
    <timestep time="100.00">
        <vehicle id="always_left.0" eclass="HBEFA3/PC_G_EU4" CO2="2152.19" CO="10.23" HC="0.09" NOx="0.69" PMx="0.01" fuel="0.93" electricity="0.00" noise="62.58" route="always_left" type="DEFAULT_VEHTYPE" pos="0.00" speed="11.11" angle="90.00" x="0.00" y="498.35"/>
        <vehicle id="always_right.0" eclass="HBEFA3/PC_G_EU4" CO2="2152.19" CO="10.23" HC="0.09" NOx="0.69" PMx="0.01" fuel="0.93" electricity="0.00" noise="62.58" route="always_right" type="DEFAULT_VEHTYPE" pos="0.00" speed="11.11" angle="0.00" x="501.65" y="0.00"/>
        <vehicle id="horizontal.0" eclass="HBEFA3/PC_G_EU4" CO2="2152.19" CO="10.23" HC="0.09" NOx="0.69" PMx="0.01" fuel="0.93" electricity="0.00" noise="62.58" route="horizontal" type="DEFAULT_VEHTYPE" pos="0.00" speed="11.11" angle="270.00" x="1000.00" y="501.65"/>
        <vehicle id="vertical.0" eclass="HBEFA3/PC_G_EU4" CO2="2092.21" CO="29.13" HC="0.18" NOx="0.71" PMx="0.01" fuel="0.90" electricity="0.00" noise="61.01" route="vertical" type="DEFAULT_VEHTYPE" pos="0.00" speed="8.95" angle="0.00" x="501.65" y="0.00"/>
    </timestep>
    <timestep time="101.00">
        <vehicle id="always_left.0" eclass="HBEFA3/PC_G_EU4" CO2="2152.19" CO="10.23" HC="0.09" NOx="0.69" PMx="0.01" fuel="0.93" electricity="0.00" noise="62.58" route="always_left" type="DEFAULT_VEHTYPE" pos="0.00" speed="11.11" angle="90.00" x="0.00" y="498.35"/>
        <vehicle id="always_right.0" eclass="HBEFA3/PC_G_EU4" CO2="2152.19" CO="10.23" HC="0.09" NOx="0.69" PMx="0.01" fuel="0.93" electricity="0.00" noise="62.58" route="always_right" type="DEFAULT_VEHTYPE" pos="0.00" speed="11.11" angle="0.00" x="501.65" y="0.00"/>
        <vehicle id="horizontal.0" eclass="HBEFA3/PC_G_EU4" CO2="2152.19" CO="10.23" HC="0.09" NOx="0.69" PMx="0.01" fuel="0.93" electricity="0.00" noise="62.58" route="horizontal" type="DEFAULT_VEHTYPE" pos="0.00" speed="11.11" angle="270.00" x="1000.00" y="501.65"/>
        <vehicle id="vertical.0" eclass="HBEFA3/PC_G_EU4" CO2="2092.21" CO="29.13" HC="0.18" NOx="0.71" PMx="0.01" fuel="0.90" electricity="0.00" noise="61.01" route="vertical" type="DEFAULT_VEHTYPE" pos="0.00" speed="8.95" angle="0.00" x="501.65" y="0.00"/>
    </timestep>
    <timestep time="102.00">
        <vehicle id="always_left.0" eclass="HBEFA3/PC_G_EU4" CO2="2152.19" CO="10.23" HC="0.09" NOx="0.69" PMx="0.01" fuel="0.93" electricity="0.00" noise="62.58" route="always_left" type="DEFAULT_VEHTYPE" pos="0.00" speed="11.11" angle="90.00" x="0.00" y="498.35"/>
        <vehicle id="always_right.0" eclass="HBEFA3/PC_G_EU4" CO2="2152.19" CO="10.23" HC="0.09" NOx="0.69" PMx="0.01" fuel="0.93" electricity="0.00" noise="62.58" route="always_right" type="DEFAULT_VEHTYPE" pos="0.00" speed="11.11" angle="0.00" x="501.65" y="0.00"/>
        <vehicle id="horizontal.0" eclass="HBEFA3/PC_G_EU4" CO2="2152.19" CO="10.23" HC="0.09" NOx="0.69" PMx="0.01" fuel="0.93" electricity="0.00" noise="62.58" route="horizontal" type="DEFAULT_VEHTYPE" pos="0.00" speed="11.11" angle="270.00" x="1000.00" y="501.65"/>
        <vehicle id="vertical.0" eclass="HBEFA3/PC_G_EU4" CO2="2092.21" CO="29.13" HC="0.18" NOx="0.71" PMx="0.01" fuel="0.90" electricity="0.00" noise="61.01" route="vertical" type="DEFAULT_VEHTYPE" pos="0.00" speed="8.95" angle="0.00" x="501.65" y="0.00"/>
    </timestep>
    <timestep time="103.00">
        <vehicle id="always_left.0" eclass="HBEFA3/PC_G_EU4" CO2="2152.19" CO="10.23" HC="0.09" NOx="0.69" PMx="0.01" fuel="0.93" electricity="0.00" noise="62.58" route="always_left" type="DEFAULT_VEHTYPE" pos="0.00" speed="11.11" angle="90.00" x="0.00" y="498.35"/>
        <vehicle id="always_right.0" eclass="HBEFA3/PC_G_EU4" CO2="2152.19" CO="10.23" HC="0.09" NOx="0.69" PMx="0.01" fuel="0.93" electricity="0.00" noise="62.58" route="always_right" type="DEFAULT_VEHTYPE" pos="0.00" speed="11.11" angle="0.00" x="501.65" y="0.00"/>
        <vehicle id="horizontal.0" eclass="HBEFA3/PC_G_EU4" CO2="2152.19" CO="10.23" HC="0.09" NOx="0.69" PMx="0.01" fuel="0.93" electricity="0.00" noise="62.58" route="horizontal" type="DEFAULT_VEHTYPE" pos="0.00" speed="11.11" angle="270.00" x="1000.00" y="501.65"/>
        <vehicle id="vertical.0" eclass="HBEFA3/PC_G_EU4" CO2="2092.21" CO="29.13" HC="0.18" NOx="0.71" PMx="0.01" fuel="0.90" electricity="0.00" noise="61.01" route="vertical" type="DEFAULT_VEHTYPE" pos="0.00" speed="8.95" angle="0.00" x="501.65" y="0.00"/>
    </timestep>
    <timestep time="104.00">
        <vehicle id="always_left.0" eclass="HBEFA3/PC_G_EU4" CO2="2152.19" CO="10.23" HC="0.09" NOx="0.69" PMx="0.01" fuel="0.93" electricity="0.00" noise="62.58" route="always_left" type="DEFAULT_VEHTYPE" pos="0.00" speed="11.11" angle="90.00" x="0.00" y="498.35"/>
        <vehicle id="always_right.0" eclass="HBEFA3/PC_G_EU4" CO2="2152.19" CO="10.23" HC="0.09" NOx="0.69" PMx="0.01" fuel="0.93" electricity="0.00" noise="62.58" route="always_right" type="DEFAULT_VEHTYPE" pos="0.00" speed="11.11" angle="0.00" x="501.65" y="0.00"/>
        <vehicle id="horizontal.0" eclass="HBEFA3/PC_G_EU4" CO2="2152.19" CO="10.23" HC="0.09" NOx="0.69" PMx="0.01" fuel="0.93" electricity="0.00" noise="62.58" route="horizontal" type="DEFAULT_VEHTYPE" pos="0.00" speed="11.11" angle="270.00" x="1000.00" y="501.65"/>
        <vehicle id="vertical.0" eclass="HBEFA3/PC_G_EU4" CO2="2092.21" CO="29.13" HC="0.18" NOx="0.71" PMx="0.01" fuel="0.90" electricity="0.00" noise="61.01" route="vertical" type="DEFAULT_VEHTYPE" pos="0.00" speed="8.95" angle="0.00" x="501.65" y="0.00"/>
    </timestep>
    <timestep time="105.00">
        <vehicle id="always_left.0" eclass="HBEFA3/PC_G_EU4" CO2="2152.19" CO="10.23" HC="0.09" NOx="0.69" PMx="0.01" fuel="0.93" electricity="0.00" noise="62.58" route="always_left" type="DEFAULT_VEHTYPE" pos="0.00" speed="11.11" angle="90.00" x="0.00" y="498.35"/>
        <vehicle id="always_right.0" eclass="HBEFA3/PC_G_EU4" CO2="2152.19" CO="10.23" HC="0.09" NOx="0.69" PMx="0.01" fuel="0.93" electricity="0.00" noise="62.58" route="always_right" type="DEFAULT_VEHTYPE" pos="0.00" speed="11.11" angle="0.00" x="501.65" y="0.00"/>
        <vehicle id="horizontal.0" eclass="HBEFA3/PC_G_EU4" CO2="2152.19" CO="10.23" HC="0.09" NOx="0.69" PMx="0.01" fuel="0.93" electricity="0.00" noise="62.58" route="horizontal" type="DEFAULT_VEHTYPE" pos="0.00" speed="11.11" angle="270.00" x="1000.00" y="501.65"/>
        <vehicle id="vertical.0" eclass="HBEFA3/PC_G_EU4" CO2="2092.21" CO="29.13" HC="0.18" NOx="0.71" PMx="0.01" fuel="0.90" electricity="0.00" noise="61.01" route="vertical" type="DEFAULT_VEHTYPE" pos="0.00" speed="8.95" angle="0.00" x="501.65" y="0.00"/>
    </timestep>
    <timestep time="106.00">
        <vehicle id="always_left.0" eclass="HBEFA3/PC_G_EU4" CO2="2152.19" CO="10.23" HC="0.09" NOx="0.69" PMx="0.01" fuel="0.93" electricity="0.00" noise="62.58" route="always_left" type="DEFAULT_VEHTYPE" pos="0.00" speed="11.11" angle="90.00" x="0.00" y="498.35"/>
        <vehicle id="always_right.0" eclass="HBEFA3/PC_G_EU4" CO2="2152.19" CO="10.23" HC="0.09" NOx="0.69" PMx="0.01" fuel="0.93" electricity="0.00" noise="62.58" route="always_right" type="DEFAULT_VEHTYPE" pos="0.00" speed="11.11" angle="0.00" x="501.65" y="0.00"/>
        <vehicle id="horizontal.0" eclass="HBEFA3/PC_G_EU4" CO2="2152.19" CO="10.23" HC="0.09" NOx="0.69" PMx="0.01" fuel="0.93" electricity="0.00" noise="62.58" route="horizontal" type="DEFAULT_VEHTYPE" pos="0.00" speed="11.11" angle="270.00" x="1000.00" y="501.65"/>
        <vehicle id="vertical.0" eclass="HBEFA3/PC_G_EU4" CO2="2092.21" CO="29.13" HC="0.18" NOx="0.71" PMx="0.01" fuel="0.90" electricity="0.00" noise="61.01" route="vertical" type="DEFAULT_VEHTYPE" pos="0.00" speed="8.95" angle="0.00" x="501.65" y="0.00"/>
    </timestep>
    <timestep time="107.00">
        <vehicle id="always_left.0" eclass="HBEFA3/PC_G_EU4" CO2="2152.19" CO="10.23" HC="0.09" NOx="0.69" PMx="0.01" fuel="0.93" electricity="0.00" noise="62.58" route="always_left" type="DEFAULT_VEHTYPE" pos="0.00" speed="11.11" angle="90.00" x="0.00" y="498.35"/>
        <vehicle id="always_right.0" eclass="HBEFA3/PC_G_EU4" CO2="2152.19" CO="10.23" HC="0.09" NOx="0.69" PMx="0.01" fuel="0.93" electricity="0.00" noise="62.58" route="always_right" type="DEFAULT_VEHTYPE" pos="0.00" speed="11.11" angle="0.00" x="501.65" y="0.00"/>
        <vehicle id="horizontal.0" eclass="HBEFA3/PC_G_EU4" CO2="2152.19" CO="10.23" HC="0.09" NOx="0.69" PMx="0.01" fuel="0.93" electricity="0.00" noise="62.58" route="horizontal" type="DEFAULT_VEHTYPE" pos="0.00" speed="11.11" angle="270.00" x="1000.00" y="501.65"/>
        <vehicle id="vertical.0" eclass="HBEFA3/PC_G_EU4" CO2="2092.21" CO="29.13" HC="0.18" NOx="0.71" PMx="0.01" fuel="0.90" electricity="0.00" noise="61.01" route="vertical" type="DEFAULT_VEHTYPE" pos="0.00" speed="8.95" angle="0.00" x="501.65" y="0.00"/>
    </timestep>
    <timestep time="108.00">
        <vehicle id="always_left.0" eclass="HBEFA3/PC_G_EU4" CO2="2152.19" CO="10.23" HC="0.09" NOx="0.69" PMx="0.01" fuel="0.93" electricity="0.00" noise="62.58" route="always_left" type="DEFAULT_VEHTYPE" pos="82.83" speed="11.11" angle="90.00" x="82.83" y="498.35"/>
        <vehicle id="always_right.0" eclass="HBEFA3/PC_G_EU4" CO2="2152.19" CO="10.23" HC="0.09" NOx="0.69" PMx="0.01" fuel="0.93" electricity="0.00" noise="62.58" route="always_right" type="DEFAULT_VEHTYPE" pos="82.83" speed="11.11" angle="0.00" x="501.65" y="82.83"/>
        <vehicle id="horizontal.0" eclass="HBEFA3/PC_G_EU4" CO2="2152.19" CO="10.23" HC="0.09" NOx="0.69" PMx="0.01" fuel="0.93" electricity="0.00" noise="62.58" route="horizontal" type="DEFAULT_VEHTYPE" pos="82.83" speed="11.11" angle="270.00" x="917.17" y="501.65"/>
        <vehicle id="vertical.0" eclass="HBEFA3/PC_G_EU4" CO2="2092.21" CO="29.13" HC="0.18" NOx="0.71" PMx="0.01" fuel="0.90" electricity="0.00" noise="61.01" route="vertical" type="DEFAULT_VEHTYPE" pos="0.00" speed="8.95" angle="0.00" x="501.65" y="0.00"/>
    </timestep>
    <timestep time="109.00">
        <vehicle id="always_left.0" eclass="HBEFA3/PC_G_EU4" CO2="2152.19" CO="10.23" HC="0.09" NOx="0.69" PMx="0.01" fuel="0.93" electricity="0.00" noise="62.58" route="always_left" type="DEFAULT_VEHTYPE" pos="82.83" speed="11.11" angle="90.00" x="82.83" y="498.35"/>
        <vehicle id="always_right.0" eclass="HBEFA3/PC_G_EU4" CO2="2152.19" CO="10.23" HC="0.09" NOx="0.69" PMx="0.01" fuel="0.93" electricity="0.00" noise="62.58" route="always_right" type="DEFAULT_VEHTYPE" pos="82.83" speed="11.11" angle="0.00" x="501.65" y="82.83"/>
        <vehicle id="horizontal.0" eclass="HBEFA3/PC_G_EU4" CO2="2152.19" CO="10.23" HC="0.09" NOx="0.69" PMx="0.01" fuel="0.93" electricity="0.00" noise="62.58" route="horizontal" type="DEFAULT_VEHTYPE" pos="82.83" speed="11.11" angle="270.00" x="917.17" y="501.65"/>
        <vehicle id="vertical.0" eclass="HBEFA3/PC_G_EU4" CO2="2092.21" CO="29.13" HC="0.18" NOx="0.71" PMx="0.01" fuel="0.90" electricity="0.00" noise="61.01" route="vertical" type="DEFAULT_VEHTYPE" pos="0.00" speed="8.95" angle="0.00" x="501.65" y="0.00"/>
    </timestep>
    <timestep time="110.00">
        <vehicle id="always_left.0" eclass="HBEFA3/PC_G_EU4" CO2="2152.19" CO="10.23" HC="0.09" NOx="0.69" PMx="0.01" fuel="0.93" electricity="0.00" noise="62.58" route="always_left" type="DEFAULT_VEHTYPE" pos="82.83" speed="11.11" angle="90.00" x="82.83" y="498.35"/>
        <vehicle id="always_left.1" eclass="HBEFA3/PC_G_EU4" CO2="2152.19" CO="10.23" HC="0.09" NOx="0.69" PMx="0.01" fuel="0.93" electricity="0.00" noise="62.58" route="always_left" type="DEFAULT_VEHTYPE" pos="0.00" speed="11.11" angle="90.00" x="0.00" y="498.35"/>
        <vehicle id="always_right.0" eclass="HBEFA3/PC_G_EU4" CO2="2152.19" CO="10.23" HC="0.09" NOx="0.69" PMx="0.01" fuel="0.93" electricity="0.00" noise="62.58" route="always_right" type="DEFAULT_VEHTYPE" pos="82.83" speed="11.11" angle="0.00" x="501.65" y="82.83"/>
        <vehicle id="always_right.1" eclass="HBEFA3/PC_G_EU4" CO2="2152.19" CO="10.23" HC="0.09" NOx="0.69" PMx="0.01" fuel="0.93" electricity="0.00" noise="62.58" route="always_right" type="DEFAULT_VEHTYPE" pos="0.00" speed="11.11" angle="0.00" x="501.65" y="0.00"/>
        <vehicle id="horizontal.0" eclass="HBEFA3/PC_G_EU4" CO2="2152.19" CO="10.23" HC="0.09" NOx="0.69" PMx="0.01" fuel="0.93" electricity="0.00" noise="62.58" route="horizontal" type="DEFAULT_VEHTYPE" pos="82.83" speed="11.11" angle="270.00" x="917.17" y="501.65"/>
        <vehicle id="horizontal.1" eclass="HBEFA3/PC_G_EU4" CO2="2152.19" CO="10.23" HC="0.09" NOx="0.69" PMx="0.01" fuel="0.93" electricity="0.00" noise="62.58" route="horizontal" type="DEFAULT_VEHTYPE" pos="0.00" speed="11.11" angle="270.00" x="1000.00" y="501.65"/>
        <vehicle id="vertical.0" eclass="HBEFA3/PC_G_EU4" CO2="2152.19" CO="10.23" HC="0.09" NOx="0.69" PMx="0.01" fuel="0.93" electricity="0.00" noise="62.58" route="vertical" type="DEFAULT_VEHTYPE" pos="82.83" speed="11.11" angle="0.00" x="501.65" y="82.83"/>
        <vehicle id="vertical.1" eclass="HBEFA3/PC_G_EU4" CO2="2092.21" CO="29.13" HC="0.18" NOx="0.71" PMx="0.01" fuel="0.90" electricity="0.00" noise="61.01" route="vertical" type="DEFAULT_VEHTYPE" pos="0.00" speed="8.95" angle="0.00" x="501.65" y="0.00"/>
    </timestep>
    <timestep time="111.00">
        <vehicle id="always_left.0" eclass="HBEFA3/PC_G_EU4" CO2="2152.19" CO="10.23" HC="0.09" NOx="0.69" PMx="0.01" fuel="0.93" electricity="0.00" noise="62.58" route="always_left" type="DEFAULT_VEHTYPE" pos="82.83" speed="11.11" angle="90.00" x="82.83" y="498.35"/>
        <vehicle id="always_left.1" eclass="HBEFA3/PC_G_EU4" CO2="2152.19" CO="10.23" HC="0.09" NOx="0.69" PMx="0.01" fuel="0.93" electricity="0.00" noise="62.58" route="always_left" type="DEFAULT_VEHTYPE" pos="0.00" speed="11.11" angle="90.00" x="0.00" y="498.35"/>
        <vehicle id="always_right.0" eclass="HBEFA3/PC_G_EU4" CO2="2152.19" CO="10.23" HC="0.09" NOx="0.69" PMx="0.01" fuel="0.93" electricity="0.00" noise="62.58" route="always_right" type="DEFAULT_VEHTYPE" pos="82.83" speed="11.11" angle="0.00" x="501.65" y="82.83"/>
        <vehicle id="always_right.1" eclass="HBEFA3/PC_G_EU4" CO2="2152.19" CO="10.23" HC="0.09" NOx="0.69" PMx="0.01" fuel="0.93" electricity="0.00" noise="62.58" route="always_right" type="DEFAULT_VEHTYPE" pos="0.00" speed="11.11" angle="0.00" x="501.65" y="0.00"/>
        <vehicle id="horizontal.0" eclass="HBEFA3/PC_G_EU4" CO2="2152.19" CO="10.23" HC="0.09" NOx="0.69" PMx="0.01" fuel="0.93" electricity="0.00" noise="62.58" route="horizontal" type="DEFAULT_VEHTYPE" pos="82.83" speed="11.11" angle="270.00" x="917.17" y="501.65"/>
        <vehicle id="horizontal.1" eclass="HBEFA3/PC_G_EU4" CO2="2152.19" CO="10.23" HC="0.09" NOx="0.69" PMx="0.01" fuel="0.93" electricity="0.00" noise="62.58" route="horizontal" type="DEFAULT_VEHTYPE" pos="0.00" speed="11.11" angle="270.00" x="1000.00" y="501.65"/>
        <vehicle id="vertical.0" eclass="HBEFA3/PC_G_EU4" CO2="2152.19" CO="10.23" HC="0.09" NOx="0.69" PMx="0.01" fuel="0.93" electricity="0.00" noise="62.58" route="vertical" type="DEFAULT_VEHTYPE" pos="82.83" speed="11.11" angle="0.00" x="501.65" y="82.83"/>
        <vehicle id="vertical.1" eclass="HBEFA3/PC_G_EU4" CO2="2092.21" CO="29.13" HC="0.18" NOx="0.71" PMx="0.01" fuel="0.90" electricity="0.00" noise="61.01" route="vertical" type="DEFAULT_VEHTYPE" pos="0.00" speed="8.95" angle="0.00" x="501.65" y="0.00"/>
    </timestep>
    <timestep time="112.00">
        <vehicle id="always_left.0" eclass="HBEFA3/PC_G_EU4" CO2="2152.19" CO="10.23" HC="0.09" NOx="0.69" PMx="0.01" fuel="0.93" electricity="0.00" noise="62.58" route="always_left" type="DEFAULT_VEHTYPE" pos="82.83" speed="11.11" angle="90.00" x="82.83" y="498.35"/>
        <vehicle id="always_left.1" eclass="HBEFA3/PC_G_EU4" CO2="2152.19" CO="10.23" HC="0.09" NOx="0.69" PMx="0.01" fuel="0.93" electricity="0.00" noise="62.58" route="always_left" type="DEFAULT_VEHTYPE" pos="0.00" speed="11.11" angle="90.00" x="0.00" y="498.35"/>
        <vehicle id="always_right.0" eclass="HBEFA3/PC_G_EU4" CO2="2152.19" CO="10.23" HC="0.09" NOx="0.69" PMx="0.01" fuel="0.93" electricity="0.00" noise="62.58" route="always_right" type="DEFAULT_VEHTYPE" pos="82.83" speed="11.11" angle="0.00" x="501.65" y="82.83"/>
        <vehicle id="always_right.1" eclass="HBEFA3/PC_G_EU4" CO2="2152.19" CO="10.23" HC="0.09" NOx="0.69" PMx="0.01" fuel="0.93" electricity="0.00" noise="62.58" route="always_right" type="DEFAULT_VEHTYPE" pos="0.00" speed="11.11" angle="0.00" x="501.65" y="0.00"/>
        <vehicle id="horizontal.0" eclass="HBEFA3/PC_G_EU4" CO2="2152.19" CO="10.23" HC="0.09" NOx="0.69" PMx="0.01" fuel="0.93" electricity="0.00" noise="62.58" route="horizontal" type="DEFAULT_VEHTYPE" pos="82.83" speed="11.11" angle="270.00" x="917.17" y="501.65"/>
        <vehicle id="horizontal.1" eclass="HBEFA3/PC_G_EU4" CO2="2152.19" CO="10.23" HC="0.09" NOx="0.69" PMx="0.01" fuel="0.93" electricity="0.00" noise="62.58" route="horizontal" type="DEFAULT_VEHTYPE" pos="0.00" speed="11.11" angle="270.00" x="1000.00" y="501.65"/>
        <vehicle id="vertical.0" eclass="HBEFA3/PC_G_EU4" CO2="2152.19" CO="10.23" HC="0.09" NOx="0.69" PMx="0.01" fuel="0.93" electricity="0.00" noise="62.58" route="vertical" type="DEFAULT_VEHTYPE" pos="82.83" speed="11.11" angle="0.00" x="501.65" y="82.83"/>
        <vehicle id="vertical.1" eclass="HBEFA3/PC_G_EU4" CO2="2092.21" CO="29.13" HC="0.18" NOx="0.71" PMx="0.01" fuel="0.90" electricity="0.00" noise="61.01" route="vertical" type="DEFAULT_VEHTYPE" pos="0.00" speed="8.95" angle="0.00" x="501.65" y="0.00"/>
    </timestep>
    <timestep time="113.00">
        <vehicle id="always_left.0" eclass="HBEFA3/PC_G_EU4" CO2="2152.19" CO="10.23" HC="0.09" NOx="0.69" PMx="0.01" fuel="0.93" electricity="0.00" noise="62.58" route="always_left" type="DEFAULT_VEHTYPE" pos="82.83" speed="11.11" angle="90.00" x="82.83" y="498.35"/>
        <vehicle id="always_left.1" eclass="HBEFA3/PC_G_EU4" CO2="2152.19" CO="10.23" HC="0.09" NOx="0.69" PMx="0.01" fuel="0.93" electricity="0.00" noise="62.58" route="always_left" type="DEFAULT_VEHTYPE" pos="0.00" speed="11.11" angle="90.00" x="0.00" y="498.35"/>
        <vehicle id="always_right.0" eclass="HBEFA3/PC_G_EU4" CO2="2152.19" CO="10.23" HC="0.09" NOx="0.69" PMx="0.01" fuel="0.93" electricity="0.00" noise="62.58" route="always_right" type="DEFAULT_VEHTYPE" pos="82.83" speed="11.11" angle="0.00" x="501.65" y="82.83"/>
        <vehicle id="always_right.1" eclass="HBEFA3/PC_G_EU4" CO2="2152.19" CO="10.23" HC="0.09" NOx="0.69" PMx="0.01" fuel="0.93" electricity="0.00" noise="62.58" route="always_right" type="DEFAULT_VEHTYPE" pos="0.00" speed="11.11" angle="0.00" x="501.65" y="0.00"/>
        <vehicle id="horizontal.0" eclass="HBEFA3/PC_G_EU4" CO2="2152.19" CO="10.23" HC="0.09" NOx="0.69" PMx="0.01" fuel="0.93" electricity="0.00" noise="62.58" route="horizontal" type="DEFAULT_VEHTYPE" pos="82.83" speed="11.11" angle="270.00" x="917.17" y="501.65"/>
        <vehicle id="horizontal.1" eclass="HBEFA3/PC_G_EU4" CO2="2152.19" CO="10.23" HC="0.09" NOx="0.69" PMx="0.01" fuel="0.93" electricity="0.00" noise="62.58" route="horizontal" type="DEFAULT_VEHTYPE" pos="0.00" speed="11.11" angle="270.00" x="1000.00" y="501.65"/>
        <vehicle id="vertical.0" eclass="HBEFA3/PC_G_EU4" CO2="2152.19" CO="10.23" HC="0.09" NOx="0.69" PMx="0.01" fuel="0.93" electricity="0.00" noise="62.58" route="vertical" type="DEFAULT_VEHTYPE" pos="82.83" speed="11.11" angle="0.00" x="501.65" y="82.83"/>
        <vehicle id="vertical.1" eclass="HBEFA3/PC_G_EU4" CO2="2092.21" CO="29.13" HC="0.18" NOx="0.71" PMx="0.01" fuel="0.90" electricity="0.00" noise="61.01" route="vertical" type="DEFAULT_VEHTYPE" pos="0.00" speed="8.95" angle="0.00" x="501.65" y="0.00"/>
    </timestep>
    <timestep time="114.00">
        <vehicle id="always_left.0" eclass="HBEFA3/PC_G_EU4" CO2="2152.19" CO="10.23" HC="0.09" NOx="0.69" PMx="0.01" fuel="0.93" electricity="0.00" noise="62.58" route="always_left" type="DEFAULT_VEHTYPE" pos="82.83" speed="11.11" angle="90.00" x="82.83" y="498.35"/>
        <vehicle id="always_left.1" eclass="HBEFA3/PC_G_EU4" CO2="2152.19" CO="10.23" HC="0.09" NOx="0.69" PMx="0.01" fuel="0.93" electricity="0.00" noise="62.58" route="always_left" type="DEFAULT_VEHTYPE" pos="0.00" speed="11.11" angle="90.00" x="0.00" y="498.35"/>
        <vehicle id="always_right.0" eclass="HBEFA3/PC_G_EU4" CO2="2152.19" CO="10.23" HC="0.09" NOx="0.69" PMx="0.01" fuel="0.93" electricity="0.00" noise="62.58" route="always_right" type="DEFAULT_VEHTYPE" pos="82.83" speed="11.11" angle="0.00" x="501.65" y="82.83"/>
        <vehicle id="always_right.1" eclass="HBEFA3/PC_G_EU4" CO2="2152.19" CO="10.23" HC="0.09" NOx="0.69" PMx="0.01" fuel="0.93" electricity="0.00" noise="62.58" route="always_right" type="DEFAULT_VEHTYPE" pos="0.00" speed="11.11" angle="0.00" x="501.65" y="0.00"/>
        <vehicle id="horizontal.0" eclass="HBEFA3/PC_G_EU4" CO2="2152.19" CO="10.23" HC="0.09" NOx="0.69" PMx="0.01" fuel="0.93" electricity="0.00" noise="62.58" route="horizontal" type="DEFAULT_VEHTYPE" pos="82.83" speed="11.11" angle="270.00" x="917.17" y="501.65"/>
        <vehicle id="horizontal.1" eclass="HBEFA3/PC_G_EU4" CO2="2152.19" CO="10.23" HC="0.09" NOx="0.69" PMx="0.01" fuel="0.93" electricity="0.00" noise="62.58" route="horizontal" type="DEFAULT_VEHTYPE" pos="0.00" speed="11.11" angle="270.00" x="1000.00" y="501.65"/>
        <vehicle id="vertical.0" eclass="HBEFA3/PC_G_EU4" CO2="2152.19" CO="10.23" HC="0.09" NOx="0.69" PMx="0.01" fuel="0.93" electricity="0.00" noise="62.58" route="vertical" type="DEFAULT_VEHTYPE" pos="82.83" speed="11.11" angle="0.00" x="501.65" y="82.83"/>
        <vehicle id="vertical.1" eclass="HBEFA3/PC_G_EU4" CO2="2092.21" CO="29.13" HC="0.18" NOx="0.71" PMx="0.01" fuel="0.90" electricity="0.00" noise="61.01" route="vertical" type="DEFAULT_VEHTYPE" pos="0.00" speed="8.95" angle="0.00" x="501.65" y="0.00"/>
    </timestep>
    <timestep time="115.00">
        <vehicle id="always_left.0" eclass="HBEFA3/PC_G_EU4" CO2="2152.19" CO="10.23" HC="0.09" NOx="0.69" PMx="0.01" fuel="0.93" electricity="0.00" noise="62.58" route="always_left" type="DEFAULT_VEHTYPE" pos="165.67" speed="11.11" angle="90.00" x="165.67" y="498.35"/>
        <vehicle id="always_left.1" eclass="HBEFA3/PC_G_EU4" CO2="2152.19" CO="10.23" HC="0.09" NOx="0.69" PMx="0.01" fuel="0.93" electricity="0.00" noise="62.58" route="always_left" type="DEFAULT_VEHTYPE" pos="0.00" speed="11.11" angle="90.00" x="0.00" y="498.35"/>
        <vehicle id="always_right.0" eclass="HBEFA3/PC_G_EU4" CO2="2152.19" CO="10.23" HC="0.09" NOx="0.69" PMx="0.01" fuel="0.93" electricity="0.00" noise="62.58" route="always_right" type="DEFAULT_VEHTYPE" pos="165.67" speed="11.11" angle="0.00" x="501.65" y="165.67"/>
        <vehicle id="always_right.1" eclass="HBEFA3/PC_G_EU4" CO2="2152.19" CO="10.23" HC="0.09" NOx="0.69" PMx="0.01" fuel="0.93" electricity="0.00" noise="62.58" route="always_right" type="DEFAULT_VEHTYPE" pos="0.00" speed="11.11" angle="0.00" x="501.65" y="0.00"/>
        <vehicle id="horizontal.0" eclass="HBEFA3/PC_G_EU4" CO2="2152.19" CO="10.23" HC="0.09" NOx="0.69" PMx="0.01" fuel="0.93" electricity="0.00" noise="62.58" route="horizontal" type="DEFAULT_VEHTYPE" pos="165.67" speed="11.11" angle="270.00" x="834.33" y="501.65"/>
        <vehicle id="horizontal.1" eclass="HBEFA3/PC_G_EU4" CO2="2152.19" CO="10.23" HC="0.09" NOx="0.69" PMx="0.01" fuel="0.93" electricity="0.00" noise="62.58" route="horizontal" type="DEFAULT_VEHTYPE" pos="0.00" speed="11.11" angle="270.00" x="1000.00" y="501.65"/>
        <vehicle id="vertical.0" eclass="HBEFA3/PC_G_EU4" CO2="2152.19" CO="10.23" HC="0.09" NOx="0.69" PMx="0.01" fuel="0.93" electricity="0.00" noise="62.58" route="vertical" type="DEFAULT_VEHTYPE" pos="82.83" speed="11.11" angle="0.00" x="501.65" y="82.83"/>
        <vehicle id="vertical.1" eclass="HBEFA3/PC_G_EU4" CO2="2092.21" CO="29.13" HC="0.18" NOx="0.71" PMx="0.01" fuel="0.90" electricity="0.00" noise="61.01" route="vertical" type="DEFAULT_VEHTYPE" pos="0.00" speed="8.95" angle="0.00" x="501.65" y="0.00"/>
    </timestep>
    <timestep time="116.00">
        <vehicle id="always_left.0" eclass="HBEFA3/PC_G_EU4" CO2="2152.19" CO="10.23" HC="0.09" NOx="0.69" PMx="0.01" fuel="0.93" electricity="0.00" noise="62.58" route="always_left" type="DEFAULT_VEHTYPE" pos="165.67" speed="11.11" angle="90.00" x="165.67" y="498.35"/>
        <vehicle id="always_left.1" eclass="HBEFA3/PC_G_EU4" CO2="2152.19" CO="10.23" HC="0.09" NOx="0.69" PMx="0.01" fuel="0.93" electricity="0.00" noise="62.58" route="always_left" type="DEFAULT_VEHTYPE" pos="0.00" speed="11.11" angle="90.00" x="0.00" y="498.35"/>
        <vehicle id="always_right.0" eclass="HBEFA3/PC_G_EU4" CO2="2152.19" CO="10.23" HC="0.09" NOx="0.69" PMx="0.01" fuel="0.93" electricity="0.00" noise="62.58" route="always_right" type="DEFAULT_VEHTYPE" pos="165.67" speed="11.11" angle="0.00" x="501.65" y="165.67"/>
        <vehicle id="always_right.1" eclass="HBEFA3/PC_G_EU4" CO2="2152.19" CO="10.23" HC="0.09" NOx="0.69" PMx="0.01" fuel="0.93" electricity="0.00" noise="62.58" route="always_right" type="DEFAULT_VEHTYPE" pos="0.00" speed="11.11" angle="0.00" x="501.65" y="0.00"/>
        <vehicle id="horizontal.0" eclass="HBEFA3/PC_G_EU4" CO2="2152.19" CO="10.23" HC="0.09" NOx="0.69" PMx="0.01" fuel="0.93" electricity="0.00" noise="62.58" route="horizontal" type="DEFAULT_VEHTYPE" pos="165.67" speed="11.11" angle="270.00" x="834.33" y="501.65"/>
        <vehicle id="horizontal.1" eclass="HBEFA3/PC_G_EU4" CO2="2152.19" CO="10.23" HC="0.09" NOx="0.69" PMx="0.01" fuel="0.93" electricity="0.00" noise="62.58" route="horizontal" type="DEFAULT_VEHTYPE" pos="0.00" speed="11.11" angle="270.00" x="1000.00" y="501.65"/>
        <vehicle id="vertical.0" eclass="HBEFA3/PC_G_EU4" CO2="2152.19" CO="10.23" HC="0.09" NOx="0.69" PMx="0.01" fuel="0.93" electricity="0.00" noise="62.58" route="vertical" type="DEFAULT_VEHTYPE" pos="82.83" speed="11.11" angle="0.00" x="501.65" y="82.83"/>