<?xml version="1.0" encoding="UTF-8"?>

<!-- generated on Mon Mar 13 12:27:48 2017 by SUMO Version dev-SVN-r23341
<?xml version="1.0" encoding="UTF-8"?>

<configuration xmlns:xsi="http://www.w3.org/2001/XMLSchema-instance" xsi:noNamespaceSchemaLocation="http://sumo.dlr.de/xsd/sumoConfiguration.xsd">

    <input>
        <net-file value="net.net.xml"/>
        <route-files value="input_routes.rou.xml"/>
    </input>

    <output>
        <tripinfo-output value="tripinfos.xml"/>
    </output>

    <processing>
        <lateral-resolution value="0.4"/>
    </processing>

    <report>
        <xml-validation value="never"/>
        <no-step-log value="true"/>
    </report>

</configuration>
-->

<tripinfos xmlns:xsi="http://www.w3.org/2001/XMLSchema-instance" xsi:noNamespaceSchemaLocation="http://sumo.dlr.de/xsd/tripinfo_file.xsd">
    <tripinfo id="B.0" depart="0.00" departLane="beg_1" departPos="178.20" departPosLat="0.00" departSpeed="31.27" departDelay="0.00" arrival="4.00" arrivalLane="end_0" arrivalPos="100.00" arrivalPosLat="0.00" arrivalSpeed="30.69" duration="4.00" routeLength="121.80" waitSteps="0" timeLoss="0.09" rerouteNo="0" devices="tripinfo_B.0" vType="t1" speedFactor="0.94" vaporized=""/>
    <tripinfo id="B.3" depart="3.00" departLane="beg_1" departPos="149.02" departPosLat="0.00" departSpeed="34.34" departDelay="-0.90" arrival="8.00" arrivalLane="end_0" arrivalPos="100.00" arrivalPosLat="0.00" arrivalSpeed="34.03" duration="5.00" routeLength="150.98" waitSteps="0" timeLoss="0.06" rerouteNo="0" devices="tripinfo_B.3" vType="t1" speedFactor="1.03" vaporized=""/>
    <tripinfo id="B.1" depart="1.00" departLane="beg_1" departPos="9.10" departPosLat="0.00" departSpeed="33.68" departDelay="-0.30" arrival="10.00" arrivalLane="end_0" arrivalPos="100.00" arrivalPosLat="0.00" arrivalSpeed="32.42" duration="9.00" routeLength="290.90" waitSteps="0" timeLoss="0.18" rerouteNo="0" devices="tripinfo_B.1" vType="t1" speedFactor="1.01" vaporized=""/>
    <tripinfo id="B.2" depart="2.00" departLane="beg_1" departPos="8.72" departPosLat="0.00" departSpeed="32.15" departDelay="-0.60" arrival="11.00" arrivalLane="end_0" arrivalPos="100.00" arrivalPosLat="0.00" arrivalSpeed="35.75" duration="9.00" routeLength="291.28" waitSteps="0" timeLoss="0.88" rerouteNo="0" devices="tripinfo_B.2" vType="t1" speedFactor="1.08" vaporized=""/>
    <tripinfo id="B.6" depart="8.00" departLane="beg_1" departPos="191.32" departPosLat="0.00" departSpeed="27.49" departDelay="0.20" arrival="12.00" arrivalLane="end_0" arrivalPos="100.00" arrivalPosLat="0.00" arrivalSpeed="28.28" duration="4.00" routeLength="108.68" waitSteps="0" timeLoss="0.18" rerouteNo="0" devices="tripinfo_B.6" vType="t1" speedFactor="0.89" vaporized=""/>
    <tripinfo id="B.4" depart="6.00" departLane="beg_1" departPos="102.59" departPosLat="0.00" departSpeed="27.70" departDelay="0.80" arrival="14.00" arrivalLane="end_0" arrivalPos="100.00" arrivalPosLat="0.00" arrivalSpeed="26.99" duration="8.00" routeLength="197.41" waitSteps="0" timeLoss="0.19" rerouteNo="0" devices="tripinfo_B.4" vType="t1" speedFactor="0.83" vaporized=""/>
    <tripinfo id="B.5" depart="6.00" departLane="beg_1" departPos="61.41" departPosLat="0.00" departSpeed="28.55" departDelay="-0.50" arrival="15.00" arrivalLane="end_0" arrivalPos="100.00" arrivalPosLat="0.00" arrivalSpeed="29.42" duration="9.00" routeLength="238.59" waitSteps="0" timeLoss="1.91" rerouteNo="0" devices="tripinfo_B.5" vType="t1" speedFactor="1.05" vaporized=""/>
    <tripinfo id="B.7" depart="9.00" departLane="beg_1" departPos="82.27" departPosLat="0.00" departSpeed="31.14" departDelay="-0.10" arrival="17.00" arrivalLane="end_0" arrivalPos="100.00" arrivalPosLat="0.00" arrivalSpeed="30.75" duration="8.00" routeLength="217.73" waitSteps="0" timeLoss="0.41" rerouteNo="0" devices="tripinfo_B.7" vType="t1" speedFactor="0.94" vaporized=""/>
    <tripinfo id="B.9" depart="14.00" departLane="beg_1" departPos="198.45" departPosLat="0.00" departSpeed="28.66" departDelay="2.30" arrival="18.00" arrivalLane="end_0" arrivalPos="100.00" arrivalPosLat="0.00" arrivalSpeed="31.36" duration="4.00" routeLength="101.55" waitSteps="0" timeLoss="0.81" rerouteNo="0" devices="tripinfo_B.9" vType="t1" speedFactor="1.09" vaporized=""/>
    <tripinfo id="B.8" depart="12.00" departLane="beg_1" departPos="33.68" departPosLat="0.00" departSpeed="28.56" departDelay="1.60" arrival="22.00" arrivalLane="end_0" arrivalPos="100.00" arrivalPosLat="0.00" arrivalSpeed="28.38" duration="10.00" routeLength="266.32" waitSteps="0" timeLoss="0.16" rerouteNo="0" devices="tripinfo_B.8" vType="t1" speedFactor="0.86" vaporized=""/>
    <tripinfo id="B.10" depart="14.00" departLane="beg_1" departPos="62.77" departPosLat="0.00" departSpeed="27.18" departDelay="1.00" arrival="23.00" arrivalLane="end_0" arrivalPos="100.00" arrivalPosLat="0.00" arrivalSpeed="28.77" duration="9.00" routeLength="237.23" waitSteps="0" timeLoss="1.87" rerouteNo="0" devices="tripinfo_B.10" vType="t1" speedFactor="1.03" vaporized=""/>
    <tripinfo id="B.11" depart="15.00" departLane="beg_1" departPos="16.00" departPosLat="0.00" departSpeed="32.57" departDelay="0.70" arrival="25.00" arrivalLane="end_0" arrivalPos="100.00" arrivalPosLat="0.00" arrivalSpeed="33.36" duration="10.00" routeLength="284.00" waitSteps="0" timeLoss="1.28" rerouteNo="0" devices="tripinfo_B.11" vType="t1" speedFactor="1.05" vaporized=""/>
    <tripinfo id="B.12" depart="19.00" departLane="beg_1" departPos="91.16" departPosLat="0.00" departSpeed="31.22" departDelay="3.40" arrival="26.00" arrivalLane="end_0" arrivalPos="100.00" arrivalPosLat="0.00" arrivalSpeed="33.75" duration="7.00" routeLength="208.84" waitSteps="0" timeLoss="1.25" rerouteNo="0" devices="tripinfo_B.12" vType="t1" speedFactor="1.12" vaporized=""/>
    <tripinfo id="B.13" depart="21.00" departLane="beg_1" departPos="142.44" departPosLat="0.00" departSpeed="26.31" departDelay="4.10" arrival="27.00" arrivalLane="end_0" arrivalPos="100.00" arrivalPosLat="0.00" arrivalSpeed="31.73" duration="6.00" routeLength="157.56" waitSteps="0" timeLoss="1.02" rerouteNo="0" devices="tripinfo_B.13" vType="t1" speedFactor="0.99" vaporized=""/>
    <tripinfo id="B.16" depart="24.00" departLane="beg_1" departPos="171.31" departPosLat="0.00" departSpeed="27.71" departDelay="3.20" arrival="29.00" arrivalLane="end_0" arrivalPos="100.00" arrivalPosLat="0.00" arrivalSpeed="30.94" duration="5.00" routeLength="128.69" waitSteps="0" timeLoss="0.45" rerouteNo="0" devices="tripinfo_B.16" vType="t1" speedFactor="0.94" vaporized=""/>
    <tripinfo id="B.14" depart="21.00" departLane="beg_1" departPos="24.86" departPosLat="0.00" departSpeed="30.89" departDelay="2.80" arrival="31.00" arrivalLane="end_0" arrivalPos="100.00" arrivalPosLat="0.00" arrivalSpeed="29.70" duration="10.00" routeLength="275.14" waitSteps="0" timeLoss="0.35" rerouteNo="0" devices="tripinfo_B.14" vType="t1" speedFactor="0.93" vaporized=""/>
    <tripinfo id="B.17" depart="26.00" departLane="beg_1" departPos="131.73" departPosLat="0.00" departSpeed="29.59" departDelay="3.90" arrival="32.00" arrivalLane="end_0" arrivalPos="100.00" arrivalPosLat="0.00" arrivalSpeed="30.47" duration="6.00" routeLength="168.27" waitSteps="0" timeLoss="0.35" rerouteNo="0" devices="tripinfo_B.17" vType="t1" speedFactor="0.94" vaporized=""/>
    <tripinfo id="B.15" depart="24.00" departLane="beg_1" departPos="20.58" departPosLat="0.00" departSpeed="29.28" departDelay="4.50" arrival="34.00" arrivalLane="end_0" arrivalPos="100.00" arrivalPosLat="0.00" arrivalSpeed="28.49" duration="10.00" routeLength="279.42" waitSteps="0" timeLoss="0.24" rerouteNo="0" devices="tripinfo_B.15" vType="t1" speedFactor="0.88" vaporized=""/>
    <tripinfo id="B.18" depart="28.00" departLane="beg_1" departPos="92.58" departPosLat="0.00" departSpeed="29.20" departDelay="4.60" arrival="36.00" arrivalLane="end_0" arrivalPos="100.00" arrivalPosLat="0.00" arrivalSpeed="33.88" duration="8.00" routeLength="207.42" waitSteps="0" timeLoss="1.81" rerouteNo="0" devices="tripinfo_B.18" vType="t1" speedFactor="1.16" vaporized=""/>
    <tripinfo id="B.19" depart="29.00" departLane="beg_1" departPos="88.92" departPosLat="0.00" departSpeed="27.71" departDelay="4.30" arrival="37.00" arrivalLane="end_0" arrivalPos="100.00" arrivalPosLat="0.00" arrivalSpeed="33.65" duration="8.00" routeLength="211.08" waitSteps="0" timeLoss="1.13" rerouteNo="0" devices="tripinfo_B.19" vType="t1" speedFactor="1.02" vaporized=""/>
    <tripinfo id="B.20" depart="29.00" departLane="beg_1" departPos="73.30" departPosLat="0.00" departSpeed="24.57" departDelay="3.00" arrival="38.00" arrivalLane="end_0" arrivalPos="100.00" arrivalPosLat="0.00" arrivalSpeed="31.55" duration="9.00" routeLength="226.70" waitSteps="0" timeLoss="1.82" rerouteNo="0" devices="tripinfo_B.20" vType="t1" speedFactor="1.01" vaporized=""/>
    <tripinfo id="B.21" depart="30.00" departLane="beg_1" departPos="45.55" departPosLat="0.00" departSpeed="27.55" departDelay="2.70" arrival="40.00" arrivalLane="end_0" arrivalPos="100.00" arrivalPosLat="0.00" arrivalSpeed="32.43" duration="10.00" routeLength="254.45" waitSteps="0" timeLoss="1.19" rerouteNo="0" devices="tripinfo_B.21" vType="t1" speedFactor="0.98" vaporized=""/>
    <tripinfo id="B.22" depart="31.00" departLane="beg_1" departPos="44.12" departPosLat="0.00" departSpeed="25.32" departDelay="2.40" arrival="41.00" arrivalLane="end_0" arrivalPos="100.00" arrivalPosLat="0.00" arrivalSpeed="29.62" duration="10.00" routeLength="255.88" waitSteps="0" timeLoss="1.01" rerouteNo="0" devices="tripinfo_B.22" vType="t1" speedFactor="0.89" vaporized=""/>
    <tripinfo id="B.25" depart="35.00" departLane="beg_1" departPos="69.34" departPosLat="0.00" departSpeed="30.57" departDelay="2.50" arrival="43.00" arrivalLane="end_0" arrivalPos="100.00" arrivalPosLat="0.00" arrivalSpeed="29.33" duration="8.00" routeLength="230.66" waitSteps="0" timeLoss="0.22" rerouteNo="0" devices="tripinfo_B.25" vType="t1" speedFactor="0.92" vaporized=""/>
    <tripinfo id="B.23" depart="35.00" departLane="beg_1" departPos="46.20" departPosLat="0.00" departSpeed="27.52" departDelay="5.10" arrival="45.00" arrivalLane="end_0" arrivalPos="100.00" arrivalPosLat="0.00" arrivalSpeed="27.33" duration="10.00" routeLength="253.80" waitSteps="0" timeLoss="0.21" rerouteNo="0" devices="tripinfo_B.23" vType="t1" speedFactor="0.83" vaporized=""/>
    <tripinfo id="B.24" depart="35.00" departLane="beg_1" departPos="37.60" departPosLat="0.00" departSpeed="23.20" departDelay="3.80" arrival="46.00" arrivalLane="end_0" arrivalPos="100.00" arrivalPosLat="0.00" arrivalSpeed="28.15" duration="11.00" routeLength="262.40" waitSteps="0" timeLoss="1.61" rerouteNo="0" devices="tripinfo_B.24" vType="t1" speedFactor="0.87" vaporized=""/>
    <tripinfo id="B.26" depart="38.00" departLane="beg_1" departPos="76.99" departPosLat="0.00" departSpeed="23.50" departDelay="4.20" arrival="48.00" arrivalLane="end_0" arrivalPos="100.00" arrivalPosLat="0.00" arrivalSpeed="30.02" duration="10.00" routeLength="223.01" waitSteps="0" timeLoss="2.05" rerouteNo="0" devices="tripinfo_B.26" vType="t1" speedFactor="0.95" vaporized=""/>
    <tripinfo id="B.27" depart="38.00" departLane="beg_1" departPos="68.28" departPosLat="0.00" departSpeed="19.25" departDelay="2.90" arrival="49.00" arrivalLane="end_0" arrivalPos="100.00" arrivalPosLat="0.00" arrivalSpeed="28.94" duration="11.00" routeLength="231.72" waitSteps="0" timeLoss="4.39" rerouteNo="0" devices="tripinfo_B.27" vType="t1" speedFactor="1.13" vaporized=""/>
    <tripinfo id="B.28" depart="43.00" departLane="beg_1" departPos="158.00" departPosLat="0.00" departSpeed="18.36" departDelay="6.60" arrival="50.00" arrivalLane="end_0" arrivalPos="100.00" arrivalPosLat="0.00" arrivalSpeed="24.69" duration="7.00" routeLength="142.00" waitSteps="0" timeLoss="2.31" rerouteNo="0" devices="tripinfo_B.28" vType="t1" speedFactor="0.93" vaporized=""/>
    <tripinfo id="B.29" depart="43.00" departLane="beg_1" departPos="120.86" departPosLat="0.00" departSpeed="20.62" departDelay="5.30" arrival="52.00" arrivalLane="end_0" arrivalPos="100.00" arrivalPosLat="0.00" arrivalSpeed="28.40" duration="9.00" routeLength="179.14" waitSteps="0" timeLoss="3.98" rerouteNo="0" devices="tripinfo_B.29" vType="t1" speedFactor="1.18" vaporized=""/>
    <tripinfo id="B.30" depart="43.00" departLane="beg_1" departPos="3.28" departPosLat="0.00" departSpeed="34.19" departDelay="4.00" arrival="54.00" arrivalLane="end_0" arrivalPos="100.00" arrivalPosLat="0.00" arrivalSpeed="33.08" duration="11.00" routeLength="296.72" waitSteps="0" timeLoss="2.63" rerouteNo="0" devices="tripinfo_B.30" vType="t1" speedFactor="1.15" vaporized=""/>
    <tripinfo id="B.31" depart="47.00" departLane="beg_1" departPos="40.55" departPosLat="0.00" departSpeed="33.50" departDelay="6.70" arrival="56.00" arrivalLane="end_0" arrivalPos="100.00" arrivalPosLat="0.00" arrivalSpeed="32.30" duration="9.00" routeLength="259.45" waitSteps="0" timeLoss="0.55" rerouteNo="0" devices="tripinfo_B.31" vType="t1" speedFactor="1.01" vaporized=""/>
    <tripinfo id="B.32" depart="50.00" departLane="beg_1" departPos="103.46" departPosLat="0.00" departSpeed="30.19" departDelay="8.40" arrival="57.00" arrivalLane="end_0" arrivalPos="100.00" arrivalPosLat="0.00" arrivalSpeed="33.16" duration="7.00" routeLength="196.54" waitSteps="0" timeLoss="1.63" rerouteNo="0" devices="tripinfo_B.32" vType="t1" speedFactor="1.17" vaporized=""/>
    <tripinfo id="B.34" depart="54.00" departLane="beg_1" departPos="157.62" departPosLat="0.00" departSpeed="31.80" departDelay="9.80" arrival="59.00" arrivalLane="end_0" arrivalPos="100.00" arrivalPosLat="0.00" arrivalSpeed="33.88" duration="5.00" routeLength="142.38" waitSteps="0" timeLoss="0.18" rerouteNo="0" devices="tripinfo_B.34" vType="t1" speedFactor="1.02" vaporized=""/>
    <tripinfo id="B.36" depart="55.00" departLane="beg_1" departPos="85.08" departPosLat="0.00" departSpeed="39.03" departDelay="8.20" arrival="61.00" arrivalLane="end_0" arrivalPos="100.00" arrivalPosLat="0.00" arrivalSpeed="39.02" duration="6.00" routeLength="214.92" waitSteps="0" timeLoss="0.13" rerouteNo="0" devices="tripinfo_B.36" vType="t1" speedFactor="1.18" vaporized=""/>
    <tripinfo id="B.33" depart="54.00" departLane="beg_1" departPos="41.85" departPosLat="0.00" departSpeed="33.16" departDelay="11.10" arrival="62.00" arrivalLane="end_0" arrivalPos="100.00" arrivalPosLat="0.00" arrivalSpeed="32.50" duration="8.00" routeLength="258.15" waitSteps="0" timeLoss="0.15" rerouteNo="0" devices="tripinfo_B.33" vType="t1" speedFactor="0.99" vaporized=""/>
    <tripinfo id="B.35" depart="55.00" departLane="beg_1" departPos="30.03" departPosLat="0.00" departSpeed="32.44" departDelay="9.50" arrival="64.00" arrivalLane="end_0" arrivalPos="100.00" arrivalPosLat="0.00" arrivalSpeed="31.52" duration="9.00" routeLength="269.97" waitSteps="0" timeLoss="0.20" rerouteNo="0" devices="tripinfo_B.35" vType="t1" speedFactor="0.97" vaporized=""/>
    <tripinfo id="B.37" depart="57.00" departLane="beg_1" departPos="56.87" departPosLat="0.00" departSpeed="31.80" departDelay="8.90" arrival="65.00" arrivalLane="end_0" arrivalPos="100.00" arrivalPosLat="0.00" arrivalSpeed="32.84" duration="8.00" routeLength="243.13" waitSteps="0" timeLoss="1.19" rerouteNo="0" devices="tripinfo_B.37" vType="t1" speedFactor="1.10" vaporized=""/>
    <tripinfo id="B.38" depart="57.00" departLane="beg_1" departPos="38.07" departPosLat="0.00" departSpeed="28.91" departDelay="7.60" arrival="67.00" arrivalLane="end_0" arrivalPos="100.00" arrivalPosLat="0.00" arrivalSpeed="29.98" duration="10.00" routeLength="261.93" waitSteps="0" timeLoss="0.45" rerouteNo="0" devices="tripinfo_B.38" vType="t1" speedFactor="0.90" vaporized=""/>
    <tripinfo id="B.39" depart="59.00" departLane="beg_1" departPos="58.08" departPosLat="0.00" departSpeed="27.72" departDelay="8.30" arrival="68.00" arrivalLane="end_0" arrivalPos="100.00" arrivalPosLat="0.00" arrivalSpeed="30.60" duration="9.00" routeLength="241.92" waitSteps="0" timeLoss="1.62" rerouteNo="0" devices="tripinfo_B.39" vType="t1" speedFactor="1.03" vaporized=""/>
    <tripinfo id="B.40" depart="61.00" departLane="beg_1" departPos="67.77" departPosLat="0.00" departSpeed="28.32" departDelay="9.00" arrival="70.00" arrivalLane="end_0" arrivalPos="100.00" arrivalPosLat="0.00" arrivalSpeed="30.61" duration="9.00" routeLength="232.23" waitSteps="0" timeLoss="0.84" rerouteNo="0" devices="tripinfo_B.40" vType="t1" speedFactor="0.96" vaporized=""/>
    <tripinfo id="B.41" depart="63.00" departLane="beg_1" departPos="27.55" departPosLat="0.00" departSpeed="36.39" departDelay="9.70" arrival="72.00" arrivalLane="end_0" arrivalPos="100.00" arrivalPosLat="0.00" arrivalSpeed="35.87" duration="9.00" routeLength="272.45" waitSteps="0" timeLoss="0.63" rerouteNo="0" devices="tripinfo_B.41" vType="t1" speedFactor="1.09" vaporized=""/>
    <tripinfo id="B.43" depart="68.00" departLane="beg_1" departPos="129.81" departPosLat="0.00" departSpeed="34.78" departDelay="12.10" arrival="73.00" arrivalLane="end_0" arrivalPos="100.00" arrivalPosLat="0.00" arrivalSpeed="33.84" duration="5.00" routeLength="170.19" waitSteps="0" timeLoss="0.07" rerouteNo="0" devices="tripinfo_B.43" vType="t1" speedFactor="1.04" vaporized=""/>
    <tripinfo id="B.42" depart="68.00" departLane="beg_1" departPos="79.62" departPosLat="0.00" departSpeed="34.59" departDelay="13.40" arrival="75.00" arrivalLane="end_0" arrivalPos="100.00" arrivalPosLat="0.00" arrivalSpeed="33.47" duration="7.00" routeLength="220.38" waitSteps="0" timeLoss="0.11" rerouteNo="0" devices="tripinfo_B.42" vType="t1" speedFactor="1.04" vaporized=""/>
    <tripinfo id="B.44" depart="70.00" departLane="beg_1" departPos="74.49" departPosLat="0.00" departSpeed="36.26" departDelay="12.80" arrival="77.00" arrivalLane="end_0" arrivalPos="100.00" arrivalPosLat="0.00" arrivalSpeed="35.08" duration="7.00" routeLength="225.51" waitSteps="0" timeLoss="0.12" rerouteNo="0" devices="tripinfo_B.44" vType="t1" speedFactor="1.09" vaporized=""/>
    <tripinfo id="B.45" depart="71.00" departLane="beg_1" departPos="90.04" departPosLat="0.00" departSpeed="33.24" departDelay="12.50" arrival="78.00" arrivalLane="end_0" arrivalPos="100.00" arrivalPosLat="0.00" arrivalSpeed="33.17" duration="7.00" routeLength="209.96" waitSteps="0" timeLoss="0.12" rerouteNo="0" devices="tripinfo_B.45" vType="t1" speedFactor="1.00" vaporized=""/>
    <tripinfo id="B.46" depart="73.00" departLane="beg_1" departPos="139.77" departPosLat="0.00" departSpeed="28.32" departDelay="13.20" arrival="79.00" arrivalLane="end_0" arrivalPos="100.00" arrivalPosLat="0.00" arrivalSpeed="29.98" duration="6.00" routeLength="160.23" waitSteps="0" timeLoss="0.22" rerouteNo="0" devices="tripinfo_B.46" vType="t1" speedFactor="0.90" vaporized=""/>
    <tripinfo id="B.48" depart="73.00" departLane="beg_1" departPos="97.13" departPosLat="0.00" departSpeed="28.34" departDelay="10.60" arrival="81.00" arrivalLane="end_0" arrivalPos="100.00" arrivalPosLat="0.00" arrivalSpeed="27.05" duration="8.00" routeLength="202.87" waitSteps="0" timeLoss="0.20" rerouteNo="0" devices="tripinfo_B.48" vType="t1" speedFactor="0.85" vaporized=""/>
    <tripinfo id="B.47" depart="73.00" departLane="beg_1" departPos="42.38" departPosLat="0.00" departSpeed="29.23" departDelay="11.90" arrival="83.00" arrivalLane="end_0" arrivalPos="100.00" arrivalPosLat="0.00" arrivalSpeed="28.95" duration="10.00" routeLength="257.62" waitSteps="0" timeLoss="0.23" rerouteNo="0" devices="tripinfo_B.47" vType="t1" speedFactor="0.88" vaporized=""/>
    <tripinfo id="B.51" depart="80.00" departLane="beg_1" departPos="184.33" departPosLat="0.00" departSpeed="31.32" departDelay="13.70" arrival="84.00" arrivalLane="end_0" arrivalPos="100.00" arrivalPosLat="0.00" arrivalSpeed="32.65" duration="4.00" routeLength="115.67" waitSteps="0" timeLoss="0.35" rerouteNo="0" devices="tripinfo_B.51" vType="t1" speedFactor="1.02" vaporized=""/>
    <tripinfo id="B.49" depart="77.00" departLane="beg_1" departPos="76.01" departPosLat="0.00" departSpeed="28.49" departDelay="13.30" arrival="86.00" arrivalLane="end_0" arrivalPos="100.00" arrivalPosLat="0.00" arrivalSpeed="27.36" duration="9.00" routeLength="223.99" waitSteps="0" timeLoss="0.29" rerouteNo="0" devices="tripinfo_B.49" vType="t1" speedFactor="0.85" vaporized=""/>
    <tripinfo id="B.50" depart="79.00" departLane="beg_1" departPos="59.99" departPosLat="0.00" departSpeed="32.45" departDelay="14.00" arrival="87.00" arrivalLane="end_0" arrivalPos="100.00" arrivalPosLat="0.00" arrivalSpeed="31.47" duration="8.00" routeLength="240.01" waitSteps="0" timeLoss="1.71" rerouteNo="0" devices="tripinfo_B.50" vType="t1" speedFactor="1.17" vaporized=""/>
    <tripinfo id="B.52" depart="81.00" departLane="beg_1" departPos="111.93" departPosLat="0.00" departSpeed="27.45" departDelay="13.40" arrival="88.00" arrivalLane="end_0" arrivalPos="100.00" arrivalPosLat="0.00" arrivalSpeed="29.23" duration="7.00" routeLength="188.07" waitSteps="0" timeLoss="1.77" rerouteNo="0" devices="tripinfo_B.52" vType="t1" speedFactor="1.10" vaporized=""/>
    <tripinfo id="B.53" depart="81.00" departLane="beg_1" departPos="67.33" departPosLat="0.00" departSpeed="28.82" departDelay="12.10" arrival="90.00" arrivalLane="end_0" arrivalPos="100.00" arrivalPosLat="0.00" arrivalSpeed="31.61" duration="9.00" routeLength="232.67" waitSteps="0" timeLoss="1.39" rerouteNo="0" devices="tripinfo_B.53" vType="t1" speedFactor="1.00" vaporized=""/>
    <tripinfo id="B.54" depart="83.00" departLane="beg_1" departPos="53.87" departPosLat="0.00" departSpeed="32.50" departDelay="12.80" arrival="91.00" arrivalLane="end_0" arrivalPos="100.00" arrivalPosLat="0.00" arrivalSpeed="32.07" duration="8.00" routeLength="246.13" waitSteps="0" timeLoss="0.57" rerouteNo="0" devices="tripinfo_B.54" vType="t1" speedFactor="1.00" vaporized=""/>
    <tripinfo id="B.55" depart="85.00" departLane="beg_1" departPos="75.40" departPosLat="0.00" departSpeed="29.96" departDelay="13.50" arrival="93.00" arrivalLane="end_0" arrivalPos="100.00" arrivalPosLat="0.00" arrivalSpeed="29.64" duration="8.00" routeLength="224.60" waitSteps="0" timeLoss="0.22" rerouteNo="0" devices="tripinfo_B.55" vType="t1" speedFactor="0.90" vaporized=""/>
    <tripinfo id="B.56" depart="88.00" departLane="beg_1" departPos="26.42" departPosLat="0.00" departSpeed="38.08" departDelay="15.20" arrival="96.00" arrivalLane="end_0" arrivalPos="100.00" arrivalPosLat="0.00" arrivalSpeed="37.46" duration="8.00" routeLength="273.58" waitSteps="0" timeLoss="0.16" rerouteNo="0" devices="tripinfo_B.56" vType="t1" speedFactor="1.14" vaporized=""/>
    <tripinfo id="B.57" depart="88.00" departLane="beg_1" departPos="14.68" departPosLat="0.00" departSpeed="34.11" departDelay="13.90" arrival="97.00" arrivalLane="end_0" arrivalPos="100.00" arrivalPosLat="0.00" arrivalSpeed="33.61" duration="9.00" routeLength="285.32" waitSteps="0" timeLoss="0.20" rerouteNo="0" devices="tripinfo_B.57" vType="t1" speedFactor="1.02" vaporized=""/>
    <tripinfo id="B.60" depart="92.00" departLane="beg_1" departPos="117.38" departPosLat="0.00" departSpeed="32.40" departDelay="14.00" arrival="98.00" arrivalLane="end_0" arrivalPos="100.00" arrivalPosLat="0.00" arrivalSpeed="33.16" duration="6.00" routeLength="182.62" waitSteps="0" timeLoss="0.86" rerouteNo="0" devices="tripinfo_B.60" vType="t1" speedFactor="1.12" vaporized=""/>
    <tripinfo id="B.58" depart="90.00" departLane="beg_1" departPos="12.02" departPosLat="0.00" departSpeed="32.31" departDelay="14.60" arrival="100.00" arrivalLane="end_0" arrivalPos="100.00" arrivalPosLat="0.00" arrivalSpeed="31.68" duration="10.00" routeLength="287.98" waitSteps="0" timeLoss="0.21" rerouteNo="0" devices="tripinfo_B.58" vType="t1" speedFactor="0.97" vaporized=""/>
    <tripinfo id="B.59" depart="92.00" departLane="beg_1" departPos="35.21" departPosLat="0.00" departSpeed="32.31" departDelay="15.30" arrival="101.00" arrivalLane="end_0" arrivalPos="100.00" arrivalPosLat="0.00" arrivalSpeed="34.00" duration="9.00" routeLength="264.79" waitSteps="0" timeLoss="1.11" rerouteNo="0" devices="tripinfo_B.59" vType="t1" speedFactor="1.08" vaporized=""/>
    <tripinfo id="B.61" depart="93.00" departLane="beg_1" departPos="24.33" departPosLat="0.00" departSpeed="32.15" departDelay="13.70" arrival="102.00" arrivalLane="end_0" arrivalPos="100.00" arrivalPosLat="0.00" arrivalSpeed="33.74" duration="9.00" routeLength="275.67" waitSteps="0" timeLoss="0.67" rerouteNo="0" devices="tripinfo_B.61" vType="t1" speedFactor="1.02" vaporized=""/>
    <tripinfo id="B.62" depart="95.00" departLane="beg_1" departPos="31.57" departPosLat="0.00" departSpeed="32.90" departDelay="14.40" arrival="104.00" arrivalLane="end_0" arrivalPos="100.00" arrivalPosLat="0.00" arrivalSpeed="32.11" duration="9.00" routeLength="268.43" waitSteps="0" timeLoss="0.28" rerouteNo="0" devices="tripinfo_B.62" vType="t1" speedFactor="0.99" vaporized=""/>
    <tripinfo id="B.63" depart="95.00" departLane="beg_1" departPos="9.18" departPosLat="0.00" departSpeed="30.52" departDelay="13.10" arrival="105.00" arrivalLane="end_0" arrivalPos="100.00" arrivalPosLat="0.00" arrivalSpeed="31.18" duration="10.00" routeLength="290.82" waitSteps="0" timeLoss="0.40" rerouteNo="0" devices="tripinfo_B.63" vType="t1" speedFactor="0.94" vaporized=""/>
    <tripinfo id="B.64" depart="97.00" departLane="beg_1" departPos="36.31" departPosLat="0.00" departSpeed="29.03" departDelay="13.80" arrival="107.00" arrivalLane="end_0" arrivalPos="100.00" arrivalPosLat="0.00" arrivalSpeed="28.29" duration="10.00" routeLength="263.69" waitSteps="0" timeLoss="0.28" rerouteNo="0" devices="tripinfo_B.64" vType="t1" speedFactor="0.88" vaporized=""/>
    <tripinfo id="B.65" depart="98.00" departLane="beg_1" departPos="47.86" departPosLat="0.00" departSpeed="25.66" departDelay="13.50" arrival="108.00" arrivalLane="end_0" arrivalPos="100.00" arrivalPosLat="0.00" arrivalSpeed="29.52" duration="10.00" routeLength="252.14" waitSteps="0" timeLoss="1.08" rerouteNo="0" devices="tripinfo_B.65" vType="t1" speedFactor="0.91" vaporized=""/>
    <tripinfo id="B.66" depart="101.00" departLane="beg_1" departPos="71.21" departPosLat="0.00" departSpeed="28.16" departDelay="15.20" arrival="109.00" arrivalLane="end_0" arrivalPos="100.00" arrivalPosLat="0.00" arrivalSpeed="29.64" duration="8.00" routeLength="228.79" waitSteps="0" timeLoss="0.45" rerouteNo="0" devices="tripinfo_B.66" vType="t1" speedFactor="0.91" vaporized=""/>
    <tripinfo id="B.67" depart="101.00" departLane="beg_1" departPos="60.38" departPosLat="0.00" departSpeed="24.22" departDelay="13.90" arrival="111.00" arrivalLane="end_0" arrivalPos="100.00" arrivalPosLat="0.00" arrivalSpeed="30.44" duration="10.00" routeLength="239.62" waitSteps="0" timeLoss="2.34" rerouteNo="0" devices="tripinfo_B.67" vType="t1" speedFactor="1.04" vaporized=""/>
    <tripinfo id="B.68" depart="104.00" departLane="beg_1" departPos="92.17" departPosLat="0.00" departSpeed="25.85" departDelay="15.60" arrival="112.00" arrivalLane="end_0" arrivalPos="100.00" arrivalPosLat="0.00" arrivalSpeed="31.05" duration="8.00" routeLength="207.83" waitSteps="0" timeLoss="1.51" rerouteNo="0" devices="tripinfo_B.68" vType="t1" speedFactor="1.02" vaporized=""/>
    <tripinfo id="B.70" depart="106.00" departLane="beg_1" departPos="94.05" departPosLat="0.00" departSpeed="29.04" departDelay="15.00" arrival="114.00" arrivalLane="end_0" arrivalPos="100.00" arrivalPosLat="0.00" arrivalSpeed="31.19" duration="8.00" routeLength="205.95" waitSteps="0" timeLoss="0.79" rerouteNo="0" devices="tripinfo_B.70" vType="t1" speedFactor="0.97" vaporized=""/>
    <tripinfo id="B.69" depart="106.00" departLane="beg_1" departPos="1.11" departPosLat="0.00" departSpeed="34.10" departDelay="16.30" arrival="116.00" arrivalLane="end_0" arrivalPos="100.00" arrivalPosLat="0.00" arrivalSpeed="33.15" duration="10.00" routeLength="298.89" waitSteps="0" timeLoss="0.33" rerouteNo="0" devices="tripinfo_B.69" vType="t1" speedFactor="1.02" vaporized=""/>
    <tripinfo id="B.71" depart="108.00" departLane="beg_1" departPos="36.44" departPosLat="0.00" departSpeed="31.33" departDelay="15.70" arrival="117.00" arrivalLane="end_0" arrivalPos="100.00" arrivalPosLat="0.00" arrivalSpeed="30.43" duration="9.00" routeLength="263.56" waitSteps="0" timeLoss="0.17" rerouteNo="0" devices="tripinfo_B.71" vType="t1" speedFactor="0.94" vaporized=""/>
    <tripinfo id="B.72" depart="108.00" departLane="beg_1" departPos="20.80" departPosLat="0.00" departSpeed="28.02" departDelay="14.40" arrival="118.00" arrivalLane="end_0" arrivalPos="100.00" arrivalPosLat="0.00" arrivalSpeed="32.38" duration="10.00" routeLength="279.20" waitSteps="0" timeLoss="1.81" rerouteNo="0" devices="tripinfo_B.72" vType="t1" speedFactor="1.06" vaporized=""/>
    <tripinfo id="B.73" depart="111.00" departLane="beg_1" departPos="36.39" departPosLat="0.00" departSpeed="31.83" departDelay="16.10" arrival="120.00" arrivalLane="end_0" arrivalPos="100.00" arrivalPosLat="0.00" arrivalSpeed="30.58" duration="9.00" routeLength="263.61" waitSteps="0" timeLoss="0.19" rerouteNo="0" devices="tripinfo_B.73" vType="t1" speedFactor="0.96" vaporized=""/>
    <tripinfo id="B.74" depart="113.00" departLane="beg_1" departPos="55.50" departPosLat="0.00" departSpeed="31.76" departDelay="16.80" arrival="121.00" arrivalLane="end_0" arrivalPos="100.00" arrivalPosLat="0.00" arrivalSpeed="32.09" duration="8.00" routeLength="244.50" waitSteps="0" timeLoss="0.34" rerouteNo="0" devices="tripinfo_B.74" vType="t1" speedFactor="0.98" vaporized=""/>