<?xml version="1.0" encoding="UTF-8"?>

<!-- generated on 2023-03-19 22:20:27 by Eclipse SUMO sumo Version v1_16_0+1378-7dc5215
This data file and the accompanying materials
are made available under the terms of the Eclipse Public License v2.0
which accompanies this distribution, and is available at
http://www.eclipse.org/legal/epl-v20.html
This file may also be made available under the following Secondary
Licenses when the conditions for such availability set forth in the Eclipse
Public License 2.0 are satisfied: GNU General Public License, version 2
or later which is available at
https://www.gnu.org/licenses/old-licenses/gpl-2.0-standalone.html
SPDX-License-Identifier: EPL-2.0 OR GPL-2.0-or-later
<configuration xmlns:xsi="http://www.w3.org/2001/XMLSchema-instance" xsi:noNamespaceSchemaLocation="http://sumo.dlr.de/xsd/sumoConfiguration.xsd">

    <input>
        <net-file value="net.net.xml"/>
        <route-files value="input_routes.rou.xml"/>
    </input>

    <output>
        <write-license value="true"/>
        <tripinfo-output value="tripinfos.xml"/>
        <railsignal-block-output value="railsignal_blocks.xml"/>
    </output>

    <processing>
        <default.speeddev value="0"/>
    </processing>

    <report>
        <xml-validation value="never"/>
        <duration-log.disable value="true"/>
        <no-step-log value="true"/>
    </report>

</configuration>
-->

<tripinfos xmlns:xsi="http://www.w3.org/2001/XMLSchema-instance" xsi:noNamespaceSchemaLocation="http://sumo.dlr.de/xsd/tripinfo_file.xsd">
    <tripinfo id="v_1" depart="2.00" departLane="E0_0" departPos="67.60" departSpeed="32.14" departDelay="0.00" arrival="128.00" arrivalLane="E4_0" arrivalPos="200.00" arrivalSpeed="25.82" duration="126.00" routeLength="932.80" waitingTime="64.00" waitingCount="1" stopTime="0.00" timeLoss="97.37" rerouteNo="0" devices="tripinfo_v_1" vType="train" speedFactor="1.00" vaporized=""/>
    <tripinfo id="v_0" depart="0.00" departLane="E2_0" departPos="200.00" departSpeed="0.00" departDelay="0.00" arrival="240.00" arrivalLane="E4_0" arrivalPos="200.00" arrivalSpeed="25.82" duration="240.00" routeLength="400.20" waitingTime="207.00" waitingCount="1" stopTime="111.00" timeLoss="116.32" rerouteNo="0" devices="tripinfo_v_0" vType="train" speedFactor="1.00" vaporized=""/>
</tripinfos>
