<?xml version="1.0" encoding="UTF-8"?>

<!-- generated on Sat Jul 27 10:54:31 2019 by Eclipse SUMO Version v1_2_0+1308-8d07168154
This data file and the accompanying materials
are made available under the terms of the Eclipse Public License v2.0
which accompanies this distribution, and is available at
http://www.eclipse.org/legal/epl-v20.html
SPDX-License-Identifier: EPL-2.0
<configuration xmlns:xsi="http://www.w3.org/2001/XMLSchema-instance" xsi:noNamespaceSchemaLocation="http://sumo.dlr.de/xsd/sumoConfiguration.xsd">

    <input>
        <net-file value="net.net.xml"/>
        <route-files value="input_routes.rou.xml"/>
        <additional-files value="input_additional.add.xml"/>
    </input>

    <output>
        <write-license value="true"/>
        <vehroute-output value="vehroutes.xml"/>
    </output>

    <processing>
        <default.speeddev value="0"/>
        <modelparkingmanoeuver value="true"/>
    </processing>

    <report>
        <xml-validation value="never"/>
        <duration-log.disable value="true"/>
        <no-step-log value="true"/>
    </report>

</configuration>
-->

<routes xmlns:xsi="http://www.w3.org/2001/XMLSchema-instance" xsi:noNamespaceSchemaLocation="http://sumo.dlr.de/xsd/routes_file.xsd">
    <vehicle id="flow3.0" depart="40.00" arrival="333.00">
        <routeDistribution>
            <route replacedOnEdge="a" reason="REROUTER_Via_Montespirello:parkingAreaReroute" replacedAtTime="47.00" probability="0" edges="a b c"/>
            <route edges="a b c"/>
        </routeDistribution>
        <stop parkingArea="ParkAreaB" duration="200.00"/>
    </vehicle>

    <vehicle id="flow3.1" depart="45.00" arrival="345.00">
        <routeDistribution>
            <route replacedOnEdge="a" reason="REROUTER_Via_Montespirello:parkingAreaReroute" replacedAtTime="47.00" probability="0" edges="a b c"/>
            <route edges="a b c"/>
        </routeDistribution>
        <stop parkingArea="ParkAreaB" duration="200.00"/>
    </vehicle>

    <vehicle id="flow3.2" depart="50.00" arrival="356.00">
        <routeDistribution>
            <route replacedOnEdge="a" reason="REROUTER_Via_Montespirello:parkingAreaReroute" replacedAtTime="50.00" probability="0" edges="a b c"/>
            <route edges="a b c"/>
        </routeDistribution>
        <stop parkingArea="ParkAreaB" duration="200.00"/>
    </vehicle>

    <vehicle id="flow3.3" depart="55.00" arrival="367.00">
        <routeDistribution>
            <route replacedOnEdge="a" reason="REROUTER_Via_Montespirello:parkingAreaReroute" replacedAtTime="55.00" probability="0" edges="a b c"/>
            <route edges="a b c"/>
        </routeDistribution>
        <stop parkingArea="ParkAreaB" duration="200.00"/>
    </vehicle>

    <vehicle id="flow3.4" depart="60.00" arrival="379.00">
        <routeDistribution>
            <route replacedOnEdge="a" reason="REROUTER_Via_Montespirello:parkingAreaReroute" replacedAtTime="60.00" probability="0" edges="a b c"/>
            <route edges="a b c"/>
        </routeDistribution>
        <stop parkingArea="ParkAreaB" duration="200.00"/>
    </vehicle>

    <vehicle id="flow3.5" depart="65.00" arrival="391.00">
        <routeDistribution>
            <route replacedOnEdge="a" reason="REROUTER_Via_Montespirello:parkingAreaReroute" replacedAtTime="65.00" probability="0" edges="a b c"/>
            <route edges="a b c"/>
        </routeDistribution>
        <stop parkingArea="ParkAreaB" duration="200.00"/>
    </vehicle>

    <vehicle id="flow1.4" depart="20.00" arrival="393.00">
        <routeDistribution>
            <route replacedOnEdge="a" reason="REROUTER_Via_Montespirello:parkingAreaReroute" replacedAtTime="48.00" probability="0" edges="a b c"/>
            <route edges="a b -d f e b c"/>
        </routeDistribution>
        <stop parkingArea="ParkAreaB" duration="400.00"/>
    </vehicle>

    <vehicle id="flow3.6" depart="70.00" arrival="405.00">
        <routeDistribution>
            <route replacedOnEdge="a" reason="REROUTER_Via_Montespirello:parkingAreaReroute" replacedAtTime="70.00" probability="0" edges="a b c"/>
            <route edges="a b c"/>
        </routeDistribution>
        <stop parkingArea="ParkAreaB" duration="200.00"/>
    </vehicle>

    <vehicle id="flow1.6" depart="30.00" arrival="407.00">
        <routeDistribution>
            <route replacedOnEdge="a" reason="REROUTER_Via_Montespirello:parkingAreaReroute" replacedAtTime="47.00" probability="0" edges="a b c"/>
            <route edges="a b -d f e b c"/>
        </routeDistribution>
        <stop parkingArea="ParkAreaB" duration="400.00"/>
    </vehicle>

    <vehicle id="flow1.0" depart="0.00" arrival="492.00">
        <route edges="a b c"/>
        <stop parkingArea="ParkAreaA" duration="200.00"/>
        <stop parkingArea="ParkAreaB" duration="200.00"/>
    </vehicle>

    <vehicle id="flow1.1" depart="5.00" arrival="614.00">
        <routeDistribution>
            <route replacedOnEdge="b" reason="REROUTER_Via_Montespirello:parkingAreaReroute" replacedAtTime="256.00" probability="0" edges="a b c"/>
            <route edges="a b -d f e -a a b c"/>
        </routeDistribution>
        <stop parkingArea="ParkAreaA" duration="200.00"/>
        <stop parkingArea="ParkAreaA" duration="200.00"/>
    </vehicle>

    <vehicle id="flow1.2" depart="10.00" arrival="621.00">
        <routeDistribution>
            <route replacedOnEdge="b" reason="REROUTER_Via_Montespirello:parkingAreaReroute" replacedAtTime="256.00" probability="0" edges="a b c"/>
            <route edges="a b -d f e -a a b c"/>
        </routeDistribution>
        <stop parkingArea="ParkAreaA" duration="200.00"/>
        <stop parkingArea="ParkAreaA" duration="200.00"/>
    </vehicle>

    <vehicle id="flow1.3" depart="15.00" arrival="628.00">
        <routeDistribution>
            <route replacedOnEdge="b" reason="REROUTER_Via_Montespirello:parkingAreaReroute" replacedAtTime="257.00" probability="0" edges="a b c"/>
            <route edges="a b -d f e -a a b c"/>
        </routeDistribution>
        <stop parkingArea="ParkAreaA" duration="200.00"/>
        <stop parkingArea="ParkAreaA" duration="200.00"/>
    </vehicle>

    <vehicle id="flow1.5" depart="25.00" arrival="635.00">
        <routeDistribution>
            <route replacedOnEdge="b" reason="REROUTER_Via_Montespirello:parkingAreaReroute" replacedAtTime="261.00" probability="0" edges="a b c"/>
            <route edges="a b -d f e -a a b c"/>
        </routeDistribution>
        <stop parkingArea="ParkAreaA" duration="200.00"/>
        <stop parkingArea="ParkAreaA" duration="200.00"/>
    </vehicle>

</routes>
