<?xml version="1.0" encoding="UTF-8"?>

<!-- generated on 2026-04-19T23:53:59.852624+01:00 by Eclipse SUMO sumo v1_26_0+1258-523db8d80fa
<sumoConfiguration xmlns:xsi="http://www.w3.org/2001/XMLSchema-instance" xsi:noNamespaceSchemaLocation="http://sumo.dlr.de/xsd/sumoConfiguration.xsd">

    <input>
        <net-file value="input_net4.net.xml"/>
        <route-files value="input_routes.rou.xml"/>
    </input>

    <output>
        <tripinfo-output value="tripinfos.xml"/>
        <vehroute-output value="vehroutes.xml"/>
        <vehroute-output.write-unfinished value="true"/>
        <stop-output value="stops.xml"/>
    </output>

    <processing>
        <default.departspeed value="0"/>
        <default.departlane value="first"/>
    </processing>

    <report>
        <no-step-log value="true"/>
    </report>

    <taxi_device>
        <device.taxi.dispatch-algorithm value="traci"/>
    </taxi_device>

    <traci_server>
        <remote-port value="36413"/>
    </traci_server>

</sumoConfiguration>
-->

<stops xmlns:xsi="http://www.w3.org/2001/XMLSchema-instance" xsi:noNamespaceSchemaLocation="http://sumo.dlr.de/xsd/stopinfo_file.xsd">
    <stopinfo id="taxi_0" type="taxi" lane="B1C1_0" pos="5.00" parking="1" started="321.00" ended="322.00" initialPersons="0" loadedPersons="1" unloadedPersons="0" initialContainers="0" loadedContainers="0" unloadedContainers="0" blockedDuration="0.00" actType="pickup b (1)"/>
    <stopinfo id="taxi_0" type="taxi" lane="C1D1_0" pos="50.00" parking="1" started="343.00" ended="403.00" initialPersons="1" loadedPersons="1" unloadedPersons="1" initialContainers="0" loadedContainers="0" unloadedContainers="0" blockedDuration="0.00" actType="pickup c (2),dropOff b (1)"/>
</stops>
