<?xml version="1.0" encoding="UTF-8"?>

<!-- generated on Wed Jun 21 09:14:11 2017 by SUMO Version dev-SVN-r24776
<?xml version="1.0" encoding="UTF-8"?>

<configuration xmlns:xsi="http://www.w3.org/2001/XMLSchema-instance" xsi:noNamespaceSchemaLocation="http://sumo.dlr.de/xsd/sumoConfiguration.xsd">

    <input>
        <net-file value="net.net.xml"/>
        <route-files value="input_routes.rou.xml"/>
    </input>

    <output>
        <fcd-output value="fcd.xml"/>
        <tripinfo-output value="tripinfos.xml"/>
        <lanechange-output value="lanechanges.xml"/>
    </output>

    <processing>
        <lateral-resolution value="0.4"/>
    </processing>

    <report>
        <xml-validation value="never"/>
        <no-step-log value="true"/>
    </report>

</configuration>
-->

<fcd-export xmlns:xsi="http://www.w3.org/2001/XMLSchema-instance" xsi:noNamespaceSchemaLocation="http://sumo.dlr.de/xsd/fcd_file.xsd">
    <timestep time="0.00">
        <vehicle id="A" x="0.00" y="-6.15" angle="90.00" type="t0" speed="13.89" pos="0.00" lane="beg_0" slope="0.00"/>
        <vehicle id="B" x="2.98" y="-2.05" angle="90.00" type="t1" speed="13.89" pos="3.00" lane="beg_1" slope="0.00"/>
    </timestep>
    <timestep time="1.00">
        <vehicle id="A" x="13.79" y="-5.15" angle="86.97" type="t0" speed="13.89" pos="13.89" lane="beg_0" slope="0.00"/>
        <vehicle id="B" x="16.76" y="-2.05" angle="90.00" type="t1" speed="13.89" pos="16.89" lane="beg_1" slope="0.00"/>
    </timestep>
    <timestep time="2.00">
        <vehicle id="A" x="27.57" y="-4.25" angle="87.28" type="t0" speed="13.89" pos="27.78" lane="beg_0" slope="0.00"/>
        <vehicle id="B" x="30.55" y="-2.05" angle="90.00" type="t1" speed="13.89" pos="30.78" lane="beg_1" slope="0.00"/>
    </timestep>
    <timestep time="3.00">
        <vehicle id="A" x="41.36" y="-4.25" angle="90.00" type="t0" speed="13.89" pos="41.67" lane="beg_0" slope="0.00"/>
        <vehicle id="B" x="44.33" y="-2.05" angle="90.00" type="t1" speed="13.89" pos="44.67" lane="beg_1" slope="0.00"/>
    </timestep>
    <timestep time="4.00">
        <vehicle id="A" x="53.21" y="-4.25" angle="90.00" type="t0" speed="11.95" pos="53.62" lane="beg_0" slope="0.00"/>
        <vehicle id="B" x="58.12" y="-2.05" angle="90.00" type="t1" speed="13.89" pos="58.56" lane="beg_1" slope="0.00"/>
    </timestep>
    <timestep time="5.00">
        <vehicle id="A" x="63.14" y="-4.25" angle="90.00" type="t0" speed="10.00" pos="63.62" lane="beg_0" slope="0.00"/>
        <vehicle id="B" x="71.91" y="-2.05" angle="90.00" type="t1" speed="13.89" pos="72.45" lane="beg_1" slope="0.00"/>
    </timestep>
    <timestep time="6.00">
        <vehicle id="A" x="71.14" y="-3.15" angle="85.62" type="t0" speed="8.06" pos="71.67" lane="beg_1" slope="0.00"/>
        <vehicle id="B" x="85.69" y="-2.05" angle="90.00" type="t1" speed="13.89" pos="86.34" lane="beg_1" slope="0.00"/>
    </timestep>
    <timestep time="7.00">
        <vehicle id="A" x="81.71" y="-2.15" angle="86.35" type="t0" speed="10.66" pos="82.33" lane="beg_1" slope="0.00"/>
        <vehicle id="B" x="99.48" y="-2.05" angle="90.00" type="t1" speed="13.89" pos="100.23" lane="beg_1" slope="0.00"/>
    </timestep>
    <timestep time="8.00">
        <vehicle id="A" x="94.47" y="-2.05" angle="89.67" type="t0" speed="12.86" pos="95.19" lane="beg_1" slope="0.00"/>
        <vehicle id="B" x="113.26" y="-2.05" angle="90.00" type="t1" speed="13.89" pos="114.12" lane="beg_1" slope="0.00"/>
    </timestep>
    <timestep time="9.00">
        <vehicle id="A" x="107.57" y="-2.05" angle="90.00" type="t0" speed="13.20" pos="108.39" lane="beg_1" slope="0.00"/>
        <vehicle id="B" x="127.05" y="-2.05" angle="90.00" type="t1" speed="13.89" pos="128.01" lane="beg_1" slope="0.00"/>
    </timestep>
    <timestep time="10.00">
        <vehicle id="A" x="120.90" y="-2.05" angle="90.00" type="t0" speed="13.43" pos="121.82" lane="beg_1" slope="0.00"/>
        <vehicle id="B" x="140.84" y="-2.05" angle="90.00" type="t1" speed="13.89" pos="141.90" lane="beg_1" slope="0.00"/>
    </timestep>
    <timestep time="11.00">
        <vehicle id="A" x="134.37" y="-2.05" angle="90.00" type="t0" speed="13.56" pos="135.38" lane="beg_1" slope="0.00"/>
        <vehicle id="B" x="154.62" y="-2.05" angle="90.00" type="t1" speed="13.89" pos="155.79" lane="beg_1" slope="0.00"/>
    </timestep>
    <timestep time="12.00">
        <vehicle id="A" x="147.91" y="-2.05" angle="90.00" type="t0" speed="13.64" pos="149.03" lane="beg_1" slope="0.00"/>
        <vehicle id="B" x="168.41" y="-2.05" angle="90.00" type="t1" speed="13.89" pos="169.68" lane="beg_1" slope="0.00"/>
    </timestep>
    <timestep time="13.00">
        <vehicle id="A" x="161.51" y="-2.05" angle="90.00" type="t0" speed="13.71" pos="162.73" lane="beg_1" slope="0.00"/>
        <vehicle id="B" x="182.19" y="-2.05" angle="90.00" type="t1" speed="13.89" pos="183.57" lane="beg_1" slope="0.00"/>
    </timestep>
    <timestep time="14.00">
        <vehicle id="A" x="175.16" y="-2.05" angle="90.00" type="t0" speed="13.75" pos="176.48" lane="beg_1" slope="0.00"/>
        <vehicle id="B" x="195.98" y="-2.05" angle="90.00" type="t1" speed="13.89" pos="197.46" lane="beg_1" slope="0.00"/>
    </timestep>
    <timestep time="15.00">
        <vehicle id="A" x="188.84" y="-2.05" angle="90.00" type="t0" speed="13.79" pos="190.27" lane="beg_1" slope="0.00"/>
        <vehicle id="B" x="212.68" y="-2.05" angle="90.00" type="t1" speed="13.89" pos="11.35" lane="end_0" slope="0.00"/>
    </timestep>
    <timestep time="16.00">
        <vehicle id="A" x="205.52" y="-2.05" angle="90.00" type="t0" speed="13.81" pos="4.08" lane="end_0" slope="0.00"/>
        <vehicle id="B" x="226.36" y="-2.05" angle="90.00" type="t1" speed="13.89" pos="25.24" lane="end_0" slope="0.00"/>
    </timestep>
    <timestep time="17.00">
        <vehicle id="A" x="219.15" y="-2.05" angle="90.00" type="t0" speed="13.83" pos="17.91" lane="end_0" slope="0.00"/>
        <vehicle id="B" x="240.04" y="-2.05" angle="90.00" type="t1" speed="13.89" pos="39.13" lane="end_0" slope="0.00"/>
    </timestep>
    <timestep time="18.00">
        <vehicle id="A" x="232.78" y="-2.05" angle="90.00" type="t0" speed="13.85" pos="31.76" lane="end_0" slope="0.00"/>
        <vehicle id="B" x="253.72" y="-2.05" angle="90.00" type="t1" speed="13.89" pos="53.02" lane="end_0" slope="0.00"/>
    </timestep>
    <timestep time="19.00">
        <vehicle id="A" x="246.43" y="-2.05" angle="90.00" type="t0" speed="13.86" pos="45.62" lane="end_0" slope="0.00"/>
        <vehicle id="B" x="267.41" y="-2.05" angle="90.00" type="t1" speed="13.89" pos="66.91" lane="end_0" slope="0.00"/>
    </timestep>
    <timestep time="20.00">
        <vehicle id="A" x="260.09" y="-2.05" angle="90.00" type="t0" speed="13.87" pos="59.48" lane="end_0" slope="0.00"/>
        <vehicle id="B" x="281.09" y="-2.05" angle="90.00" type="t1" speed="13.89" pos="80.80" lane="end_0" slope="0.00"/>
    </timestep>
    <timestep time="21.00">
        <vehicle id="A" x="273.75" y="-2.05" angle="90.00" type="t0" speed="13.87" pos="73.35" lane="end_0" slope="0.00"/>
        <vehicle id="B" x="294.77" y="-2.05" angle="90.00" type="t1" speed="13.89" pos="94.69" lane="end_0" slope="0.00"/>
    </timestep>
    <timestep time="22.00">
        <vehicle id="A" x="287.42" y="-2.05" angle="90.00" type="t0" speed="13.88" pos="87.23" lane="end_0" slope="0.00"/>
    </timestep>
    <timestep time="23.00"/>
</fcd-export>
