<?xml version="1.0" encoding="UTF-8"?>

<!-- generated on 2025-10-09T21:49:53.565545+01:00 by Eclipse SUMO sumo v1_24_0+1329-e45c39789b9
<sumoConfiguration xmlns:xsi="http://www.w3.org/2001/XMLSchema-instance" xsi:noNamespaceSchemaLocation="http://sumo.dlr.de/xsd/sumoConfiguration.xsd">

    <input>
        <net-file value="input_net3.net.xml"/>
        <route-files value="input_routes.rou.xml"/>
    </input>

    <output>
        <fcd-output value="fcd.xml"/>
    </output>

    <report>
        <no-step-log value="true"/>
    </report>

    <traci_server>
        <remote-port value="48349"/>
    </traci_server>

</sumoConfiguration>
-->

<fcd-export xmlns:xsi="http://www.w3.org/2001/XMLSchema-instance" xsi:noNamespaceSchemaLocation="http://sumo.dlr.de/xsd/fcd_file.xsd">
    <timestep time="0.00">
        <person id="p0" x="111.59" y="75.40" angle="0.00" type="DEFAULT_PEDTYPE" speed="0.00" pos="75.40" edge="SC" slope="0.00"/>
    </timestep>
    <timestep time="1.00">
        <person id="p0" x="111.59" y="76.40" angle="0.00" type="DEFAULT_PEDTYPE" speed="1.00" pos="76.40" edge="SC" slope="0.00"/>
    </timestep>
    <timestep time="2.00">
        <person id="p0" x="111.59" y="77.40" angle="0.00" type="DEFAULT_PEDTYPE" speed="1.00" pos="77.40" edge="SC" slope="0.00"/>
    </timestep>
    <timestep time="3.00">
        <person id="p0" x="111.59" y="78.40" angle="0.00" type="DEFAULT_PEDTYPE" speed="1.00" pos="78.40" edge="SC" slope="0.00"/>
    </timestep>
    <timestep time="4.00">
        <person id="p0" x="111.59" y="79.40" angle="0.00" type="DEFAULT_PEDTYPE" speed="1.00" pos="79.40" edge="SC" slope="0.00"/>
    </timestep>
    <timestep time="5.00">
        <person id="p0" x="111.59" y="80.40" angle="0.00" type="DEFAULT_PEDTYPE" speed="1.00" pos="80.40" edge="SC" slope="0.00"/>
    </timestep>
    <timestep time="6.00">
        <person id="p0" x="111.59" y="81.40" angle="0.00" type="DEFAULT_PEDTYPE" speed="1.00" pos="81.40" edge="SC" slope="0.00"/>
    </timestep>
    <timestep time="7.00">
        <person id="p0" x="111.59" y="82.40" angle="0.00" type="DEFAULT_PEDTYPE" speed="1.00" pos="82.40" edge="SC" slope="0.00"/>
    </timestep>
    <timestep time="8.00">
        <person id="p0" x="111.59" y="83.40" angle="0.00" type="DEFAULT_PEDTYPE" speed="1.00" pos="83.40" edge="SC" slope="0.00"/>
    </timestep>
    <timestep time="9.00">
        <person id="p0" x="111.59" y="84.40" angle="0.00" type="DEFAULT_PEDTYPE" speed="1.00" pos="84.40" edge="SC" slope="0.00"/>
    </timestep>
    <timestep time="10.00">
        <person id="p0" x="111.59" y="85.40" angle="0.00" type="DEFAULT_PEDTYPE" speed="1.00" pos="0.00" edge=":C_w2" slope="0.00"/>
    </timestep>
    <timestep time="11.00">
        <person id="p0" x="111.59" y="86.40" angle="0.00" type="DEFAULT_PEDTYPE" speed="1.00" pos="1.00" edge=":C_w2" slope="0.00"/>
    </timestep>
    <timestep time="12.00">
        <person id="p0" x="111.59" y="87.40" angle="360.00" type="DEFAULT_PEDTYPE" speed="1.15" pos="2.15" edge=":C_w2" slope="0.00"/>
    </timestep>
    <timestep time="13.00">
        <person id="p0" x="111.59" y="88.40" angle="0.00" type="DEFAULT_PEDTYPE" speed="0.98" pos="3.13" edge=":C_w2" slope="0.00"/>
    </timestep>
    <timestep time="14.00">
        <person id="p0" x="111.59" y="89.40" angle="0.00" type="DEFAULT_PEDTYPE" speed="0.98" pos="4.11" edge=":C_w2" slope="0.00"/>
    </timestep>
    <timestep time="15.00">
        <person id="p0" x="111.59" y="90.40" angle="0.00" type="DEFAULT_PEDTYPE" speed="0.98" pos="5.08" edge=":C_w2" slope="0.00"/>
    </timestep>
    <timestep time="16.00">
        <person id="p0" x="111.59" y="91.40" angle="0.00" type="DEFAULT_PEDTYPE" speed="1.00" pos="6.08" edge=":C_w2" slope="0.00"/>
    </timestep>
    <timestep time="17.00">
        <person id="p0" x="111.59" y="92.40" angle="0.00" type="DEFAULT_PEDTYPE" speed="1.00" pos="0.05" edge=":C_c1" slope="0.00"/>
    </timestep>
    <timestep time="18.00">
        <person id="p0" x="111.59" y="93.40" angle="0.00" type="DEFAULT_PEDTYPE" speed="1.00" pos="1.05" edge=":C_c1" slope="0.00"/>
    </timestep>
    <timestep time="19.00">
        <person id="p0" x="111.59" y="94.40" angle="0.00" type="DEFAULT_PEDTYPE" speed="1.00" pos="2.05" edge=":C_c1" slope="0.00"/>
    </timestep>
    <timestep time="20.00">
        <person id="p0" x="111.59" y="95.40" angle="0.00" type="DEFAULT_PEDTYPE" speed="1.00" pos="3.05" edge=":C_c1" slope="0.00"/>
    </timestep>
    <timestep time="21.00">
        <person id="p0" x="111.59" y="96.40" angle="0.00" type="DEFAULT_PEDTYPE" speed="1.00" pos="4.05" edge=":C_c1" slope="0.00"/>
    </timestep>
    <timestep time="22.00">
        <person id="p0" x="111.59" y="97.40" angle="0.00" type="DEFAULT_PEDTYPE" speed="1.00" pos="5.05" edge=":C_c1" slope="0.00"/>
    </timestep>
    <timestep time="23.00">
        <person id="p0" x="111.59" y="98.40" angle="0.00" type="DEFAULT_PEDTYPE" speed="1.00" pos="6.05" edge=":C_c1" slope="0.00"/>
    </timestep>
    <timestep time="24.00">
        <person id="p0" x="111.59" y="99.40" angle="0.00" type="DEFAULT_PEDTYPE" speed="1.00" pos="7.05" edge=":C_c1" slope="0.00"/>
    </timestep>
    <timestep time="25.00">
        <person id="p0" x="111.59" y="100.40" angle="0.00" type="DEFAULT_PEDTYPE" speed="1.00" pos="8.05" edge=":C_c1" slope="0.00"/>
    </timestep>
    <timestep time="26.00">
        <person id="p0" x="111.59" y="101.40" angle="0.00" type="DEFAULT_PEDTYPE" speed="1.00" pos="9.05" edge=":C_c1" slope="0.00"/>
    </timestep>
    <timestep time="27.00">
        <person id="p0" x="111.59" y="102.40" angle="0.00" type="DEFAULT_PEDTYPE" speed="1.00" pos="10.05" edge=":C_c1" slope="0.00"/>
    </timestep>
    <timestep time="28.00">
        <person id="p0" x="111.59" y="103.40" angle="0.00" type="DEFAULT_PEDTYPE" speed="1.00" pos="11.05" edge=":C_c1" slope="0.00"/>
    </timestep>
    <timestep time="29.00">
        <person id="p0" x="111.59" y="104.40" angle="0.00" type="DEFAULT_PEDTYPE" speed="1.00" pos="12.05" edge=":C_c1" slope="0.00"/>
    </timestep>
    <timestep time="30.00">
        <person id="p0" x="111.59" y="105.40" angle="0.00" type="DEFAULT_PEDTYPE" speed="1.00" pos="13.05" edge=":C_c1" slope="0.00"/>
    </timestep>
    <timestep time="31.00">
        <person id="p0" x="111.59" y="106.40" angle="0.00" type="DEFAULT_PEDTYPE" speed="1.00" pos="14.05" edge=":C_c1" slope="0.00"/>
    </timestep>
    <timestep time="32.00">
        <person id="p0" x="111.59" y="107.40" angle="0.00" type="DEFAULT_PEDTYPE" speed="1.00" pos="15.05" edge=":C_c1" slope="0.00"/>
    </timestep>
    <timestep time="33.00">
        <person id="p0" x="111.59" y="108.40" angle="0.00" type="DEFAULT_PEDTYPE" speed="1.00" pos="0.75" edge=":C_w1" slope="0.00"/>
    </timestep>
    <timestep time="34.00">
        <person id="p0" x="111.59" y="109.40" angle="0.00" type="DEFAULT_PEDTYPE" speed="0.99" pos="1.74" edge=":C_w1" slope="0.00"/>
    </timestep>
    <timestep time="35.00">
        <person id="p0" x="111.59" y="110.40" angle="0.00" type="DEFAULT_PEDTYPE" speed="0.96" pos="2.70" edge=":C_w1" slope="0.00"/>
    </timestep>
    <timestep time="36.00">
        <person id="p0" x="111.59" y="111.40" angle="0.00" type="DEFAULT_PEDTYPE" speed="0.96" pos="3.67" edge=":C_w1" slope="0.00"/>
    </timestep>
    <timestep time="37.00">
        <person id="p0" x="111.59" y="112.40" angle="0.00" type="DEFAULT_PEDTYPE" speed="1.19" pos="4.85" edge=":C_w1" slope="0.00"/>
    </timestep>
    <timestep time="38.00">
        <person id="p0" x="111.59" y="113.40" angle="0.00" type="DEFAULT_PEDTYPE" speed="1.01" pos="0.30" edge=":C_w1" slope="0.00"/>
    </timestep>
    <timestep time="39.00">
        <person id="p0" x="111.59" y="114.40" angle="0.00" type="DEFAULT_PEDTYPE" speed="1.00" pos="1.30" edge=":C_w1" slope="0.00"/>
    </timestep>
    <timestep time="40.00">
        <person id="p0" x="111.59" y="115.40" angle="0.00" type="DEFAULT_PEDTYPE" speed="1.00" pos="2.30" edge=":C_w1" slope="0.00"/>
    </timestep>
    <timestep time="41.00">
        <person id="p0" x="111.59" y="116.40" angle="0.00" type="DEFAULT_PEDTYPE" speed="1.00" pos="3.30" edge=":C_w1" slope="0.00"/>
    </timestep>
    <timestep time="42.00">
        <person id="p0" x="111.59" y="117.40" angle="0.00" type="DEFAULT_PEDTYPE" speed="1.00" pos="4.30" edge=":C_w1" slope="0.00"/>
    </timestep>
    <timestep time="43.00">
        <person id="p0" x="111.59" y="118.40" angle="0.00" type="DEFAULT_PEDTYPE" speed="1.00" pos="5.30" edge=":C_w1" slope="0.00"/>
    </timestep>
    <timestep time="44.00">
        <person id="p0" x="111.59" y="119.40" angle="0.00" type="DEFAULT_PEDTYPE" speed="1.00" pos="6.30" edge=":C_w1" slope="0.00"/>
    </timestep>
    <timestep time="45.00">
        <person id="p0" x="111.59" y="120.40" angle="0.00" type="DEFAULT_PEDTYPE" speed="1.00" pos="7.30" edge=":C_w1" slope="0.00"/>
    </timestep>
    <timestep time="46.00">
        <person id="p0" x="111.59" y="121.40" angle="0.00" type="DEFAULT_PEDTYPE" speed="1.00" pos="8.30" edge=":C_w1" slope="0.00"/>
    </timestep>
    <timestep time="47.00">
        <person id="p0" x="111.59" y="122.40" angle="0.00" type="DEFAULT_PEDTYPE" speed="1.00" pos="9.30" edge=":C_w1" slope="0.00"/>
    </timestep>
    <timestep time="48.00">
        <person id="p0" x="111.59" y="123.40" angle="0.00" type="DEFAULT_PEDTYPE" speed="1.00" pos="10.30" edge=":C_w1" slope="0.00"/>
    </timestep>
    <timestep time="49.00">
        <person id="p0" x="111.59" y="124.40" angle="0.00" type="DEFAULT_PEDTYPE" speed="1.00" pos="11.30" edge=":C_w1" slope="0.00"/>
    </timestep>
    <timestep time="50.00">
        <person id="p0" x="111.59" y="125.40" angle="0.00" type="DEFAULT_PEDTYPE" speed="1.00" pos="12.30" edge=":C_w1" slope="0.00"/>
    </timestep>
    <timestep time="51.00">
        <person id="p0" x="111.59" y="126.40" angle="0.00" type="DEFAULT_PEDTYPE" speed="1.00" pos="13.30" edge=":C_w1" slope="0.00"/>
    </timestep>
    <timestep time="52.00">
        <person id="p0" x="111.59" y="127.40" angle="0.00" type="DEFAULT_PEDTYPE" speed="1.00" pos="14.30" edge=":C_w1" slope="0.00"/>
    </timestep>
    <timestep time="53.00">
        <person id="p0" x="111.59" y="128.40" angle="0.00" type="DEFAULT_PEDTYPE" speed="1.00" pos="15.30" edge=":C_w1" slope="0.00"/>
    </timestep>
    <timestep time="54.00">
        <person id="p0" x="111.59" y="129.40" angle="0.00" type="DEFAULT_PEDTYPE" speed="1.00" pos="16.30" edge=":C_w1" slope="0.00"/>
    </timestep>
    <timestep time="55.00">
        <person id="p0" x="111.59" y="130.40" angle="0.00" type="DEFAULT_PEDTYPE" speed="1.00" pos="17.30" edge=":C_w1" slope="0.00"/>
    </timestep>
    <timestep time="56.00">
        <person id="p0" x="111.59" y="131.40" angle="0.00" type="DEFAULT_PEDTYPE" speed="1.00" pos="18.30" edge=":C_w1" slope="0.00"/>
    </timestep>
    <timestep time="57.00">
        <person id="p0" x="111.59" y="132.40" angle="0.00" type="DEFAULT_PEDTYPE" speed="1.00" pos="19.30" edge=":C_w1" slope="0.00"/>
    </timestep>
    <timestep time="58.00">
        <person id="p0" x="111.59" y="133.40" angle="0.00" type="DEFAULT_PEDTYPE" speed="1.00" pos="20.30" edge=":C_w1" slope="0.00"/>
    </timestep>
    <timestep time="59.00">
        <person id="p0" x="111.59" y="134.40" angle="0.00" type="DEFAULT_PEDTYPE" speed="1.00" pos="21.30" edge=":C_w1" slope="0.00"/>
    </timestep>
    <timestep time="60.00">
        <person id="p0" x="111.59" y="135.40" angle="0.00" type="DEFAULT_PEDTYPE" speed="1.00" pos="22.30" edge=":C_w1" slope="0.00"/>
    </timestep>
    <timestep time="61.00">
        <person id="p0" x="111.59" y="136.40" angle="0.00" type="DEFAULT_PEDTYPE" speed="1.00" pos="23.30" edge=":C_w1" slope="0.00"/>
    </timestep>
    <timestep time="62.00">
        <person id="p0" x="111.59" y="137.40" angle="0.00" type="DEFAULT_PEDTYPE" speed="1.00" pos="24.30" edge=":C_w1" slope="0.00"/>
    </timestep>
    <timestep time="63.00">
        <person id="p0" x="111.59" y="138.40" angle="0.00" type="DEFAULT_PEDTYPE" speed="1.00" pos="25.30" edge=":C_w1" slope="0.00"/>
    </timestep>
    <timestep time="64.00">
        <person id="p0" x="111.59" y="139.40" angle="0.00" type="DEFAULT_PEDTYPE" speed="1.00" pos="26.30" edge=":C_w1" slope="0.00"/>
    </timestep>
    <timestep time="65.00">
        <person id="p0" x="111.59" y="140.40" angle="0.00" type="DEFAULT_PEDTYPE" speed="1.00" pos="27.30" edge=":C_w1" slope="0.00"/>
    </timestep>
    <timestep time="66.00">
        <person id="p0" x="111.59" y="141.40" angle="0.00" type="DEFAULT_PEDTYPE" speed="1.00" pos="28.30" edge=":C_w1" slope="0.00"/>
    </timestep>
    <timestep time="67.00">
        <person id="p0" x="111.59" y="142.40" angle="0.00" type="DEFAULT_PEDTYPE" speed="1.00" pos="29.30" edge=":C_w1" slope="0.00"/>
    </timestep>
    <timestep time="68.00">
        <person id="p0" x="111.59" y="143.40" angle="0.00" type="DEFAULT_PEDTYPE" speed="1.00" pos="30.30" edge=":C_w1" slope="0.00"/>
    </timestep>
    <timestep time="69.00">
        <person id="p0" x="111.59" y="144.40" angle="0.00" type="DEFAULT_PEDTYPE" speed="1.00" pos="31.30" edge=":C_w1" slope="0.00"/>
    </timestep>
    <timestep time="70.00">
        <person id="p0" x="111.59" y="145.40" angle="0.00" type="DEFAULT_PEDTYPE" speed="1.00" pos="32.30" edge=":C_w1" slope="0.00"/>
    </timestep>
    <timestep time="71.00">
        <person id="p0" x="111.59" y="146.40" angle="0.00" type="DEFAULT_PEDTYPE" speed="1.00" pos="33.30" edge=":C_w1" slope="0.00"/>
    </timestep>
    <timestep time="72.00">
        <person id="p0" x="111.59" y="147.40" angle="0.00" type="DEFAULT_PEDTYPE" speed="1.00" pos="34.30" edge=":C_w1" slope="0.00"/>
    </timestep>
    <timestep time="73.00">
        <person id="p0" x="111.59" y="148.40" angle="0.00" type="DEFAULT_PEDTYPE" speed="1.00" pos="35.30" edge=":C_w1" slope="0.00"/>
    </timestep>
    <timestep time="74.00">
        <person id="p0" x="111.59" y="149.40" angle="0.00" type="DEFAULT_PEDTYPE" speed="1.00" pos="36.30" edge=":C_w1" slope="0.00"/>
    </timestep>
    <timestep time="75.00">
        <person id="p0" x="111.59" y="150.40" angle="0.00" type="DEFAULT_PEDTYPE" speed="1.00" pos="37.30" edge=":C_w1" slope="0.00"/>
    </timestep>
    <timestep time="76.00">
        <person id="p0" x="111.59" y="151.40" angle="0.00" type="DEFAULT_PEDTYPE" speed="1.00" pos="38.30" edge=":C_w1" slope="0.00"/>
    </timestep>
    <timestep time="77.00">
        <person id="p0" x="111.59" y="152.40" angle="0.00" type="DEFAULT_PEDTYPE" speed="1.00" pos="39.30" edge=":C_w1" slope="0.00"/>
    </timestep>
    <timestep time="78.00">
        <person id="p0" x="111.59" y="153.40" angle="0.00" type="DEFAULT_PEDTYPE" speed="1.00" pos="40.30" edge=":C_w1" slope="0.00"/>
    </timestep>
    <timestep time="79.00">
        <person id="p0" x="111.59" y="154.40" angle="0.00" type="DEFAULT_PEDTYPE" speed="1.00" pos="41.30" edge=":C_w1" slope="0.00"/>
    </timestep>
    <timestep time="80.00">
        <person id="p0" x="111.59" y="155.40" angle="0.00" type="DEFAULT_PEDTYPE" speed="1.00" pos="42.30" edge=":C_w1" slope="0.00"/>
    </timestep>
    <timestep time="81.00"/>
</fcd-export>
