<?xml version="1.0" encoding="UTF-8"?>

<!-- generated on 2026-04-23T14:38:54.721821+01:00 by Eclipse SUMO sumo v1_26_0+1357-4cb6fe19152
<sumoConfiguration xmlns:xsi="http://www.w3.org/2001/XMLSchema-instance" xsi:noNamespaceSchemaLocation="http://sumo.dlr.de/xsd/sumoConfiguration.xsd">

    <input>
        <net-file value="input_net.net.xml"/>
        <additional-files value="input_additional.add.xml,input_additional2.add.xml,input_routes.rou.xml"/>
    </input>

    <output>
        <tripinfo-output value="tripinfo.xml"/>
    </output>

    <processing>
        <default.departspeed value="0"/>
        <default.departlane value="first"/>
    </processing>

    <report>
        <no-step-log value="true"/>
    </report>

    <traci_server>
        <remote-port value="38549"/>
    </traci_server>

</sumoConfiguration>
-->

<tripinfos xmlns:xsi="http://www.w3.org/2001/XMLSchema-instance" xsi:noNamespaceSchemaLocation="http://sumo.dlr.de/xsd/tripinfo_file.xsd">
    <tripinfo id="t1" depart="20.00" departLane="-f2_0" departPos="50.10" departSpeed="13.89" departDelay="0.00" arrival="221.00" arrivalLane="-a2_0" arrivalPos="200.00" arrivalSpeed="5.00" duration="201.00" routeLength="891.32" waitingTime="26.00" waitingCount="1" stopTime="40.00" timeLoss="54.97" rerouteNo="0" devices="tripinfo_t1" vType="train" speedFactor="1.00" vaporized=""/>
    <tripinfo id="t0" depart="0.00" departLane="a_0" departPos="50.10" departSpeed="13.89" departDelay="0.00" arrival="279.00" arrivalLane="f_0" arrivalPos="200.00" arrivalSpeed="5.00" duration="279.00" routeLength="849.90" waitingTime="0.00" waitingCount="0" stopTime="164.00" timeLoss="0.00" rerouteNo="0" devices="tripinfo_t0" vType="train" speedFactor="1.00" vaporized=""/>
    <tripinfo id="t2" depart="119.00" departLane="-f2_0" departPos="50.10" departSpeed="13.89" departDelay="99.00" arrival="283.00" arrivalLane="-a2_0" arrivalPos="200.00" arrivalSpeed="5.00" duration="164.00" routeLength="891.32" waitingTime="0.00" waitingCount="0" stopTime="40.00" timeLoss="6.18" rerouteNo="0" devices="tripinfo_t2" vType="train" speedFactor="1.00" vaporized=""/>
</tripinfos>
