<?xml version="1.0" encoding="UTF-8"?>

<!-- generated on 2023-09-21 11:27:31 by Eclipse SUMO sumo Version d53ad573a46
This data file and the accompanying materials
are made available under the terms of the Eclipse Public License v2.0
which accompanies this distribution, and is available at
http://www.eclipse.org/legal/epl-v20.html
This file may also be made available under the following Secondary
Licenses when the conditions for such availability set forth in the Eclipse
Public License 2.0 are satisfied: GNU General Public License, version 2
or later which is available at
https://www.gnu.org/licenses/old-licenses/gpl-2.0-standalone.html
SPDX-License-Identifier: EPL-2.0 OR GPL-2.0-or-later
<configuration xmlns:xsi="http://www.w3.org/2001/XMLSchema-instance" xsi:noNamespaceSchemaLocation="http://sumo.dlr.de/xsd/sumoConfiguration.xsd">

    <input>
        <net-file value="net.net.xml"/>
        <route-files value="input_routes.rou.xml"/>
        <additional-files value="input_additional.add.xml,input_additional2.add.xml"/>
    </input>

    <output>
        <write-license value="true"/>
        <tripinfo-output.write-unfinished value="true"/>
    </output>

    <time>
        <begin value="0"/>
        <end value="300"/>
        <step-length value="0.1"/>
    </time>

    <processing>
        <default.speeddev value="0"/>
    </processing>

    <report>
        <xml-validation value="never"/>
        <duration-log.statistics value="true"/>
        <no-step-log value="true"/>
    </report>

</configuration>
-->

<meandata xmlns:xsi="http://www.w3.org/2001/XMLSchema-instance" xsi:noNamespaceSchemaLocation="http://sumo.dlr.de/xsd/meandata_file.xsd">
    <interval begin="0.00" end="6.00" id="dump_6">
        <edge id="1/1to2/1" sampledSeconds="13.44" traveltime="130.06" overlapTraveltime="78.11" density="23.31" laneDensity="23.31" occupancy="10.55" waitingTime="6.50" timeLoss="12.56" speed="1.29" speedRelative="0.07" departed="6" arrived="0" entered="0" left="2" laneChangedFrom="0" laneChangedTo="0"/>
        <edge id="2/1to3/1" sampledSeconds="6.20" traveltime="10.95" overlapTraveltime="11.52" density="10.76" laneDensity="10.76" occupancy="4.49" waitingTime="0.00" timeLoss="3.43" speed="8.78" speedRelative="0.45" departed="0" arrived="0" entered="2" left="0" laneChangedFrom="0" laneChangedTo="0"/>
    </interval>
    <interval begin="6.00" end="12.00" id="dump_6">
        <edge id="1/1to2/1" sampledSeconds="35.03" traveltime="38.78" overlapTraveltime="36.29" density="60.74" laneDensity="60.74" occupancy="29.65" waitingTime="16.00" timeLoss="30.05" speed="2.79" speedRelative="0.14" departed="6" arrived="0" entered="0" left="3" laneChangedFrom="0" laneChangedTo="0"/>
        <edge id="2/1to3/1" sampledSeconds="18.87" traveltime="6.42" overlapTraveltime="6.69" density="32.72" laneDensity="32.72" occupancy="15.45" waitingTime="0.00" timeLoss="4.32" speed="15.11" speedRelative="0.77" departed="0" arrived="0" entered="3" left="2" laneChangedFrom="0" laneChangedTo="0"/>
        <edge id="3/1to4/1" sampledSeconds="3.32" traveltime="4.90" overlapTraveltime="5.16" density="5.76" laneDensity="5.76" occupancy="2.66" waitingTime="0.00" timeLoss="0.00" speed="19.60" speedRelative="1.00" departed="0" arrived="0" entered="2" left="0" laneChangedFrom="0" laneChangedTo="0"/>
    </interval>
    <interval begin="12.00" end="18.00" id="dump_6">
        <edge id="1/1to2/1" sampledSeconds="45.34" traveltime="21.72" overlapTraveltime="21.38" density="78.60" laneDensity="78.60" occupancy="37.84" waitingTime="16.80" timeLoss="34.39" speed="4.73" speedRelative="0.24" departed="3" arrived="0" entered="0" left="4" laneChangedFrom="0" laneChangedTo="0"/>
        <edge id="2/1to3/1" sampledSeconds="20.86" traveltime="5.43" overlapTraveltime="5.69" density="36.17" laneDensity="36.17" occupancy="17.15" waitingTime="0.00" timeLoss="1.95" speed="17.77" speedRelative="0.91" departed="0" arrived="0" entered="4" left="4" laneChangedFrom="0" laneChangedTo="0"/>
        <edge id="3/1to4/1" sampledSeconds="16.34" traveltime="4.90" overlapTraveltime="5.16" density="28.33" laneDensity="28.33" occupancy="13.61" waitingTime="0.00" timeLoss="0.00" speed="19.60" speedRelative="1.00" departed="0" arrived="0" entered="3" left="2" laneChangedFrom="0" laneChangedTo="0"/>
        <edge id="4/1to5/1" sampledSeconds="5.20" traveltime="4.90" overlapTraveltime="5.16" density="9.02" laneDensity="9.02" occupancy="4.29" waitingTime="0.00" timeLoss="0.00" speed="19.60" speedRelative="1.00" departed="0" arrived="0" entered="2" left="0" laneChangedFrom="0" laneChangedTo="0"/>
    </interval>
    <interval begin="18.00" end="24.00" id="dump_6">
        <edge id="1/1to2/1" sampledSeconds="27.09" traveltime="9.00" overlapTraveltime="9.29" density="46.97" laneDensity="46.97" occupancy="22.86" waitingTime="0.50" timeLoss="12.04" speed="10.89" speedRelative="0.56" departed="0" arrived="0" entered="0" left="3" laneChangedFrom="0" laneChangedTo="0"/>
        <edge id="2/1to3/1" sampledSeconds="19.74" traveltime="5.11" overlapTraveltime="5.36" density="34.22" laneDensity="34.22" occupancy="16.29" waitingTime="0.00" timeLoss="0.75" speed="18.86" speedRelative="0.96" departed="0" arrived="0" entered="3" left="3" laneChangedFrom="0" laneChangedTo="0"/>
        <edge id="3/1to4/1" sampledSeconds="19.32" traveltime="4.90" overlapTraveltime="5.16" density="33.50" laneDensity="33.50" occupancy="15.86" waitingTime="0.00" timeLoss="0.00" speed="19.60" speedRelative="1.00" departed="0" arrived="0" entered="4" left="4" laneChangedFrom="0" laneChangedTo="0"/>
        <edge id="4/1to5/1" sampledSeconds="17.60" traveltime="4.90" overlapTraveltime="5.16" density="30.51" laneDensity="30.51" occupancy="14.48" waitingTime="0.00" timeLoss="0.00" speed="19.60" speedRelative="1.00" departed="0" arrived="0" entered="4" left="3" laneChangedFrom="0" laneChangedTo="0"/>
        <edge id="5/1to6/1" sampledSeconds="7.70" traveltime="4.90" overlapTraveltime="5.16" density="13.34" laneDensity="13.34" occupancy="6.34" waitingTime="0.00" timeLoss="0.00" speed="19.60" speedRelative="1.00" departed="0" arrived="0" entered="3" left="0" laneChangedFrom="0" laneChangedTo="0"/>
    </interval>
    <interval begin="24.00" end="30.00" id="dump_6">
        <edge id="1/1to2/1" sampledSeconds="37.25" traveltime="39.27" overlapTraveltime="35.88" density="64.59" laneDensity="64.59" occupancy="30.97" waitingTime="28.40" timeLoss="31.90" speed="2.82" speedRelative="0.14" departed="14" arrived="0" entered="0" left="4" laneChangedFrom="0" laneChangedTo="0"/>
        <edge id="2/1to3/1" sampledSeconds="19.46" traveltime="5.12" overlapTraveltime="5.38" density="33.73" laneDensity="33.73" occupancy="15.64" waitingTime="0.00" timeLoss="0.78" speed="18.81" speedRelative="0.96" departed="0" arrived="0" entered="4" left="4" laneChangedFrom="0" laneChangedTo="0"/>
        <edge id="3/1to4/1" sampledSeconds="19.38" traveltime="4.90" overlapTraveltime="5.16" density="33.60" laneDensity="33.60" occupancy="15.92" waitingTime="0.00" timeLoss="0.00" speed="19.60" speedRelative="1.00" departed="0" arrived="0" entered="4" left="4" laneChangedFrom="0" laneChangedTo="0"/>
        <edge id="4/1to5/1" sampledSeconds="19.34" traveltime="4.90" overlapTraveltime="5.16" density="33.53" laneDensity="33.53" occupancy="15.88" waitingTime="0.00" timeLoss="0.00" speed="19.60" speedRelative="1.00" departed="0" arrived="0" entered="4" left="4" laneChangedFrom="0" laneChangedTo="0"/>
        <edge id="5/1to6/1" sampledSeconds="18.09" traveltime="4.90" overlapTraveltime="5.16" density="31.36" laneDensity="31.36" occupancy="14.91" waitingTime="0.00" timeLoss="0.00" speed="19.60" speedRelative="1.00" departed="0" arrived="0" entered="4" left="4" laneChangedFrom="0" laneChangedTo="0"/>
        <edge id="6/1to7/1" sampledSeconds="9.90" traveltime="4.90" overlapTraveltime="5.16" density="17.16" laneDensity="17.16" occupancy="8.14" waitingTime="0.00" timeLoss="0.00" speed="19.60" speedRelative="1.00" departed="0" arrived="0" entered="3" left="1" laneChangedFrom="0" laneChangedTo="0"/>
        <edge id="7/1to8/1" sampledSeconds="0.72" traveltime="4.90" overlapTraveltime="5.16" density="1.25" laneDensity="1.25" occupancy="0.51" waitingTime="0.00" timeLoss="0.00" speed="19.60" speedRelative="1.00" departed="0" arrived="0" entered="1" left="0" laneChangedFrom="0" laneChangedTo="0"/>
    </interval>
    <interval begin="30.00" end="36.00" id="dump_6">
        <edge id="1/1to2/1" sampledSeconds="71.66" traveltime="103.11" overlapTraveltime="90.34" density="124.25" laneDensity="124.25" occupancy="60.09" waitingTime="54.60" timeLoss="67.57" speed="1.12" speedRelative="0.06" departed="0" arrived="0" entered="0" left="3" laneChangedFrom="0" laneChangedTo="0"/>
        <edge id="2/1to3/1" sampledSeconds="16.67" traveltime="6.66" overlapTraveltime="6.93" density="28.91" laneDensity="28.91" occupancy="13.54" waitingTime="0.00" timeLoss="4.26" speed="14.60" speedRelative="0.74" departed="0" arrived="0" entered="3" left="2" laneChangedFrom="0" laneChangedTo="0"/>
        <edge id="3/1to4/1" sampledSeconds="17.20" traveltime="4.90" overlapTraveltime="5.16" density="29.82" laneDensity="29.82" occupancy="14.32" waitingTime="0.00" timeLoss="0.00" speed="19.60" speedRelative="1.00" departed="0" arrived="0" entered="2" left="4" laneChangedFrom="0" laneChangedTo="0"/>
        <edge id="4/1to5/1" sampledSeconds="19.04" traveltime="4.90" overlapTraveltime="5.16" density="33.02" laneDensity="33.02" occupancy="15.84" waitingTime="0.00" timeLoss="0.00" speed="19.60" speedRelative="1.00" departed="0" arrived="0" entered="3" left="3" laneChangedFrom="0" laneChangedTo="0"/>
        <edge id="5/1to6/1" sampledSeconds="19.18" traveltime="4.90" overlapTraveltime="5.16" density="33.25" laneDensity="33.25" occupancy="15.85" waitingTime="0.00" timeLoss="0.00" speed="19.60" speedRelative="1.00" departed="0" arrived="0" entered="3" left="3" laneChangedFrom="0" laneChangedTo="0"/>
        <edge id="6/1to7/1" sampledSeconds="18.87" traveltime="4.90" overlapTraveltime="5.16" density="32.72" laneDensity="32.72" occupancy="15.59" waitingTime="0.00" timeLoss="0.00" speed="19.60" speedRelative="1.00" departed="0" arrived="0" entered="4" left="3" laneChangedFrom="0" laneChangedTo="0"/>
        <edge id="7/1to8/1" sampledSeconds="11.93" traveltime="4.90" overlapTraveltime="5.16" density="20.68" laneDensity="20.68" occupancy="9.90" waitingTime="0.00" timeLoss="0.00" speed="19.60" speedRelative="1.00" departed="0" arrived="0" entered="3" left="1" laneChangedFrom="0" laneChangedTo="0"/>
        <edge id="8/1to9/1" sampledSeconds="1.66" traveltime="4.90" overlapTraveltime="5.16" density="2.88" laneDensity="2.88" occupancy="1.33" waitingTime="0.00" timeLoss="0.00" speed="19.60" speedRelative="1.00" departed="0" arrived="0" entered="1" left="0" laneChangedFrom="0" laneChangedTo="0"/>
    </interval>
    <interval begin="36.00" end="42.00" id="dump_6">
        <edge id="1/1to2/1" sampledSeconds="52.01" traveltime="27.83" overlapTraveltime="27.56" density="90.18" laneDensity="90.18" occupancy="43.30" waitingTime="25.00" timeLoss="42.28" speed="3.67" speedRelative="0.19" departed="0" arrived="0" entered="0" left="3" laneChangedFrom="0" laneChangedTo="0"/>
        <edge id="2/1to3/1" sampledSeconds="21.23" traveltime="5.57" overlapTraveltime="5.82" density="36.80" laneDensity="36.80" occupancy="17.49" waitingTime="0.00" timeLoss="2.41" speed="17.38" speedRelative="0.89" departed="0" arrived="0" entered="3" left="4" laneChangedFrom="0" laneChangedTo="0"/>
        <edge id="3/1to4/1" sampledSeconds="13.21" traveltime="4.90" overlapTraveltime="5.16" density="22.90" laneDensity="22.90" occupancy="10.71" waitingTime="0.00" timeLoss="0.00" speed="19.60" speedRelative="1.00" departed="0" arrived="0" entered="4" left="2" laneChangedFrom="0" laneChangedTo="0"/>
        <edge id="4/1to5/1" sampledSeconds="15.73" traveltime="4.90" overlapTraveltime="5.16" density="27.28" laneDensity="27.28" occupancy="12.87" waitingTime="0.00" timeLoss="0.00" speed="19.60" speedRelative="1.00" departed="0" arrived="0" entered="3" left="4" laneChangedFrom="0" laneChangedTo="0"/>
        <edge id="5/1to6/1" sampledSeconds="19.39" traveltime="4.90" overlapTraveltime="5.16" density="33.62" laneDensity="33.62" occupancy="15.92" waitingTime="0.00" timeLoss="0.00" speed="19.60" speedRelative="1.00" departed="0" arrived="0" entered="4" left="4" laneChangedFrom="0" laneChangedTo="0"/>
        <edge id="6/1to7/1" sampledSeconds="19.36" traveltime="4.90" overlapTraveltime="5.16" density="33.56" laneDensity="33.56" occupancy="15.89" waitingTime="0.00" timeLoss="0.00" speed="19.60" speedRelative="1.00" departed="0" arrived="0" entered="4" left="4" laneChangedFrom="0" laneChangedTo="0"/>
        <edge id="7/1to8/1" sampledSeconds="19.28" traveltime="4.90" overlapTraveltime="5.16" density="33.42" laneDensity="33.42" occupancy="15.83" waitingTime="0.00" timeLoss="0.00" speed="19.60" speedRelative="1.00" departed="0" arrived="0" entered="4" left="4" laneChangedFrom="0" laneChangedTo="0"/>
        <edge id="8/1to9/1" sampledSeconds="14.01" traveltime="4.90" overlapTraveltime="5.16" density="24.28" laneDensity="24.28" occupancy="11.55" waitingTime="0.00" timeLoss="0.00" speed="19.60" speedRelative="1.00" departed="0" arrived="0" entered="4" left="2" laneChangedFrom="0" laneChangedTo="0"/>
        <edge id="9/1to10/1" sampledSeconds="2.60" traveltime="4.90" overlapTraveltime="5.16" density="4.51" laneDensity="4.51" occupancy="2.14" waitingTime="0.00" timeLoss="0.00" speed="19.60" speedRelative="1.00" departed="0" arrived="0" entered="2" left="0" laneChangedFrom="0" laneChangedTo="0"/>
    </interval>
    <interval begin="42.00" end="48.00" id="dump_6">
        <edge id="1/1to2/1" sampledSeconds="30.97" traveltime="10.39" overlapTraveltime="10.60" density="53.70" laneDensity="53.70" occupancy="25.87" waitingTime="1.80" timeLoss="15.90" speed="9.54" speedRelative="0.49" departed="0" arrived="0" entered="0" left="4" laneChangedFrom="0" laneChangedTo="0"/>
        <edge id="10/1to1/1" sampledSeconds="3.97" traveltime="7.52" overlapTraveltime="7.92" density="6.89" laneDensity="6.89" occupancy="3.16" waitingTime="0.00" timeLoss="1.38" speed="12.78" speedRelative="0.65" departed="0" arrived="0" entered="2" left="0" laneChangedFrom="0" laneChangedTo="0"/>
        <edge id="2/1to3/1" sampledSeconds="20.11" traveltime="5.16" overlapTraveltime="5.41" density="34.87" laneDensity="34.87" occupancy="16.54" waitingTime="0.00" timeLoss="0.95" speed="18.68" speedRelative="0.95" departed="0" arrived="0" entered="4" left="4" laneChangedFrom="0" laneChangedTo="0"/>
        <edge id="3/1to4/1" sampledSeconds="18.95" traveltime="4.90" overlapTraveltime="5.16" density="32.86" laneDensity="32.86" occupancy="15.76" waitingTime="0.00" timeLoss="0.00" speed="19.60" speedRelative="1.00" departed="0" arrived="0" entered="4" left="3" laneChangedFrom="0" laneChangedTo="0"/>
        <edge id="4/1to5/1" sampledSeconds="14.68" traveltime="4.90" overlapTraveltime="5.16" density="25.44" laneDensity="25.44" occupancy="12.17" waitingTime="0.00" timeLoss="0.00" speed="19.60" speedRelative="1.00" departed="0" arrived="0" entered="3" left="2" laneChangedFrom="0" laneChangedTo="0"/>
        <edge id="5/1to6/1" sampledSeconds="14.29" traveltime="4.90" overlapTraveltime="5.16" density="24.77" laneDensity="24.77" occupancy="11.72" waitingTime="0.00" timeLoss="0.00" speed="19.60" speedRelative="1.00" departed="0" arrived="0" entered="2" left="4" laneChangedFrom="0" laneChangedTo="0"/>
        <edge id="6/1to7/1" sampledSeconds="19.31" traveltime="4.90" overlapTraveltime="5.16" density="33.47" laneDensity="33.47" occupancy="15.91" waitingTime="0.00" timeLoss="0.00" speed="19.60" speedRelative="1.00" departed="0" arrived="0" entered="4" left="4" laneChangedFrom="0" laneChangedTo="0"/>
        <edge id="7/1to8/1" sampledSeconds="19.04" traveltime="4.90" overlapTraveltime="5.16" density="33.01" laneDensity="33.01" occupancy="15.83" waitingTime="0.00" timeLoss="0.00" speed="19.60" speedRelative="1.00" departed="0" arrived="0" entered="4" left="3" laneChangedFrom="0" laneChangedTo="0"/>
        <edge id="8/1to9/1" sampledSeconds="19.12" traveltime="4.92" overlapTraveltime="5.18" density="33.14" laneDensity="33.14" occupancy="15.83" waitingTime="0.00" timeLoss="0.09" speed="19.51" speedRelative="1.00" departed="0" arrived="0" entered="3" left="3" laneChangedFrom="0" laneChangedTo="0"/>
        <edge id="9/1to10/1" sampledSeconds="16.51" traveltime="5.36" overlapTraveltime="5.67" density="28.62" laneDensity="28.62" occupancy="13.59" waitingTime="0.00" timeLoss="1.48" speed="17.85" speedRelative="0.91" departed="0" arrived="0" entered="3" left="2" laneChangedFrom="0" laneChangedTo="0"/>
    </interval>
    <interval begin="48.00" end="54.00" id="dump_6">
        <edge id="1/1to2/1" sampledSeconds="11.76" traveltime="5.73" overlapTraveltime="5.99" density="20.39" laneDensity="20.39" occupancy="9.61" waitingTime="0.00" timeLoss="1.63" speed="16.89" speedRelative="0.86" departed="0" arrived="0" entered="2" left="3" laneChangedFrom="0" laneChangedTo="0"/>
        <edge id="10/1to1/1" sampledSeconds="17.23" traveltime="5.93" overlapTraveltime="6.20" density="29.88" laneDensity="29.88" occupancy="14.28" waitingTime="0.00" timeLoss="2.89" speed="16.31" speedRelative="0.83" departed="0" arrived="0" entered="3" left="2" laneChangedFrom="0" laneChangedTo="0"/>
        <edge id="2/1to3/1" sampledSeconds="19.32" traveltime="4.98" overlapTraveltime="5.24" density="33.49" laneDensity="33.49" occupancy="16.00" waitingTime="0.00" timeLoss="0.28" speed="19.31" speedRelative="0.99" departed="0" arrived="0" entered="3" left="3" laneChangedFrom="0" laneChangedTo="0"/>
        <edge id="3/1to4/1" sampledSeconds="19.37" traveltime="4.90" overlapTraveltime="5.16" density="33.59" laneDensity="33.59" occupancy="15.92" waitingTime="0.00" timeLoss="0.00" speed="19.60" speedRelative="1.00" departed="0" arrived="0" entered="3" left="4" laneChangedFrom="0" laneChangedTo="0"/>
        <edge id="4/1to5/1" sampledSeconds="19.28" traveltime="4.90" overlapTraveltime="5.16" density="33.42" laneDensity="33.42" occupancy="15.83" waitingTime="0.00" timeLoss="0.00" speed="19.60" speedRelative="1.00" departed="0" arrived="0" entered="4" left="4" laneChangedFrom="0" laneChangedTo="0"/>
        <edge id="5/1to6/1" sampledSeconds="16.05" traveltime="4.90" overlapTraveltime="5.16" density="27.82" laneDensity="27.82" occupancy="13.25" waitingTime="0.00" timeLoss="0.00" speed="19.60" speedRelative="1.00" departed="0" arrived="0" entered="4" left="2" laneChangedFrom="0" laneChangedTo="0"/>
        <edge id="6/1to7/1" sampledSeconds="12.69" traveltime="4.90" overlapTraveltime="5.16" density="22.00" laneDensity="22.00" occupancy="10.39" waitingTime="0.00" timeLoss="0.00" speed="19.60" speedRelative="1.00" departed="0" arrived="0" entered="2" left="3" laneChangedFrom="0" laneChangedTo="0"/>
        <edge id="7/1to8/1" sampledSeconds="19.37" traveltime="4.90" overlapTraveltime="5.16" density="33.59" laneDensity="33.59" occupancy="15.92" waitingTime="0.00" timeLoss="0.00" speed="19.60" speedRelative="1.00" departed="0" arrived="0" entered="3" left="4" laneChangedFrom="0" laneChangedTo="0"/>
        <edge id="8/1to9/1" sampledSeconds="19.96" traveltime="5.06" overlapTraveltime="5.34" density="34.60" laneDensity="34.60" occupancy="16.37" waitingTime="0.00" timeLoss="0.67" speed="18.94" speedRelative="0.97" departed="0" arrived="0" entered="4" left="4" laneChangedFrom="0" laneChangedTo="0"/>
        <edge id="9/1to10/1" sampledSeconds="22.48" traveltime="6.04" overlapTraveltime="6.37" density="38.98" laneDensity="38.98" occupancy="18.57" waitingTime="0.00" timeLoss="4.28" speed="15.87" speedRelative="0.81" departed="0" arrived="0" entered="4" left="3" laneChangedFrom="0" laneChangedTo="0"/>
    </interval>
    <interval begin="54.00" end="60.00" id="dump_6">
        <edge id="1/1to2/1" sampledSeconds="16.68" traveltime="4.90" overlapTraveltime="5.16" density="28.92" laneDensity="28.92" occupancy="13.90" waitingTime="0.00" timeLoss="0.00" speed="19.60" speedRelative="1.00" departed="0" arrived="0" entered="4" left="2" laneChangedFrom="0" laneChangedTo="0"/>
        <edge id="10/1to1/1" sampledSeconds="21.28" traveltime="5.15" overlapTraveltime="5.41" density="36.89" laneDensity="36.89" occupancy="17.57" waitingTime="0.00" timeLoss="0.97" speed="18.70" speedRelative="0.95" departed="0" arrived="0" entered="4" left="4" laneChangedFrom="0" laneChangedTo="0"/>
        <edge id="2/1to3/1" sampledSeconds="10.96" traveltime="4.91" overlapTraveltime="5.16" density="19.01" laneDensity="19.01" occupancy="8.95" waitingTime="0.00" timeLoss="0.00" speed="19.60" speedRelative="1.00" departed="0" arrived="0" entered="2" left="3" laneChangedFrom="0" laneChangedTo="0"/>
        <edge id="3/1to4/1" sampledSeconds="18.61" traveltime="4.90" overlapTraveltime="5.16" density="32.26" laneDensity="32.26" occupancy="15.36" waitingTime="0.00" timeLoss="0.00" speed="19.60" speedRelative="1.00" departed="0" arrived="0" entered="3" left="4" laneChangedFrom="0" laneChangedTo="0"/>
        <edge id="4/1to5/1" sampledSeconds="19.40" traveltime="4.90" overlapTraveltime="5.16" density="33.63" laneDensity="33.63" occupancy="15.93" waitingTime="0.00" timeLoss="0.00" speed="19.60" speedRelative="1.00" departed="0" arrived="0" entered="4" left="4" laneChangedFrom="0" laneChangedTo="0"/>
        <edge id="5/1to6/1" sampledSeconds="19.30" traveltime="4.90" overlapTraveltime="5.16" density="33.46" laneDensity="33.46" occupancy="15.89" waitingTime="0.00" timeLoss="0.00" speed="19.60" speedRelative="1.00" departed="0" arrived="0" entered="4" left="4" laneChangedFrom="0" laneChangedTo="0"/>
        <edge id="6/1to7/1" sampledSeconds="17.43" traveltime="4.90" overlapTraveltime="5.16" density="30.22" laneDensity="30.22" occupancy="14.52" waitingTime="0.00" timeLoss="0.00" speed="19.60" speedRelative="1.00" departed="0" arrived="0" entered="4" left="2" laneChangedFrom="0" laneChangedTo="0"/>
        <edge id="7/1to8/1" sampledSeconds="11.67" traveltime="4.90" overlapTraveltime="5.16" density="20.23" laneDensity="20.23" occupancy="9.56" waitingTime="0.00" timeLoss="0.00" speed="19.60" speedRelative="1.00" departed="0" arrived="0" entered="2" left="3" laneChangedFrom="0" laneChangedTo="0"/>
        <edge id="8/1to9/1" sampledSeconds="19.72" traveltime="5.12" overlapTraveltime="5.40" density="34.18" laneDensity="34.18" occupancy="16.29" waitingTime="0.00" timeLoss="0.88" speed="18.72" speedRelative="0.96" departed="0" arrived="0" entered="3" left="4" laneChangedFrom="0" laneChangedTo="0"/>
        <edge id="9/1to10/1" sampledSeconds="22.26" traveltime="5.62" overlapTraveltime="5.91" density="38.60" laneDensity="38.60" occupancy="18.37" waitingTime="0.00" timeLoss="2.83" speed="17.11" speedRelative="0.87" departed="0" arrived="0" entered="4" left="4" laneChangedFrom="0" laneChangedTo="0"/>
    </interval>
    <interval begin="60.00" end="66.00" id="dump_6">
        <edge id="1/1to2/1" sampledSeconds="20.64" traveltime="4.90" overlapTraveltime="5.16" density="35.78" laneDensity="35.78" occupancy="16.97" waitingTime="0.00" timeLoss="0.00" speed="19.60" speedRelative="1.00" departed="0" arrived="0" entered="4" left="4" laneChangedFrom="0" laneChangedTo="0"/>
        <edge id="10/1to1/1" sampledSeconds="21.05" traveltime="4.98" overlapTraveltime="5.23" density="36.50" laneDensity="36.50" occupancy="17.31" waitingTime="0.00" timeLoss="0.30" speed="19.32" speedRelative="0.99" departed="0" arrived="0" entered="4" left="4" laneChangedFrom="0" laneChangedTo="0"/>
        <edge id="2/1to3/1" sampledSeconds="18.16" traveltime="4.90" overlapTraveltime="5.16" density="31.49" laneDensity="31.49" occupancy="14.97" waitingTime="0.00" timeLoss="0.00" speed="19.60" speedRelative="1.00" departed="0" arrived="0" entered="4" left="3" laneChangedFrom="0" laneChangedTo="0"/>
        <edge id="3/1to4/1" sampledSeconds="10.96" traveltime="4.90" overlapTraveltime="5.16" density="19.00" laneDensity="19.00" occupancy="8.95" waitingTime="0.00" timeLoss="0.00" speed="19.60" speedRelative="1.00" departed="0" arrived="0" entered="3" left="2" laneChangedFrom="0" laneChangedTo="0"/>
        <edge id="4/1to5/1" sampledSeconds="17.32" traveltime="4.90" overlapTraveltime="5.16" density="30.02" laneDensity="30.02" occupancy="14.46" waitingTime="0.00" timeLoss="0.00" speed="19.60" speedRelative="1.00" departed="0" arrived="0" entered="2" left="4" laneChangedFrom="0" laneChangedTo="0"/>
        <edge id="5/1to6/1" sampledSeconds="19.11" traveltime="4.90" overlapTraveltime="5.16" density="33.13" laneDensity="33.13" occupancy="15.86" waitingTime="0.00" timeLoss="0.00" speed="19.60" speedRelative="1.00" departed="0" arrived="0" entered="3" left="3" laneChangedFrom="0" laneChangedTo="0"/>
        <edge id="6/1to7/1" sampledSeconds="19.31" traveltime="4.90" overlapTraveltime="5.16" density="33.48" laneDensity="33.48" occupancy="15.89" waitingTime="0.00" timeLoss="0.00" speed="19.60" speedRelative="1.00" departed="0" arrived="0" entered="3" left="4" laneChangedFrom="0" laneChangedTo="0"/>
        <edge id="7/1to8/1" sampledSeconds="18.66" traveltime="4.90" overlapTraveltime="5.16" density="32.35" laneDensity="32.35" occupancy="15.40" waitingTime="0.00" timeLoss="0.00" speed="19.60" speedRelative="1.00" departed="0" arrived="0" entered="4" left="3" laneChangedFrom="0" laneChangedTo="0"/>
        <edge id="8/1to9/1" sampledSeconds="12.07" traveltime="5.00" overlapTraveltime="5.27" density="20.93" laneDensity="20.93" occupancy="9.87" waitingTime="0.00" timeLoss="0.26" speed="19.19" speedRelative="0.98" departed="0" arrived="0" entered="3" left="2" laneChangedFrom="0" laneChangedTo="0"/>
        <edge id="9/1to10/1" sampledSeconds="20.07" traveltime="5.24" overlapTraveltime="5.50" density="34.80" laneDensity="34.80" occupancy="16.64" waitingTime="0.00" timeLoss="1.25" speed="18.38" speedRelative="0.94" departed="0" arrived="0" entered="2" left="4" laneChangedFrom="0" laneChangedTo="0"/>
    </interval>
    <interval begin="66.00" end="72.00" id="dump_6">
        <edge id="1/1to2/1" sampledSeconds="20.84" traveltime="4.90" overlapTraveltime="5.16" density="36.14" laneDensity="36.14" occupancy="17.16" waitingTime="0.00" timeLoss="0.00" speed="19.60" speedRelative="1.00" departed="0" arrived="0" entered="4" left="4" laneChangedFrom="0" laneChangedTo="0"/>
        <edge id="10/1to1/1" sampledSeconds="17.93" traveltime="4.91" overlapTraveltime="5.16" density="31.09" laneDensity="31.09" occupancy="14.84" waitingTime="0.00" timeLoss="0.02" speed="19.58" speedRelative="1.00" departed="0" arrived="0" entered="2" left="4" laneChangedFrom="0" laneChangedTo="0"/>
        <edge id="2/1to3/1" sampledSeconds="20.74" traveltime="4.90" overlapTraveltime="5.16" density="35.95" laneDensity="35.95" occupancy="17.09" waitingTime="0.00" timeLoss="0.00" speed="19.60" speedRelative="1.00" departed="0" arrived="0" entered="4" left="4" laneChangedFrom="0" laneChangedTo="0"/>
        <edge id="3/1to4/1" sampledSeconds="19.00" traveltime="4.90" overlapTraveltime="5.16" density="32.94" laneDensity="32.94" occupancy="15.70" waitingTime="0.00" timeLoss="0.00" speed="19.60" speedRelative="1.00" departed="0" arrived="0" entered="4" left="3" laneChangedFrom="0" laneChangedTo="0"/>
        <edge id="4/1to5/1" sampledSeconds="11.76" traveltime="4.90" overlapTraveltime="5.16" density="20.39" laneDensity="20.39" occupancy="9.53" waitingTime="0.00" timeLoss="0.00" speed="19.60" speedRelative="1.00" departed="0" arrived="0" entered="3" left="2" laneChangedFrom="0" laneChangedTo="0"/>
        <edge id="5/1to6/1" sampledSeconds="15.90" traveltime="4.90" overlapTraveltime="5.16" density="27.56" laneDensity="27.56" occupancy="13.01" waitingTime="0.00" timeLoss="0.00" speed="19.60" speedRelative="1.00" departed="0" arrived="0" entered="3" left="4" laneChangedFrom="0" laneChangedTo="0"/>
        <edge id="6/1to7/1" sampledSeconds="19.40" traveltime="4.90" overlapTraveltime="5.16" density="33.64" laneDensity="33.64" occupancy="15.94" waitingTime="0.00" timeLoss="0.00" speed="19.60" speedRelative="1.00" departed="0" arrived="0" entered="4" left="4" laneChangedFrom="0" laneChangedTo="0"/>
        <edge id="7/1to8/1" sampledSeconds="19.37" traveltime="4.90" overlapTraveltime="5.16" density="33.58" laneDensity="33.58" occupancy="15.91" waitingTime="0.00" timeLoss="0.00" speed="19.60" speedRelative="1.00" departed="0" arrived="0" entered="4" left="4" laneChangedFrom="0" laneChangedTo="0"/>
        <edge id="8/1to9/1" sampledSeconds="19.16" traveltime="4.90" overlapTraveltime="5.16" density="33.22" laneDensity="33.22" occupancy="15.74" waitingTime="0.00" timeLoss="0.00" speed="19.60" speedRelative="1.00" departed="0" arrived="0" entered="4" left="4" laneChangedFrom="0" laneChangedTo="0"/>
        <edge id="9/1to10/1" sampledSeconds="13.50" traveltime="4.93" overlapTraveltime="5.18" density="23.41" laneDensity="23.41" occupancy="11.08" waitingTime="0.00" timeLoss="0.06" speed="19.51" speedRelative="1.00" departed="0" arrived="0" entered="4" left="3" laneChangedFrom="0" laneChangedTo="0"/>
    </interval>
    <interval begin="72.00" end="78.00" id="dump_6">
        <edge id="1/1to2/1" sampledSeconds="16.78" traveltime="4.90" overlapTraveltime="5.16" density="29.09" laneDensity="29.09" occupancy="13.84" waitingTime="0.00" timeLoss="0.00" speed="19.60" speedRelative="1.00" departed="0" arrived="0" entered="2" left="4" laneChangedFrom="0" laneChangedTo="0"/>
        <edge id="10/1to1/1" sampledSeconds="14.61" traveltime="4.90" overlapTraveltime="5.16" density="25.33" laneDensity="25.33" occupancy="12.00" waitingTime="0.00" timeLoss="0.00" speed="19.60" speedRelative="1.00" departed="0" arrived="0" entered="4" left="2" laneChangedFrom="0" laneChangedTo="0"/>