<?xml version="1.0" encoding="UTF-8"?>

<!-- generated on Tue Dec  3 16:35:38 2013 by SUMO sumo Version dev-SVN-r15233
<?xml version="1.0" encoding="UTF-8"?>

<configuration xmlns:xsi="http://www.w3.org/2001/XMLSchema-instance" xsi:noNamespaceSchemaLocation="http://sumo-sim.org/xsd/sumoConfiguration.xsd">

    <input>
        <net-file value="three_split.net.xml"/>
        <route-files value="input_routes.rou.xml"/>
        <additional-files value="input_additional.add.xml,input_additional2.add.xml"/>
    </input>

    <output>
        <netstate-dump value="rawdump.xml"/>
    </output>

    <time>
        <step-length value="0.5"/>
    </time>

    <report>
        <no-duration-log value="true"/>
        <no-step-log value="true"/>
    </report>

</configuration>
-->

<netstate xmlns:xsi="http://www.w3.org/2001/XMLSchema-instance" xsi:noNamespaceSchemaLocation="http://sumo-sim.org/xsd/netstate_file.xsd">
    <timestep time="0.00">
        <edge id="beg">
            <lane id="beg_0">
                <vehicle id="leader" pos="5.10" speed="0.00"/>
            </lane>
        </edge>
    </timestep>
    <timestep time="0.50">
        <edge id="beg">
            <lane id="beg_0">
                <vehicle id="leader" pos="5.75" speed="1.30"/>
            </lane>
        </edge>
    </timestep>
    <timestep time="1.00">
        <edge id="beg">
            <lane id="beg_0">
                <vehicle id="leader" pos="7.05" speed="2.60"/>
            </lane>
        </edge>
    </timestep>
    <timestep time="1.50">
        <edge id="beg">
            <lane id="beg_0">
                <vehicle id="leader" pos="9.00" speed="3.90"/>
            </lane>
        </edge>
    </timestep>
    <timestep time="2.00">
        <edge id="beg">
            <lane id="beg_0">
                <vehicle id="follower" pos="5.10" speed="0.00"/>
                <vehicle id="leader" pos="11.60" speed="5.20"/>
            </lane>
        </edge>
    </timestep>
    <timestep time="2.50">
        <edge id="beg">
            <lane id="beg_0">
                <vehicle id="follower" pos="5.75" speed="1.30"/>
                <vehicle id="leader" pos="14.85" speed="6.50"/>
            </lane>
        </edge>
    </timestep>
    <timestep time="3.00">
        <edge id="beg">
            <lane id="beg_0">
                <vehicle id="follower" pos="7.05" speed="2.60"/>
                <vehicle id="leader" pos="18.75" speed="7.80"/>
            </lane>
        </edge>
    </timestep>
    <timestep time="3.50">
        <edge id="beg">
            <lane id="beg_0">
                <vehicle id="follower" pos="9.00" speed="3.90"/>
                <vehicle id="leader" pos="23.30" speed="9.10"/>
            </lane>
        </edge>
    </timestep>
    <timestep time="4.00">
        <edge id="beg">
            <lane id="beg_0">
                <vehicle id="follower" pos="11.60" speed="5.20"/>
                <vehicle id="leader" pos="28.50" speed="10.40"/>
            </lane>
        </edge>
    </timestep>
    <timestep time="4.50">
        <edge id="beg">
            <lane id="beg_0">
                <vehicle id="follower" pos="14.85" speed="6.50"/>
                <vehicle id="leader" pos="34.35" speed="11.70"/>
            </lane>
        </edge>
    </timestep>
    <timestep time="5.00">
        <edge id="beg">
            <lane id="beg_0">
                <vehicle id="follower" pos="18.75" speed="7.80"/>
                <vehicle id="leader" pos="40.85" speed="13.00"/>
            </lane>
        </edge>
    </timestep>
    <timestep time="5.50">
        <edge id="beg">
            <lane id="beg_0">
                <vehicle id="follower" pos="23.30" speed="9.10"/>
                <vehicle id="leader" pos="48.00" speed="14.30"/>
            </lane>
        </edge>
    </timestep>
    <timestep time="6.00">
        <edge id="beg">
            <lane id="beg_0">
                <vehicle id="follower" pos="28.50" speed="10.40"/>
                <vehicle id="leader" pos="55.80" speed="15.60"/>
            </lane>
        </edge>
    </timestep>
    <timestep time="6.50">
        <edge id="beg">
            <lane id="beg_0">
                <vehicle id="follower" pos="34.35" speed="11.70"/>
                <vehicle id="leader" pos="64.25" speed="16.90"/>
            </lane>
        </edge>
    </timestep>
    <timestep time="7.00">
        <edge id="beg">
            <lane id="beg_0">
                <vehicle id="follower" pos="40.85" speed="13.00"/>
                <vehicle id="leader" pos="73.35" speed="18.20"/>
            </lane>
        </edge>
    </timestep>
    <timestep time="7.50">
        <edge id="beg">
            <lane id="beg_0">
                <vehicle id="follower" pos="48.00" speed="14.30"/>
                <vehicle id="leader" pos="83.10" speed="19.50"/>
            </lane>
        </edge>
    </timestep>
    <timestep time="8.00">
        <edge id="beg">
            <lane id="beg_0">
                <vehicle id="follower" pos="55.80" speed="15.60"/>
                <vehicle id="leader" pos="93.10" speed="20.00"/>
            </lane>
        </edge>
    </timestep>
    <timestep time="8.50">
        <edge id="beg">
            <lane id="beg_0">
                <vehicle id="follower" pos="64.25" speed="16.90"/>
                <vehicle id="leader" pos="103.10" speed="20.00"/>
            </lane>
        </edge>
    </timestep>
    <timestep time="9.00">
        <edge id="beg">
            <lane id="beg_0">
                <vehicle id="follower" pos="73.35" speed="18.20"/>
                <vehicle id="leader" pos="113.10" speed="20.00"/>
            </lane>
        </edge>
    </timestep>
    <timestep time="9.50">
        <edge id="beg">
            <lane id="beg_0">
                <vehicle id="follower" pos="83.10" speed="19.50"/>
                <vehicle id="leader" pos="123.10" speed="20.00"/>
            </lane>
        </edge>
    </timestep>
    <timestep time="10.00">
        <edge id="beg">
            <lane id="beg_0">
                <vehicle id="follower" pos="93.50" speed="20.80"/>
                <vehicle id="leader" pos="133.10" speed="20.00"/>
            </lane>
        </edge>
    </timestep>
    <timestep time="10.50">
        <edge id="beg">
            <lane id="beg_0">
                <vehicle id="follower" pos="104.55" speed="22.10"/>
                <vehicle id="leader" pos="143.10" speed="20.00"/>
            </lane>
        </edge>
    </timestep>
    <timestep time="11.00">
        <edge id="beg">
            <lane id="beg_0">
                <vehicle id="follower" pos="116.25" speed="23.40"/>
                <vehicle id="leader" pos="153.10" speed="20.00"/>
            </lane>
        </edge>
    </timestep>
    <timestep time="11.50">
        <edge id="beg">
            <lane id="beg_0">
                <vehicle id="follower" pos="128.28" speed="24.05"/>
                <vehicle id="leader" pos="163.10" speed="20.00"/>
            </lane>
        </edge>
    </timestep>
    <timestep time="12.00">
        <edge id="beg">
            <lane id="beg_0">
                <vehicle id="follower" pos="140.13" speed="23.70"/>
                <vehicle id="leader" pos="173.10" speed="20.00"/>
            </lane>
        </edge>
    </timestep>
    <timestep time="12.50">
        <edge id="beg">
            <lane id="beg_0">
                <vehicle id="follower" pos="151.82" speed="23.38"/>
                <vehicle id="leader" pos="183.10" speed="20.00"/>
            </lane>
        </edge>
    </timestep>
    <timestep time="13.00">
        <edge id="beg">
            <lane id="beg_0">
                <vehicle id="follower" pos="163.36" speed="23.08"/>
                <vehicle id="leader" pos="193.10" speed="20.00"/>
            </lane>
        </edge>
    </timestep>
    <timestep time="13.50">
        <edge id="beg">
            <lane id="beg_0">
                <vehicle id="follower" pos="174.76" speed="22.81"/>
                <vehicle id="leader" pos="203.10" speed="20.00"/>
            </lane>
        </edge>
    </timestep>
    <timestep time="14.00">
        <edge id="beg">
            <lane id="beg_0">
                <vehicle id="follower" pos="186.03" speed="22.55"/>
                <vehicle id="leader" pos="213.10" speed="20.00"/>
            </lane>
        </edge>
    </timestep>
    <timestep time="14.50">
        <edge id="beg">
            <lane id="beg_0">
                <vehicle id="follower" pos="197.19" speed="22.32"/>
                <vehicle id="leader" pos="223.10" speed="20.00"/>
            </lane>
        </edge>
    </timestep>
    <timestep time="15.00">
        <edge id="beg">
            <lane id="beg_0">
                <vehicle id="follower" pos="208.25" speed="22.11"/>
                <vehicle id="leader" pos="233.10" speed="20.00"/>
            </lane>
        </edge>
    </timestep>
    <timestep time="15.50">
        <edge id="beg">
            <lane id="beg_0">
                <vehicle id="follower" pos="219.20" speed="21.91"/>
                <vehicle id="leader" pos="243.10" speed="20.00"/>
            </lane>
        </edge>
    </timestep>
    <timestep time="16.00">
        <edge id="beg">
            <lane id="beg_0">
                <vehicle id="follower" pos="230.07" speed="21.73"/>
                <vehicle id="leader" pos="253.10" speed="20.00"/>
            </lane>
        </edge>
    </timestep>
    <timestep time="16.50">
        <edge id="beg">
            <lane id="beg_0">
                <vehicle id="follower" pos="240.85" speed="21.57"/>
                <vehicle id="leader" pos="263.10" speed="20.00"/>
            </lane>
        </edge>
    </timestep>
    <timestep time="17.00">
        <edge id="beg">
            <lane id="beg_0">
                <vehicle id="follower" pos="251.56" speed="21.42"/>
                <vehicle id="leader" pos="273.10" speed="20.00"/>
            </lane>
        </edge>
    </timestep>
    <timestep time="17.50">
        <edge id="beg">
            <lane id="beg_0">
                <vehicle id="follower" pos="262.21" speed="21.28"/>
                <vehicle id="leader" pos="283.10" speed="20.00"/>
            </lane>
        </edge>
    </timestep>
    <timestep time="18.00">
        <edge id="beg">
            <lane id="beg_0">
                <vehicle id="follower" pos="272.79" speed="21.16"/>
                <vehicle id="leader" pos="293.10" speed="20.00"/>
            </lane>
        </edge>
    </timestep>
    <timestep time="18.50">
        <edge id="beg">
            <lane id="beg_0">
                <vehicle id="follower" pos="283.31" speed="21.05"/>
                <vehicle id="leader" pos="303.10" speed="20.00"/>
            </lane>
        </edge>
    </timestep>
    <timestep time="19.00">
        <edge id="beg">
            <lane id="beg_0">
                <vehicle id="follower" pos="293.79" speed="20.95"/>
                <vehicle id="leader" pos="313.10" speed="20.00"/>
            </lane>
        </edge>
    </timestep>
    <timestep time="19.50">
        <edge id="beg">
            <lane id="beg_0">
                <vehicle id="follower" pos="304.21" speed="20.86"/>
                <vehicle id="leader" pos="323.10" speed="20.00"/>
            </lane>
        </edge>
    </timestep>
    <timestep time="20.00">
        <edge id="beg">
            <lane id="beg_0">
                <vehicle id="follower" pos="314.60" speed="20.77"/>
                <vehicle id="leader" pos="333.10" speed="20.00"/>
            </lane>
        </edge>
    </timestep>
    <timestep time="20.50">
        <edge id="beg">
            <lane id="beg_0">
                <vehicle id="follower" pos="324.95" speed="20.70"/>
                <vehicle id="leader" pos="343.10" speed="20.00"/>
            </lane>
        </edge>
    </timestep>
    <timestep time="21.00">
        <edge id="beg">
            <lane id="beg_0">
                <vehicle id="follower" pos="335.26" speed="20.63"/>
                <vehicle id="leader" pos="353.10" speed="20.00"/>
            </lane>
        </edge>
    </timestep>
    <timestep time="21.50">
        <edge id="beg">
            <lane id="beg_0">
                <vehicle id="follower" pos="345.55" speed="20.57"/>
                <vehicle id="leader" pos="363.10" speed="20.00"/>
            </lane>
        </edge>
    </timestep>
    <timestep time="22.00">
        <edge id="beg">
            <lane id="beg_0">
                <vehicle id="follower" pos="355.80" speed="20.51"/>
                <vehicle id="leader" pos="373.10" speed="20.00"/>
            </lane>
        </edge>
    </timestep>
    <timestep time="22.50">
        <edge id="beg">
            <lane id="beg_0">
                <vehicle id="follower" pos="366.03" speed="20.46"/>
                <vehicle id="leader" pos="383.10" speed="20.00"/>
            </lane>
        </edge>
    </timestep>
    <timestep time="23.00">
        <edge id="beg">
            <lane id="beg_0">
                <vehicle id="follower" pos="376.24" speed="20.41"/>
                <vehicle id="leader" pos="393.10" speed="20.00"/>
            </lane>
        </edge>
    </timestep>
    <timestep time="23.50">
        <edge id="beg">
            <lane id="beg_0">
                <vehicle id="follower" pos="386.43" speed="20.37"/>
                <vehicle id="leader" pos="403.10" speed="20.00"/>
            </lane>
        </edge>
    </timestep>
    <timestep time="24.00">
        <edge id="beg">
            <lane id="beg_0">
                <vehicle id="follower" pos="396.59" speed="20.34"/>
                <vehicle id="leader" pos="413.10" speed="20.00"/>
            </lane>
        </edge>
    </timestep>
    <timestep time="24.50">
        <edge id="beg">
            <lane id="beg_0">
                <vehicle id="follower" pos="406.74" speed="20.30"/>
                <vehicle id="leader" pos="423.10" speed="20.00"/>
            </lane>
        </edge>
    </timestep>
    <timestep time="25.00">
        <edge id="beg">
            <lane id="beg_0">
                <vehicle id="follower" pos="416.88" speed="20.27"/>
                <vehicle id="leader" pos="433.10" speed="20.00"/>
            </lane>
        </edge>
    </timestep>
    <timestep time="25.50">
        <edge id="beg">
            <lane id="beg_0">
                <vehicle id="follower" pos="427.00" speed="20.25"/>
                <vehicle id="leader" pos="443.10" speed="20.00"/>
            </lane>
        </edge>
    </timestep>
    <timestep time="26.00">
        <edge id="beg">
            <lane id="beg_0">
                <vehicle id="follower" pos="437.11" speed="20.22"/>
                <vehicle id="leader" pos="453.10" speed="20.00"/>
            </lane>
        </edge>
    </timestep>
    <timestep time="26.50">
        <edge id="beg">
            <lane id="beg_0">
                <vehicle id="follower" pos="447.21" speed="20.20"/>
                <vehicle id="leader" pos="463.10" speed="20.00"/>
            </lane>
        </edge>
    </timestep>
    <timestep time="27.00">
        <edge id="beg">
            <lane id="beg_0">
                <vehicle id="follower" pos="457.30" speed="20.18"/>
                <vehicle id="leader" pos="473.10" speed="20.00"/>
            </lane>
        </edge>
    </timestep>
    <timestep time="27.50">
        <edge id="beg">
            <lane id="beg_0">
                <vehicle id="follower" pos="467.38" speed="20.16"/>
                <vehicle id="leader" pos="483.10" speed="20.00"/>
            </lane>
        </edge>
    </timestep>
    <timestep time="28.00">
        <edge id="beg">
            <lane id="beg_0">
                <vehicle id="follower" pos="477.46" speed="20.14"/>
                <vehicle id="leader" pos="493.10" speed="20.00"/>
            </lane>
        </edge>
    </timestep>
    <timestep time="28.50">
        <edge id="beg">
            <lane id="beg_0">
                <vehicle id="follower" pos="487.52" speed="20.13"/>
            </lane>
        </edge>
        <edge id="middle">
            <lane id="middle_0">
                <vehicle id="leader" pos="7.85" speed="20.00"/>
            </lane>
        </edge>
    </timestep>
    <timestep time="29.00">
        <edge id="middle">
            <lane id="middle_0">
                <vehicle id="follower" pos="2.33" speed="20.12"/>
                <vehicle id="leader" pos="17.85" speed="20.00"/>
            </lane>
        </edge>
    </timestep>
    <timestep time="29.50">
        <edge id="middle">
            <lane id="middle_0">
                <vehicle id="follower" pos="12.38" speed="20.11"/>
                <vehicle id="leader" pos="27.85" speed="20.00"/>
            </lane>
        </edge>
    </timestep>
    <timestep time="30.00">
        <edge id="middle">
            <lane id="middle_0">
                <vehicle id="follower" pos="22.43" speed="20.09"/>
                <vehicle id="leader" pos="37.85" speed="20.00"/>
            </lane>
        </edge>
    </timestep>
    <timestep time="30.50">
        <edge id="middle">
            <lane id="middle_0">
                <vehicle id="follower" pos="32.47" speed="20.09"/>
                <vehicle id="leader" pos="47.85" speed="20.00"/>
            </lane>
        </edge>
    </timestep>
    <timestep time="31.00">
        <edge id="middle">
            <lane id="middle_0">
                <vehicle id="follower" pos="42.51" speed="20.08"/>
                <vehicle id="leader" pos="57.85" speed="20.00"/>
            </lane>
        </edge>
    </timestep>
    <timestep time="31.50">
        <edge id="middle">
            <lane id="middle_0">
                <vehicle id="follower" pos="52.54" speed="20.07"/>
                <vehicle id="leader" pos="67.85" speed="20.00"/>
            </lane>
        </edge>
    </timestep>
    <timestep time="32.00">
        <edge id="middle">
            <lane id="middle_0">
                <vehicle id="follower" pos="62.57" speed="20.06"/>
                <vehicle id="leader" pos="77.85" speed="20.00"/>
            </lane>
        </edge>
    </timestep>
    <timestep time="32.50">
        <edge id="middle">
            <lane id="middle_0">
                <vehicle id="follower" pos="72.60" speed="20.06"/>
                <vehicle id="leader" pos="87.85" speed="20.00"/>
            </lane>
        </edge>
    </timestep>
    <timestep time="33.00">
        <edge id="middle">
            <lane id="middle_0">
                <vehicle id="follower" pos="82.63" speed="20.05"/>
                <vehicle id="leader" pos="97.85" speed="20.00"/>
            </lane>
        </edge>
    </timestep>
    <timestep time="33.50">
        <edge id="middle">
            <lane id="middle_0">
                <vehicle id="follower" pos="92.65" speed="20.04"/>
                <vehicle id="leader" pos="107.85" speed="20.00"/>
            </lane>
        </edge>
    </timestep>
    <timestep time="34.00">
        <edge id="middle">
            <lane id="middle_0">
                <vehicle id="follower" pos="102.67" speed="20.04"/>
                <vehicle id="leader" pos="117.85" speed="20.00"/>
            </lane>
        </edge>
    </timestep>
    <timestep time="34.50">
        <edge id="middle">
            <lane id="middle_0">
                <vehicle id="follower" pos="112.69" speed="20.04"/>
                <vehicle id="leader" pos="127.85" speed="20.00"/>
            </lane>
        </edge>
    </timestep>
    <timestep time="35.00">
        <edge id="middle">
            <lane id="middle_0">
                <vehicle id="follower" pos="122.70" speed="20.03"/>
                <vehicle id="leader" pos="137.85" speed="20.00"/>
            </lane>
        </edge>
    </timestep>
    <timestep time="35.50">
        <edge id="middle">
            <lane id="middle_0">
                <vehicle id="follower" pos="132.72" speed="20.03"/>
                <vehicle id="leader" pos="147.85" speed="20.00"/>
            </lane>
        </edge>
    </timestep>
    <timestep time="36.00">
        <edge id="middle">
            <lane id="middle_0">
                <vehicle id="follower" pos="142.73" speed="20.03"/>
                <vehicle id="leader" pos="157.61" speed="19.51"/>
            </lane>
        </edge>
    </timestep>
    <timestep time="36.50">
        <edge id="middle">
            <lane id="middle_0">
                <vehicle id="follower" pos="152.50" speed="19.53"/>
                <vehicle id="leader" pos="166.30" speed="17.39"/>
            </lane>
        </edge>
    </timestep>
    <timestep time="37.00">
        <edge id="middle">
            <lane id="middle_0">
                <vehicle id="follower" pos="161.21" speed="17.41"/>
                <vehicle id="leader" pos="173.94" speed="15.28"/>
            </lane>
        </edge>
    </timestep>
    <timestep time="37.50">
        <edge id="middle">
            <lane id="middle_0">
                <vehicle id="follower" pos="168.86" speed="15.31"/>
                <vehicle id="leader" pos="180.54" speed="13.20"/>
            </lane>
        </edge>
    </timestep>
    <timestep time="38.00">
        <edge id="middle">
            <lane id="middle_0">
                <vehicle id="follower" pos="175.47" speed="13.22"/>
                <vehicle id="leader" pos="186.11" speed="11.14"/>
            </lane>
        </edge>
    </timestep>
    <timestep time="38.50">
        <edge id="middle">
            <lane id="middle_0">
                <vehicle id="follower" pos="181.05" speed="11.16"/>
                <vehicle id="leader" pos="190.67" speed="9.11"/>
            </lane>
        </edge>
    </timestep>
    <timestep time="39.00">
        <edge id="middle">
            <lane id="middle_0">
                <vehicle id="follower" pos="185.62" speed="9.14"/>
                <vehicle id="leader" pos="194.24" speed="7.14"/>
            </lane>
        </edge>
    </timestep>
    <timestep time="39.50">
        <edge id="middle">
            <lane id="middle_0">
                <vehicle id="follower" pos="189.20" speed="7.16"/>
                <vehicle id="leader" pos="196.86" speed="5.23"/>
            </lane>
        </edge>
    </timestep>
    <timestep time="40.00">
        <edge id="middle">
            <lane id="middle_0">
                <vehicle id="follower" pos="191.83" speed="5.26"/>
                <vehicle id="leader" pos="198.58" speed="3.45"/>
            </lane>
        </edge>
    </timestep>
    <timestep time="40.50">
        <edge id="middle">
            <lane id="middle_0">
                <vehicle id="follower" pos="193.56" speed="3.47"/>
                <vehicle id="leader" pos="199.51" speed="1.87"/>
            </lane>
        </edge>
    </timestep>
    <timestep time="41.00">
        <edge id="middle">
            <lane id="middle_0">
                <vehicle id="follower" pos="194.51" speed="1.88"/>
                <vehicle id="leader" pos="199.85" speed="0.67"/>
            </lane>
        </edge>
    </timestep>
    <timestep time="41.50">
        <edge id="middle">
            <lane id="middle_0">
                <vehicle id="follower" pos="194.85" speed="0.68"/>
                <vehicle id="leader" pos="199.85" speed="0.00"/>
            </lane>
        </edge>
    </timestep>
    <timestep time="42.00">
        <edge id="middle">
            <lane id="middle_0">
                <vehicle id="follower" pos="194.85" speed="0.00"/>
                <vehicle id="leader" pos="199.85" speed="0.00"/>
            </lane>
        </edge>
    </timestep>
    <timestep time="42.50">
        <edge id="middle">
            <lane id="middle_0">
                <vehicle id="follower" pos="194.85" speed="0.00"/>
                <vehicle id="leader" pos="199.85" speed="0.00"/>
            </lane>
        </edge>
    </timestep>
    <timestep time="43.00">
        <edge id="middle">
            <lane id="middle_0">
                <vehicle id="follower" pos="194.85" speed="0.00"/>
                <vehicle id="leader" pos="199.85" speed="0.00"/>
            </lane>
        </edge>
    </timestep>
    <timestep time="43.50">
        <edge id="middle">
            <lane id="middle_0">
                <vehicle id="follower" pos="194.85" speed="0.00"/>
                <vehicle id="leader" pos="199.85" speed="0.00"/>
            </lane>
        </edge>
    </timestep>
    <timestep time="44.00">
        <edge id="middle">
            <lane id="middle_0">
                <vehicle id="follower" pos="194.85" speed="0.00"/>
                <vehicle id="leader" pos="199.85" speed="0.00"/>
            </lane>
        </edge>
    </timestep>
    <timestep time="44.50">
        <edge id="middle">
            <lane id="middle_0">
                <vehicle id="follower" pos="194.85" speed="0.00"/>
                <vehicle id="leader" pos="199.85" speed="0.00"/>
            </lane>
        </edge>
    </timestep>
    <timestep time="45.00">
        <edge id="middle">
            <lane id="middle_0">
                <vehicle id="follower" pos="194.85" speed="0.00"/>
                <vehicle id="leader" pos="199.85" speed="0.00"/>
            </lane>
        </edge>
    </timestep>
    <timestep time="45.50">
        <edge id="middle">
            <lane id="middle_0">
                <vehicle id="follower" pos="194.85" speed="0.00"/>
                <vehicle id="leader" pos="199.85" speed="0.00"/>
            </lane>
        </edge>
    </timestep>
    <timestep time="46.00">
        <edge id="middle">
            <lane id="middle_0">
                <vehicle id="follower" pos="194.85" speed="0.00"/>
                <vehicle id="leader" pos="199.85" speed="0.00"/>
            </lane>
        </edge>
    </timestep>
    <timestep time="46.50">
        <edge id="middle">
            <lane id="middle_0">
                <vehicle id="follower" pos="194.85" speed="0.00"/>
                <vehicle id="leader" pos="199.99" speed="0.28"/>
            </lane>
        </edge>
    </timestep>
    <timestep time="47.00">
        <edge id="middle">
            <lane id="middle_0">
                <vehicle id="follower" pos="194.99" speed="0.29"/>
                <vehicle id="leader" pos="200.78" speed="1.58"/>
            </lane>
        </edge>
    </timestep>
    <timestep time="47.50">
        <edge id="middle">
            <lane id="middle_0">
                <vehicle id="follower" pos="195.78" speed="1.58"/>
                <vehicle id="leader" pos="202.22" speed="2.88"/>
            </lane>
        </edge>
    </timestep>
    <timestep time="48.00">
        <edge id="middle">
            <lane id="middle_0">
                <vehicle id="follower" pos="197.22" speed="2.88"/>
                <vehicle id="leader" pos="204.32" speed="4.18"/>
            </lane>
        </edge>
    </timestep>
    <timestep time="48.50">
        <edge id="middle">
            <lane id="middle_0">
                <vehicle id="follower" pos="199.32" speed="4.18"/>
                <vehicle id="leader" pos="207.06" speed="5.48"/>
            </lane>
        </edge>
    </timestep>
    <timestep time="49.00">
        <edge id="middle">
            <lane id="middle_0">
                <vehicle id="follower" pos="202.06" speed="5.48"/>
                <vehicle id="leader" pos="210.45" speed="6.78"/>
            </lane>
        </edge>
    </timestep>
    <timestep time="49.50">
        <edge id="middle">
            <lane id="middle_0">
                <vehicle id="follower" pos="205.45" speed="6.78"/>
                <vehicle id="leader" pos="214.49" speed="8.08"/>
            </lane>
        </edge>
    </timestep>
    <timestep time="50.00">
        <edge id="middle">
            <lane id="middle_0">
                <vehicle id="follower" pos="209.49" speed="8.08"/>
                <vehicle id="leader" pos="219.18" speed="9.38"/>
            </lane>
        </edge>
    </timestep>
    <timestep time="50.50">
        <edge id="middle">
            <lane id="middle_0">
                <vehicle id="follower" pos="214.18" speed="9.38"/>
                <vehicle id="leader" pos="224.52" speed="10.68"/>
            </lane>
        </edge>
    </timestep>
    <timestep time="51.00">
        <edge id="middle">
            <lane id="middle_0">
                <vehicle id="follower" pos="219.52" speed="10.68"/>
                <vehicle id="leader" pos="230.51" speed="11.98"/>
            </lane>
        </edge>
    </timestep>
    <timestep time="51.50">
        <edge id="middle">
            <lane id="middle_0">
                <vehicle id="follower" pos="225.51" speed="11.98"/>
                <vehicle id="leader" pos="237.16" speed="13.28"/>
            </lane>
        </edge>
    </timestep>
    <timestep time="52.00">
        <edge id="middle">
            <lane id="middle_0">
                <vehicle id="follower" pos="232.16" speed="13.28"/>
                <vehicle id="leader" pos="244.45" speed="14.58"/>
            </lane>
        </edge>
    </timestep>
    <timestep time="52.50">
        <edge id="middle">
            <lane id="middle_0">
                <vehicle id="follower" pos="239.45" speed="14.58"/>
                <vehicle id="leader" pos="252.39" speed="15.88"/>
            </lane>
        </edge>
    </timestep>
    <timestep time="53.00">
        <edge id="middle">
            <lane id="middle_0">
                <vehicle id="follower" pos="247.39" speed="15.88"/>
                <vehicle id="leader" pos="260.98" speed="17.18"/>
            </lane>
        </edge>
    </timestep>
    <timestep time="53.50">
        <edge id="middle">
            <lane id="middle_0">
                <vehicle id="follower" pos="255.98" speed="17.18"/>
                <vehicle id="leader" pos="270.22" speed="18.48"/>
            </lane>
        </edge>
    </timestep>
    <timestep time="54.00">
        <edge id="middle">
            <lane id="middle_0">
                <vehicle id="follower" pos="265.22" speed="18.48"/>