<?xml version="1.0" encoding="UTF-8"?>

<!-- generated on 2024-09-24 09:36:24 by Eclipse SUMO sumo Version v1_20_0+2123-4432ee5f842
<sumoConfiguration xmlns:xsi="http://www.w3.org/2001/XMLSchema-instance" xsi:noNamespaceSchemaLocation="http://sumo.dlr.de/xsd/sumoConfiguration.xsd">

    <input>
        <net-file value="input_net.net.xml"/>
        <route-files value="input_routes.rou.xml"/>
    </input>

    <output>
        <vehroute-output value="vehroutes.xml"/>
        <save-state.times value="500"/>
        <save-state.files value="state.xml"/>
    </output>

    <routing>
        <device.rerouting.probability value="0.5"/>
        <device.rerouting.period value="50"/>
    </routing>

    <report>
        <duration-log.disable value="true"/>
        <no-step-log value="true"/>
    </report>

</sumoConfiguration>
-->

<routes xmlns:xsi="http://www.w3.org/2001/XMLSchema-instance" xsi:noNamespaceSchemaLocation="http://sumo.dlr.de/xsd/routes_file.xsd">
    <vehicle id="v.0" depart="0.00" departSpeed="13.89" speedFactor="1.0600" arrival="121.00">
        <route edges="A0A1 A1A2 A2A3 A3B3 B3C3 C3D3 D3E3 E3E4"/>
    </vehicle>

    <vehicle id="v.1" depart="2.00" departSpeed="13.033" speedFactor="0.9383" arrival="138.00">
        <route edges="A0A1 A1A2 A2A3 A3B3 B3C3 C3D3 D3E3 E3E4"/>
    </vehicle>

    <vehicle id="v.2" depart="4.00" departSpeed="13.4664" speedFactor="1.0104" arrival="141.00">
        <route edges="A0A1 A1A2 A2A3 A3B3 B3C3 C3D3 D3E3 E3E4"/>
    </vehicle>

    <vehicle id="v.3" depart="6.00" departSpeed="13.3131" speedFactor="1.0827" arrival="142.00">
        <route edges="A0A1 A1A2 A2A3 A3B3 B3C3 C3D3 D3E3 E3E4"/>
    </vehicle>

    <vehicle id="v.4" depart="8.00" departSpeed="13.3506" speedFactor="1.0303" arrival="145.00">
        <route edges="A0A1 A1A2 A2A3 A3B3 B3C3 C3D3 D3E3 E3E4"/>
    </vehicle>

    <vehicle id="v.5" depart="10.00" departSpeed="11.5426" speedFactor="0.8310" arrival="159.00">
        <route edges="A0A1 A1A2 A2A3 A3B3 B3C3 C3D3 D3E3 E3E4"/>
    </vehicle>

    <vehicle id="v.6" depart="13.00" departSpeed="12.9321" speedFactor="1.0458" arrival="161.00">
        <route edges="A0A1 A1A2 A2A3 A3B3 B3C3 C3D3 D3E3 E3E4"/>
    </vehicle>

    <vehicle id="v.7" depart="15.00" departSpeed="12.3065" speedFactor="0.8860" arrival="165.00">
        <route edges="A0A1 A1A2 A2A3 A3B3 B3C3 C3D3 D3E3 E3E4"/>
    </vehicle>

    <vehicle id="v.8" depart="17.00" departSpeed="12.3364" speedFactor="0.9379" arrival="166.00">
        <route edges="A0A1 A1A2 A2A3 A3B3 B3C3 C3D3 D3E3 E3E4"/>
    </vehicle>

    <vehicle id="v.9" depart="19.00" departSpeed="11.9023" speedFactor="0.8569" arrival="170.00">
        <route edges="A0A1 A1A2 A2A3 A3B3 B3C3 C3D3 D3E3 E3E4"/>
    </vehicle>

    <vehicle id="v.10" depart="21.00" departSpeed="11.4548" speedFactor="1.0907" arrival="171.00">
        <route edges="A0A1 A1A2 A2A3 A3B3 B3C3 C3D3 D3E3 E3E4"/>
    </vehicle>

    <vehicle id="v.11" depart="23.00" departSpeed="11.4917" speedFactor="1.0263" arrival="173.00">
        <route edges="A0A1 A1A2 A2A3 A3B3 B3C3 C3D3 D3E3 E3E4"/>
    </vehicle>

    <vehicle id="v.12" depart="25.00" departSpeed="11.1177" speedFactor="1.0471" arrival="175.00">
        <route edges="A0A1 A1A2 A2A3 A3B3 B3C3 C3D3 D3E3 E3E4"/>
    </vehicle>

    <vehicle id="v.21" depart="43.00" departSpeed="11.6976" speedFactor="1.0102" arrival="178.00">
        <route edges="A0A1 A1B1 B1B2 B2B3 B3C3 C3D3 D3E3 E3E4"/>
    </vehicle>

    <vehicle id="v.28" depart="57.00" departSpeed="11.481" speedFactor="1.1318" arrival="180.00">
        <route edges="A0A1 A1B1 B1B2 B2B3 B3C3 C3D3 D3E3 E3E4"/>
    </vehicle>

    <vehicle id="v.30" depart="61.00" departSpeed="11.2311" speedFactor="1.1786" arrival="182.00">
        <route edges="A0A1 A1B1 B1B2 B2B3 B3C3 C3D3 D3E3 E3E4"/>
    </vehicle>

    <vehicle id="v.31" depart="63.00" departSpeed="11.1978" speedFactor="1.1544" arrival="185.00">
        <route edges="A0A1 A1B1 B1B2 B2B3 B3C3 C3D3 D3E3 E3E4"/>
    </vehicle>

    <vehicle id="v.32" depart="65.00" departSpeed="11.001" speedFactor="1.0052" arrival="192.00">
        <route edges="A0A1 A1B1 B1B2 B2B3 B3C3 C3D3 D3E3 E3E4"/>
    </vehicle>

    <vehicle id="v.33" depart="67.00" departSpeed="11.3977" speedFactor="1.1718" arrival="194.00">
        <route edges="A0A1 A1B1 B1B2 B2B3 B3C3 C3D3 D3E3 E3E4"/>
    </vehicle>

    <vehicle id="v.35" depart="71.00" departSpeed="11.5555" speedFactor="1.0197" arrival="203.00">
        <routeDistribution>
            <route replacedOnEdge="B1B2" replacedOnIndex="2" reason="device.rerouting" replacedAtTime="121.00" probability="0" edges="A0A1 A1B1 B1B2 B2B3 B3C3 C3D3 D3E3 E3E4"/>
            <route edges="A0A1 A1B1 B1B2 B2C2 C2D2 D2E2 E2E3 E3E4"/>
        </routeDistribution>
    </vehicle>

    <vehicle id="v.34" depart="69.00" departSpeed="11.5255" speedFactor="0.9948" arrival="207.00">
        <route edges="A0A1 A1B1 B1B2 B2B3 B3C3 C3D3 D3E3 E3E4"/>
    </vehicle>

    <vehicle id="v.37" depart="75.00" departSpeed="11.4511" speedFactor="1.1797" arrival="208.00">
        <route edges="A0A1 A1B1 B1B2 B2B3 B3C3 C3D3 D3E3 E3E4"/>
    </vehicle>

    <vehicle id="v.38" depart="77.00" departSpeed="11.2798" speedFactor="1.1023" arrival="210.00">
        <route edges="A0A1 A1B1 B1B2 B2B3 B3C3 C3D3 D3E3 E3E4"/>
    </vehicle>

    <vehicle id="v.40" depart="81.00" departSpeed="11.7557" speedFactor="1.0304" arrival="212.00">
        <route edges="A0A1 A1B1 B1B2 B2B3 B3C3 C3D3 D3E3 E3E4"/>
    </vehicle>

    <vehicle id="v.42" depart="85.00" departSpeed="12.4781" speedFactor="1.0919" arrival="215.00">
        <route edges="A0A1 A1B1 B1B2 B2B3 B3C3 C3D3 D3E3 E3E4"/>
    </vehicle>

    <vehicle id="v.43" depart="87.00" departSpeed="12.7312" speedFactor="1.0378" arrival="219.00">
        <route edges="A0A1 A1B1 B1B2 B2B3 B3C3 C3D3 D3E3 E3E4"/>
    </vehicle>

    <vehicle id="v.44" depart="89.00" departSpeed="12.5866" speedFactor="1.0434" arrival="221.00">
        <route edges="A0A1 A1B1 B1B2 B2B3 B3C3 C3D3 D3E3 E3E4"/>
    </vehicle>

    <vehicle id="v.45" depart="91.00" departSpeed="12.7756" speedFactor="1.0880" arrival="223.00">
        <route edges="A0A1 A1B1 B1B2 B2B3 B3C3 C3D3 D3E3 E3E4"/>
    </vehicle>

    <vehicle id="v.46" depart="93.00" departSpeed="12.655" speedFactor="0.9974" arrival="227.00">
        <route edges="A0A1 A1B1 B1B2 B2B3 B3C3 C3D3 D3E3 E3E4"/>
    </vehicle>

    <vehicle id="v.51" depart="103.00" departSpeed="12.1912" speedFactor="1.1689" arrival="229.00">
        <route edges="A0A1 A1B1 B1B2 B2B3 B3C3 C3D3 D3E3 E3E4"/>
    </vehicle>

    <vehicle id="v.13" depart="27.00" departSpeed="11.1373" speedFactor="1.1229" arrival="231.00">
        <route edges="A0A1 A1A2 A2A3 A3B3 B3C3 C3D3 D3E3 E3E4"/>
    </vehicle>

    <vehicle id="v.52" depart="105.00" departSpeed="12.0453" speedFactor="1.0168" arrival="235.00">
        <route edges="A0A1 A1B1 B1B2 B2B3 B3C3 C3D3 D3E3 E3E4"/>
    </vehicle>

    <vehicle id="v.53" depart="107.00" departSpeed="11.5122" speedFactor="1.0958" arrival="236.00">
        <route edges="A0A1 A1B1 B1B2 B2B3 B3C3 C3D3 D3E3 E3E4"/>
    </vehicle>

    <vehicle id="v.54" depart="109.00" departSpeed="11.402" speedFactor="1.0032" arrival="239.00">
        <route edges="A0A1 A1B1 B1B2 B2B3 B3C3 C3D3 D3E3 E3E4"/>
    </vehicle>

    <vehicle id="v.55" depart="111.00" departSpeed="11.6464" speedFactor="0.9960" arrival="242.00">
        <routeDistribution>
            <route replacedOnEdge="B1B2" replacedOnIndex="2" reason="device.rerouting" replacedAtTime="161.00" probability="0" edges="A0A1 A1B1 B1B2 B2B3 B3C3 C3D3 D3E3 E3E4"/>
            <route edges="A0A1 A1B1 B1B2 B2C2 C2D2 D2E2 E2E3 E3E4"/>
        </routeDistribution>
    </vehicle>

    <vehicle id="v.57" depart="115.00" departSpeed="11.6758" speedFactor="1.1425" arrival="244.00">
        <route edges="A0A1 A1B1 B1B2 B2B3 B3C3 C3D3 D3E3 E3E4"/>
    </vehicle>

    <vehicle id="v.60" depart="121.00" departSpeed="11.7142" speedFactor="1.0825" arrival="247.00">
        <routeDistribution>
            <route replacedOnEdge="A0A1" reason="device.rerouting" replacedAtTime="121.00" probability="0" edges="A0A1 A1B1 B1B2 B2C2 C2C3 C3D3 D3E3 E3E4"/>
            <route replacedOnEdge="B1C1" replacedOnIndex="2" reason="device.rerouting" replacedAtTime="171.00" probability="0" edges="A0A1 A1B1 B1C1 C1C2 C2D2 D2E2 E2E3 E3E4"/>
            <route edges="A0A1 A1B1 B1C1 C1D1 D1E1 E1E2 E2E3 E3E4"/>
        </routeDistribution>
    </vehicle>

    <vehicle id="v.61" depart="123.00" departSpeed="12.3842" speedFactor="1.1193" arrival="248.00">
        <routeDistribution>
            <route replacedOnEdge="A0A1" reason="device.rerouting" replacedAtTime="123.00" probability="0" edges="A0A1 A1B1 B1B2 B2C2 C2C3 C3D3 D3E3 E3E4"/>
            <route edges="A0A1 A1B1 B1C1 C1C2 C2D2 D2E2 E2E3 E3E4"/>
        </routeDistribution>
    </vehicle>

    <vehicle id="v.62" depart="125.00" departSpeed="12.7121" speedFactor="1.0158" arrival="255.00">
        <routeDistribution>
            <route replacedOnEdge="A0A1" reason="device.rerouting" replacedAtTime="125.00" probability="0" edges="A0A1 A1B1 B1B2 B2C2 C2C3 C3D3 D3E3 E3E4"/>
            <route replacedOnEdge="B1C1" replacedOnIndex="2" reason="device.rerouting" replacedAtTime="175.00" probability="0" edges="A0A1 A1B1 B1C1 C1C2 C2D2 D2E2 E2E3 E3E4"/>
            <route edges="A0A1 A1B1 B1C1 C1D1 D1E1 E1E2 E2E3 E3E4"/>
        </routeDistribution>
    </vehicle>

    <vehicle id="v.63" depart="127.00" departSpeed="12.2479" speedFactor="0.9870" arrival="263.00">
        <routeDistribution>
            <route replacedOnEdge="A0A1" reason="device.rerouting" replacedAtTime="127.00" probability="0" edges="A0A1 A1B1 B1B2 B2B3 B3C3 C3D3 D3E3 E3E4"/>
            <route replacedOnEdge="B1C1" replacedOnIndex="2" reason="device.rerouting" replacedAtTime="177.00" probability="0" edges="A0A1 A1B1 B1C1 C1C2 C2D2 D2E2 E2E3 E3E4"/>
            <route edges="A0A1 A1B1 B1C1 C1D1 D1E1 E1E2 E2E3 E3E4"/>
        </routeDistribution>
    </vehicle>

    <vehicle id="v.64" depart="129.00" departSpeed="12.3021" speedFactor="0.9376" arrival="266.00">
        <routeDistribution>
            <route replacedOnEdge="A0A1" reason="device.rerouting" replacedAtTime="129.00" probability="0" edges="A0A1 A1A2 A2A3 A3B3 B3C3 C3D3 D3E3 E3E4"/>
            <route replacedOnEdge="B1B2" replacedOnIndex="2" reason="device.rerouting" replacedAtTime="179.00" probability="0" edges="A0A1 A1B1 B1B2 B2C2 C2C3 C3D3 D3E3 E3E4"/>
            <route edges="A0A1 A1B1 B1B2 B2C2 C2D2 D2E2 E2E3 E3E4"/>
        </routeDistribution>
    </vehicle>

    <vehicle id="v.68" depart="137.00" departSpeed="12.0665" speedFactor="1.0400" arrival="267.00">
        <routeDistribution>
            <route replacedOnEdge="A0A1" reason="device.rerouting" replacedAtTime="137.00" probability="0" edges="A0A1 A1B1 B1B2 B2C2 C2C3 C3D3 D3E3 E3E4"/>
            <route replacedOnEdge="B1C1" replacedOnIndex="2" reason="device.rerouting" replacedAtTime="187.00" probability="0" edges="A0A1 A1B1 B1C1 C1C2 C2D2 D2E2 E2E3 E3E4"/>
            <route edges="A0A1 A1B1 B1C1 C1D1 D1E1 E1E2 E2E3 E3E4"/>
        </routeDistribution>
    </vehicle>

    <vehicle id="v.70" depart="141.00" departSpeed="12.0812" speedFactor="1.0230" arrival="273.00">
        <routeDistribution>
            <route replacedOnEdge="A0A1" reason="device.rerouting" replacedAtTime="141.00" probability="0" edges="A0A1 A1B1 B1B2 B2C2 C2C3 C3D3 D3E3 E3E4"/>
            <route replacedOnEdge="B1C1" replacedOnIndex="2" reason="device.rerouting" replacedAtTime="191.00" probability="0" edges="A0A1 A1B1 B1C1 C1D1 D1D2 D2E2 E2E3 E3E4"/>
            <route edges="A0A1 A1B1 B1C1 C1D1 D1E1 E1E2 E2E3 E3E4"/>
        </routeDistribution>
    </vehicle>

    <vehicle id="v.58" depart="117.00" departSpeed="11.6342" speedFactor="1.0236" arrival="276.00">
        <route edges="A0A1 A1B1 B1B2 B2B3 B3C3 C3D3 D3E3 E3E4"/>
    </vehicle>

    <vehicle id="v.59" depart="119.00" departSpeed="11.6961" speedFactor="0.9695" arrival="279.00">
        <route edges="A0A1 A1B1 B1B2 B2B3 B3C3 C3D3 D3E3 E3E4"/>
    </vehicle>

    <vehicle id="v.14" depart="29.00" departSpeed="11.1615" speedFactor="0.9912" arrival="281.00">
        <route edges="A0A1 A1A2 A2A3 A3B3 B3C3 C3D3 D3E3 E3E4"/>
    </vehicle>

    <vehicle id="v.15" depart="31.00" departSpeed="11.6618" speedFactor="0.9268" arrival="284.00">
        <route edges="A0A1 A1A2 A2A3 A3B3 B3C3 C3D3 D3E3 E3E4"/>
    </vehicle>

    <vehicle id="v.16" depart="33.00" departSpeed="11.5027" speedFactor="0.8784" arrival="288.00">
        <route edges="A0A1 A1A2 A2A3 A3B3 B3C3 C3D3 D3E3 E3E4"/>
    </vehicle>

    <vehicle id="v.75" depart="151.00" departSpeed="12.1104" speedFactor="0.9849" arrival="290.00">
        <routeDistribution>
            <route replacedOnEdge="A0A1" reason="device.rerouting" replacedAtTime="151.00" probability="0" edges="A0A1 A1B1 B1B2 B2B3 B3C3 C3D3 D3E3 E3E4"/>
            <route replacedOnEdge="B1C1" replacedOnIndex="2" reason="device.rerouting" replacedAtTime="201.00" probability="0" edges="A0A1 A1B1 B1C1 C1C2 C2D2 D2E2 E2E3 E3E4"/>
            <route edges="A0A1 A1B1 B1C1 C1D1 D1E1 E1E2 E2E3 E3E4"/>
        </routeDistribution>
    </vehicle>

    <vehicle id="v.76" depart="153.00" departSpeed="12.2258" speedFactor="1.0325" arrival="291.00">
        <routeDistribution>
            <route replacedOnEdge="A0A1" reason="device.rerouting" replacedAtTime="153.00" probability="0" edges="A0A1 A1B1 B1B2 B2C2 C2D2 D2D3 D3E3 E3E4"/>
            <route replacedOnEdge="B1C1" replacedOnIndex="2" reason="device.rerouting" replacedAtTime="203.00" probability="0" edges="A0A1 A1B1 B1C1 C1D1 D1D2 D2E2 E2E3 E3E4"/>
            <route edges="A0A1 A1B1 B1C1 C1D1 D1E1 E1E2 E2E3 E3E4"/>
        </routeDistribution>
    </vehicle>

    <vehicle id="v.77" depart="155.00" departSpeed="12.2718" speedFactor="0.9819" arrival="295.00">
        <routeDistribution>
            <route replacedOnEdge="A0A1" reason="device.rerouting" replacedAtTime="155.00" probability="0" edges="A0A1 A1B1 B1B2 B2B3 B3C3 C3D3 D3E3 E3E4"/>
            <route replacedOnEdge="B1C1" replacedOnIndex="2" reason="device.rerouting" replacedAtTime="205.00" probability="0" edges="A0A1 A1B1 B1C1 C1C2 C2D2 D2E2 E2E3 E3E4"/>
            <route edges="A0A1 A1B1 B1C1 C1D1 D1E1 E1E2 E2E3 E3E4"/>
        </routeDistribution>
    </vehicle>

    <vehicle id="v.78" depart="157.00" departSpeed="12.2559" speedFactor="1.0073" arrival="297.00">
        <routeDistribution>
            <route replacedOnEdge="A0A1" reason="device.rerouting" replacedAtTime="157.00" probability="0" edges="A0A1 A1B1 B1C1 C1C2 C2D2 D2D3 D3E3 E3E4"/>
            <route edges="A0A1 A1B1 B1C1 C1D1 D1E1 E1E2 E2E3 E3E4"/>
        </routeDistribution>
    </vehicle>

    <vehicle id="v.79" depart="159.00" departSpeed="12.7229" speedFactor="1.0869" arrival="298.00">
        <routeDistribution>
            <route replacedOnEdge="A0A1" reason="device.rerouting" replacedAtTime="159.00" probability="0" edges="A0A1 A1B1 B1C1 C1C2 C2D2 D2D3 D3E3 E3E4"/>
            <route edges="A0A1 A1B1 B1C1 C1D1 D1E1 E1E2 E2E3 E3E4"/>
        </routeDistribution>
    </vehicle>

    <vehicle id="v.80" depart="161.00" departSpeed="12.7053" speedFactor="1.0345" arrival="302.00">
        <routeDistribution>
            <route replacedOnEdge="A0A1" reason="device.rerouting" replacedAtTime="161.00" probability="0" edges="A0A1 A1B1 B1C1 C1C2 C2D2 D2D3 D3E3 E3E4"/>
            <route edges="A0A1 A1B1 B1C1 C1D1 D1E1 E1E2 E2E3 E3E4"/>
        </routeDistribution>
    </vehicle>

    <vehicle id="v.81" depart="163.00" departSpeed="12.9147" speedFactor="0.9981" arrival="306.00">
        <routeDistribution>
            <route replacedOnEdge="A0A1" reason="device.rerouting" replacedAtTime="163.00" probability="0" edges="A0A1 A1B1 B1C1 C1C2 C2D2 D2D3 D3E3 E3E4"/>
            <route edges="A0A1 A1B1 B1C1 C1D1 D1E1 E1E2 E2E3 E3E4"/>
        </routeDistribution>
    </vehicle>

    <vehicle id="v.82" depart="165.00" departSpeed="13.0662" speedFactor="1.0169" arrival="308.00">
        <routeDistribution>
            <route replacedOnEdge="A0A1" reason="device.rerouting" replacedAtTime="165.00" probability="0" edges="A0A1 A1B1 B1C1 C1C2 C2D2 D2D3 D3E3 E3E4"/>
            <route edges="A0A1 A1B1 B1C1 C1D1 D1E1 E1E2 E2E3 E3E4"/>
        </routeDistribution>
    </vehicle>

    <vehicle id="v.84" depart="169.00" departSpeed="13.4017" speedFactor="1.1478" arrival="309.00">
        <routeDistribution>
            <route replacedOnEdge="A0A1" reason="device.rerouting" replacedAtTime="169.00" probability="0" edges="A0A1 A1B1 B1C1 C1C2 C2D2 D2D3 D3E3 E3E4"/>
            <route edges="A0A1 A1B1 B1C1 C1D1 D1E1 E1E2 E2E3 E3E4"/>
        </routeDistribution>
    </vehicle>

    <vehicle id="v.85" depart="171.00" departSpeed="13.3377" speedFactor="0.9759" arrival="316.00">
        <routeDistribution>
            <route replacedOnEdge="A0A1" reason="device.rerouting" replacedAtTime="171.00" probability="0" edges="A0A1 A1B1 B1B2 B2B3 B3C3 C3D3 D3E3 E3E4"/>
            <route replacedOnEdge="B1C1" replacedOnIndex="2" reason="device.rerouting" replacedAtTime="221.00" probability="0" edges="A0A1 A1B1 B1C1 C1C2 C2D2 D2E2 E2E3 E3E4"/>
            <route edges="A0A1 A1B1 B1C1 C1D1 D1E1 E1E2 E2E3 E3E4"/>
        </routeDistribution>
    </vehicle>

    <vehicle id="v.86" depart="173.00" departSpeed="13.1827" speedFactor="1.0017" arrival="318.00">
        <routeDistribution>
            <route replacedOnEdge="A0A1" reason="device.rerouting" replacedAtTime="173.00" probability="0" edges="A0A1 A1B1 B1C1 C1C2 C2D2 D2D3 D3E3 E3E4"/>
            <route edges="A0A1 A1B1 B1C1 C1D1 D1E1 E1E2 E2E3 E3E4"/>
        </routeDistribution>
    </vehicle>

    <vehicle id="v.87" depart="175.00" departSpeed="13.0459" speedFactor="1.0428" arrival="320.00">
        <routeDistribution>
            <route replacedOnEdge="A0A1" reason="device.rerouting" replacedAtTime="175.00" probability="0" edges="A0A1 A1B1 B1C1 C1C2 C2D2 D2D3 D3E3 E3E4"/>
            <route edges="A0A1 A1B1 B1C1 C1D1 D1E1 E1E2 E2E3 E3E4"/>
        </routeDistribution>
    </vehicle>

    <vehicle id="v.88" depart="177.00" departSpeed="13.4499" speedFactor="1.0071" arrival="323.00">
        <routeDistribution>
            <route replacedOnEdge="A0A1" reason="device.rerouting" replacedAtTime="177.00" probability="0" edges="A0A1 A1B1 B1C1 C1C2 C2D2 D2D3 D3E3 E3E4"/>
            <route edges="A0A1 A1B1 B1C1 C1D1 D1E1 E1E2 E2E3 E3E4"/>
        </routeDistribution>
    </vehicle>

    <vehicle id="v.89" depart="179.00" departSpeed="13.0572" speedFactor="1.0220" arrival="325.00">
        <routeDistribution>
            <route replacedOnEdge="A0A1" reason="device.rerouting" replacedAtTime="179.00" probability="0" edges="A0A1 A1B1 B1C1 C1C2 C2D2 D2D3 D3E3 E3E4"/>
            <route edges="A0A1 A1B1 B1C1 C1D1 D1E1 E1E2 E2E3 E3E4"/>
        </routeDistribution>
    </vehicle>

    <vehicle id="v.90" depart="181.00" departSpeed="12.9531" speedFactor="1.0167" arrival="327.00">
        <routeDistribution>
            <route replacedOnEdge="A0A1" reason="device.rerouting" replacedAtTime="181.00" probability="0" edges="A0A1 A1B1 B1C1 C1C2 C2D2 D2D3 D3E3 E3E4"/>
            <route edges="A0A1 A1B1 B1C1 C1D1 D1E1 E1E2 E2E3 E3E4"/>
        </routeDistribution>
    </vehicle>

    <vehicle id="v.94" depart="190.00" departSpeed="12.4773" speedFactor="1.0910" arrival="329.00">
        <routeDistribution>
            <route replacedOnEdge="A0A1" reason="device.rerouting" replacedAtTime="190.00" probability="0" edges="A0A1 A1B1 B1C1 C1C2 C2D2 D2E2 E2E3 E3E4"/>
            <route edges="A0A1 A1B1 B1C1 C1D1 D1E1 E1E2 E2E3 E3E4"/>
        </routeDistribution>
    </vehicle>

    <vehicle id="v.95" depart="192.00" departSpeed="12.5979" speedFactor="1.0568" arrival="332.00">
        <routeDistribution>
            <route replacedOnEdge="A0A1" reason="device.rerouting" replacedAtTime="192.00" probability="0" edges="A0A1 A1B1 B1C1 C1C2 C2D2 D2E2 E2E3 E3E4"/>
            <route edges="A0A1 A1B1 B1C1 C1D1 D1E1 E1E2 E2E3 E3E4"/>
        </routeDistribution>
    </vehicle>

    <vehicle id="v.96" depart="194.00" departSpeed="12.3469" speedFactor="1.0099" arrival="337.00">
        <routeDistribution>
            <route replacedOnEdge="A0A1" reason="device.rerouting" replacedAtTime="194.00" probability="0" edges="A0A1 A1B1 B1C1 C1C2 C2D2 D2E2 E2E3 E3E4"/>
            <route edges="A0A1 A1B1 B1C1 C1D1 D1E1 E1E2 E2E3 E3E4"/>
        </routeDistribution>
    </vehicle>

    <vehicle id="v.69" depart="139.00" departSpeed="12.089" speedFactor="1.0221" arrival="341.00">
        <routeDistribution>
            <route replacedOnEdge="A0A1" reason="device.rerouting" replacedAtTime="139.00" probability="0" edges="A0A1 A1B1 B1B2 B2C2 C2C3 C3D3 D3E3 E3E4"/>
            <route edges="A0A1 A1B1 B1C1 C1D1 D1D2 D2E2 E2E3 E3E4"/>
        </routeDistribution>
    </vehicle>

    <vehicle id="v.67" depart="135.00" departSpeed="11.8998" speedFactor="0.9146" arrival="346.00">
        <routeDistribution>
            <route replacedOnEdge="A0A1" reason="device.rerouting" replacedAtTime="135.00" probability="0" edges="A0A1 A1A2 A2A3 A3B3 B3C3 C3D3 D3E3 E3E4"/>
            <route replacedOnEdge="B1B2" replacedOnIndex="2" reason="device.rerouting" replacedAtTime="185.00" probability="0" edges="A0A1 A1B1 B1B2 B2B3 B3C3 C3D3 D3E3 E3E4"/>
            <route edges="A0A1 A1B1 B1B2 B2C2 C2D2 D2E2 E2E3 E3E4"/>
        </routeDistribution>
    </vehicle>

    <vehicle id="v.71" depart="143.00" departSpeed="11.9675" speedFactor="0.9729" arrival="348.00">
        <routeDistribution>
            <route replacedOnEdge="A0A1" reason="device.rerouting" replacedAtTime="143.00" probability="0" edges="A0A1 A1B1 B1B2 B2B3 B3C3 C3D3 D3E3 E3E4"/>
            <route edges="A0A1 A1B1 B1C1 C1C2 C2D2 D2E2 E2E3 E3E4"/>
        </routeDistribution>
    </vehicle>

    <vehicle id="v.73" depart="147.00" departSpeed="11.772" speedFactor="1.0557" arrival="349.00">
        <routeDistribution>
            <route replacedOnEdge="A0A1" reason="device.rerouting" replacedAtTime="147.00" probability="0" edges="A0A1 A1B1 B1B2 B2C2 C2C3 C3D3 D3E3 E3E4"/>
            <route edges="A0A1 A1B1 B1C1 C1D1 D1D2 D2E2 E2E3 E3E4"/>
        </routeDistribution>
    </vehicle>

    <vehicle id="v.72" depart="145.00" departSpeed="11.7743" speedFactor="0.9401" arrival="352.00">
        <routeDistribution>
            <route replacedOnEdge="A0A1" reason="device.rerouting" replacedAtTime="145.00" probability="0" edges="A0A1 A1A2 A2A3 A3B3 B3C3 C3D3 D3E3 E3E4"/>
            <route replacedOnEdge="B1B2" replacedOnIndex="2" reason="device.rerouting" replacedAtTime="195.00" probability="0" edges="A0A1 A1B1 B1B2 B2C2 C2D2 D2D3 D3E3 E3E4"/>
            <route edges="A0A1 A1B1 B1B2 B2C2 C2D2 D2E2 E2E3 E3E4"/>
        </routeDistribution>
    </vehicle>

    <vehicle id="v.74" depart="149.00" departSpeed="12.1026" speedFactor="0.9551" arrival="355.00">
        <routeDistribution>
            <route replacedOnEdge="A0A1" reason="device.rerouting" replacedAtTime="149.00" probability="0" edges="A0A1 A1B1 B1B2 B2B3 B3C3 C3D3 D3E3 E3E4"/>
            <route edges="A0A1 A1B1 B1B2 B2C2 C2D2 D2E2 E2E3 E3E4"/>
        </routeDistribution>
    </vehicle>

    <vehicle id="v.83" depart="167.00" departSpeed="12.9726" speedFactor="0.9670" arrival="357.00">
        <routeDistribution>
            <route replacedOnEdge="A0A1" reason="device.rerouting" replacedAtTime="167.00" probability="0" edges="A0A1 A1B1 B1B2 B2B3 B3C3 C3D3 D3E3 E3E4"/>
            <route replacedOnEdge="B1C1" replacedOnIndex="2" reason="device.rerouting" replacedAtTime="217.00" probability="0" edges="A0A1 A1B1 B1C1 C1C2 C2D2 D2E2 E2E3 E3E4"/>
            <route edges="A0A1 A1B1 B1C1 C1D1 D1D2 D2E2 E2E3 E3E4"/>
        </routeDistribution>
    </vehicle>

    <vehicle id="v.92" depart="185.00" departSpeed="11.5787" speedFactor="0.8336" arrival="363.00">
        <routeDistribution>
            <route replacedOnEdge="A0A1" reason="device.rerouting" replacedAtTime="185.00" probability="0" edges="A0A1 A1A2 A2A3 A3B3 B3C3 C3D3 D3E3 E3E4"/>
            <route replacedOnEdge="A2B2" replacedOnIndex="2" reason="device.rerouting" replacedAtTime="235.00" probability="0" edges="A0A1 A1A2 A2B2 B2B3 B3C3 C3D3 D3E3 E3E4"/>
            <route edges="A0A1 A1A2 A2B2 B2C2 C2D2 D2E2 E2E3 E3E4"/>
        </routeDistribution>
    </vehicle>

    <vehicle id="v.93" depart="188.00" departSpeed="12.7982" speedFactor="0.9214" arrival="365.00">
        <routeDistribution>
            <route replacedOnEdge="A0A1" reason="device.rerouting" replacedAtTime="188.00" probability="0" edges="A0A1 A1A2 A2A3 A3B3 B3C3 C3D3 D3E3 E3E4"/>
            <route edges="A0A1 A1B1 B1B2 B2C2 C2D2 D2E2 E2E3 E3E4"/>
        </routeDistribution>
    </vehicle>

    <vehicle id="v.97" depart="196.00" departSpeed="12.2206" speedFactor="0.9065" arrival="367.00">
        <routeDistribution>
            <route replacedOnEdge="A0A1" reason="device.rerouting" replacedAtTime="196.00" probability="0" edges="A0A1 A1A2 A2A3 A3B3 B3C3 C3D3 D3E3 E3E4"/>
            <route edges="A0A1 A1A2 A2B2 B2C2 C2D2 D2E2 E2E3 E3E4"/>
        </routeDistribution>
    </vehicle>

    <vehicle id="v.98" depart="198.00" departSpeed="11.811" speedFactor="1.1216" arrival="369.00">
        <routeDistribution>
            <route replacedOnEdge="A0A1" reason="device.rerouting" replacedAtTime="198.00" probability="0" edges="A0A1 A1B1 B1C1 C1C2 C2D2 D2E2 E2E3 E3E4"/>
            <route edges="A0A1 A1A2 A2B2 B2C2 C2D2 D2E2 E2E3 E3E4"/>
        </routeDistribution>
    </vehicle>

    <vehicle id="v.99" depart="200.00" departSpeed="12.0966" speedFactor="1.0972" arrival="370.00">
        <routeDistribution>
            <route replacedOnEdge="A0A1" reason="device.rerouting" replacedAtTime="200.00" probability="0" edges="A0A1 A1B1 B1C1 C1C2 C2D2 D2E2 E2E3 E3E4"/>
            <route edges="A0A1 A1A2 A2B2 B2C2 C2D2 D2E2 E2E3 E3E4"/>
        </routeDistribution>
    </vehicle>

    <vehicle id="v.100" depart="202.00" departSpeed="11.763" speedFactor="1.0650" arrival="372.00">
        <routeDistribution>
            <route replacedOnEdge="A0A1" reason="device.rerouting" replacedAtTime="202.00" probability="0" edges="A0A1 A1B1 B1C1 C1C2 C2D2 D2E2 E2E3 E3E4"/>
            <route edges="A0A1 A1A2 A2B2 B2C2 C2D2 D2E2 E2E3 E3E4"/>
        </routeDistribution>
    </vehicle>

    <vehicle id="v.101" depart="204.00" departSpeed="11.7697" speedFactor="0.9567" arrival="375.00">
        <routeDistribution>
            <route replacedOnEdge="A0A1" reason="device.rerouting" replacedAtTime="204.00" probability="0" edges="A0A1 A1B1 B1B2 B2B3 B3C3 C3D3 D3E3 E3E4"/>
            <route edges="A0A1 A1A2 A2B2 B2C2 C2D2 D2E2 E2E3 E3E4"/>
        </routeDistribution>
    </vehicle>

    <vehicle id="v.102" depart="206.00" departSpeed="11.7827" speedFactor="0.9682" arrival="377.00">
        <routeDistribution>
            <route replacedOnEdge="A0A1" reason="device.rerouting" replacedAtTime="206.00" probability="0" edges="A0A1 A1B1 B1B2 B2C2 C2C3 C3D3 D3E3 E3E4"/>
            <route edges="A0A1 A1A2 A2B2 B2C2 C2D2 D2E2 E2E3 E3E4"/>
        </routeDistribution>
    </vehicle>

    <vehicle id="v.103" depart="208.00" departSpeed="11.811" speedFactor="0.9525" arrival="379.00">
        <routeDistribution>
            <route replacedOnEdge="A0A1" reason="device.rerouting" replacedAtTime="208.00" probability="0" edges="A0A1 A1B1 B1B2 B2B3 B3C3 C3D3 D3E3 E3E4"/>
            <route edges="A0A1 A1A2 A2B2 B2C2 C2D2 D2E2 E2E3 E3E4"/>
        </routeDistribution>
    </vehicle>

    <vehicle id="v.104" depart="210.00" departSpeed="12.0936" speedFactor="0.8939" arrival="384.00">
        <routeDistribution>
            <route replacedOnEdge="A0A1" reason="device.rerouting" replacedAtTime="210.00" probability="0" edges="A0A1 A1A2 A2A3 A3B3 B3C3 C3D3 D3E3 E3E4"/>
            <route edges="A0A1 A1A2 A2B2 B2C2 C2D2 D2E2 E2E3 E3E4"/>
        </routeDistribution>
    </vehicle>

    <vehicle id="v.105" depart="212.00" departSpeed="12.2266" speedFactor="1.0727" arrival="385.00">
        <routeDistribution>
            <route replacedOnEdge="A0A1" reason="device.rerouting" replacedAtTime="212.00" probability="0" edges="A0A1 A1B1 B1C1 C1C2 C2D2 D2E2 E2E3 E3E4"/>
            <route edges="A0A1 A1A2 A2B2 B2C2 C2D2 D2E2 E2E3 E3E4"/>
        </routeDistribution>
    </vehicle>

    <vehicle id="v.106" depart="214.00" departSpeed="12.3384" speedFactor="1.0140" arrival="387.00">
        <routeDistribution>
            <route replacedOnEdge="A0A1" reason="device.rerouting" replacedAtTime="214.00" probability="0" edges="A0A1 A1B1 B1C1 C1C2 C2D2 D2E2 E2E3 E3E4"/>
            <route edges="A0A1 A1A2 A2B2 B2C2 C2D2 D2E2 E2E3 E3E4"/>
        </routeDistribution>
    </vehicle>

    <vehicle id="v.107" depart="216.00" departSpeed="12.6294" speedFactor="1.0345" arrival="389.00">
        <routeDistribution>
            <route replacedOnEdge="A0A1" reason="device.rerouting" replacedAtTime="216.00" probability="0" edges="A0A1 A1B1 B1C1 C1C2 C2D2 D2E2 E2E3 E3E4"/>
            <route edges="A0A1 A1A2 A2B2 B2C2 C2D2 D2E2 E2E3 E3E4"/>
        </routeDistribution>
    </vehicle>

    <vehicle id="v.108" depart="218.00" departSpeed="12.653" speedFactor="1.0648" arrival="391.00">
        <routeDistribution>
            <route replacedOnEdge="A0A1" reason="device.rerouting" replacedAtTime="218.00" probability="0" edges="A0A1 A1B1 B1C1 C1C2 C2D2 D2E2 E2E3 E3E4"/>
            <route edges="A0A1 A1A2 A2B2 B2C2 C2D2 D2E2 E2E3 E3E4"/>
        </routeDistribution>
    </vehicle>

    <vehicle id="v.109" depart="220.00" departSpeed="12.6308" speedFactor="0.9596" arrival="393.00">
        <routeDistribution>
            <route replacedOnEdge="A0A1" reason="device.rerouting" replacedAtTime="220.00" probability="0" edges="A0A1 A1B1 B1B2 B2C2 C2C3 C3D3 D3E3 E3E4"/>
            <route edges="A0A1 A1A2 A2B2 B2C2 C2D2 D2E2 E2E3 E3E4"/>