<?xml version="1.0" encoding="UTF-8"?>

<!-- generated on 2025-07-16 08:51:59 by Eclipse SUMO sumo Version v1_23_1+1098-b5f7c6a5135
<sumoConfiguration xmlns:xsi="http://www.w3.org/2001/XMLSchema-instance" xsi:noNamespaceSchemaLocation="http://sumo.dlr.de/xsd/sumoConfiguration.xsd">

    <input>
        <net-file value="input_net.net.xml"/>
        <load-state value="state.xml"/>
    </input>

    <output>
        <vehroute-output value="vehroutes2.xml"/>
        <save-state.times value="501"/>
        <save-state.files value="state2.xml"/>
    </output>

    <routing>
        <device.rerouting.probability value="0.5"/>
        <device.rerouting.period value="50"/>
    </routing>

    <report>
        <duration-log.disable value="true"/>
        <no-step-log value="true"/>
    </report>

    <mesoscopic>
        <mesosim value="true"/>
    </mesoscopic>

</sumoConfiguration>
-->

<routes xmlns:xsi="http://www.w3.org/2001/XMLSchema-instance" xsi:noNamespaceSchemaLocation="http://sumo.dlr.de/xsd/routes_file.xsd">
    <vehicle id="v.211" depart="363.00" departSpeed="12.63" speedFactor="1.0365" arrival="500.00">
        <routeDistribution>
            <route replacedOnEdge="A0A1" reason="device.rerouting" replacedAtTime="363.00" probability="0" edges="A0A1 A1B1 B1B2 B2C2 C2D2 D2E2 E2E3 E3E4"/>
            <route edges="A0A1 A1B1 B1C1 C1D1 D1D2 D2D3 D3E3 E3E4"/>
        </routeDistribution>
    </vehicle>

    <vehicle id="v.180" depart="310.00" departSpeed="13.49" speedFactor="1.0998" arrival="501.00">
        <routeDistribution>
            <route replacedOnEdge="A0A1" reason="device.rerouting" replacedAtTime="310.00" probability="0" edges="A0A1 A1B1 B1B2 B2C2 C2D2 D2E2 E2E3 E3E4"/>
            <route edges="A0A1 A1B1 B1C1 C1D1 D1E1 E1E2 E2E3 E3E4"/>
        </routeDistribution>
    </vehicle>

    <vehicle id="v.212" depart="365.00" departSpeed="13.18" speedFactor="1.0028" arrival="503.00">
        <routeDistribution>
            <route replacedOnEdge="A0A1" reason="device.rerouting" replacedAtTime="365.00" probability="0" edges="A0A1 A1B1 B1B2 B2C2 C2D2 D2E2 E2E3 E3E4"/>
            <route edges="A0A1 A1B1 B1C1 C1D1 D1D2 D2D3 D3E3 E3E4"/>
        </routeDistribution>
    </vehicle>

    <vehicle id="v.195" depart="335.00" departSpeed="11.68" speedFactor="0.8412" arrival="505.00">
        <routeDistribution>
            <route replacedOnEdge="A0A1" reason="device.rerouting" replacedAtTime="335.00" probability="0" edges="A0A1 A1A2 A2A3 A3B3 B3C3 C3D3 D3E3 E3E4"/>
            <route edges="A0A1 A1A2 A2B2 B2C2 C2D2 D2E2 E2E3 E3E4"/>
        </routeDistribution>
    </vehicle>

    <vehicle id="v.213" depart="366.00" departSpeed="12.11" speedFactor="1.1018" arrival="507.00">
        <routeDistribution>
            <route replacedOnEdge="A0A1" reason="device.rerouting" replacedAtTime="366.00" probability="0" edges="A0A1 A1B1 B1B2 B2C2 C2D2 D2E2 E2E3 E3E4"/>
            <route edges="A0A1 A1B1 B1C1 C1D1 D1D2 D2D3 D3E3 E3E4"/>
        </routeDistribution>
    </vehicle>

    <vehicle id="v.182" depart="313.00" departSpeed="12.90" speedFactor="1.0297" arrival="509.00">
        <routeDistribution>
            <route replacedOnEdge="A0A1" reason="device.rerouting" replacedAtTime="313.00" probability="0" edges="A0A1 A1B1 B1B2 B2C2 C2D2 D2E2 E2E3 E3E4"/>
            <route edges="A0A1 A1B1 B1C1 C1D1 D1E1 E1E2 E2E3 E3E4"/>
        </routeDistribution>
    </vehicle>

    <vehicle id="v.215" depart="370.00" departSpeed="12.02" speedFactor="1.0879" arrival="510.00">
        <routeDistribution>
            <route replacedOnEdge="A0A1" reason="device.rerouting" replacedAtTime="370.00" probability="0" edges="A0A1 A1B1 B1B2 B2C2 C2D2 D2E2 E2E3 E3E4"/>
            <route edges="A0A1 A1B1 B1C1 C1D1 D1D2 D2D3 D3E3 E3E4"/>
        </routeDistribution>
    </vehicle>

    <vehicle id="v.197" depart="338.00" departSpeed="11.24" speedFactor="0.8728" arrival="512.00">
        <routeDistribution>
            <route replacedOnEdge="A0A1" reason="device.rerouting" replacedAtTime="338.00" probability="0" edges="A0A1 A1A2 A2A3 A3B3 B3C3 C3D3 D3E3 E3E4"/>
            <route edges="A0A1 A1A2 A2B2 B2C2 C2D2 D2E2 E2E3 E3E4"/>
        </routeDistribution>
    </vehicle>

    <vehicle id="v.216" depart="371.00" departSpeed="11.13" speedFactor="0.9690" arrival="514.00">
        <routeDistribution>
            <route replacedOnEdge="A0A1" reason="device.rerouting" replacedAtTime="371.00" probability="0" edges="A0A1 A1B1 B1B2 B2C2 C2D2 D2E2 E2E3 E3E4"/>
            <route edges="A0A1 A1B1 B1C1 C1D1 D1D2 D2D3 D3E3 E3E4"/>
        </routeDistribution>
    </vehicle>

    <vehicle id="v.198" depart="340.00" departSpeed="11.67" speedFactor="1.0647" arrival="515.00">
        <routeDistribution>
            <route replacedOnEdge="A0A1" reason="device.rerouting" replacedAtTime="340.00" probability="0" edges="A0A1 A1B1 B1B2 B2C2 C2D2 D2E2 E2E3 E3E4"/>
            <route edges="A0A1 A1B1 B1C1 C1D1 D1E1 E1E2 E2E3 E3E4"/>
        </routeDistribution>
    </vehicle>

    <vehicle id="v.217" depart="373.00" departSpeed="11.55" speedFactor="1.0705" arrival="517.00">
        <routeDistribution>
            <route replacedOnEdge="A0A1" reason="device.rerouting" replacedAtTime="373.00" probability="0" edges="A0A1 A1B1 B1B2 B2C2 C2D2 D2E2 E2E3 E3E4"/>
            <route edges="A0A1 A1B1 B1C1 C1D1 D1D2 D2D3 D3E3 E3E4"/>
        </routeDistribution>
    </vehicle>

    <vehicle id="v.202" depart="347.00" departSpeed="11.24" speedFactor="1.0350" arrival="519.00">
        <routeDistribution>
            <route replacedOnEdge="A0A1" reason="device.rerouting" replacedAtTime="347.00" probability="0" edges="A0A1 A1B1 B1B2 B2C2 C2D2 D2E2 E2E3 E3E4"/>
            <route edges="A0A1 A1B1 B1C1 C1D1 D1E1 E1E2 E2E3 E3E4"/>
        </routeDistribution>
    </vehicle>

    <vehicle id="v.218" depart="375.00" departSpeed="12.01" speedFactor="1.0671" arrival="520.00">
        <routeDistribution>
            <route replacedOnEdge="A0A1" reason="device.rerouting" replacedAtTime="375.00" probability="0" edges="A0A1 A1B1 B1B2 B2C2 C2D2 D2E2 E2E3 E3E4"/>
            <route edges="A0A1 A1B1 B1C1 C1D1 D1D2 D2D3 D3E3 E3E4"/>
        </routeDistribution>
    </vehicle>

    <vehicle id="v.199" depart="341.00" departSpeed="10.83" speedFactor="0.8277" arrival="522.00">
        <routeDistribution>
            <route replacedOnEdge="A0A1" reason="device.rerouting" replacedAtTime="341.00" probability="0" edges="A0A1 A1A2 A2A3 A3B3 B3C3 C3D3 D3E3 E3E4"/>
            <route edges="A0A1 A1A2 A2B2 B2C2 C2D2 D2E2 E2E3 E3E4"/>
        </routeDistribution>
    </vehicle>

    <vehicle id="v.220" depart="379.00" departSpeed="13.05" speedFactor="0.9959" arrival="524.00">
        <routeDistribution>
            <route replacedOnEdge="A0A1" reason="device.rerouting" replacedAtTime="379.00" probability="0" edges="A0A1 A1B1 B1B2 B2C2 C2D2 D2E2 E2E3 E3E4"/>
            <route edges="A0A1 A1B1 B1C1 C1D1 D1D2 D2D3 D3E3 E3E4"/>
        </routeDistribution>
    </vehicle>

    <vehicle id="v.204" depart="351.00" departSpeed="12.14" speedFactor="1.0674" arrival="526.00">
        <routeDistribution>
            <route replacedOnEdge="A0A1" reason="device.rerouting" replacedAtTime="351.00" probability="0" edges="A0A1 A1B1 B1B2 B2C2 C2D2 D2E2 E2E3 E3E4"/>
            <route edges="A0A1 A1B1 B1C1 C1D1 D1E1 E1E2 E2E3 E3E4"/>
        </routeDistribution>
    </vehicle>

    <vehicle id="v.221" depart="380.00" departSpeed="12.00" speedFactor="1.1479" arrival="527.00">
        <routeDistribution>
            <route replacedOnEdge="A0A1" reason="device.rerouting" replacedAtTime="380.00" probability="0" edges="A0A1 A1B1 B1B2 B2C2 C2D2 D2E2 E2E3 E3E4"/>
            <route edges="A0A1 A1B1 B1C1 C1D1 D1D2 D2D3 D3E3 E3E4"/>
        </routeDistribution>
    </vehicle>

    <vehicle id="v.205" depart="352.00" departSpeed="11.23" speedFactor="1.0219" arrival="529.00">
        <routeDistribution>
            <route replacedOnEdge="A0A1" reason="device.rerouting" replacedAtTime="352.00" probability="0" edges="A0A1 A1B1 B1B2 B2C2 C2D2 D2E2 E2E3 E3E4"/>
            <route edges="A0A1 A1B1 B1C1 C1D1 D1E1 E1E2 E2E3 E3E4"/>
        </routeDistribution>
    </vehicle>

    <vehicle id="v.214" depart="368.00" departSpeed="11.56" speedFactor="0.8324" arrival="531.00">
        <route edges="A0A1 A1A2 A2A3 A3B3 B3C3 C3D3 D3E3 E3E4"/>
    </vehicle>

    <vehicle id="v.223" depart="384.00" departSpeed="12.07" speedFactor="1.0644" arrival="532.00">
        <routeDistribution>
            <route replacedOnEdge="A0A1" reason="device.rerouting" replacedAtTime="384.00" probability="0" edges="A0A1 A1B1 B1B2 B2C2 C2D2 D2E2 E2E3 E3E4"/>
            <route edges="A0A1 A1B1 B1C1 C1D1 D1D2 D2D3 D3E3 E3E4"/>
        </routeDistribution>
    </vehicle>

    <vehicle id="v.219" depart="377.00" departSpeed="12.51" speedFactor="0.9103" arrival="534.00">
        <routeDistribution>
            <route replacedOnEdge="A0A1" reason="device.rerouting" replacedAtTime="377.00" probability="0" edges="A0A1 A1B1 B1B2 B2C2 C2D2 D2E2 E2E3 E3E4"/>
            <route replacedOnEdge="B2C2" replacedOnIndex="3" reason="device.rerouting" replacedAtTime="427.00" probability="0" edges="A0A1 A1B1 B1B2 B2C2 C2D2 D2D3 D3E3 E3E4"/>
            <route edges="A0A1 A1B1 B1B2 B2C2 C2C3 C3D3 D3E3 E3E4"/>
        </routeDistribution>
    </vehicle>

    <vehicle id="v.224" depart="385.00" departSpeed="11.17" speedFactor="1.0151" arrival="536.00">
        <routeDistribution>
            <route replacedOnEdge="A0A1" reason="device.rerouting" replacedAtTime="385.00" probability="0" edges="A0A1 A1B1 B1B2 B2C2 C2D2 D2E2 E2E3 E3E4"/>
            <route edges="A0A1 A1B1 B1C1 C1D1 D1D2 D2D3 D3E3 E3E4"/>
        </routeDistribution>
    </vehicle>

    <vehicle id="v.225" depart="387.00" departSpeed="11.60" speedFactor="0.9690" arrival="537.00">
        <routeDistribution>
            <route replacedOnEdge="A0A1" reason="device.rerouting" replacedAtTime="387.00" probability="0" edges="A0A1 A1B1 B1B2 B2C2 C2D2 D2E2 E2E3 E3E4"/>
            <route edges="A0A1 A1B1 B1C1 C1D1 D1D2 D2D3 D3E3 E3E4"/>
        </routeDistribution>
    </vehicle>

    <vehicle id="v.226" depart="389.00" departSpeed="12.06" speedFactor="1.2424" arrival="539.00">
        <routeDistribution>
            <route replacedOnEdge="A0A1" reason="device.rerouting" replacedAtTime="389.00" probability="0" edges="A0A1 A1B1 B1B2 B2C2 C2D2 D2E2 E2E3 E3E4"/>
            <route edges="A0A1 A1B1 B1C1 C1D1 D1D2 D2D3 D3E3 E3E4"/>
        </routeDistribution>
    </vehicle>

    <vehicle id="v.227" depart="391.00" departSpeed="12.56" speedFactor="1.1097" arrival="541.00">
        <routeDistribution>
            <route replacedOnEdge="A0A1" reason="device.rerouting" replacedAtTime="391.00" probability="0" edges="A0A1 A1B1 B1B2 B2C2 C2D2 D2E2 E2E3 E3E4"/>
            <route edges="A0A1 A1B1 B1C1 C1D1 D1D2 D2D3 D3E3 E3E4"/>
        </routeDistribution>
    </vehicle>

    <vehicle id="v.228" depart="393.00" departSpeed="13.11" speedFactor="1.0918" arrival="542.00">
        <routeDistribution>
            <route replacedOnEdge="A0A1" reason="device.rerouting" replacedAtTime="393.00" probability="0" edges="A0A1 A1B1 B1B2 B2C2 C2D2 D2E2 E2E3 E3E4"/>
            <route edges="A0A1 A1B1 B1C1 C1D1 D1D2 D2D3 D3E3 E3E4"/>
        </routeDistribution>
    </vehicle>

    <vehicle id="v.222" depart="382.00" departSpeed="11.61" speedFactor="0.8357" arrival="547.00">
        <route edges="A0A1 A1A2 A2A3 A3B3 B3C3 C3D3 D3E3 E3E4"/>
    </vehicle>

    <vehicle id="v.229" depart="394.00" departSpeed="12.05" speedFactor="0.9948" arrival="549.00">
        <routeDistribution>
            <route replacedOnEdge="A0A1" reason="device.rerouting" replacedAtTime="394.00" probability="0" edges="A0A1 A1B1 B1B2 B2C2 C2D2 D2E2 E2E3 E3E4"/>
            <route edges="A0A1 A1B1 B1C1 C1D1 D1D2 D2D3 D3E3 E3E4"/>
        </routeDistribution>
    </vehicle>

    <vehicle id="v.230" depart="396.00" departSpeed="12.55" speedFactor="1.0406" arrival="550.00">
        <routeDistribution>
            <route replacedOnEdge="A0A1" reason="device.rerouting" replacedAtTime="396.00" probability="0" edges="A0A1 A1B1 B1B2 B2C2 C2D2 D2E2 E2E3 E3E4"/>
            <route edges="A0A1 A1B1 B1C1 C1D1 D1D2 D2D3 D3E3 E3E4"/>
        </routeDistribution>
    </vehicle>

    <vehicle id="v.231" depart="398.00" departSpeed="13.10" speedFactor="1.1411" arrival="552.00">
        <routeDistribution>
            <route replacedOnEdge="A0A1" reason="device.rerouting" replacedAtTime="398.00" probability="0" edges="A0A1 A1B1 B1B2 B2C2 C2D2 D2E2 E2E3 E3E4"/>
            <route edges="A0A1 A1B1 B1C1 C1D1 D1D2 D2D3 D3E3 E3E4"/>
        </routeDistribution>
    </vehicle>

    <vehicle id="v.232" depart="399.00" departSpeed="12.04" speedFactor="0.9699" arrival="554.00">
        <routeDistribution>
            <route replacedOnEdge="A0A1" reason="device.rerouting" replacedAtTime="399.00" probability="0" edges="A0A1 A1B1 B1B2 B2C2 C2D2 D2E2 E2E3 E3E4"/>
            <route edges="A0A1 A1B1 B1C1 C1D1 D1D2 D2D3 D3E3 E3E4"/>
        </routeDistribution>
    </vehicle>

    <vehicle id="v.233" depart="401.00" departSpeed="12.54" speedFactor="1.1519" arrival="555.00">
        <routeDistribution>
            <route replacedOnEdge="A0A1" reason="device.rerouting" replacedAtTime="401.00" probability="0" edges="A0A1 A1B1 B1B2 B2C2 C2D2 D2E2 E2E3 E3E4"/>
            <route edges="A0A1 A1B1 B1C1 C1D1 D1D2 D2D3 D3E3 E3E4"/>
        </routeDistribution>
    </vehicle>

    <vehicle id="v.235" depart="404.00" departSpeed="11.67" speedFactor="0.9583" arrival="557.00">
        <routeDistribution>
            <route replacedOnEdge="A0A1" reason="device.rerouting" replacedAtTime="404.00" probability="0" edges="A0A1 A1B1 B1B2 B2C2 C2D2 D2E2 E2E3 E3E4"/>
            <route edges="A0A1 A1B1 B1C1 C1D1 D1D2 D2D3 D3E3 E3E4"/>
        </routeDistribution>
    </vehicle>

    <vehicle id="v.234" depart="403.00" departSpeed="12.66" speedFactor="0.9112" arrival="559.00">
        <routeDistribution>
            <route replacedOnEdge="A0A1" reason="device.rerouting" replacedAtTime="403.00" probability="0" edges="A0A1 A1B1 B1B2 B2C2 C2D2 D2E2 E2E3 E3E4"/>
            <route replacedOnEdge="B2C2" replacedOnIndex="3" reason="device.rerouting" replacedAtTime="453.00" probability="0" edges="A0A1 A1B1 B1B2 B2C2 C2D2 D2D3 D3E3 E3E4"/>
            <route edges="A0A1 A1B1 B1B2 B2C2 C2C3 C3D3 D3E3 E3E4"/>
        </routeDistribution>
    </vehicle>

    <vehicle id="v.236" depart="406.00" departSpeed="12.14" speedFactor="1.0413" arrival="560.00">
        <routeDistribution>
            <route replacedOnEdge="A0A1" reason="device.rerouting" replacedAtTime="406.00" probability="0" edges="A0A1 A1B1 B1C1 C1D1 D1D2 D2E2 E2E3 E3E4"/>
            <route edges="A0A1 A1B1 B1C1 C1D1 D1D2 D2D3 D3E3 E3E4"/>
        </routeDistribution>
    </vehicle>

    <vehicle id="v.238" depart="409.00" departSpeed="11.35" speedFactor="1.0954" arrival="562.00">
        <routeDistribution>
            <route replacedOnEdge="A0A1" reason="device.rerouting" replacedAtTime="409.00" probability="0" edges="A0A1 A1B1 B1C1 C1D1 D1D2 D2E2 E2E3 E3E4"/>
            <route edges="A0A1 A1B1 B1C1 C1D1 D1D2 D2D3 D3E3 E3E4"/>
        </routeDistribution>
    </vehicle>

    <vehicle id="v.239" depart="411.00" departSpeed="11.80" speedFactor="1.1276" arrival="564.00">
        <routeDistribution>
            <route replacedOnEdge="A0A1" reason="device.rerouting" replacedAtTime="411.00" probability="0" edges="A0A1 A1B1 B1C1 C1D1 D1D2 D2E2 E2E3 E3E4"/>
            <route edges="A0A1 A1B1 B1C1 C1D1 D1D2 D2D3 D3E3 E3E4"/>
        </routeDistribution>
    </vehicle>

    <vehicle id="v.237" depart="408.00" departSpeed="12.29" speedFactor="0.8847" arrival="568.00">
        <routeDistribution>
            <route replacedOnEdge="A0A1" reason="device.rerouting" replacedAtTime="408.00" probability="0" edges="A0A1 A1A2 A2B2 B2C2 C2D2 D2E2 E2E3 E3E4"/>
            <route edges="A0A1 A1B1 B1B2 B2B3 B3C3 C3D3 D3E3 E3E4"/>
        </routeDistribution>
    </vehicle>

    <vehicle id="v.240" depart="413.00" departSpeed="12.28" speedFactor="0.9511" arrival="570.00">
        <routeDistribution>
            <route replacedOnEdge="A0A1" reason="device.rerouting" replacedAtTime="413.00" probability="0" edges="A0A1 A1B1 B1B2 B2C2 C2D2 D2E2 E2E3 E3E4"/>
            <route edges="A0A1 A1B1 B1C1 C1D1 D1D2 D2D3 D3E3 E3E4"/>
        </routeDistribution>
    </vehicle>

    <vehicle id="v.241" depart="415.00" departSpeed="12.80" speedFactor="1.0129" arrival="572.00">
        <routeDistribution>
            <route replacedOnEdge="A0A1" reason="device.rerouting" replacedAtTime="415.00" probability="0" edges="A0A1 A1B1 B1C1 C1D1 D1D2 D2E2 E2E3 E3E4"/>
            <route edges="A0A1 A1B1 B1C1 C1D1 D1D2 D2D3 D3E3 E3E4"/>
        </routeDistribution>
    </vehicle>

    <vehicle id="v.242" depart="417.00" departSpeed="13.36" speedFactor="0.9699" arrival="573.00">
        <routeDistribution>
            <route replacedOnEdge="A0A1" reason="device.rerouting" replacedAtTime="417.00" probability="0" edges="A0A1 A1B1 B1B2 B2C2 C2D2 D2E2 E2E3 E3E4"/>
            <route edges="A0A1 A1B1 B1C1 C1D1 D1D2 D2D3 D3E3 E3E4"/>
        </routeDistribution>
    </vehicle>

    <vehicle id="v.243" depart="418.00" departSpeed="12.27" speedFactor="0.9897" arrival="575.00">
        <routeDistribution>
            <route replacedOnEdge="A0A1" reason="device.rerouting" replacedAtTime="418.00" probability="0" edges="A0A1 A1B1 B1B2 B2C2 C2D2 D2E2 E2E3 E3E4"/>
            <route edges="A0A1 A1B1 B1C1 C1D1 D1D2 D2D3 D3E3 E3E4"/>
        </routeDistribution>
    </vehicle>

    <vehicle id="v.251" depart="432.00" departSpeed="12.19" speedFactor="0.8779" arrival="579.00">
        <routeDistribution>
            <route replacedOnEdge="A0A1" reason="device.rerouting" replacedAtTime="432.00" probability="0" edges="A0A1 A1A2 A2B2 B2C2 C2D2 D2E2 E2E3 E3E4"/>
            <route edges="A0A1 A1A2 A2A3 A3B3 B3C3 C3D3 D3E3 E3E4"/>
        </routeDistribution>
    </vehicle>

    <vehicle id="v.244" depart="420.00" departSpeed="12.79" speedFactor="1.0240" arrival="580.00">
        <routeDistribution>
            <route replacedOnEdge="A0A1" reason="device.rerouting" replacedAtTime="420.00" probability="0" edges="A0A1 A1B1 B1C1 C1D1 D1D2 D2E2 E2E3 E3E4"/>
            <route edges="A0A1 A1B1 B1C1 C1D1 D1D2 D2D3 D3E3 E3E4"/>
        </routeDistribution>
    </vehicle>

    <vehicle id="v.254" depart="437.00" departSpeed="12.18" speedFactor="0.8792" arrival="582.00">
        <routeDistribution>
            <route replacedOnEdge="A0A1" reason="device.rerouting" replacedAtTime="437.00" probability="0" edges="A0A1 A1A2 A2B2 B2C2 C2D2 D2E2 E2E3 E3E4"/>
            <route edges="A0A1 A1A2 A2A3 A3B3 B3C3 C3D3 D3E3 E3E4"/>
        </routeDistribution>
    </vehicle>

    <vehicle id="v.245" depart="422.00" departSpeed="13.35" speedFactor="1.0107" arrival="584.00">
        <routeDistribution>
            <route replacedOnEdge="A0A1" reason="device.rerouting" replacedAtTime="422.00" probability="0" edges="A0A1 A1B1 B1C1 C1D1 D1D2 D2E2 E2E3 E3E4"/>
            <route edges="A0A1 A1B1 B1C1 C1D1 D1D2 D2D3 D3E3 E3E4"/>
        </routeDistribution>
    </vehicle>

    <vehicle id="v.246" depart="423.00" departSpeed="12.26" speedFactor="0.9726" arrival="585.00">
        <routeDistribution>
            <route replacedOnEdge="A0A1" reason="device.rerouting" replacedAtTime="423.00" probability="0" edges="A0A1 A1B1 B1B2 B2C2 C2D2 D2E2 E2E3 E3E4"/>
            <route edges="A0A1 A1B1 B1C1 C1D1 D1D2 D2D3 D3E3 E3E4"/>
        </routeDistribution>
    </vehicle>

    <vehicle id="v.247" depart="425.00" departSpeed="12.77" speedFactor="1.0405" arrival="587.00">
        <routeDistribution>
            <route replacedOnEdge="A0A1" reason="device.rerouting" replacedAtTime="425.00" probability="0" edges="A0A1 A1B1 B1C1 C1D1 D1D2 D2E2 E2E3 E3E4"/>
            <route edges="A0A1 A1B1 B1C1 C1D1 D1D2 D2D3 D3E3 E3E4"/>
        </routeDistribution>
    </vehicle>

    <vehicle id="v.248" depart="427.00" departSpeed="13.34" speedFactor="1.1398" arrival="589.00">
        <routeDistribution>
            <route replacedOnEdge="A0A1" reason="device.rerouting" replacedAtTime="427.00" probability="0" edges="A0A1 A1B1 B1C1 C1D1 D1D2 D2E2 E2E3 E3E4"/>
            <route edges="A0A1 A1B1 B1C1 C1D1 D1D2 D2D3 D3E3 E3E4"/>
        </routeDistribution>
    </vehicle>

    <vehicle id="v.249" depart="428.00" departSpeed="12.25" speedFactor="1.1118" arrival="590.00">
        <routeDistribution>
            <route replacedOnEdge="A0A1" reason="device.rerouting" replacedAtTime="428.00" probability="0" edges="A0A1 A1B1 B1C1 C1D1 D1D2 D2E2 E2E3 E3E4"/>
            <route edges="A0A1 A1B1 B1C1 C1D1 D1D2 D2D3 D3E3 E3E4"/>
        </routeDistribution>
    </vehicle>

    <vehicle id="v.250" depart="430.00" departSpeed="12.76" speedFactor="0.9320" arrival="592.00">
        <routeDistribution>
            <route replacedOnEdge="A0A1" reason="device.rerouting" replacedAtTime="430.00" probability="0" edges="A0A1 A1B1 B1B2 B2C2 C2D2 D2E2 E2E3 E3E4"/>
            <route edges="A0A1 A1B1 B1C1 C1D1 D1D2 D2D3 D3E3 E3E4"/>
        </routeDistribution>
    </vehicle>

    <vehicle id="v.255" depart="438.00" departSpeed="9.85" speedFactor="0.7089" arrival="602.00">
        <route edges="A0A1 A1A2 A2A3 A3B3 B3C3 C3D3 D3E3 E3E4"/>
    </vehicle>

    <vehicle id="v.252" depart="433.00" departSpeed="11.27" speedFactor="0.9875" arrival="604.00">
        <routeDistribution>
            <route replacedOnEdge="A0A1" reason="device.rerouting" replacedAtTime="433.00" probability="0" edges="A0A1 A1B1 B1B2 B2C2 C2D2 D2E2 E2E3 E3E4"/>
            <route edges="A0A1 A1B1 B1C1 C1D1 D1D2 D2D3 D3E3 E3E4"/>
        </routeDistribution>
    </vehicle>

    <vehicle id="v.259" depart="446.00" departSpeed="11.32" speedFactor="0.8362" arrival="606.00">
        <routeDistribution>
            <route replacedOnEdge="A0A1" reason="device.rerouting" replacedAtTime="446.00" probability="0" edges="A0A1 A1A2 A2B2 B2C2 C2D2 D2E2 E2E3 E3E4"/>
            <route edges="A0A1 A1A2 A2A3 A3B3 B3C3 C3D3 D3E3 E3E4"/>
        </routeDistribution>
    </vehicle>

    <vehicle id="v.253" depart="435.00" departSpeed="11.71" speedFactor="0.9795" arrival="607.00">
        <routeDistribution>
            <route replacedOnEdge="A0A1" reason="device.rerouting" replacedAtTime="435.00" probability="0" edges="A0A1 A1B1 B1B2 B2C2 C2D2 D2E2 E2E3 E3E4"/>
            <route edges="A0A1 A1B1 B1C1 C1D1 D1D2 D2D3 D3E3 E3E4"/>
        </routeDistribution>
    </vehicle>

    <vehicle id="v.260" depart="449.00" departSpeed="10.45" speedFactor="0.7524" arrival="610.00">
        <route edges="A0A1 A1A2 A2A3 A3B3 B3C3 C3D3 D3E3 E3E4"/>
    </vehicle>

    <vehicle id="v.256" depart="441.00" departSpeed="11.33" speedFactor="0.9639" arrival="611.00">
        <routeDistribution>
            <route replacedOnEdge="A0A1" reason="device.rerouting" replacedAtTime="441.00" probability="0" edges="A0A1 A1B1 B1B2 B2C2 C2D2 D2E2 E2E3 E3E4"/>
            <route edges="A0A1 A1B1 B1C1 C1D1 D1D2 D2D3 D3E3 E3E4"/>
        </routeDistribution>
    </vehicle>

    <vehicle id="v.267" depart="462.00" departSpeed="12.12" speedFactor="0.9152" arrival="613.00">
        <routeDistribution>
            <route replacedOnEdge="A0A1" reason="device.rerouting" replacedAtTime="462.00" probability="0" edges="A0A1 A1B1 B1B2 B2C2 C2D2 D2E2 E2E3 E3E4"/>
            <route edges="A0A1 A1B1 B1B2 B2B3 B3C3 C3D3 D3E3 E3E4"/>
        </routeDistribution>
    </vehicle>

    <vehicle id="v.257" depart="442.00" departSpeed="10.53" speedFactor="1.2998" arrival="615.00">
        <routeDistribution>
            <route replacedOnEdge="A0A1" reason="device.rerouting" replacedAtTime="442.00" probability="0" edges="A0A1 A1B1 B1C1 C1D1 D1E1 E1E2 E2E3 E3E4"/>
            <route edges="A0A1 A1B1 B1C1 C1D1 D1D2 D2D3 D3E3 E3E4"/>
        </routeDistribution>
    </vehicle>

    <vehicle id="v.271" depart="469.00" departSpeed="12.04" speedFactor="0.8667" arrival="616.00">
        <routeDistribution>
            <route replacedOnEdge="A0A1" reason="device.rerouting" replacedAtTime="469.00" probability="0" edges="A0A1 A1A2 A2B2 B2C2 C2D2 D2E2 E2E3 E3E4"/>
            <route edges="A0A1 A1A2 A2A3 A3B3 B3C3 C3D3 D3E3 E3E4"/>
        </routeDistribution>
    </vehicle>

    <vehicle id="v.274" depart="474.00" departSpeed="11.87" speedFactor="0.8546" arrival="618.00">
        <routeDistribution>
            <route replacedOnEdge="A0A1" reason="device.rerouting" replacedAtTime="474.00" probability="0" edges="A0A1 A1A2 A2B2 B2C2 C2D2 D2E2 E2E3 E3E4"/>
            <route edges="A0A1 A1A2 A2A3 A3B3 B3C3 C3D3 D3E3 E3E4"/>
        </routeDistribution>
    </vehicle>

    <vehicle id="v.258" depart="444.00" departSpeed="10.91" speedFactor="1.0143" arrival="620.00">
        <routeDistribution>
            <route replacedOnEdge="A0A1" reason="device.rerouting" replacedAtTime="444.00" probability="0" edges="A0A1 A1B1 B1C1 C1D1 D1E1 E1E2 E2E3 E3E4"/>
            <route edges="A0A1 A1B1 B1C1 C1D1 D1D2 D2D3 D3E3 E3E4"/>
        </routeDistribution>
    </vehicle>

    <vehicle id="v.276" depart="478.00" departSpeed="12.10" speedFactor="0.8712" arrival="621.00">
        <routeDistribution>
            <route replacedOnEdge="A0A1" reason="device.rerouting" replacedAtTime="478.00" probability="0" edges="A0A1 A1A2 A2B2 B2C2 C2D2 D2E2 E2E3 E3E4"/>
            <route edges="A0A1 A1A2 A2A3 A3B3 B3C3 C3D3 D3E3 E3E4"/>
        </routeDistribution>
    </vehicle>

    <vehicle id="v.261" depart="450.00" departSpeed="9.77" speedFactor="1.1318" arrival="623.00">
        <routeDistribution>
            <route replacedOnEdge="A0A1" reason="device.rerouting" replacedAtTime="450.00" probability="0" edges="A0A1 A1B1 B1C1 C1D1 D1E1 E1E2 E2E3 E3E4"/>
            <route edges="A0A1 A1B1 B1C1 C1D1 D1D2 D2D3 D3E3 E3E4"/>
        </routeDistribution>
    </vehicle>

    <vehicle id="v.262" depart="452.00" departSpeed="10.09" speedFactor="1.0447" arrival="625.00">
        <routeDistribution>
            <route replacedOnEdge="A0A1" reason="device.rerouting" replacedAtTime="452.00" probability="0" edges="A0A1 A1B1 B1C1 C1D1 D1E1 E1E2 E2E3 E3E4"/>
            <route edges="A0A1 A1B1 B1C1 C1D1 D1D2 D2D3 D3E3 E3E4"/>
        </routeDistribution>
    </vehicle>

    <vehicle id="v.263" depart="454.00" departSpeed="10.44" speedFactor="0.9571" arrival="626.00">
        <routeDistribution>
            <route replacedOnEdge="A0A1" reason="device.rerouting" replacedAtTime="454.00" probability="0" edges="A0A1 A1B1 B1B2 B2C2 C2D2 D2E2 E2E3 E3E4"/>
            <route edges="A0A1 A1B1 B1C1 C1D1 D1D2 D2D3 D3E3 E3E4"/>
        </routeDistribution>
    </vehicle>

    <vehicle id="v.264" depart="455.00" departSpeed="9.76" speedFactor="1.1288" arrival="628.00">
        <routeDistribution>
            <route replacedOnEdge="A0A1" reason="device.rerouting" replacedAtTime="455.00" probability="0" edges="A0A1 A1B1 B1C1 C1D1 D1E1 E1E2 E2E3 E3E4"/>
            <route edges="A0A1 A1B1 B1C1 C1D1 D1D2 D2D3 D3E3 E3E4"/>
        </routeDistribution>
    </vehicle>

    <vehicle id="v.265" depart="459.00" departSpeed="12.64" speedFactor="0.9644" arrival="630.00">
        <routeDistribution>
            <route replacedOnEdge="A0A1" reason="device.rerouting" replacedAtTime="459.00" probability="0" edges="A0A1 A1B1 B1B2 B2C2 C2D2 D2E2 E2E3 E3E4"/>
            <route edges="A0A1 A1B1 B1C1 C1D1 D1D2 D2D3 D3E3 E3E4"/>
        </routeDistribution>
    </vehicle>

    <vehicle id="v.287" depart="497.00" departSpeed="10.52" speedFactor="0.8901" arrival="631.00">
        <routeDistribution>
            <route replacedOnEdge="A0A1" reason="device.rerouting" replacedAtTime="497.00" probability="0" edges="A0A1 A1A2 A2B2 B2C2 C2D2 D2E2 E2E3 E3E4"/>
            <route edges="A0A1 A1B1 B1B2 B2B3 B3C3 C3D3 D3E3 E3E4"/>
        </routeDistribution>
    </vehicle>

    <vehicle id="v.266" depart="461.00" departSpeed="13.19" speedFactor="0.9805" arrival="633.00">
        <routeDistribution>
            <route replacedOnEdge="A0A1" reason="device.rerouting" replacedAtTime="461.00" probability="0" edges="A0A1 A1B1 B1B2 B2C2 C2D2 D2E2 E2E3 E3E4"/>
            <route edges="A0A1 A1B1 B1C1 C1D1 D1D2 D2D3 D3E3 E3E4"/>
        </routeDistribution>
    </vehicle>

    <vehicle id="v.268" depart="464.00" departSpeed="12.62" speedFactor="0.9642" arrival="635.00">
        <routeDistribution>
            <route replacedOnEdge="A0A1" reason="device.rerouting" replacedAtTime="464.00" probability="0" edges="A0A1 A1B1 B1B2 B2C2 C2D2 D2E2 E2E3 E3E4"/>
            <route edges="A0A1 A1B1 B1C1 C1D1 D1D2 D2D3 D3E3 E3E4"/>
        </routeDistribution>
    </vehicle>

    <vehicle id="v.269" depart="466.00" departSpeed="13.18" speedFactor="1.2622" arrival="636.00">
        <routeDistribution>
            <route replacedOnEdge="A0A1" reason="device.rerouting" replacedAtTime="466.00" probability="0" edges="A0A1 A1B1 B1C1 C1D1 D1E1 E1E2 E2E3 E3E4"/>
            <route edges="A0A1 A1B1 B1C1 C1D1 D1D2 D2D3 D3E3 E3E4"/>
        </routeDistribution>
    </vehicle>

    <vehicle id="v.270" depart="467.00" departSpeed="12.11" speedFactor="0.9713" arrival="638.00">
        <routeDistribution>
            <route replacedOnEdge="A0A1" reason="device.rerouting" replacedAtTime="467.00" probability="0" edges="A0A1 A1B1 B1B2 B2C2 C2D2 D2E2 E2E3 E3E4"/>
            <route edges="A0A1 A1B1 B1C1 C1D1 D1D2 D2D3 D3E3 E3E4"/>
        </routeDistribution>
    </vehicle>

    <vehicle id="v.272" depart="471.00" departSpeed="12.54" speedFactor="1.0513" arrival="640.00">
        <routeDistribution>
            <route replacedOnEdge="A0A1" reason="device.rerouting" replacedAtTime="471.00" probability="0" edges="A0A1 A1B1 B1C1 C1D1 D1E1 E1E2 E2E3 E3E4"/>
            <route edges="A0A1 A1B1 B1C1 C1D1 D1D2 D2D3 D3E3 E3E4"/>
        </routeDistribution>
    </vehicle>
