<?xml version="1.0" encoding="UTF-8"?>

<!-- generated on Tue Jun 13 10:47:37 2017 by SUMO Version dev-SVN-r24637
<?xml version="1.0" encoding="UTF-8"?>

<configuration xmlns:xsi="http://www.w3.org/2001/XMLSchema-instance" xsi:noNamespaceSchemaLocation="http://sumo.dlr.de/xsd/sumoConfiguration.xsd">

    <input>
        <net-file value="net.net.xml"/>
        <route-files value="input_routes.rou.xml"/>
    </input>

    <output>
        <tripinfo-output value="tripinfos.xml"/>
    </output>

    <processing>
        <lateral-resolution value="0.64"/>
    </processing>

    <report>
        <verbose value="true"/>
        <xml-validation value="never"/>
        <duration-log.statistics value="true"/>
        <no-step-log value="true"/>
    </report>

</configuration>
-->

<tripinfos xmlns:xsi="http://www.w3.org/2001/XMLSchema-instance" xsi:noNamespaceSchemaLocation="http://sumo.dlr.de/xsd/tripinfo_file.xsd">
    <tripinfo id="mixed.15" depart="21.00" departLane="beg_0" departPos="5.10" departPosLat="0.64" departSpeed="0.00" departDelay="6.00" arrival="215.00" arrivalLane="end_0" arrivalPos="200.00" arrivalPosLat="-0.70" arrivalSpeed="17.85" duration="194.00" routeLength="494.90" waitSteps="154" timeLoss="166.63" rerouteNo="0" devices="tripinfo_mixed.15" vType="car" speedFactor="1.31" vaporized=""/>
    <tripinfo id="mixed.2" depart="4.00" departLane="beg_1" departPos="5.10" departPosLat="0.53" departSpeed="0.00" departDelay="2.00" arrival="218.00" arrivalLane="end_0" arrivalPos="200.00" arrivalPosLat="-0.70" arrivalSpeed="13.48" duration="214.00" routeLength="494.90" waitSteps="167" timeLoss="177.46" rerouteNo="0" devices="tripinfo_mixed.2" vType="car" speedFactor="0.99" vaporized=""/>
    <tripinfo id="mixed.9" depart="11.00" departLane="beg_0" departPos="2.20" departPosLat="-0.18" departSpeed="0.00" departDelay="2.00" arrival="222.00" arrivalLane="end_0" arrivalPos="200.00" arrivalPosLat="-1.20" arrivalSpeed="16.22" duration="211.00" routeLength="497.80" waitSteps="149" timeLoss="180.58" rerouteNo="0" devices="tripinfo_mixed.9" vType="moped" speedFactor="1.29" vaporized=""/>
    <tripinfo id="mixed.12" depart="16.00" departLane="beg_0" departPos="2.20" departPosLat="-0.97" departSpeed="0.00" departDelay="4.00" arrival="223.00" arrivalLane="end_0" arrivalPos="200.00" arrivalPosLat="0.08" arrivalSpeed="15.73" duration="207.00" routeLength="497.80" waitSteps="149" timeLoss="175.13" rerouteNo="0" devices="tripinfo_mixed.12" vType="moped" speedFactor="1.15" vaporized=""/>
    <tripinfo id="mixed.0" depart="0.00" departLane="beg_0" departPos="2.20" departPosLat="0.51" departSpeed="0.00" departDelay="0.00" arrival="224.00" arrivalLane="end_0" arrivalPos="200.00" arrivalPosLat="-1.20" arrivalSpeed="12.08" duration="224.00" routeLength="497.80" waitSteps="162" timeLoss="182.25" rerouteNo="0" devices="tripinfo_mixed.0" vType="moped" speedFactor="0.88" vaporized=""/>
    <tripinfo id="mixed.4" depart="5.00" departLane="beg_0" departPos="2.20" departPosLat="0.11" departSpeed="0.00" departDelay="1.00" arrival="225.00" arrivalLane="end_0" arrivalPos="200.00" arrivalPosLat="0.56" arrivalSpeed="12.94" duration="220.00" routeLength="497.80" waitSteps="159" timeLoss="181.46" rerouteNo="0" devices="tripinfo_mixed.4" vType="moped" speedFactor="0.95" vaporized=""/>
    <tripinfo id="mixed.1" depart="1.00" departLane="beg_1" departPos="2.20" departPosLat="0.22" departSpeed="0.00" departDelay="0.00" arrival="225.00" arrivalLane="end_0" arrivalPos="200.00" arrivalPosLat="-1.20" arrivalSpeed="12.59" duration="224.00" routeLength="497.80" waitSteps="163" timeLoss="187.49" rerouteNo="0" devices="tripinfo_mixed.1" vType="moped" speedFactor="0.99" vaporized=""/>
    <tripinfo id="mixed.6" depart="9.00" departLane="beg_1" departPos="2.20" departPosLat="1.18" departSpeed="0.00" departDelay="3.00" arrival="225.00" arrivalLane="end_0" arrivalPos="200.00" arrivalPosLat="1.36" arrivalSpeed="12.05" duration="216.00" routeLength="497.80" waitSteps="153" timeLoss="174.77" rerouteNo="0" devices="tripinfo_mixed.6" vType="moped" speedFactor="0.88" vaporized=""/>
    <tripinfo id="mixed.7" depart="13.00" departLane="beg_1" departPos="2.20" departPosLat="0.97" departSpeed="0.00" departDelay="6.00" arrival="225.00" arrivalLane="end_1" arrivalPos="200.00" arrivalPosLat="-0.56" arrivalSpeed="16.30" duration="212.00" routeLength="497.80" waitSteps="151" timeLoss="181.48" rerouteNo="0" devices="tripinfo_mixed.7" vType="moped" speedFactor="1.53" vaporized=""/>
    <tripinfo id="mixed.19" depart="28.00" departLane="beg_1" departPos="5.10" departPosLat="-0.65" departSpeed="0.00" departDelay="9.00" arrival="227.00" arrivalLane="end_1" arrivalPos="200.00" arrivalPosLat="-0.70" arrivalSpeed="16.09" duration="199.00" routeLength="494.90" waitSteps="145" timeLoss="168.71" rerouteNo="0" devices="tripinfo_mixed.19" vType="car" speedFactor="1.20" vaporized=""/>
    <tripinfo id="mixed.14" depart="21.00" departLane="beg_1" departPos="5.10" departPosLat="-0.28" departSpeed="0.00" departDelay="7.00" arrival="228.00" arrivalLane="end_0" arrivalPos="200.00" arrivalPosLat="0.46" arrivalSpeed="11.65" duration="207.00" routeLength="494.90" waitSteps="145" timeLoss="166.34" rerouteNo="0" devices="tripinfo_mixed.14" vType="car" speedFactor="0.89" vaporized=""/>
    <tripinfo id="mixed.17" depart="23.00" departLane="beg_1" departPos="2.20" departPosLat="0.85" departSpeed="0.00" departDelay="6.00" arrival="229.00" arrivalLane="end_0" arrivalPos="200.00" arrivalPosLat="0.72" arrivalSpeed="13.04" duration="206.00" routeLength="497.80" waitSteps="143" timeLoss="176.08" rerouteNo="0" devices="tripinfo_mixed.17" vType="moped" speedFactor="1.91" vaporized=""/>
    <tripinfo id="mixed.23" depart="32.00" departLane="beg_1" departPos="2.20" departPosLat="0.91" departSpeed="0.00" departDelay="9.00" arrival="229.00" arrivalLane="end_1" arrivalPos="200.00" arrivalPosLat="-0.56" arrivalSpeed="16.65" duration="197.00" routeLength="497.80" waitSteps="142" timeLoss="166.66" rerouteNo="0" devices="tripinfo_mixed.23" vType="moped" speedFactor="1.31" vaporized=""/>
    <tripinfo id="mixed.3" depart="7.00" departLane="beg_1" departPos="5.10" departPosLat="-0.46" departSpeed="0.00" departDelay="4.00" arrival="231.00" arrivalLane="end_0" arrivalPos="200.00" arrivalPosLat="-0.70" arrivalSpeed="9.19" duration="224.00" routeLength="494.90" waitSteps="157" timeLoss="172.88" rerouteNo="0" devices="tripinfo_mixed.3" vType="car" speedFactor="0.71" vaporized=""/>
    <tripinfo id="mixed.26" depart="35.00" departLane="beg_1" departPos="2.20" departPosLat="-0.17" departSpeed="0.00" departDelay="9.00" arrival="231.00" arrivalLane="end_0" arrivalPos="200.00" arrivalPosLat="0.72" arrivalSpeed="14.75" duration="196.00" routeLength="497.80" waitSteps="139" timeLoss="162.38" rerouteNo="0" devices="tripinfo_mixed.26" vType="moped" speedFactor="1.08" vaporized=""/>
    <tripinfo id="mixed.5" depart="9.00" departLane="beg_0" departPos="5.10" departPosLat="-0.61" departSpeed="0.00" departDelay="4.00" arrival="233.00" arrivalLane="end_0" arrivalPos="200.00" arrivalPosLat="-0.70" arrivalSpeed="10.66" duration="224.00" routeLength="494.90" waitSteps="154" timeLoss="179.77" rerouteNo="0" devices="tripinfo_mixed.5" vType="car" speedFactor="0.82" vaporized=""/>
    <tripinfo id="mixed.21" depart="31.00" departLane="beg_0" departPos="5.10" departPosLat="0.51" departSpeed="0.00" departDelay="10.00" arrival="234.00" arrivalLane="end_0" arrivalPos="200.00" arrivalPosLat="0.70" arrivalSpeed="11.78" duration="203.00" routeLength="494.90" waitSteps="143" timeLoss="173.80" rerouteNo="0" devices="tripinfo_mixed.21" vType="car" speedFactor="1.23" vaporized=""/>
    <tripinfo id="mixed.25" depart="34.00" departLane="beg_0" departPos="5.10" departPosLat="0.16" departSpeed="0.00" departDelay="9.00" arrival="234.00" arrivalLane="end_1" arrivalPos="200.00" arrivalPosLat="-0.70" arrivalSpeed="13.03" duration="200.00" routeLength="494.90" waitSteps="139" timeLoss="162.91" rerouteNo="0" devices="tripinfo_mixed.25" vType="car" speedFactor="0.99" vaporized=""/>
    <tripinfo id="mixed.10" depart="13.00" departLane="beg_0" departPos="2.20" departPosLat="0.39" departSpeed="0.00" departDelay="3.00" arrival="235.00" arrivalLane="end_0" arrivalPos="200.00" arrivalPosLat="-0.20" arrivalSpeed="10.40" duration="222.00" routeLength="497.80" waitSteps="154" timeLoss="191.57" rerouteNo="0" devices="tripinfo_mixed.10" vType="moped" speedFactor="1.37" vaporized=""/>
    <tripinfo id="mixed.11" depart="16.00" departLane="beg_1" departPos="2.20" departPosLat="0.69" departSpeed="0.00" departDelay="5.00" arrival="236.00" arrivalLane="end_0" arrivalPos="200.00" arrivalPosLat="-1.20" arrivalSpeed="9.96" duration="220.00" routeLength="497.80" waitSteps="151" timeLoss="182.45" rerouteNo="0" devices="tripinfo_mixed.11" vType="moped" speedFactor="0.96" vaporized=""/>
    <tripinfo id="mixed.13" depart="18.00" departLane="beg_0" departPos="2.20" departPosLat="1.06" departSpeed="0.00" departDelay="5.00" arrival="236.00" arrivalLane="end_0" arrivalPos="200.00" arrivalPosLat="0.32" arrivalSpeed="10.68" duration="218.00" routeLength="497.80" waitSteps="145" timeLoss="178.44" rerouteNo="0" devices="tripinfo_mixed.13" vType="moped" speedFactor="0.91" vaporized=""/>
    <tripinfo id="mixed.24" depart="28.00" departLane="beg_1" departPos="2.20" departPosLat="1.18" departSpeed="0.00" departDelay="4.00" arrival="236.00" arrivalLane="end_1" arrivalPos="200.00" arrivalPosLat="-1.36" arrivalSpeed="12.50" duration="208.00" routeLength="497.80" waitSteps="135" timeLoss="175.45" rerouteNo="0" devices="tripinfo_mixed.24" vType="moped" speedFactor="1.12" vaporized=""/>
    <tripinfo id="mixed.20" depart="24.00" departLane="beg_0" departPos="2.20" departPosLat="0.42" departSpeed="0.00" departDelay="4.00" arrival="238.00" arrivalLane="end_0" arrivalPos="200.00" arrivalPosLat="-1.20" arrivalSpeed="11.01" duration="214.00" routeLength="497.80" waitSteps="144" timeLoss="183.55" rerouteNo="0" devices="tripinfo_mixed.20" vType="moped" speedFactor="1.23" vaporized=""/>
    <tripinfo id="mixed.28" depart="37.00" departLane="beg_0" departPos="2.20" departPosLat="0.50" departSpeed="0.00" departDelay="9.00" arrival="238.00" arrivalLane="end_0" arrivalPos="200.00" arrivalPosLat="0.88" arrivalSpeed="11.99" duration="201.00" routeLength="497.80" waitSteps="136" timeLoss="170.59" rerouteNo="0" devices="tripinfo_mixed.28" vType="moped" speedFactor="1.22" vaporized=""/>
    <tripinfo id="mixed.30" depart="39.00" departLane="beg_1" departPos="2.20" departPosLat="-0.34" departSpeed="0.00" departDelay="9.00" arrival="239.00" arrivalLane="end_0" arrivalPos="200.00" arrivalPosLat="-1.20" arrivalSpeed="10.53" duration="200.00" routeLength="497.80" waitSteps="132" timeLoss="162.83" rerouteNo="0" devices="tripinfo_mixed.30" vType="moped" speedFactor="0.97" vaporized=""/>
    <tripinfo id="mixed.35" depart="45.00" departLane="beg_1" departPos="2.20" departPosLat="0.72" departSpeed="0.00" departDelay="10.00" arrival="239.00" arrivalLane="end_0" arrivalPos="200.00" arrivalPosLat="0.21" arrivalSpeed="11.73" duration="194.00" routeLength="497.80" waitSteps="126" timeLoss="153.29" rerouteNo="0" devices="tripinfo_mixed.35" vType="moped" speedFactor="0.89" vaporized=""/>
    <tripinfo id="mixed.27" depart="36.00" departLane="beg_1" departPos="2.20" departPosLat="0.20" departSpeed="0.00" departDelay="9.00" arrival="239.00" arrivalLane="end_1" arrivalPos="200.00" arrivalPosLat="-1.20" arrivalSpeed="9.37" duration="203.00" routeLength="497.80" waitSteps="130" timeLoss="149.73" rerouteNo="0" devices="tripinfo_mixed.27" vType="moped" speedFactor="0.69" vaporized=""/>
    <tripinfo id="mixed.22" depart="53.00" departLane="beg_1" departPos="5.10" departPosLat="0.08" departSpeed="0.00" departDelay="31.00" arrival="240.00" arrivalLane="end_1" arrivalPos="200.00" arrivalPosLat="-1.34" arrivalSpeed="11.27" duration="187.00" routeLength="494.90" waitSteps="122" timeLoss="155.14" rerouteNo="0" devices="tripinfo_mixed.22" vType="car" speedFactor="1.13" vaporized=""/>
    <tripinfo id="mixed.18" depart="27.00" departLane="beg_0" departPos="2.20" departPosLat="-0.77" departSpeed="0.00" departDelay="9.00" arrival="241.00" arrivalLane="end_1" arrivalPos="200.00" arrivalPosLat="-0.33" arrivalSpeed="7.77" duration="214.00" routeLength="497.80" waitSteps="135" timeLoss="153.06" rerouteNo="0" devices="tripinfo_mixed.18" vType="moped" speedFactor="0.59" vaporized=""/>
    <tripinfo id="mixed.33" depart="44.00" departLane="beg_0" departPos="2.20" departPosLat="0.81" departSpeed="0.00" departDelay="11.00" arrival="242.00" arrivalLane="end_0" arrivalPos="200.00" arrivalPosLat="0.73" arrivalSpeed="11.14" duration="198.00" routeLength="497.80" waitSteps="133" timeLoss="167.82" rerouteNo="0" devices="tripinfo_mixed.33" vType="moped" speedFactor="1.31" vaporized=""/>
    <tripinfo id="mixed.34" depart="40.00" departLane="beg_0" departPos="2.20" departPosLat="-0.33" departSpeed="0.00" departDelay="6.00" arrival="242.00" arrivalLane="end_0" arrivalPos="200.00" arrivalPosLat="-1.20" arrivalSpeed="9.30" duration="202.00" routeLength="497.80" waitSteps="124" timeLoss="150.13" rerouteNo="0" devices="tripinfo_mixed.34" vType="moped" speedFactor="0.69" vaporized=""/>
    <tripinfo id="mixed.40" depart="53.00" departLane="beg_0" departPos="5.10" departPosLat="0.20" departSpeed="0.00" departDelay="13.00" arrival="243.00" arrivalLane="end_1" arrivalPos="200.00" arrivalPosLat="0.58" arrivalSpeed="12.24" duration="190.00" routeLength="494.90" waitSteps="120" timeLoss="149.88" rerouteNo="0" devices="tripinfo_mixed.40" vType="car" speedFactor="0.91" vaporized=""/>
    <tripinfo id="mixed.41" depart="55.00" departLane="beg_1" departPos="2.20" departPosLat="-0.48" departSpeed="0.00" departDelay="14.00" arrival="244.00" arrivalLane="end_0" arrivalPos="200.00" arrivalPosLat="0.08" arrivalSpeed="11.82" duration="189.00" routeLength="497.80" waitSteps="126" timeLoss="158.32" rerouteNo="0" devices="tripinfo_mixed.41" vType="moped" speedFactor="1.44" vaporized=""/>
    <tripinfo id="mixed.36" depart="60.00" departLane="beg_0" departPos="5.10" departPosLat="-0.23" departSpeed="0.00" departDelay="24.00" arrival="244.00" arrivalLane="end_1" arrivalPos="200.00" arrivalPosLat="-1.34" arrivalSpeed="11.14" duration="184.00" routeLength="494.90" waitSteps="119" timeLoss="143.05" rerouteNo="0" devices="tripinfo_mixed.36" vType="car" speedFactor="0.88" vaporized=""/>
    <tripinfo id="mixed.62" depart="85.00" departLane="beg_1" departPos="2.20" departPosLat="1.09" departSpeed="0.00" departDelay="23.00" arrival="244.00" arrivalLane="end_1" arrivalPos="200.00" arrivalPosLat="0.20" arrivalSpeed="16.03" duration="159.00" routeLength="497.80" waitSteps="99" timeLoss="128.47" rerouteNo="0" devices="tripinfo_mixed.62" vType="moped" speedFactor="1.18" vaporized=""/>
    <tripinfo id="mixed.49" depart="69.00" departLane="beg_0" departPos="5.10" departPosLat="0.61" departSpeed="0.00" departDelay="20.00" arrival="246.00" arrivalLane="end_0" arrivalPos="200.00" arrivalPosLat="-0.06" arrivalSpeed="13.61" duration="177.00" routeLength="494.90" waitSteps="114" timeLoss="142.23" rerouteNo="0" devices="tripinfo_mixed.49" vType="car" speedFactor="1.05" vaporized=""/>
    <tripinfo id="mixed.64" depart="87.00" departLane="beg_1" departPos="2.20" departPosLat="-0.93" departSpeed="0.00" departDelay="23.00" arrival="246.00" arrivalLane="end_1" arrivalPos="200.00" arrivalPosLat="1.20" arrivalSpeed="16.33" duration="159.00" routeLength="497.80" waitSteps="98" timeLoss="128.31" rerouteNo="0" devices="tripinfo_mixed.64" vType="moped" speedFactor="1.25" vaporized=""/>
    <tripinfo id="mixed.53" depart="77.00" departLane="beg_1" departPos="5.10" departPosLat="0.20" departSpeed="0.00" departDelay="24.00" arrival="246.00" arrivalLane="end_1" arrivalPos="200.00" arrivalPosLat="-1.34" arrivalSpeed="15.69" duration="169.00" routeLength="494.90" waitSteps="108" timeLoss="138.00" rerouteNo="0" devices="tripinfo_mixed.53" vType="car" speedFactor="1.16" vaporized=""/>
    <tripinfo id="mixed.38" depart="49.00" departLane="beg_1" departPos="5.10" departPosLat="-0.06" departSpeed="0.00" departDelay="11.00" arrival="247.00" arrivalLane="end_0" arrivalPos="200.00" arrivalPosLat="0.70" arrivalSpeed="15.06" duration="198.00" routeLength="494.90" waitSteps="125" timeLoss="168.08" rerouteNo="0" devices="tripinfo_mixed.38" vType="car" speedFactor="1.20" vaporized=""/>
    <tripinfo id="mixed.58" depart="80.00" departLane="beg_1" departPos="2.20" departPosLat="0.61" departSpeed="0.00" departDelay="22.00" arrival="249.00" arrivalLane="end_0" arrivalPos="200.00" arrivalPosLat="1.36" arrivalSpeed="14.19" duration="169.00" routeLength="497.80" waitSteps="105" timeLoss="138.33" rerouteNo="0" devices="tripinfo_mixed.58" vType="moped" speedFactor="1.39" vaporized=""/>
    <tripinfo id="mixed.16" depart="23.00" departLane="beg_0" departPos="2.20" departPosLat="0.05" departSpeed="0.00" departDelay="7.00" arrival="250.00" arrivalLane="end_0" arrivalPos="200.00" arrivalPosLat="-1.20" arrivalSpeed="6.25" duration="227.00" routeLength="497.80" waitSteps="132" timeLoss="151.06" rerouteNo="0" devices="tripinfo_mixed.16" vType="moped" speedFactor="0.48" vaporized=""/>
    <tripinfo id="mixed.45" depart="56.00" departLane="beg_0" departPos="2.20" departPosLat="1.02" departSpeed="0.00" departDelay="11.00" arrival="250.00" arrivalLane="end_0" arrivalPos="200.00" arrivalPosLat="0.98" arrivalSpeed="13.08" duration="194.00" routeLength="497.80" waitSteps="125" timeLoss="161.10" rerouteNo="0" devices="tripinfo_mixed.45" vType="moped" speedFactor="1.12" vaporized=""/>
    <tripinfo id="mixed.59" depart="84.00" departLane="beg_1" departPos="2.20" departPosLat="0.57" departSpeed="0.00" departDelay="25.00" arrival="250.00" arrivalLane="end_1" arrivalPos="200.00" arrivalPosLat="-1.20" arrivalSpeed="14.00" duration="166.00" routeLength="497.80" waitSteps="98" timeLoss="131.58" rerouteNo="0" devices="tripinfo_mixed.59" vType="moped" speedFactor="1.05" vaporized=""/>
    <tripinfo id="mixed.46" depart="66.00" departLane="beg_1" departPos="2.20" departPosLat="0.89" departSpeed="0.00" departDelay="20.00" arrival="251.00" arrivalLane="end_0" arrivalPos="200.00" arrivalPosLat="-1.20" arrivalSpeed="8.51" duration="185.00" routeLength="497.80" waitSteps="115" timeLoss="154.80" rerouteNo="0" devices="tripinfo_mixed.46" vType="moped" speedFactor="1.70" vaporized=""/>
    <tripinfo id="mixed.50" depart="69.00" departLane="beg_0" departPos="2.20" departPosLat="-1.17" departSpeed="0.00" departDelay="19.00" arrival="251.00" arrivalLane="end_0" arrivalPos="200.00" arrivalPosLat="0.96" arrivalSpeed="12.79" duration="182.00" routeLength="497.80" waitSteps="106" timeLoss="151.75" rerouteNo="0" devices="tripinfo_mixed.50" vType="moped" speedFactor="1.36" vaporized=""/>
    <tripinfo id="mixed.66" depart="96.00" departLane="beg_0" departPos="5.10" departPosLat="0.48" departSpeed="0.00" departDelay="30.00" arrival="252.00" arrivalLane="end_1" arrivalPos="200.00" arrivalPosLat="0.70" arrivalSpeed="15.91" duration="156.00" routeLength="494.90" waitSteps="96" timeLoss="126.95" rerouteNo="0" devices="tripinfo_mixed.66" vType="car" speedFactor="1.25" vaporized=""/>
    <tripinfo id="mixed.54" depart="77.00" departLane="beg_0" departPos="2.20" departPosLat="0.21" departSpeed="0.00" departDelay="23.00" arrival="253.00" arrivalLane="end_0" arrivalPos="200.00" arrivalPosLat="0.08" arrivalSpeed="13.71" duration="176.00" routeLength="497.80" waitSteps="108" timeLoss="145.27" rerouteNo="0" devices="tripinfo_mixed.54" vType="moped" speedFactor="1.20" vaporized=""/>
    <tripinfo id="mixed.77" depart="108.00" departLane="beg_0" departPos="2.20" departPosLat="0.14" departSpeed="0.00" departDelay="31.00" arrival="254.00" arrivalLane="end_0" arrivalPos="200.00" arrivalPosLat="1.36" arrivalSpeed="13.50" duration="146.00" routeLength="497.80" waitSteps="85" timeLoss="115.64" rerouteNo="0" devices="tripinfo_mixed.77" vType="moped" speedFactor="1.32" vaporized=""/>
    <tripinfo id="mixed.75" depart="107.00" departLane="beg_1" departPos="2.20" departPosLat="0.09" departSpeed="0.00" departDelay="32.00" arrival="254.00" arrivalLane="end_1" arrivalPos="200.00" arrivalPosLat="0.20" arrivalSpeed="14.39" duration="147.00" routeLength="497.80" waitSteps="82" timeLoss="113.90" rerouteNo="0" devices="tripinfo_mixed.75" vType="moped" speedFactor="1.11" vaporized=""/>
    <tripinfo id="mixed.74" depart="103.00" departLane="beg_1" departPos="2.20" departPosLat="-0.03" departSpeed="0.00" departDelay="29.00" arrival="255.00" arrivalLane="end_1" arrivalPos="200.00" arrivalPosLat="0.08" arrivalSpeed="13.86" duration="152.00" routeLength="497.80" waitSteps="81" timeLoss="120.71" rerouteNo="0" devices="tripinfo_mixed.74" vType="moped" speedFactor="1.15" vaporized=""/>
    <tripinfo id="mixed.29" depart="47.00" departLane="beg_0" departPos="2.20" departPosLat="-0.03" departSpeed="0.00" departDelay="18.00" arrival="257.00" arrivalLane="end_1" arrivalPos="200.00" arrivalPosLat="-1.20" arrivalSpeed="9.75" duration="210.00" routeLength="497.80" waitSteps="124" timeLoss="159.71" rerouteNo="0" devices="tripinfo_mixed.29" vType="moped" speedFactor="0.72" vaporized=""/>
    <tripinfo id="mixed.47" depart="65.00" departLane="beg_0" departPos="2.20" departPosLat="0.72" departSpeed="0.00" departDelay="18.00" arrival="257.00" arrivalLane="end_1" arrivalPos="200.00" arrivalPosLat="1.07" arrivalSpeed="14.72" duration="192.00" routeLength="497.80" waitSteps="122" timeLoss="157.55" rerouteNo="0" devices="tripinfo_mixed.47" vType="moped" speedFactor="1.07" vaporized=""/>
    <tripinfo id="mixed.31" depart="44.00" departLane="beg_0" departPos="5.10" departPosLat="-0.59" departSpeed="0.00" departDelay="13.00" arrival="258.00" arrivalLane="end_0" arrivalPos="200.00" arrivalPosLat="0.58" arrivalSpeed="8.86" duration="214.00" routeLength="494.90" waitSteps="124" timeLoss="163.25" rerouteNo="0" devices="tripinfo_mixed.31" vType="car" speedFactor="0.71" vaporized=""/>
    <tripinfo id="mixed.42" depart="56.00" departLane="beg_0" departPos="2.20" departPosLat="-1.01" departSpeed="0.00" departDelay="14.00" arrival="260.00" arrivalLane="end_0" arrivalPos="200.00" arrivalPosLat="-1.20" arrivalSpeed="10.92" duration="204.00" routeLength="497.80" waitSteps="126" timeLoss="158.80" rerouteNo="0" devices="tripinfo_mixed.42" vType="moped" speedFactor="0.81" vaporized=""/>
    <tripinfo id="mixed.60" depart="85.00" departLane="beg_0" departPos="5.10" departPosLat="0.45" departSpeed="0.00" departDelay="25.00" arrival="260.00" arrivalLane="end_1" arrivalPos="200.00" arrivalPosLat="-0.34" arrivalSpeed="13.11" duration="175.00" routeLength="494.90" waitSteps="101" timeLoss="138.92" rerouteNo="0" devices="tripinfo_mixed.60" vType="car" speedFactor="1.01" vaporized=""/>
    <tripinfo id="mixed.51" depart="72.00" departLane="beg_0" departPos="2.20" departPosLat="0.39" departSpeed="0.00" departDelay="21.00" arrival="261.00" arrivalLane="end_0" arrivalPos="200.00" arrivalPosLat="-0.56" arrivalSpeed="11.33" duration="189.00" routeLength="497.80" waitSteps="117" timeLoss="158.78" rerouteNo="0" devices="tripinfo_mixed.51" vType="moped" speedFactor="1.89" vaporized=""/>
    <tripinfo id="mixed.76" depart="104.00" departLane="beg_1" departPos="2.20" departPosLat="0.47" departSpeed="0.00" departDelay="28.00" arrival="261.00" arrivalLane="end_1" arrivalPos="200.00" arrivalPosLat="0.20" arrivalSpeed="9.70" duration="157.00" routeLength="497.80" waitSteps="86" timeLoss="105.93" rerouteNo="0" devices="tripinfo_mixed.76" vType="moped" speedFactor="0.70" vaporized=""/>
    <tripinfo id="mixed.68" depart="97.00" departLane="beg_1" departPos="5.10" departPosLat="-0.22" departSpeed="0.00" departDelay="29.00" arrival="261.00" arrivalLane="end_1" arrivalPos="200.00" arrivalPosLat="-1.30" arrivalSpeed="13.69" duration="164.00" routeLength="494.90" waitSteps="94" timeLoss="134.49" rerouteNo="0" devices="tripinfo_mixed.68" vType="car" speedFactor="1.22" vaporized=""/>
    <tripinfo id="mixed.48" depart="69.00" departLane="beg_1" departPos="2.20" departPosLat="0.04" departSpeed="0.00" departDelay="21.00" arrival="263.00" arrivalLane="end_0" arrivalPos="200.00" arrivalPosLat="-0.56" arrivalSpeed="14.23" duration="194.00" routeLength="497.80" waitSteps="118" timeLoss="163.24" rerouteNo="0" devices="tripinfo_mixed.48" vType="moped" speedFactor="1.38" vaporized=""/>
    <tripinfo id="mixed.90" depart="125.00" departLane="beg_1" departPos="2.20" departPosLat="-1.02" departSpeed="0.00" departDelay="35.00" arrival="263.00" arrivalLane="end_1" arrivalPos="200.00" arrivalPosLat="0.20" arrivalSpeed="10.97" duration="138.00" routeLength="497.80" waitSteps="62" timeLoss="100.21" rerouteNo="0" devices="tripinfo_mixed.90" vType="moped" speedFactor="0.96" vaporized=""/>
    <tripinfo id="mixed.72" depart="100.00" departLane="beg_0" departPos="5.10" departPosLat="0.64" departSpeed="0.00" departDelay="28.00" arrival="263.00" arrivalLane="end_1" arrivalPos="200.00" arrivalPosLat="-1.34" arrivalSpeed="14.64" duration="163.00" routeLength="494.90" waitSteps="94" timeLoss="133.86" rerouteNo="0" devices="tripinfo_mixed.72" vType="car" speedFactor="1.24" vaporized=""/>
    <tripinfo id="mixed.89" depart="132.00" departLane="beg_1" departPos="2.20" departPosLat="0.84" departSpeed="0.00" departDelay="43.00" arrival="264.00" arrivalLane="end_1" arrivalPos="200.00" arrivalPosLat="1.20" arrivalSpeed="10.35" duration="132.00" routeLength="497.80" waitSteps="62" timeLoss="99.60" rerouteNo="0" devices="tripinfo_mixed.89" vType="moped" speedFactor="1.11" vaporized=""/>
    <tripinfo id="mixed.56" depart="81.00" departLane="beg_0" departPos="5.10" departPosLat="0.15" departSpeed="0.00" departDelay="25.00" arrival="265.00" arrivalLane="end_0" arrivalPos="200.00" arrivalPosLat="-0.13" arrivalSpeed="12.04" duration="184.00" routeLength="494.90" waitSteps="109" timeLoss="143.35" rerouteNo="0" devices="tripinfo_mixed.56" vType="car" speedFactor="0.89" vaporized=""/>
    <tripinfo id="mixed.82" depart="119.00" departLane="beg_1" departPos="5.10" departPosLat="0.59" departSpeed="0.00" departDelay="37.00" arrival="265.00" arrivalLane="end_1" arrivalPos="200.00" arrivalPosLat="-0.58" arrivalSpeed="13.90" duration="146.00" routeLength="494.90" waitSteps="77" timeLoss="110.21" rerouteNo="0" devices="tripinfo_mixed.82" vType="car" speedFactor="1.02" vaporized=""/>
    <tripinfo id="mixed.91" depart="127.00" departLane="beg_1" departPos="2.20" departPosLat="0.39" departSpeed="0.00" departDelay="36.00" arrival="266.00" arrivalLane="end_1" arrivalPos="200.00" arrivalPosLat="1.20" arrivalSpeed="11.26" duration="139.00" routeLength="497.80" waitSteps="66" timeLoss="101.01" rerouteNo="0" devices="tripinfo_mixed.91" vType="moped" speedFactor="0.96" vaporized=""/>
    <tripinfo id="mixed.61" depart="92.00" departLane="beg_1" departPos="5.10" departPosLat="-0.17" departSpeed="0.00" departDelay="31.00" arrival="267.00" arrivalLane="end_0" arrivalPos="200.00" arrivalPosLat="0.58" arrivalSpeed="14.52" duration="175.00" routeLength="494.90" waitSteps="102" timeLoss="142.07" rerouteNo="0" devices="tripinfo_mixed.61" vType="car" speedFactor="1.12" vaporized=""/>
    <tripinfo id="mixed.88" depart="131.00" departLane="beg_1" departPos="5.10" departPosLat="0.25" departSpeed="0.00" departDelay="43.00" arrival="267.00" arrivalLane="end_1" arrivalPos="200.00" arrivalPosLat="0.30" arrivalSpeed="16.21" duration="136.00" routeLength="494.90" waitSteps="71" timeLoss="111.49" rerouteNo="0" devices="tripinfo_mixed.88" vType="car" speedFactor="1.51" vaporized=""/>
    <tripinfo id="mixed.8" depart="12.00" departLane="beg_1" departPos="2.20" departPosLat="-0.53" departSpeed="0.00" departDelay="4.00" arrival="268.00" arrivalLane="end_0" arrivalPos="200.00" arrivalPosLat="-1.20" arrivalSpeed="4.46" duration="256.00" routeLength="497.80" waitSteps="130" timeLoss="148.43" rerouteNo="0" devices="tripinfo_mixed.8" vType="moped" speedFactor="0.33" vaporized=""/>
    <tripinfo id="mixed.63" depart="88.00" departLane="beg_0" departPos="2.20" departPosLat="0.41" departSpeed="0.00" departDelay="25.00" arrival="268.00" arrivalLane="end_0" arrivalPos="200.00" arrivalPosLat="0.26" arrivalSpeed="14.04" duration="180.00" routeLength="497.80" waitSteps="98" timeLoss="144.47" rerouteNo="0" devices="tripinfo_mixed.63" vType="moped" speedFactor="1.02" vaporized=""/>
    <tripinfo id="mixed.80" depart="116.00" departLane="beg_0" departPos="5.10" departPosLat="-0.04" departSpeed="0.00" departDelay="36.00" arrival="268.00" arrivalLane="end_1" arrivalPos="200.00" arrivalPosLat="-1.28" arrivalSpeed="14.37" duration="152.00" routeLength="494.90" waitSteps="76" timeLoss="117.94" rerouteNo="0" devices="tripinfo_mixed.80" vType="car" speedFactor="1.05" vaporized=""/>
    <tripinfo id="mixed.87" depart="134.00" departLane="beg_0" departPos="5.10" departPosLat="-0.46" departSpeed="0.00" departDelay="47.00" arrival="269.00" arrivalLane="end_1" arrivalPos="200.00" arrivalPosLat="-0.06" arrivalSpeed="11.31" duration="135.00" routeLength="494.90" waitSteps="59" timeLoss="94.57" rerouteNo="0" devices="tripinfo_mixed.87" vType="car" speedFactor="0.90" vaporized=""/>
    <tripinfo id="mixed.32" depart="42.00" departLane="beg_1" departPos="2.20" departPosLat="0.33" departSpeed="0.00" departDelay="10.00" arrival="270.00" arrivalLane="end_0" arrivalPos="200.00" arrivalPosLat="-1.20" arrivalSpeed="6.14" duration="228.00" routeLength="497.80" waitSteps="123" timeLoss="166.19" rerouteNo="0" devices="tripinfo_mixed.32" vType="moped" speedFactor="0.58" vaporized=""/>