<?xml version="1.0" encoding="UTF-8"?>

<!-- generated on Thu Mar 30 15:43:30 2017 by SUMO Version dev-SVN-r23727
<?xml version="1.0" encoding="UTF-8"?>

<configuration xmlns:xsi="http://www.w3.org/2001/XMLSchema-instance" xsi:noNamespaceSchemaLocation="http://sumo.dlr.de/xsd/sumoConfiguration.xsd">

    <input>
        <net-file value="net.net.xml"/>
        <route-files value="input_routes.rou.xml"/>
    </input>

    <output>
        <tripinfo-output value="tripinfos.xml"/>
    </output>

    <processing>
        <lateral-resolution value="0.64"/>
    </processing>

    <report>
        <xml-validation value="never"/>
        <no-step-log value="true"/>
    </report>

</configuration>
-->

<tripinfos xmlns:xsi="http://www.w3.org/2001/XMLSchema-instance" xsi:noNamespaceSchemaLocation="http://sumo.dlr.de/xsd/tripinfo_file.xsd">
    <tripinfo id="mixed.15" depart="21.00" departLane="beg_0" departPos="5.10" departPosLat="0.10" departSpeed="0.00" departDelay="6.00" arrival="217.00" arrivalLane="end_1" arrivalPos="200.00" arrivalPosLat="-0.70" arrivalSpeed="17.09" duration="196.00" routeLength="494.90" waitSteps="141" timeLoss="168.31" rerouteNo="0" devices="tripinfo_mixed.15" vType="car" speedFactor="1.31" vaporized=""/>
    <tripinfo id="mixed.2" depart="4.00" departLane="beg_1" departPos="5.10" departPosLat="0.53" departSpeed="0.00" departDelay="2.00" arrival="218.00" arrivalLane="end_0" arrivalPos="200.00" arrivalPosLat="-0.70" arrivalSpeed="13.69" duration="214.00" routeLength="494.90" waitSteps="168" timeLoss="177.39" rerouteNo="0" devices="tripinfo_mixed.2" vType="car" speedFactor="0.99" vaporized=""/>
    <tripinfo id="mixed.21" depart="32.00" departLane="beg_1" departPos="5.10" departPosLat="0.53" departSpeed="0.00" departDelay="11.00" arrival="219.00" arrivalLane="end_1" arrivalPos="200.00" arrivalPosLat="0.30" arrivalSpeed="16.35" duration="187.00" routeLength="494.90" waitSteps="139" timeLoss="157.59" rerouteNo="0" devices="tripinfo_mixed.21" vType="car" speedFactor="1.23" vaporized=""/>
    <tripinfo id="mixed.5" depart="9.00" departLane="beg_0" departPos="5.10" departPosLat="-0.61" departSpeed="0.00" departDelay="4.00" arrival="220.00" arrivalLane="end_0" arrivalPos="200.00" arrivalPosLat="-0.70" arrivalSpeed="10.35" duration="211.00" routeLength="494.90" waitSteps="157" timeLoss="167.55" rerouteNo="0" devices="tripinfo_mixed.5" vType="car" speedFactor="0.82" vaporized=""/>
    <tripinfo id="mixed.1" depart="1.00" departLane="beg_1" departPos="2.20" departPosLat="0.22" departSpeed="0.00" departDelay="0.00" arrival="222.00" arrivalLane="end_0" arrivalPos="200.00" arrivalPosLat="-1.20" arrivalSpeed="13.78" duration="221.00" routeLength="497.80" waitSteps="166" timeLoss="184.50" rerouteNo="0" devices="tripinfo_mixed.1" vType="moped" speedFactor="0.99" vaporized=""/>
    <tripinfo id="mixed.20" depart="21.00" departLane="beg_1" departPos="2.20" departPosLat="-1.16" departSpeed="0.00" departDelay="1.00" arrival="223.00" arrivalLane="end_0" arrivalPos="200.00" arrivalPosLat="0.08" arrivalSpeed="16.55" duration="202.00" routeLength="497.80" waitSteps="150" timeLoss="171.16" rerouteNo="0" devices="tripinfo_mixed.20" vType="moped" speedFactor="1.23" vaporized=""/>
    <tripinfo id="mixed.0" depart="0.00" departLane="beg_0" departPos="2.20" departPosLat="0.51" departSpeed="0.00" departDelay="0.00" arrival="225.00" arrivalLane="end_0" arrivalPos="200.00" arrivalPosLat="-1.20" arrivalSpeed="11.88" duration="225.00" routeLength="497.80" waitSteps="167" timeLoss="183.26" rerouteNo="0" devices="tripinfo_mixed.0" vType="moped" speedFactor="0.88" vaporized=""/>
    <tripinfo id="mixed.10" depart="12.00" departLane="beg_0" departPos="2.20" departPosLat="-0.90" departSpeed="0.00" departDelay="2.00" arrival="225.00" arrivalLane="end_1" arrivalPos="200.00" arrivalPosLat="-1.20" arrivalSpeed="16.39" duration="213.00" routeLength="497.80" waitSteps="153" timeLoss="182.71" rerouteNo="0" devices="tripinfo_mixed.10" vType="moped" speedFactor="1.37" vaporized=""/>
    <tripinfo id="mixed.4" depart="5.00" departLane="beg_0" departPos="2.20" departPosLat="0.11" departSpeed="0.00" departDelay="1.00" arrival="226.00" arrivalLane="end_0" arrivalPos="200.00" arrivalPosLat="0.08" arrivalSpeed="13.06" duration="221.00" routeLength="497.80" waitSteps="165" timeLoss="182.81" rerouteNo="0" devices="tripinfo_mixed.4" vType="moped" speedFactor="0.95" vaporized=""/>
    <tripinfo id="mixed.7" depart="10.00" departLane="beg_1" departPos="2.20" departPosLat="-0.18" departSpeed="0.00" departDelay="3.00" arrival="227.00" arrivalLane="end_0" arrivalPos="200.00" arrivalPosLat="-1.20" arrivalSpeed="15.67" duration="217.00" routeLength="497.80" waitSteps="164" timeLoss="186.58" rerouteNo="0" devices="tripinfo_mixed.7" vType="moped" speedFactor="1.53" vaporized=""/>
    <tripinfo id="mixed.26" depart="36.00" departLane="beg_1" departPos="2.20" departPosLat="0.20" departSpeed="0.00" departDelay="10.00" arrival="227.00" arrivalLane="end_1" arrivalPos="200.00" arrivalPosLat="1.08" arrivalSpeed="14.71" duration="191.00" routeLength="497.80" waitSteps="136" timeLoss="157.26" rerouteNo="0" devices="tripinfo_mixed.26" vType="moped" speedFactor="1.08" vaporized=""/>
    <tripinfo id="mixed.6" depart="9.00" departLane="beg_1" departPos="2.20" departPosLat="1.18" departSpeed="0.00" departDelay="3.00" arrival="228.00" arrivalLane="end_1" arrivalPos="200.00" arrivalPosLat="-0.94" arrivalSpeed="12.02" duration="219.00" routeLength="497.80" waitSteps="157" timeLoss="177.25" rerouteNo="0" devices="tripinfo_mixed.6" vType="moped" speedFactor="0.88" vaporized=""/>
    <tripinfo id="mixed.28" depart="41.00" departLane="beg_0" departPos="2.20" departPosLat="0.42" departSpeed="0.00" departDelay="13.00" arrival="228.00" arrivalLane="end_1" arrivalPos="200.00" arrivalPosLat="1.08" arrivalSpeed="15.68" duration="187.00" routeLength="497.80" waitSteps="122" timeLoss="156.94" rerouteNo="0" devices="tripinfo_mixed.28" vType="moped" speedFactor="1.22" vaporized=""/>
    <tripinfo id="mixed.3" depart="7.00" departLane="beg_1" departPos="5.10" departPosLat="-0.46" departSpeed="0.00" departDelay="4.00" arrival="229.00" arrivalLane="end_0" arrivalPos="200.00" arrivalPosLat="0.64" arrivalSpeed="8.80" duration="222.00" routeLength="494.90" waitSteps="159" timeLoss="170.88" rerouteNo="0" devices="tripinfo_mixed.3" vType="car" speedFactor="0.71" vaporized=""/>
    <tripinfo id="mixed.11" depart="14.00" departLane="beg_1" departPos="2.20" departPosLat="-0.80" departSpeed="0.00" departDelay="3.00" arrival="229.00" arrivalLane="end_0" arrivalPos="200.00" arrivalPosLat="-1.20" arrivalSpeed="12.92" duration="215.00" routeLength="497.80" waitSteps="159" timeLoss="177.50" rerouteNo="0" devices="tripinfo_mixed.11" vType="moped" speedFactor="0.96" vaporized=""/>
    <tripinfo id="mixed.9" depart="13.00" departLane="beg_1" departPos="2.20" departPosLat="-0.17" departSpeed="0.00" departDelay="4.00" arrival="229.00" arrivalLane="end_1" arrivalPos="200.00" arrivalPosLat="-1.20" arrivalSpeed="12.34" duration="216.00" routeLength="497.80" waitSteps="154" timeLoss="185.71" rerouteNo="0" devices="tripinfo_mixed.9" vType="moped" speedFactor="1.29" vaporized=""/>
    <tripinfo id="mixed.17" depart="20.00" departLane="beg_1" departPos="2.20" departPosLat="1.01" departSpeed="0.00" departDelay="3.00" arrival="230.00" arrivalLane="end_0" arrivalPos="200.00" arrivalPosLat="0.56" arrivalSpeed="9.91" duration="210.00" routeLength="497.80" waitSteps="151" timeLoss="180.09" rerouteNo="0" devices="tripinfo_mixed.17" vType="moped" speedFactor="1.91" vaporized=""/>
    <tripinfo id="mixed.33" depart="42.00" departLane="beg_1" departPos="2.20" departPosLat="0.33" departSpeed="0.00" departDelay="9.00" arrival="230.00" arrivalLane="end_1" arrivalPos="200.00" arrivalPosLat="1.20" arrivalSpeed="16.29" duration="188.00" routeLength="497.80" waitSteps="127" timeLoss="157.25" rerouteNo="0" devices="tripinfo_mixed.33" vType="moped" speedFactor="1.31" vaporized=""/>
    <tripinfo id="mixed.23" depart="28.00" departLane="beg_1" departPos="2.20" departPosLat="1.18" departSpeed="0.00" departDelay="5.00" arrival="230.00" arrivalLane="end_1" arrivalPos="200.00" arrivalPosLat="-1.00" arrivalSpeed="12.66" duration="202.00" routeLength="497.80" waitSteps="143" timeLoss="172.01" rerouteNo="0" devices="tripinfo_mixed.23" vType="moped" speedFactor="1.31" vaporized=""/>
    <tripinfo id="mixed.13" depart="17.00" departLane="beg_1" departPos="2.20" departPosLat="0.40" departSpeed="0.00" departDelay="4.00" arrival="231.00" arrivalLane="end_0" arrivalPos="200.00" arrivalPosLat="-1.20" arrivalSpeed="12.21" duration="214.00" routeLength="497.80" waitSteps="153" timeLoss="174.30" rerouteNo="0" devices="tripinfo_mixed.13" vType="moped" speedFactor="0.91" vaporized=""/>
    <tripinfo id="mixed.12" depart="16.00" departLane="beg_0" departPos="2.20" departPosLat="-0.66" departSpeed="0.00" departDelay="4.00" arrival="232.00" arrivalLane="end_0" arrivalPos="200.00" arrivalPosLat="0.08" arrivalSpeed="10.49" duration="216.00" routeLength="497.80" waitSteps="154" timeLoss="184.43" rerouteNo="0" devices="tripinfo_mixed.12" vType="moped" speedFactor="1.15" vaporized=""/>
    <tripinfo id="mixed.24" depart="34.00" departLane="beg_0" departPos="2.20" departPosLat="0.28" departSpeed="0.00" departDelay="10.00" arrival="233.00" arrivalLane="end_0" arrivalPos="200.00" arrivalPosLat="0.52" arrivalSpeed="10.92" duration="199.00" routeLength="497.80" waitSteps="136" timeLoss="166.77" rerouteNo="0" devices="tripinfo_mixed.24" vType="moped" speedFactor="1.12" vaporized=""/>
    <tripinfo id="mixed.14" depart="18.00" departLane="beg_0" departPos="5.10" departPosLat="0.58" departSpeed="0.00" departDelay="4.00" arrival="233.00" arrivalLane="end_1" arrivalPos="200.00" arrivalPosLat="-0.47" arrivalSpeed="11.11" duration="215.00" routeLength="494.90" waitSteps="140" timeLoss="174.13" rerouteNo="0" devices="tripinfo_mixed.14" vType="car" speedFactor="0.89" vaporized=""/>
    <tripinfo id="mixed.19" depart="28.00" departLane="beg_0" departPos="5.10" departPosLat="-0.52" departSpeed="0.00" departDelay="9.00" arrival="234.00" arrivalLane="end_1" arrivalPos="200.00" arrivalPosLat="-1.34" arrivalSpeed="12.64" duration="206.00" routeLength="494.90" waitSteps="135" timeLoss="176.19" rerouteNo="0" devices="tripinfo_mixed.19" vType="car" speedFactor="1.20" vaporized=""/>
    <tripinfo id="mixed.22" depart="25.00" departLane="beg_0" departPos="5.10" departPosLat="0.64" departSpeed="0.00" departDelay="3.00" arrival="235.00" arrivalLane="end_0" arrivalPos="200.00" arrivalPosLat="-0.70" arrivalSpeed="13.90" duration="210.00" routeLength="494.90" waitSteps="134" timeLoss="177.99" rerouteNo="0" devices="tripinfo_mixed.22" vType="car" speedFactor="1.13" vaporized=""/>
    <tripinfo id="mixed.25" depart="47.00" departLane="beg_0" departPos="5.10" departPosLat="0.63" departSpeed="0.00" departDelay="22.00" arrival="236.00" arrivalLane="end_0" arrivalPos="200.00" arrivalPosLat="1.09" arrivalSpeed="13.51" duration="189.00" routeLength="494.90" waitSteps="129" timeLoss="152.35" rerouteNo="0" devices="tripinfo_mixed.25" vType="car" speedFactor="0.99" vaporized=""/>
    <tripinfo id="mixed.45" depart="65.00" departLane="beg_0" departPos="2.20" departPosLat="0.72" departSpeed="0.00" departDelay="20.00" arrival="236.00" arrivalLane="end_1" arrivalPos="200.00" arrivalPosLat="0.08" arrivalSpeed="15.09" duration="171.00" routeLength="497.80" waitSteps="95" timeLoss="138.11" rerouteNo="0" devices="tripinfo_mixed.45" vType="moped" speedFactor="1.12" vaporized=""/>
    <tripinfo id="mixed.30" depart="38.00" departLane="beg_0" departPos="2.20" departPosLat="-0.89" departSpeed="0.00" departDelay="8.00" arrival="238.00" arrivalLane="end_0" arrivalPos="200.00" arrivalPosLat="0.64" arrivalSpeed="12.99" duration="200.00" routeLength="497.80" waitSteps="126" timeLoss="162.47" rerouteNo="0" devices="tripinfo_mixed.30" vType="moped" speedFactor="0.97" vaporized=""/>
    <tripinfo id="mixed.47" depart="65.00" departLane="beg_1" departPos="2.20" departPosLat="-0.37" departSpeed="0.00" departDelay="18.00" arrival="238.00" arrivalLane="end_1" arrivalPos="200.00" arrivalPosLat="1.20" arrivalSpeed="14.65" duration="173.00" routeLength="497.80" waitSteps="94" timeLoss="138.71" rerouteNo="0" devices="tripinfo_mixed.47" vType="moped" speedFactor="1.07" vaporized=""/>
    <tripinfo id="mixed.51" depart="66.00" departLane="beg_1" departPos="2.20" departPosLat="1.02" departSpeed="0.00" departDelay="15.00" arrival="239.00" arrivalLane="end_1" arrivalPos="200.00" arrivalPosLat="1.08" arrivalSpeed="15.54" duration="173.00" routeLength="497.80" waitSteps="108" timeLoss="142.75" rerouteNo="0" devices="tripinfo_mixed.51" vType="moped" speedFactor="1.89" vaporized=""/>
    <tripinfo id="mixed.29" depart="39.00" departLane="beg_1" departPos="2.20" departPosLat="-0.34" departSpeed="0.00" departDelay="10.00" arrival="240.00" arrivalLane="end_1" arrivalPos="200.00" arrivalPosLat="-0.80" arrivalSpeed="10.06" duration="201.00" routeLength="497.80" waitSteps="134" timeLoss="150.66" rerouteNo="0" devices="tripinfo_mixed.29" vType="moped" speedFactor="0.72" vaporized=""/>
    <tripinfo id="mixed.18" depart="25.00" departLane="beg_1" departPos="2.20" departPosLat="-0.94" departSpeed="0.00" departDelay="7.00" arrival="241.00" arrivalLane="end_0" arrivalPos="200.00" arrivalPosLat="-1.20" arrivalSpeed="8.17" duration="216.00" routeLength="497.80" waitSteps="141" timeLoss="154.79" rerouteNo="0" devices="tripinfo_mixed.18" vType="moped" speedFactor="0.59" vaporized=""/>
    <tripinfo id="mixed.59" depart="78.00" departLane="beg_1" departPos="2.20" departPosLat="1.17" departSpeed="0.00" departDelay="19.00" arrival="241.00" arrivalLane="end_1" arrivalPos="200.00" arrivalPosLat="1.20" arrivalSpeed="14.38" duration="163.00" routeLength="497.80" waitSteps="95" timeLoss="128.69" rerouteNo="0" devices="tripinfo_mixed.59" vType="moped" speedFactor="1.05" vaporized=""/>
    <tripinfo id="mixed.27" depart="31.00" departLane="beg_0" departPos="2.20" departPosLat="0.17" departSpeed="0.00" departDelay="4.00" arrival="242.00" arrivalLane="end_0" arrivalPos="200.00" arrivalPosLat="0.08" arrivalSpeed="9.47" duration="211.00" routeLength="497.80" waitSteps="125" timeLoss="157.90" rerouteNo="0" devices="tripinfo_mixed.27" vType="moped" speedFactor="0.69" vaporized=""/>
    <tripinfo id="mixed.36" depart="54.00" departLane="beg_1" departPos="5.10" departPosLat="0.05" departSpeed="0.00" departDelay="18.00" arrival="242.00" arrivalLane="end_1" arrivalPos="200.00" arrivalPosLat="-0.61" arrivalSpeed="11.96" duration="188.00" routeLength="494.90" waitSteps="117" timeLoss="146.57" rerouteNo="0" devices="tripinfo_mixed.36" vType="car" speedFactor="0.88" vaporized=""/>
    <tripinfo id="mixed.34" depart="46.00" departLane="beg_1" departPos="2.20" departPosLat="0.65" departSpeed="0.00" departDelay="12.00" arrival="243.00" arrivalLane="end_0" arrivalPos="200.00" arrivalPosLat="-1.20" arrivalSpeed="9.26" duration="197.00" routeLength="497.80" waitSteps="122" timeLoss="145.09" rerouteNo="0" devices="tripinfo_mixed.34" vType="moped" speedFactor="0.69" vaporized=""/>
    <tripinfo id="mixed.43" depart="59.00" departLane="beg_1" departPos="2.20" departPosLat="0.25" departSpeed="0.00" departDelay="16.00" arrival="243.00" arrivalLane="end_1" arrivalPos="200.00" arrivalPosLat="-1.20" arrivalSpeed="10.43" duration="184.00" routeLength="497.80" waitSteps="110" timeLoss="144.38" rerouteNo="0" devices="tripinfo_mixed.43" vType="moped" speedFactor="0.91" vaporized=""/>
    <tripinfo id="mixed.63" depart="84.00" departLane="beg_1" departPos="2.20" departPosLat="0.90" departSpeed="0.00" departDelay="21.00" arrival="243.00" arrivalLane="end_1" arrivalPos="200.00" arrivalPosLat="1.03" arrivalSpeed="14.09" duration="159.00" routeLength="497.80" waitSteps="92" timeLoss="123.58" rerouteNo="0" devices="tripinfo_mixed.63" vType="moped" speedFactor="1.02" vaporized=""/>
    <tripinfo id="mixed.46" depart="61.00" departLane="beg_0" departPos="2.20" departPosLat="-0.33" departSpeed="0.00" departDelay="15.00" arrival="244.00" arrivalLane="end_0" arrivalPos="200.00" arrivalPosLat="0.08" arrivalSpeed="12.77" duration="183.00" routeLength="497.80" waitSteps="108" timeLoss="152.72" rerouteNo="0" devices="tripinfo_mixed.46" vType="moped" speedFactor="1.70" vaporized=""/>
    <tripinfo id="mixed.40" depart="57.00" departLane="beg_1" departPos="5.10" departPosLat="0.20" departSpeed="0.00" departDelay="17.00" arrival="248.00" arrivalLane="end_1" arrivalPos="200.00" arrivalPosLat="-1.34" arrivalSpeed="11.77" duration="191.00" routeLength="494.90" waitSteps="118" timeLoss="151.11" rerouteNo="0" devices="tripinfo_mixed.40" vType="car" speedFactor="0.91" vaporized=""/>
    <tripinfo id="mixed.16" depart="24.00" departLane="beg_1" departPos="2.20" departPosLat="1.13" departSpeed="0.00" departDelay="8.00" arrival="249.00" arrivalLane="end_0" arrivalPos="200.00" arrivalPosLat="-1.20" arrivalSpeed="6.64" duration="225.00" routeLength="497.80" waitSteps="137" timeLoss="149.41" rerouteNo="0" devices="tripinfo_mixed.16" vType="moped" speedFactor="0.48" vaporized=""/>
    <tripinfo id="mixed.50" depart="69.00" departLane="beg_0" departPos="2.20" departPosLat="0.98" departSpeed="0.00" departDelay="19.00" arrival="249.00" arrivalLane="end_1" arrivalPos="200.00" arrivalPosLat="0.72" arrivalSpeed="14.66" duration="180.00" routeLength="497.80" waitSteps="108" timeLoss="149.69" rerouteNo="0" devices="tripinfo_mixed.50" vType="moped" speedFactor="1.36" vaporized=""/>
    <tripinfo id="mixed.31" depart="49.00" departLane="beg_0" departPos="5.10" departPosLat="-0.60" departSpeed="0.00" departDelay="18.00" arrival="250.00" arrivalLane="end_0" arrivalPos="200.00" arrivalPosLat="0.58" arrivalSpeed="9.33" duration="201.00" routeLength="494.90" waitSteps="123" timeLoss="149.92" rerouteNo="0" devices="tripinfo_mixed.31" vType="car" speedFactor="0.71" vaporized=""/>
    <tripinfo id="mixed.42" depart="57.00" departLane="beg_0" departPos="2.20" departPosLat="0.79" departSpeed="0.00" departDelay="15.00" arrival="253.00" arrivalLane="end_0" arrivalPos="200.00" arrivalPosLat="0.72" arrivalSpeed="10.85" duration="196.00" routeLength="497.80" waitSteps="110" timeLoss="151.47" rerouteNo="0" devices="tripinfo_mixed.42" vType="moped" speedFactor="0.81" vaporized=""/>
    <tripinfo id="mixed.39" depart="50.00" departLane="beg_1" departPos="2.20" departPosLat="0.88" departSpeed="0.00" departDelay="11.00" arrival="255.00" arrivalLane="end_0" arrivalPos="200.00" arrivalPosLat="-1.20" arrivalSpeed="8.10" duration="205.00" routeLength="497.80" waitSteps="118" timeLoss="146.56" rerouteNo="0" devices="tripinfo_mixed.39" vType="moped" speedFactor="0.62" vaporized=""/>
    <tripinfo id="mixed.35" depart="51.00" departLane="beg_0" departPos="2.20" departPosLat="-0.60" departSpeed="0.00" departDelay="16.00" arrival="255.00" arrivalLane="end_0" arrivalPos="200.00" arrivalPosLat="0.64" arrivalSpeed="11.95" duration="204.00" routeLength="497.80" waitSteps="117" timeLoss="163.37" rerouteNo="0" devices="tripinfo_mixed.35" vType="moped" speedFactor="0.89" vaporized=""/>
    <tripinfo id="mixed.66" depart="93.00" departLane="beg_1" departPos="5.10" departPosLat="0.61" departSpeed="0.00" departDelay="27.00" arrival="257.00" arrivalLane="end_1" arrivalPos="200.00" arrivalPosLat="0.58" arrivalSpeed="16.27" duration="164.00" routeLength="494.90" waitSteps="87" timeLoss="135.25" rerouteNo="0" devices="tripinfo_mixed.66" vType="car" speedFactor="1.25" vaporized=""/>
    <tripinfo id="mixed.44" depart="62.00" departLane="beg_1" departPos="2.20" departPosLat="0.45" departSpeed="0.00" departDelay="18.00" arrival="259.00" arrivalLane="end_0" arrivalPos="200.00" arrivalPosLat="0.72" arrivalSpeed="6.56" duration="197.00" routeLength="497.80" waitSteps="90" timeLoss="123.86" rerouteNo="0" devices="tripinfo_mixed.44" vType="moped" speedFactor="0.50" vaporized=""/>
    <tripinfo id="mixed.37" depart="50.00" departLane="beg_1" departPos="2.20" departPosLat="-0.09" departSpeed="0.00" departDelay="13.00" arrival="260.00" arrivalLane="end_0" arrivalPos="200.00" arrivalPosLat="0.72" arrivalSpeed="7.88" duration="210.00" routeLength="497.80" waitSteps="120" timeLoss="170.99" rerouteNo="0" devices="tripinfo_mixed.37" vType="moped" speedFactor="0.92" vaporized=""/>
    <tripinfo id="mixed.56" depart="74.00" departLane="beg_1" departPos="5.10" departPosLat="0.64" departSpeed="0.00" departDelay="18.00" arrival="260.00" arrivalLane="end_1" arrivalPos="200.00" arrivalPosLat="0.19" arrivalSpeed="11.29" duration="186.00" routeLength="494.90" waitSteps="96" timeLoss="145.04" rerouteNo="0" devices="tripinfo_mixed.56" vType="car" speedFactor="0.89" vaporized=""/>
    <tripinfo id="mixed.72" depart="101.00" departLane="beg_0" departPos="5.10" departPosLat="-0.30" departSpeed="0.00" departDelay="29.00" arrival="261.00" arrivalLane="end_1" arrivalPos="200.00" arrivalPosLat="0.70" arrivalSpeed="14.55" duration="160.00" routeLength="494.90" waitSteps="83" timeLoss="130.99" rerouteNo="0" devices="tripinfo_mixed.72" vType="car" speedFactor="1.24" vaporized=""/>
    <tripinfo id="mixed.60" depart="84.00" departLane="beg_0" departPos="5.10" departPosLat="0.29" departSpeed="0.00" departDelay="24.00" arrival="262.00" arrivalLane="end_0" arrivalPos="200.00" arrivalPosLat="1.28" arrivalSpeed="12.51" duration="178.00" routeLength="494.90" waitSteps="91" timeLoss="142.40" rerouteNo="0" devices="tripinfo_mixed.60" vType="car" speedFactor="1.01" vaporized=""/>
    <tripinfo id="mixed.64" depart="89.00" departLane="beg_1" departPos="2.20" departPosLat="0.53" departSpeed="0.00" departDelay="25.00" arrival="264.00" arrivalLane="end_1" arrivalPos="200.00" arrivalPosLat="-1.20" arrivalSpeed="11.51" duration="175.00" routeLength="497.80" waitSteps="90" timeLoss="144.72" rerouteNo="0" devices="tripinfo_mixed.64" vType="moped" speedFactor="1.25" vaporized=""/>
    <tripinfo id="mixed.73" depart="97.00" departLane="beg_1" departPos="2.20" departPosLat="0.76" departSpeed="0.00" departDelay="24.00" arrival="265.00" arrivalLane="end_1" arrivalPos="200.00" arrivalPosLat="0.08" arrivalSpeed="9.75" duration="168.00" routeLength="497.80" waitSteps="82" timeLoss="117.89" rerouteNo="0" devices="tripinfo_mixed.73" vType="moped" speedFactor="0.72" vaporized=""/>
    <tripinfo id="mixed.8" depart="12.00" departLane="beg_0" departPos="2.20" departPosLat="0.39" departSpeed="0.00" departDelay="4.00" arrival="267.00" arrivalLane="end_0" arrivalPos="200.00" arrivalPosLat="-1.20" arrivalSpeed="4.63" duration="255.00" routeLength="497.80" waitSteps="134" timeLoss="146.92" rerouteNo="0" devices="tripinfo_mixed.8" vType="moped" speedFactor="0.33" vaporized=""/>
    <tripinfo id="mixed.32" depart="44.00" departLane="beg_0" departPos="2.20" departPosLat="-1.02" departSpeed="0.00" departDelay="12.00" arrival="267.00" arrivalLane="end_0" arrivalPos="200.00" arrivalPosLat="0.62" arrivalSpeed="7.85" duration="223.00" routeLength="497.80" waitSteps="120" timeLoss="160.75" rerouteNo="0" devices="tripinfo_mixed.32" vType="moped" speedFactor="0.58" vaporized=""/>
    <tripinfo id="mixed.80" depart="113.00" departLane="beg_1" departPos="5.10" departPosLat="-0.08" departSpeed="0.00" departDelay="33.00" arrival="267.00" arrivalLane="end_1" arrivalPos="200.00" arrivalPosLat="0.19" arrivalSpeed="14.34" duration="154.00" routeLength="494.90" waitSteps="78" timeLoss="119.12" rerouteNo="0" devices="tripinfo_mixed.80" vType="car" speedFactor="1.05" vaporized=""/>
    <tripinfo id="mixed.82" depart="121.00" departLane="beg_1" departPos="5.10" departPosLat="-0.29" departSpeed="0.00" departDelay="39.00" arrival="268.00" arrivalLane="end_1" arrivalPos="200.00" arrivalPosLat="0.70" arrivalSpeed="13.59" duration="147.00" routeLength="494.90" waitSteps="74" timeLoss="111.80" rerouteNo="0" devices="tripinfo_mixed.82" vType="car" speedFactor="1.02" vaporized=""/>
    <tripinfo id="mixed.48" depart="58.00" departLane="beg_0" departPos="2.20" departPosLat="-0.82" departSpeed="0.00" departDelay="10.00" arrival="269.00" arrivalLane="end_0" arrivalPos="200.00" arrivalPosLat="-1.20" arrivalSpeed="10.69" duration="211.00" routeLength="497.80" waitSteps="114" timeLoss="180.38" rerouteNo="0" devices="tripinfo_mixed.48" vType="moped" speedFactor="1.38" vaporized=""/>
    <tripinfo id="mixed.38" depart="55.00" departLane="beg_0" departPos="5.10" departPosLat="-0.02" departSpeed="0.00" departDelay="17.00" arrival="269.00" arrivalLane="end_1" arrivalPos="200.00" arrivalPosLat="-1.34" arrivalSpeed="10.13" duration="214.00" routeLength="494.90" waitSteps="116" timeLoss="183.67" rerouteNo="0" devices="tripinfo_mixed.38" vType="car" speedFactor="1.20" vaporized=""/>
    <tripinfo id="mixed.41" depart="62.00" departLane="beg_0" departPos="2.20" departPosLat="-0.77" departSpeed="0.00" departDelay="21.00" arrival="270.00" arrivalLane="end_0" arrivalPos="200.00" arrivalPosLat="-1.20" arrivalSpeed="10.31" duration="208.00" routeLength="497.80" waitSteps="115" timeLoss="177.72" rerouteNo="0" devices="tripinfo_mixed.41" vType="moped" speedFactor="1.44" vaporized=""/>
    <tripinfo id="mixed.98" depart="136.00" departLane="beg_1" departPos="2.20" departPosLat="0.94" departSpeed="0.00" departDelay="38.00" arrival="270.00" arrivalLane="end_1" arrivalPos="200.00" arrivalPosLat="0.28" arrivalSpeed="12.74" duration="134.00" routeLength="497.80" waitSteps="54" timeLoss="103.90" rerouteNo="0" devices="tripinfo_mixed.98" vType="moped" speedFactor="1.35" vaporized=""/>
    <tripinfo id="mixed.53" depart="74.00" departLane="beg_0" departPos="5.10" departPosLat="-0.07" departSpeed="0.00" departDelay="21.00" arrival="271.00" arrivalLane="end_0" arrivalPos="200.00" arrivalPosLat="1.00" arrivalSpeed="12.80" duration="197.00" routeLength="494.90" waitSteps="105" timeLoss="165.50" rerouteNo="0" devices="tripinfo_mixed.53" vType="car" speedFactor="1.16" vaporized=""/>
    <tripinfo id="mixed.49" depart="66.00" departLane="beg_0" departPos="5.10" departPosLat="-0.67" departSpeed="0.00" departDelay="17.00" arrival="272.00" arrivalLane="end_0" arrivalPos="200.00" arrivalPosLat="-0.70" arrivalSpeed="12.02" duration="206.00" routeLength="494.90" waitSteps="114" timeLoss="171.87" rerouteNo="0" devices="tripinfo_mixed.49" vType="car" speedFactor="1.05" vaporized=""/>
    <tripinfo id="mixed.91" depart="127.00" departLane="beg_0" departPos="2.20" departPosLat="0.40" departSpeed="0.00" departDelay="36.00" arrival="272.00" arrivalLane="end_1" arrivalPos="200.00" arrivalPosLat="1.20" arrivalSpeed="12.95" duration="145.00" routeLength="497.80" waitSteps="56" timeLoss="106.74" rerouteNo="0" devices="tripinfo_mixed.91" vType="moped" speedFactor="0.96" vaporized=""/>
    <tripinfo id="mixed.54" depart="76.00" departLane="beg_1" departPos="2.20" departPosLat="0.62" departSpeed="0.00" departDelay="22.00" arrival="273.00" arrivalLane="end_0" arrivalPos="200.00" arrivalPosLat="0.20" arrivalSpeed="10.09" duration="197.00" routeLength="497.80" waitSteps="97" timeLoss="166.44" rerouteNo="0" devices="tripinfo_mixed.54" vType="moped" speedFactor="1.20" vaporized=""/>
    <tripinfo id="mixed.62" depart="70.00" departLane="beg_0" departPos="2.20" departPosLat="-0.11" departSpeed="0.00" departDelay="8.00" arrival="273.00" arrivalLane="end_1" arrivalPos="200.00" arrivalPosLat="-0.56" arrivalSpeed="9.86" duration="203.00" routeLength="497.80" waitSteps="101" timeLoss="172.01" rerouteNo="0" devices="tripinfo_mixed.62" vType="moped" speedFactor="1.18" vaporized=""/>
    <tripinfo id="mixed.92" depart="126.00" departLane="beg_1" departPos="2.20" departPosLat="1.09" departSpeed="0.00" departDelay="34.00" arrival="273.00" arrivalLane="end_1" arrivalPos="200.00" arrivalPosLat="1.20" arrivalSpeed="12.27" duration="147.00" routeLength="497.80" waitSteps="61" timeLoss="107.56" rerouteNo="0" devices="tripinfo_mixed.92" vType="moped" speedFactor="0.92" vaporized=""/>
    <tripinfo id="mixed.58" depart="77.00" departLane="beg_0" departPos="2.20" departPosLat="0.29" departSpeed="0.00" departDelay="19.00" arrival="274.00" arrivalLane="end_0" arrivalPos="200.00" arrivalPosLat="-1.20" arrivalSpeed="10.41" duration="197.00" routeLength="497.80" waitSteps="98" timeLoss="166.96" rerouteNo="0" devices="tripinfo_mixed.58" vType="moped" speedFactor="1.39" vaporized=""/>
    <tripinfo id="mixed.68" depart="96.00" departLane="beg_1" departPos="5.10" departPosLat="-0.12" departSpeed="0.00" departDelay="28.00" arrival="274.00" arrivalLane="end_0" arrivalPos="200.00" arrivalPosLat="0.96" arrivalSpeed="11.30" duration="178.00" routeLength="494.90" waitSteps="86" timeLoss="148.61" rerouteNo="0" devices="tripinfo_mixed.68" vType="car" speedFactor="1.22" vaporized=""/>
    <tripinfo id="mixed.76" depart="104.00" departLane="beg_1" departPos="2.20" departPosLat="0.47" departSpeed="0.00" departDelay="28.00" arrival="274.00" arrivalLane="end_1" arrivalPos="200.00" arrivalPosLat="-0.56" arrivalSpeed="9.51" duration="170.00" routeLength="497.80" waitSteps="83" timeLoss="118.89" rerouteNo="0" devices="tripinfo_mixed.76" vType="moped" speedFactor="0.70" vaporized=""/>
    <tripinfo id="mixed.61" depart="81.00" departLane="beg_0" departPos="5.10" departPosLat="0.35" departSpeed="0.00" departDelay="20.00" arrival="276.00" arrivalLane="end_0" arrivalPos="200.00" arrivalPosLat="-0.70" arrivalSpeed="13.50" duration="195.00" routeLength="494.90" waitSteps="97" timeLoss="162.61" rerouteNo="0" devices="tripinfo_mixed.61" vType="car" speedFactor="1.12" vaporized=""/>
    <tripinfo id="mixed.88" depart="124.00" departLane="beg_1" departPos="5.10" departPosLat="-0.15" departSpeed="0.00" departDelay="36.00" arrival="276.00" arrivalLane="end_1" arrivalPos="200.00" arrivalPosLat="-1.13" arrivalSpeed="14.12" duration="152.00" routeLength="494.90" waitSteps="74" timeLoss="127.92" rerouteNo="0" devices="tripinfo_mixed.88" vType="car" speedFactor="1.51" vaporized=""/>