<?xml version="1.0" encoding="UTF-8"?>

<!-- generated on Tue May 16 11:09:41 2017 by SUMO Version dev-SVN-r24301
<?xml version="1.0" encoding="UTF-8"?>

<configuration xmlns:xsi="http://www.w3.org/2001/XMLSchema-instance" xsi:noNamespaceSchemaLocation="http://sumo.dlr.de/xsd/sumoConfiguration.xsd">

    <input>
        <net-file value="net.net.xml"/>
        <route-files value="input_routes.rou.xml"/>
    </input>

    <output>
        <tripinfo-output value="tripinfos.xml"/>
    </output>

    <processing>
        <lateral-resolution value="0.64"/>
    </processing>

    <report>
        <xml-validation value="never"/>
        <no-step-log value="true"/>
    </report>

</configuration>
-->

<tripinfos xmlns:xsi="http://www.w3.org/2001/XMLSchema-instance" xsi:noNamespaceSchemaLocation="http://sumo.dlr.de/xsd/tripinfo_file.xsd">
    <tripinfo id="mixed.15" depart="24.00" departLane="beg_1" departPos="5.10" departPosLat="0.66" departSpeed="0.00" departDelay="9.00" arrival="217.00" arrivalLane="end_0" arrivalPos="200.00" arrivalPosLat="0.58" arrivalSpeed="17.25" duration="193.00" routeLength="494.90" waitSteps="152" timeLoss="165.44" rerouteNo="0" devices="tripinfo_mixed.15" vType="car" speedFactor="1.31" vaporized=""/>
    <tripinfo id="mixed.2" depart="4.00" departLane="beg_1" departPos="5.10" departPosLat="0.53" departSpeed="0.00" departDelay="2.00" arrival="218.00" arrivalLane="end_0" arrivalPos="200.00" arrivalPosLat="-0.70" arrivalSpeed="13.48" duration="214.00" routeLength="494.90" waitSteps="168" timeLoss="177.77" rerouteNo="0" devices="tripinfo_mixed.2" vType="car" speedFactor="0.99" vaporized=""/>
    <tripinfo id="mixed.19" depart="29.00" departLane="beg_0" departPos="5.10" departPosLat="-0.40" departSpeed="0.00" departDelay="10.00" arrival="220.00" arrivalLane="end_0" arrivalPos="200.00" arrivalPosLat="0.58" arrivalSpeed="16.31" duration="191.00" routeLength="494.90" waitSteps="141" timeLoss="160.50" rerouteNo="0" devices="tripinfo_mixed.19" vType="car" speedFactor="1.20" vaporized=""/>
    <tripinfo id="mixed.5" depart="10.00" departLane="beg_1" departPos="5.10" departPosLat="-0.40" departSpeed="0.00" departDelay="5.00" arrival="221.00" arrivalLane="end_0" arrivalPos="200.00" arrivalPosLat="-0.70" arrivalSpeed="11.21" duration="211.00" routeLength="494.90" waitSteps="155" timeLoss="167.05" rerouteNo="0" devices="tripinfo_mixed.5" vType="car" speedFactor="0.82" vaporized=""/>
    <tripinfo id="mixed.1" depart="1.00" departLane="beg_1" departPos="2.20" departPosLat="0.22" departSpeed="0.00" departDelay="0.00" arrival="223.00" arrivalLane="end_0" arrivalPos="200.00" arrivalPosLat="-1.20" arrivalSpeed="12.20" duration="222.00" routeLength="497.80" waitSteps="159" timeLoss="185.17" rerouteNo="0" devices="tripinfo_mixed.1" vType="moped" speedFactor="0.99" vaporized=""/>
    <tripinfo id="mixed.9" depart="14.00" departLane="beg_0" departPos="2.20" departPosLat="0.93" departSpeed="0.00" departDelay="5.00" arrival="223.00" arrivalLane="end_0" arrivalPos="200.00" arrivalPosLat="1.08" arrivalSpeed="15.40" duration="209.00" routeLength="497.80" waitSteps="155" timeLoss="178.29" rerouteNo="0" devices="tripinfo_mixed.9" vType="moped" speedFactor="1.29" vaporized=""/>
    <tripinfo id="mixed.7" depart="13.00" departLane="beg_1" departPos="2.20" departPosLat="0.97" departSpeed="0.00" departDelay="6.00" arrival="224.00" arrivalLane="end_0" arrivalPos="200.00" arrivalPosLat="0.08" arrivalSpeed="15.66" duration="211.00" routeLength="497.80" waitSteps="150" timeLoss="180.61" rerouteNo="0" devices="tripinfo_mixed.7" vType="moped" speedFactor="1.53" vaporized=""/>
    <tripinfo id="mixed.0" depart="0.00" departLane="beg_0" departPos="2.20" departPosLat="0.51" departSpeed="0.00" departDelay="0.00" arrival="224.00" arrivalLane="end_0" arrivalPos="200.00" arrivalPosLat="-1.20" arrivalSpeed="12.13" duration="224.00" routeLength="497.80" waitSteps="168" timeLoss="182.93" rerouteNo="0" devices="tripinfo_mixed.0" vType="moped" speedFactor="0.88" vaporized=""/>
    <tripinfo id="mixed.4" depart="5.00" departLane="beg_0" departPos="2.20" departPosLat="0.11" departSpeed="0.00" departDelay="1.00" arrival="226.00" arrivalLane="end_0" arrivalPos="200.00" arrivalPosLat="-1.20" arrivalSpeed="12.93" duration="221.00" routeLength="497.80" waitSteps="164" timeLoss="182.54" rerouteNo="0" devices="tripinfo_mixed.4" vType="moped" speedFactor="0.95" vaporized=""/>
    <tripinfo id="mixed.6" depart="7.00" departLane="beg_0" departPos="2.20" departPosLat="0.75" departSpeed="0.00" departDelay="1.00" arrival="226.00" arrivalLane="end_0" arrivalPos="200.00" arrivalPosLat="0.08" arrivalSpeed="12.13" duration="219.00" routeLength="497.80" waitSteps="155" timeLoss="177.92" rerouteNo="0" devices="tripinfo_mixed.6" vType="moped" speedFactor="0.88" vaporized=""/>
    <tripinfo id="mixed.10" depart="16.00" departLane="beg_1" departPos="2.20" departPosLat="0.69" departSpeed="0.00" departDelay="6.00" arrival="226.00" arrivalLane="end_1" arrivalPos="200.00" arrivalPosLat="-0.84" arrivalSpeed="16.14" duration="210.00" routeLength="497.80" waitSteps="147" timeLoss="179.71" rerouteNo="0" devices="tripinfo_mixed.10" vType="moped" speedFactor="1.37" vaporized=""/>
    <tripinfo id="mixed.12" depart="18.00" departLane="beg_0" departPos="2.20" departPosLat="1.06" departSpeed="0.00" departDelay="6.00" arrival="228.00" arrivalLane="end_0" arrivalPos="200.00" arrivalPosLat="-0.56" arrivalSpeed="13.91" duration="210.00" routeLength="497.80" waitSteps="150" timeLoss="178.02" rerouteNo="0" devices="tripinfo_mixed.12" vType="moped" speedFactor="1.15" vaporized=""/>
    <tripinfo id="mixed.26" depart="34.00" departLane="beg_1" departPos="2.20" departPosLat="-0.79" departSpeed="0.00" departDelay="8.00" arrival="228.00" arrivalLane="end_1" arrivalPos="200.00" arrivalPosLat="0.20" arrivalSpeed="14.83" duration="194.00" routeLength="497.80" waitSteps="131" timeLoss="160.12" rerouteNo="0" devices="tripinfo_mixed.26" vType="moped" speedFactor="1.08" vaporized=""/>
    <tripinfo id="mixed.17" depart="26.00" departLane="beg_1" departPos="2.20" departPosLat="-0.46" departSpeed="0.00" departDelay="9.00" arrival="229.00" arrivalLane="end_1" arrivalPos="200.00" arrivalPosLat="-0.56" arrivalSpeed="15.71" duration="203.00" routeLength="497.80" waitSteps="128" timeLoss="172.81" rerouteNo="0" devices="tripinfo_mixed.17" vType="moped" speedFactor="1.91" vaporized=""/>
    <tripinfo id="mixed.14" depart="26.00" departLane="beg_0" departPos="5.10" departPosLat="-0.08" departSpeed="0.00" departDelay="12.00" arrival="230.00" arrivalLane="end_0" arrivalPos="200.00" arrivalPosLat="-0.53" arrivalSpeed="11.48" duration="204.00" routeLength="494.90" waitSteps="138" timeLoss="163.25" rerouteNo="0" devices="tripinfo_mixed.14" vType="car" speedFactor="0.89" vaporized=""/>
    <tripinfo id="mixed.28" depart="39.00" departLane="beg_1" departPos="2.20" departPosLat="-0.34" departSpeed="0.00" departDelay="11.00" arrival="230.00" arrivalLane="end_1" arrivalPos="200.00" arrivalPosLat="1.20" arrivalSpeed="16.31" duration="191.00" routeLength="497.80" waitSteps="129" timeLoss="161.06" rerouteNo="0" devices="tripinfo_mixed.28" vType="moped" speedFactor="1.22" vaporized=""/>
    <tripinfo id="mixed.3" depart="11.00" departLane="beg_0" departPos="5.10" departPosLat="-0.55" departSpeed="0.00" departDelay="8.00" arrival="231.00" arrivalLane="end_0" arrivalPos="200.00" arrivalPosLat="-0.70" arrivalSpeed="9.40" duration="220.00" routeLength="494.90" waitSteps="155" timeLoss="169.57" rerouteNo="0" devices="tripinfo_mixed.3" vType="car" speedFactor="0.71" vaporized=""/>
    <tripinfo id="mixed.21" depart="29.00" departLane="beg_1" departPos="5.10" departPosLat="0.68" departSpeed="0.00" departDelay="8.00" arrival="231.00" arrivalLane="end_0" arrivalPos="200.00" arrivalPosLat="1.28" arrivalSpeed="13.28" duration="202.00" routeLength="494.90" waitSteps="149" timeLoss="172.84" rerouteNo="0" devices="tripinfo_mixed.21" vType="car" speedFactor="1.23" vaporized=""/>
    <tripinfo id="mixed.20" depart="30.00" departLane="beg_1" departPos="2.20" departPosLat="-1.07" departSpeed="0.00" departDelay="10.00" arrival="231.00" arrivalLane="end_1" arrivalPos="200.00" arrivalPosLat="-0.56" arrivalSpeed="15.48" duration="201.00" routeLength="497.80" waitSteps="133" timeLoss="170.36" rerouteNo="0" devices="tripinfo_mixed.20" vType="moped" speedFactor="1.23" vaporized=""/>
    <tripinfo id="mixed.33" depart="47.00" departLane="beg_1" departPos="2.20" departPosLat="0.41" departSpeed="0.00" departDelay="14.00" arrival="232.00" arrivalLane="end_1" arrivalPos="200.00" arrivalPosLat="1.20" arrivalSpeed="16.34" duration="185.00" routeLength="497.80" waitSteps="126" timeLoss="154.44" rerouteNo="0" devices="tripinfo_mixed.33" vType="moped" speedFactor="1.31" vaporized=""/>
    <tripinfo id="mixed.24" depart="35.00" departLane="beg_0" departPos="2.20" departPosLat="-0.61" departSpeed="0.00" departDelay="11.00" arrival="232.00" arrivalLane="end_1" arrivalPos="200.00" arrivalPosLat="-1.20" arrivalSpeed="15.44" duration="197.00" routeLength="497.80" waitSteps="130" timeLoss="164.39" rerouteNo="0" devices="tripinfo_mixed.24" vType="moped" speedFactor="1.12" vaporized=""/>
    <tripinfo id="mixed.11" depart="16.00" departLane="beg_0" departPos="2.20" departPosLat="-0.97" departSpeed="0.00" departDelay="5.00" arrival="233.00" arrivalLane="end_0" arrivalPos="200.00" arrivalPosLat="-1.20" arrivalSpeed="10.85" duration="217.00" routeLength="497.80" waitSteps="155" timeLoss="179.39" rerouteNo="0" devices="tripinfo_mixed.11" vType="moped" speedFactor="0.96" vaporized=""/>
    <tripinfo id="mixed.23" depart="32.00" departLane="beg_1" departPos="2.20" departPosLat="0.91" departSpeed="0.00" departDelay="9.00" arrival="233.00" arrivalLane="end_0" arrivalPos="200.00" arrivalPosLat="0.28" arrivalSpeed="12.77" duration="201.00" routeLength="497.80" waitSteps="144" timeLoss="170.84" rerouteNo="0" devices="tripinfo_mixed.23" vType="moped" speedFactor="1.31" vaporized=""/>
    <tripinfo id="mixed.22" depart="45.00" departLane="beg_0" departPos="5.10" departPosLat="0.51" departSpeed="0.00" departDelay="23.00" arrival="234.00" arrivalLane="end_0" arrivalPos="200.00" arrivalPosLat="1.22" arrivalSpeed="14.97" duration="189.00" routeLength="494.90" waitSteps="125" timeLoss="156.85" rerouteNo="0" devices="tripinfo_mixed.22" vType="car" speedFactor="1.13" vaporized=""/>
    <tripinfo id="mixed.13" depart="22.00" departLane="beg_0" departPos="2.20" departPosLat="0.49" departSpeed="0.00" departDelay="9.00" arrival="235.00" arrivalLane="end_0" arrivalPos="200.00" arrivalPosLat="-1.20" arrivalSpeed="11.30" duration="213.00" routeLength="497.80" waitSteps="142" timeLoss="172.78" rerouteNo="0" devices="tripinfo_mixed.13" vType="moped" speedFactor="0.91" vaporized=""/>
    <tripinfo id="mixed.35" depart="51.00" departLane="beg_1" departPos="2.20" departPosLat="-0.98" departSpeed="0.00" departDelay="16.00" arrival="235.00" arrivalLane="end_1" arrivalPos="200.00" arrivalPosLat="-0.56" arrivalSpeed="12.08" duration="184.00" routeLength="497.80" waitSteps="116" timeLoss="143.37" rerouteNo="0" devices="tripinfo_mixed.35" vType="moped" speedFactor="0.89" vaporized=""/>
    <tripinfo id="mixed.48" depart="64.00" departLane="beg_1" departPos="2.20" departPosLat="-0.17" departSpeed="0.00" departDelay="16.00" arrival="236.00" arrivalLane="end_0" arrivalPos="200.00" arrivalPosLat="0.08" arrivalSpeed="16.53" duration="172.00" routeLength="497.80" waitSteps="114" timeLoss="141.01" rerouteNo="0" devices="tripinfo_mixed.48" vType="moped" speedFactor="1.38" vaporized=""/>
    <tripinfo id="mixed.29" depart="38.00" departLane="beg_0" departPos="2.20" departPosLat="-0.89" departSpeed="0.00" departDelay="9.00" arrival="238.00" arrivalLane="end_0" arrivalPos="200.00" arrivalPosLat="0.08" arrivalSpeed="10.02" duration="200.00" routeLength="497.80" waitSteps="127" timeLoss="149.67" rerouteNo="0" devices="tripinfo_mixed.29" vType="moped" speedFactor="0.72" vaporized=""/>
    <tripinfo id="mixed.18" depart="21.00" departLane="beg_1" departPos="2.20" departPosLat="0.98" departSpeed="0.00" departDelay="3.00" arrival="239.00" arrivalLane="end_0" arrivalPos="200.00" arrivalPosLat="-1.20" arrivalSpeed="7.97" duration="218.00" routeLength="497.80" waitSteps="143" timeLoss="156.75" rerouteNo="0" devices="tripinfo_mixed.18" vType="moped" speedFactor="0.59" vaporized=""/>
    <tripinfo id="mixed.40" depart="55.00" departLane="beg_1" departPos="5.10" departPosLat="-0.28" departSpeed="0.00" departDelay="15.00" arrival="239.00" arrivalLane="end_0" arrivalPos="200.00" arrivalPosLat="1.46" arrivalSpeed="11.97" duration="184.00" routeLength="494.90" waitSteps="121" timeLoss="144.12" rerouteNo="0" devices="tripinfo_mixed.40" vType="car" speedFactor="0.91" vaporized=""/>
    <tripinfo id="mixed.36" depart="65.00" departLane="beg_0" departPos="5.10" departPosLat="0.42" departSpeed="0.00" departDelay="29.00" arrival="239.00" arrivalLane="end_1" arrivalPos="200.00" arrivalPosLat="0.70" arrivalSpeed="11.21" duration="174.00" routeLength="494.90" waitSteps="110" timeLoss="133.40" rerouteNo="0" devices="tripinfo_mixed.36" vType="car" speedFactor="0.88" vaporized=""/>
    <tripinfo id="mixed.51" depart="69.00" departLane="beg_1" departPos="2.20" departPosLat="-0.51" departSpeed="0.00" departDelay="18.00" arrival="240.00" arrivalLane="end_1" arrivalPos="200.00" arrivalPosLat="-1.56" arrivalSpeed="13.73" duration="171.00" routeLength="497.80" waitSteps="112" timeLoss="140.94" rerouteNo="0" devices="tripinfo_mixed.51" vType="moped" speedFactor="1.89" vaporized=""/>
    <tripinfo id="mixed.25" depart="33.00" departLane="beg_0" departPos="5.10" departPosLat="0.42" departSpeed="0.00" departDelay="8.00" arrival="241.00" arrivalLane="end_0" arrivalPos="200.00" arrivalPosLat="-0.70" arrivalSpeed="11.35" duration="208.00" routeLength="494.90" waitSteps="141" timeLoss="171.14" rerouteNo="0" devices="tripinfo_mixed.25" vType="car" speedFactor="0.99" vaporized=""/>
    <tripinfo id="mixed.53" depart="78.00" departLane="beg_1" departPos="5.10" departPosLat="0.59" departSpeed="0.00" departDelay="25.00" arrival="241.00" arrivalLane="end_1" arrivalPos="200.00" arrivalPosLat="-0.70" arrivalSpeed="16.15" duration="163.00" routeLength="494.90" waitSteps="108" timeLoss="131.56" rerouteNo="0" devices="tripinfo_mixed.53" vType="car" speedFactor="1.16" vaporized=""/>
    <tripinfo id="mixed.43" depart="57.00" departLane="beg_1" departPos="2.20" departPosLat="-1.20" departSpeed="0.00" departDelay="14.00" arrival="243.00" arrivalLane="end_0" arrivalPos="200.00" arrivalPosLat="-0.56" arrivalSpeed="10.14" duration="186.00" routeLength="497.80" waitSteps="119" timeLoss="145.81" rerouteNo="0" devices="tripinfo_mixed.43" vType="moped" speedFactor="0.91" vaporized=""/>
    <tripinfo id="mixed.49" depart="75.00" departLane="beg_1" departPos="5.10" departPosLat="-0.06" departSpeed="0.00" departDelay="26.00" arrival="243.00" arrivalLane="end_1" arrivalPos="200.00" arrivalPosLat="-0.36" arrivalSpeed="13.49" duration="168.00" routeLength="494.90" waitSteps="107" timeLoss="133.31" rerouteNo="0" devices="tripinfo_mixed.49" vType="car" speedFactor="1.05" vaporized=""/>
    <tripinfo id="mixed.42" depart="61.00" departLane="beg_0" departPos="2.20" departPosLat="-0.33" departSpeed="0.00" departDelay="19.00" arrival="244.00" arrivalLane="end_0" arrivalPos="200.00" arrivalPosLat="0.08" arrivalSpeed="10.76" duration="183.00" routeLength="497.80" waitSteps="109" timeLoss="138.38" rerouteNo="0" devices="tripinfo_mixed.42" vType="moped" speedFactor="0.81" vaporized=""/>
    <tripinfo id="mixed.27" depart="41.00" departLane="beg_0" departPos="2.20" departPosLat="0.42" departSpeed="0.00" departDelay="14.00" arrival="245.00" arrivalLane="end_0" arrivalPos="200.00" arrivalPosLat="-1.20" arrivalSpeed="9.41" duration="204.00" routeLength="497.80" waitSteps="132" timeLoss="151.05" rerouteNo="0" devices="tripinfo_mixed.27" vType="moped" speedFactor="0.69" vaporized=""/>
    <tripinfo id="mixed.56" depart="81.00" departLane="beg_1" departPos="5.10" departPosLat="-0.69" departSpeed="0.00" departDelay="25.00" arrival="245.00" arrivalLane="end_1" arrivalPos="200.00" arrivalPosLat="-1.34" arrivalSpeed="11.40" duration="164.00" routeLength="494.90" waitSteps="105" timeLoss="123.23" rerouteNo="0" devices="tripinfo_mixed.56" vType="car" speedFactor="0.89" vaporized=""/>
    <tripinfo id="mixed.37" depart="50.00" departLane="beg_1" departPos="2.20" departPosLat="0.88" departSpeed="0.00" departDelay="13.00" arrival="246.00" arrivalLane="end_0" arrivalPos="200.00" arrivalPosLat="-0.56" arrivalSpeed="12.75" duration="196.00" routeLength="497.80" waitSteps="130" timeLoss="156.24" rerouteNo="0" devices="tripinfo_mixed.37" vType="moped" speedFactor="0.92" vaporized=""/>
    <tripinfo id="mixed.68" depart="92.00" departLane="beg_1" departPos="5.10" departPosLat="-0.29" departSpeed="0.00" departDelay="24.00" arrival="246.00" arrivalLane="end_1" arrivalPos="200.00" arrivalPosLat="-0.06" arrivalSpeed="15.71" duration="154.00" routeLength="494.90" waitSteps="101" timeLoss="124.20" rerouteNo="0" devices="tripinfo_mixed.68" vType="car" speedFactor="1.22" vaporized=""/>
    <tripinfo id="mixed.45" depart="60.00" departLane="beg_1" departPos="2.20" departPosLat="0.01" departSpeed="0.00" departDelay="15.00" arrival="247.00" arrivalLane="end_0" arrivalPos="200.00" arrivalPosLat="0.08" arrivalSpeed="15.31" duration="187.00" routeLength="497.80" waitSteps="120" timeLoss="153.81" rerouteNo="0" devices="tripinfo_mixed.45" vType="moped" speedFactor="1.12" vaporized=""/>
    <tripinfo id="mixed.61" depart="85.00" departLane="beg_0" departPos="5.10" departPosLat="-0.65" departSpeed="0.00" departDelay="24.00" arrival="248.00" arrivalLane="end_1" arrivalPos="200.00" arrivalPosLat="-1.34" arrivalSpeed="15.06" duration="163.00" routeLength="494.90" waitSteps="101" timeLoss="130.18" rerouteNo="0" devices="tripinfo_mixed.61" vType="car" speedFactor="1.12" vaporized=""/>
    <tripinfo id="mixed.30" depart="46.00" departLane="beg_0" departPos="2.20" departPosLat="-0.24" departSpeed="0.00" departDelay="16.00" arrival="249.00" arrivalLane="end_0" arrivalPos="200.00" arrivalPosLat="0.08" arrivalSpeed="13.42" duration="203.00" routeLength="497.80" waitSteps="122" timeLoss="165.61" rerouteNo="0" devices="tripinfo_mixed.30" vType="moped" speedFactor="0.97" vaporized=""/>
    <tripinfo id="mixed.75" depart="101.00" departLane="beg_1" departPos="2.20" departPosLat="-0.66" departSpeed="0.00" departDelay="26.00" arrival="249.00" arrivalLane="end_1" arrivalPos="200.00" arrivalPosLat="-0.84" arrivalSpeed="15.02" duration="148.00" routeLength="497.80" waitSteps="84" timeLoss="115.50" rerouteNo="0" devices="tripinfo_mixed.75" vType="moped" speedFactor="1.11" vaporized=""/>
    <tripinfo id="mixed.16" depart="19.00" departLane="beg_0" departPos="2.20" departPosLat="0.11" departSpeed="0.00" departDelay="3.00" arrival="250.00" arrivalLane="end_0" arrivalPos="200.00" arrivalPosLat="-1.20" arrivalSpeed="6.23" duration="231.00" routeLength="497.80" waitSteps="140" timeLoss="155.65" rerouteNo="0" devices="tripinfo_mixed.16" vType="moped" speedFactor="0.48" vaporized=""/>
    <tripinfo id="mixed.72" depart="98.00" departLane="beg_1" departPos="5.10" departPosLat="-0.04" departSpeed="0.00" departDelay="26.00" arrival="250.00" arrivalLane="end_1" arrivalPos="200.00" arrivalPosLat="-0.06" arrivalSpeed="16.85" duration="152.00" routeLength="494.90" waitSteps="100" timeLoss="122.83" rerouteNo="0" devices="tripinfo_mixed.72" vType="car" speedFactor="1.24" vaporized=""/>
    <tripinfo id="mixed.34" depart="49.00" departLane="beg_0" departPos="2.20" departPosLat="-1.05" departSpeed="0.00" departDelay="15.00" arrival="251.00" arrivalLane="end_0" arrivalPos="200.00" arrivalPosLat="-0.34" arrivalSpeed="9.36" duration="202.00" routeLength="497.80" waitSteps="128" timeLoss="149.71" rerouteNo="0" devices="tripinfo_mixed.34" vType="moped" speedFactor="0.69" vaporized=""/>
    <tripinfo id="mixed.41" depart="56.00" departLane="beg_0" departPos="2.20" departPosLat="-1.01" departSpeed="0.00" departDelay="15.00" arrival="252.00" arrivalLane="end_0" arrivalPos="200.00" arrivalPosLat="0.08" arrivalSpeed="16.16" duration="196.00" routeLength="497.80" waitSteps="118" timeLoss="165.65" rerouteNo="0" devices="tripinfo_mixed.41" vType="moped" speedFactor="1.44" vaporized=""/>
    <tripinfo id="mixed.38" depart="54.00" departLane="beg_0" departPos="5.10" departPosLat="0.56" departSpeed="0.00" departDelay="16.00" arrival="254.00" arrivalLane="end_0" arrivalPos="200.00" arrivalPosLat="-0.06" arrivalSpeed="16.42" duration="200.00" routeLength="494.90" waitSteps="125" timeLoss="169.66" rerouteNo="0" devices="tripinfo_mixed.38" vType="car" speedFactor="1.20" vaporized=""/>
    <tripinfo id="mixed.46" depart="68.00" departLane="beg_0" departPos="2.20" departPosLat="0.72" departSpeed="0.00" departDelay="22.00" arrival="254.00" arrivalLane="end_1" arrivalPos="200.00" arrivalPosLat="-0.84" arrivalSpeed="15.91" duration="186.00" routeLength="497.80" waitSteps="111" timeLoss="155.73" rerouteNo="0" devices="tripinfo_mixed.46" vType="moped" speedFactor="1.70" vaporized=""/>
    <tripinfo id="mixed.54" depart="73.00" departLane="beg_0" departPos="2.20" departPosLat="0.21" departSpeed="0.00" departDelay="19.00" arrival="256.00" arrivalLane="end_0" arrivalPos="200.00" arrivalPosLat="1.36" arrivalSpeed="16.14" duration="183.00" routeLength="497.80" waitSteps="108" timeLoss="152.15" rerouteNo="0" devices="tripinfo_mixed.54" vType="moped" speedFactor="1.20" vaporized=""/>
    <tripinfo id="mixed.32" depart="42.00" departLane="beg_1" departPos="2.20" departPosLat="0.33" departSpeed="0.00" departDelay="10.00" arrival="256.00" arrivalLane="end_0" arrivalPos="200.00" arrivalPosLat="-1.20" arrivalSpeed="7.84" duration="214.00" routeLength="497.80" waitSteps="122" timeLoss="151.93" rerouteNo="0" devices="tripinfo_mixed.32" vType="moped" speedFactor="0.58" vaporized=""/>
    <tripinfo id="mixed.50" depart="71.00" departLane="beg_1" departPos="2.20" departPosLat="1.06" departSpeed="0.00" departDelay="21.00" arrival="256.00" arrivalLane="end_0" arrivalPos="200.00" arrivalPosLat="0.08" arrivalSpeed="16.38" duration="185.00" routeLength="497.80" waitSteps="111" timeLoss="154.56" rerouteNo="0" devices="tripinfo_mixed.50" vType="moped" speedFactor="1.36" vaporized=""/>
    <tripinfo id="mixed.58" depart="81.00" departLane="beg_0" departPos="2.20" departPosLat="0.21" departSpeed="0.00" departDelay="23.00" arrival="256.00" arrivalLane="end_1" arrivalPos="200.00" arrivalPosLat="-0.56" arrivalSpeed="16.40" duration="175.00" routeLength="497.80" waitSteps="106" timeLoss="144.04" rerouteNo="0" devices="tripinfo_mixed.58" vType="moped" speedFactor="1.39" vaporized=""/>
    <tripinfo id="mixed.69" depart="95.00" departLane="beg_0" departPos="2.20" departPosLat="-0.70" departSpeed="0.00" departDelay="26.00" arrival="259.00" arrivalLane="end_0" arrivalPos="200.00" arrivalPosLat="-1.20" arrivalSpeed="11.45" duration="164.00" routeLength="497.80" waitSteps="91" timeLoss="120.89" rerouteNo="0" devices="tripinfo_mixed.69" vType="moped" speedFactor="0.85" vaporized=""/>
    <tripinfo id="mixed.39" depart="48.00" departLane="beg_0" departPos="2.20" departPosLat="1.11" departSpeed="0.00" departDelay="9.00" arrival="263.00" arrivalLane="end_0" arrivalPos="200.00" arrivalPosLat="-1.20" arrivalSpeed="8.03" duration="215.00" routeLength="497.80" waitSteps="121" timeLoss="155.95" rerouteNo="0" devices="tripinfo_mixed.39" vType="moped" speedFactor="0.62" vaporized=""/>
    <tripinfo id="mixed.31" depart="61.00" departLane="beg_1" departPos="5.10" departPosLat="-0.68" departSpeed="0.00" departDelay="30.00" arrival="264.00" arrivalLane="end_0" arrivalPos="200.00" arrivalPosLat="1.20" arrivalSpeed="9.41" duration="203.00" routeLength="494.90" waitSteps="122" timeLoss="152.72" rerouteNo="0" devices="tripinfo_mixed.31" vType="car" speedFactor="0.71" vaporized=""/>
    <tripinfo id="mixed.8" depart="12.00" departLane="beg_1" departPos="2.20" departPosLat="0.67" departSpeed="0.00" departDelay="4.00" arrival="266.00" arrivalLane="end_0" arrivalPos="200.00" arrivalPosLat="-1.20" arrivalSpeed="4.61" duration="254.00" routeLength="497.80" waitSteps="126" timeLoss="145.96" rerouteNo="0" devices="tripinfo_mixed.8" vType="moped" speedFactor="0.33" vaporized=""/>
    <tripinfo id="mixed.60" depart="85.00" departLane="beg_1" departPos="5.10" departPosLat="0.63" departSpeed="0.00" departDelay="25.00" arrival="266.00" arrivalLane="end_0" arrivalPos="200.00" arrivalPosLat="0.96" arrivalSpeed="13.39" duration="181.00" routeLength="494.90" waitSteps="106" timeLoss="145.27" rerouteNo="0" devices="tripinfo_mixed.60" vType="car" speedFactor="1.01" vaporized=""/>
    <tripinfo id="mixed.71" depart="105.00" departLane="beg_1" departPos="5.10" departPosLat="0.61" departSpeed="0.00" departDelay="34.00" arrival="267.00" arrivalLane="end_1" arrivalPos="200.00" arrivalPosLat="0.44" arrivalSpeed="7.34" duration="162.00" routeLength="494.90" waitSteps="81" timeLoss="96.85" rerouteNo="0" devices="tripinfo_mixed.71" vType="car" speedFactor="0.55" vaporized=""/>
    <tripinfo id="mixed.44" depart="56.00" departLane="beg_0" departPos="2.20" departPosLat="1.02" departSpeed="0.00" departDelay="12.00" arrival="268.00" arrivalLane="end_0" arrivalPos="200.00" arrivalPosLat="-1.20" arrivalSpeed="6.54" duration="212.00" routeLength="497.80" waitSteps="119" timeLoss="139.08" rerouteNo="0" devices="tripinfo_mixed.44" vType="moped" speedFactor="0.50" vaporized=""/>
    <tripinfo id="mixed.62" depart="83.00" departLane="beg_0" departPos="2.20" departPosLat="-0.71" departSpeed="0.00" departDelay="21.00" arrival="268.00" arrivalLane="end_0" arrivalPos="200.00" arrivalPosLat="0.56" arrivalSpeed="11.56" duration="185.00" routeLength="497.80" waitSteps="105" timeLoss="154.19" rerouteNo="0" devices="tripinfo_mixed.62" vType="moped" speedFactor="1.18" vaporized=""/>
    <tripinfo id="mixed.73" depart="103.00" departLane="beg_1" departPos="2.20" departPosLat="-1.14" departSpeed="0.00" departDelay="30.00" arrival="268.00" arrivalLane="end_1" arrivalPos="200.00" arrivalPosLat="-1.36" arrivalSpeed="9.82" duration="165.00" routeLength="497.80" waitSteps="88" timeLoss="115.09" rerouteNo="0" devices="tripinfo_mixed.73" vType="moped" speedFactor="0.72" vaporized=""/>
    <tripinfo id="mixed.79" depart="109.00" departLane="beg_1" departPos="5.10" departPosLat="-0.46" departSpeed="0.00" departDelay="30.00" arrival="269.00" arrivalLane="end_1" arrivalPos="200.00" arrivalPosLat="0.41" arrivalSpeed="10.86" duration="160.00" routeLength="494.90" waitSteps="83" timeLoss="118.65" rerouteNo="0" devices="tripinfo_mixed.79" vType="car" speedFactor="0.88" vaporized=""/>
    <tripinfo id="mixed.47" depart="69.00" departLane="beg_0" departPos="2.20" departPosLat="-1.17" departSpeed="0.00" departDelay="22.00" arrival="270.00" arrivalLane="end_0" arrivalPos="200.00" arrivalPosLat="-1.20" arrivalSpeed="8.24" duration="201.00" routeLength="497.80" waitSteps="118" timeLoss="166.81" rerouteNo="0" devices="tripinfo_mixed.47" vType="moped" speedFactor="1.07" vaporized=""/>
    <tripinfo id="mixed.66" depart="95.00" departLane="beg_1" departPos="5.10" departPosLat="-0.25" departSpeed="0.00" departDelay="29.00" arrival="270.00" arrivalLane="end_0" arrivalPos="200.00" arrivalPosLat="0.58" arrivalSpeed="13.57" duration="175.00" routeLength="494.90" waitSteps="104" timeLoss="146.00" rerouteNo="0" devices="tripinfo_mixed.66" vType="car" speedFactor="1.25" vaporized=""/>
    <tripinfo id="mixed.55" depart="74.00" departLane="beg_1" departPos="2.20" departPosLat="-0.60" departSpeed="0.00" departDelay="19.00" arrival="271.00" arrivalLane="end_0" arrivalPos="200.00" arrivalPosLat="-1.20" arrivalSpeed="8.04" duration="197.00" routeLength="497.80" waitSteps="111" timeLoss="138.53" rerouteNo="0" devices="tripinfo_mixed.55" vType="moped" speedFactor="0.62" vaporized=""/>
    <tripinfo id="mixed.80" depart="110.00" departLane="beg_0" departPos="5.10" departPosLat="0.62" departSpeed="0.00" departDelay="30.00" arrival="271.00" arrivalLane="end_1" arrivalPos="200.00" arrivalPosLat="0.42" arrivalSpeed="13.15" duration="161.00" routeLength="494.90" waitSteps="79" timeLoss="126.17" rerouteNo="0" devices="tripinfo_mixed.80" vType="car" speedFactor="1.05" vaporized=""/>
    <tripinfo id="mixed.86" depart="117.00" departLane="beg_1" departPos="2.20" departPosLat="1.02" departSpeed="0.00" departDelay="31.00" arrival="272.00" arrivalLane="end_1" arrivalPos="200.00" arrivalPosLat="-1.60" arrivalSpeed="12.08" duration="155.00" routeLength="497.80" waitSteps="79" timeLoss="124.52" rerouteNo="0" devices="tripinfo_mixed.86" vType="moped" speedFactor="1.19" vaporized=""/>
    <tripinfo id="mixed.67" depart="95.00" departLane="beg_0" departPos="2.20" departPosLat="0.90" departSpeed="0.00" departDelay="28.00" arrival="273.00" arrivalLane="end_0" arrivalPos="200.00" arrivalPosLat="0.32" arrivalSpeed="8.99" duration="178.00" routeLength="497.80" waitSteps="96" timeLoss="123.69" rerouteNo="0" devices="tripinfo_mixed.67" vType="moped" speedFactor="0.67" vaporized=""/>
    <tripinfo id="mixed.59" depart="77.00" departLane="beg_0" departPos="2.20" departPosLat="1.18" departSpeed="0.00" departDelay="18.00" arrival="273.00" arrivalLane="end_0" arrivalPos="200.00" arrivalPosLat="-1.20" arrivalSpeed="8.72" duration="196.00" routeLength="497.80" waitSteps="109" timeLoss="161.44" rerouteNo="0" devices="tripinfo_mixed.59" vType="moped" speedFactor="1.05" vaporized=""/>