<?xml version="1.0" encoding="UTF-8"?>

<!-- generated on Fri Mar 31 14:36:41 2017 by SUMO Version dev-SVN-r23747
<?xml version="1.0" encoding="UTF-8"?>

<configuration xmlns:xsi="http://www.w3.org/2001/XMLSchema-instance" xsi:noNamespaceSchemaLocation="http://sumo.dlr.de/xsd/sumoConfiguration.xsd">

    <input>
        <net-file value="net.net.xml"/>
        <route-files value="input_routes.rou.xml"/>
    </input>

    <output>
        <tripinfo-output value="tripinfos.xml"/>
    </output>

    <processing>
        <lateral-resolution value="0.64"/>
    </processing>

    <report>
        <xml-validation value="never"/>
        <no-step-log value="true"/>
    </report>

</configuration>
-->

<tripinfos xmlns:xsi="http://www.w3.org/2001/XMLSchema-instance" xsi:noNamespaceSchemaLocation="http://sumo.dlr.de/xsd/tripinfo_file.xsd">
    <tripinfo id="mixed.2" depart="4.00" departLane="beg_1" departPos="5.10" departPosLat="0.53" departSpeed="0.00" departDelay="2.00" arrival="219.00" arrivalLane="end_0" arrivalPos="200.00" arrivalPosLat="-0.70" arrivalSpeed="13.09" duration="215.00" routeLength="494.90" waitSteps="168" timeLoss="178.16" rerouteNo="0" devices="tripinfo_mixed.2" vType="car" speedFactor="0.99" vaporized=""/>
    <tripinfo id="mixed.5" depart="9.00" departLane="beg_0" departPos="5.10" departPosLat="-0.61" departSpeed="0.00" departDelay="4.00" arrival="221.00" arrivalLane="end_0" arrivalPos="200.00" arrivalPosLat="0.58" arrivalSpeed="10.66" duration="212.00" routeLength="494.90" waitSteps="158" timeLoss="167.82" rerouteNo="0" devices="tripinfo_mixed.5" vType="car" speedFactor="0.82" vaporized=""/>
    <tripinfo id="mixed.1" depart="1.00" departLane="beg_1" departPos="2.20" departPosLat="0.22" departSpeed="0.00" departDelay="0.00" arrival="222.00" arrivalLane="end_0" arrivalPos="200.00" arrivalPosLat="-1.20" arrivalSpeed="13.63" duration="221.00" routeLength="497.80" waitSteps="166" timeLoss="184.41" rerouteNo="0" devices="tripinfo_mixed.1" vType="moped" speedFactor="0.99" vaporized=""/>
    <tripinfo id="mixed.9" depart="13.00" departLane="beg_1" departPos="2.20" departPosLat="-0.17" departSpeed="0.00" departDelay="4.00" arrival="222.00" arrivalLane="end_1" arrivalPos="200.00" arrivalPosLat="0.32" arrivalSpeed="16.18" duration="209.00" routeLength="497.80" waitSteps="153" timeLoss="179.06" rerouteNo="0" devices="tripinfo_mixed.9" vType="moped" speedFactor="1.29" vaporized=""/>
    <tripinfo id="mixed.10" depart="12.00" departLane="beg_0" departPos="2.20" departPosLat="-0.90" departSpeed="0.00" departDelay="2.00" arrival="223.00" arrivalLane="end_1" arrivalPos="200.00" arrivalPosLat="-0.84" arrivalSpeed="16.66" duration="211.00" routeLength="497.80" waitSteps="157" timeLoss="180.74" rerouteNo="0" devices="tripinfo_mixed.10" vType="moped" speedFactor="1.37" vaporized=""/>
    <tripinfo id="mixed.4" depart="5.00" departLane="beg_0" departPos="2.20" departPosLat="0.11" departSpeed="0.00" departDelay="1.00" arrival="224.00" arrivalLane="end_0" arrivalPos="200.00" arrivalPosLat="0.08" arrivalSpeed="12.82" duration="219.00" routeLength="497.80" waitSteps="159" timeLoss="180.98" rerouteNo="0" devices="tripinfo_mixed.4" vType="moped" speedFactor="0.95" vaporized=""/>
    <tripinfo id="mixed.15" depart="21.00" departLane="beg_0" departPos="5.10" departPosLat="0.10" departSpeed="0.00" departDelay="6.00" arrival="224.00" arrivalLane="end_1" arrivalPos="200.00" arrivalPosLat="0.70" arrivalSpeed="17.39" duration="203.00" routeLength="494.90" waitSteps="148" timeLoss="175.63" rerouteNo="0" devices="tripinfo_mixed.15" vType="car" speedFactor="1.31" vaporized=""/>
    <tripinfo id="mixed.0" depart="0.00" departLane="beg_0" departPos="2.20" departPosLat="0.51" departSpeed="0.00" departDelay="0.00" arrival="225.00" arrivalLane="end_0" arrivalPos="200.00" arrivalPosLat="-1.20" arrivalSpeed="11.92" duration="225.00" routeLength="497.80" waitSteps="167" timeLoss="183.54" rerouteNo="0" devices="tripinfo_mixed.0" vType="moped" speedFactor="0.88" vaporized=""/>
    <tripinfo id="mixed.17" depart="20.00" departLane="beg_1" departPos="2.20" departPosLat="1.01" departSpeed="0.00" departDelay="3.00" arrival="225.00" arrivalLane="end_0" arrivalPos="200.00" arrivalPosLat="1.36" arrivalSpeed="16.38" duration="205.00" routeLength="497.80" waitSteps="151" timeLoss="174.57" rerouteNo="0" devices="tripinfo_mixed.17" vType="moped" speedFactor="1.91" vaporized=""/>
    <tripinfo id="mixed.7" depart="10.00" departLane="beg_1" departPos="2.20" departPosLat="-0.18" departSpeed="0.00" departDelay="3.00" arrival="225.00" arrivalLane="end_0" arrivalPos="200.00" arrivalPosLat="0.08" arrivalSpeed="15.98" duration="215.00" routeLength="497.80" waitSteps="162" timeLoss="185.08" rerouteNo="0" devices="tripinfo_mixed.7" vType="moped" speedFactor="1.53" vaporized=""/>
    <tripinfo id="mixed.23" depart="28.00" departLane="beg_1" departPos="2.20" departPosLat="1.18" departSpeed="0.00" departDelay="5.00" arrival="227.00" arrivalLane="end_0" arrivalPos="200.00" arrivalPosLat="1.36" arrivalSpeed="16.22" duration="199.00" routeLength="497.80" waitSteps="140" timeLoss="168.50" rerouteNo="0" devices="tripinfo_mixed.23" vType="moped" speedFactor="1.31" vaporized=""/>
    <tripinfo id="mixed.20" depart="21.00" departLane="beg_1" departPos="2.20" departPosLat="-1.16" departSpeed="0.00" departDelay="1.00" arrival="228.00" arrivalLane="end_1" arrivalPos="200.00" arrivalPosLat="-1.20" arrivalSpeed="16.31" duration="207.00" routeLength="497.80" waitSteps="148" timeLoss="176.68" rerouteNo="0" devices="tripinfo_mixed.20" vType="moped" speedFactor="1.23" vaporized=""/>
    <tripinfo id="mixed.6" depart="9.00" departLane="beg_1" departPos="2.20" departPosLat="1.18" departSpeed="0.00" departDelay="3.00" arrival="229.00" arrivalLane="end_0" arrivalPos="200.00" arrivalPosLat="-1.20" arrivalSpeed="12.01" duration="220.00" routeLength="497.80" waitSteps="160" timeLoss="178.41" rerouteNo="0" devices="tripinfo_mixed.6" vType="moped" speedFactor="0.88" vaporized=""/>
    <tripinfo id="mixed.24" depart="34.00" departLane="beg_0" departPos="2.20" departPosLat="0.28" departSpeed="0.00" departDelay="10.00" arrival="229.00" arrivalLane="end_1" arrivalPos="200.00" arrivalPosLat="-1.20" arrivalSpeed="15.40" duration="195.00" routeLength="497.80" waitSteps="138" timeLoss="162.81" rerouteNo="0" devices="tripinfo_mixed.24" vType="moped" speedFactor="1.12" vaporized=""/>
    <tripinfo id="mixed.11" depart="14.00" departLane="beg_1" departPos="2.20" departPosLat="-0.80" departSpeed="0.00" departDelay="3.00" arrival="230.00" arrivalLane="end_0" arrivalPos="200.00" arrivalPosLat="-1.20" arrivalSpeed="12.56" duration="216.00" routeLength="497.80" waitSteps="161" timeLoss="178.36" rerouteNo="0" devices="tripinfo_mixed.11" vType="moped" speedFactor="0.96" vaporized=""/>
    <tripinfo id="mixed.30" depart="38.00" departLane="beg_0" departPos="2.20" departPosLat="-0.89" departSpeed="0.00" departDelay="8.00" arrival="230.00" arrivalLane="end_1" arrivalPos="200.00" arrivalPosLat="0.20" arrivalSpeed="13.29" duration="192.00" routeLength="497.80" waitSteps="131" timeLoss="154.14" rerouteNo="0" devices="tripinfo_mixed.30" vType="moped" speedFactor="0.97" vaporized=""/>
    <tripinfo id="mixed.3" depart="7.00" departLane="beg_1" departPos="5.10" departPosLat="-0.46" departSpeed="0.00" departDelay="4.00" arrival="231.00" arrivalLane="end_0" arrivalPos="200.00" arrivalPosLat="1.27" arrivalSpeed="9.75" duration="224.00" routeLength="494.90" waitSteps="159" timeLoss="172.66" rerouteNo="0" devices="tripinfo_mixed.3" vType="car" speedFactor="0.71" vaporized=""/>
    <tripinfo id="mixed.26" depart="36.00" departLane="beg_1" departPos="2.20" departPosLat="0.20" departSpeed="0.00" departDelay="10.00" arrival="231.00" arrivalLane="end_1" arrivalPos="200.00" arrivalPosLat="0.41" arrivalSpeed="13.96" duration="195.00" routeLength="497.80" waitSteps="128" timeLoss="161.14" rerouteNo="0" devices="tripinfo_mixed.26" vType="moped" speedFactor="1.08" vaporized=""/>
    <tripinfo id="mixed.13" depart="17.00" departLane="beg_1" departPos="2.20" departPosLat="0.40" departSpeed="0.00" departDelay="4.00" arrival="232.00" arrivalLane="end_0" arrivalPos="200.00" arrivalPosLat="-1.20" arrivalSpeed="12.55" duration="215.00" routeLength="497.80" waitSteps="157" timeLoss="174.65" rerouteNo="0" devices="tripinfo_mixed.13" vType="moped" speedFactor="0.91" vaporized=""/>
    <tripinfo id="mixed.12" depart="16.00" departLane="beg_0" departPos="2.20" departPosLat="-0.66" departSpeed="0.00" departDelay="4.00" arrival="232.00" arrivalLane="end_0" arrivalPos="200.00" arrivalPosLat="0.08" arrivalSpeed="9.37" duration="216.00" routeLength="497.80" waitSteps="148" timeLoss="184.68" rerouteNo="0" devices="tripinfo_mixed.12" vType="moped" speedFactor="1.15" vaporized=""/>
    <tripinfo id="mixed.33" depart="43.00" departLane="beg_1" departPos="2.20" departPosLat="-0.27" departSpeed="0.00" departDelay="10.00" arrival="232.00" arrivalLane="end_1" arrivalPos="200.00" arrivalPosLat="-0.56" arrivalSpeed="14.45" duration="189.00" routeLength="497.80" waitSteps="127" timeLoss="158.91" rerouteNo="0" devices="tripinfo_mixed.33" vType="moped" speedFactor="1.31" vaporized=""/>
    <tripinfo id="mixed.28" depart="41.00" departLane="beg_0" departPos="2.20" departPosLat="0.42" departSpeed="0.00" departDelay="13.00" arrival="233.00" arrivalLane="end_1" arrivalPos="200.00" arrivalPosLat="0.72" arrivalSpeed="16.55" duration="192.00" routeLength="497.80" waitSteps="126" timeLoss="161.77" rerouteNo="0" devices="tripinfo_mixed.28" vType="moped" speedFactor="1.22" vaporized=""/>
    <tripinfo id="mixed.14" depart="18.00" departLane="beg_0" departPos="5.10" departPosLat="0.58" departSpeed="0.00" departDelay="4.00" arrival="234.00" arrivalLane="end_0" arrivalPos="200.00" arrivalPosLat="0.58" arrivalSpeed="11.42" duration="216.00" routeLength="494.90" waitSteps="147" timeLoss="175.57" rerouteNo="0" devices="tripinfo_mixed.14" vType="car" speedFactor="0.89" vaporized=""/>
    <tripinfo id="mixed.21" depart="32.00" departLane="beg_1" departPos="5.10" departPosLat="0.53" departSpeed="0.00" departDelay="11.00" arrival="236.00" arrivalLane="end_0" arrivalPos="200.00" arrivalPosLat="0.58" arrivalSpeed="14.65" duration="204.00" routeLength="494.90" waitSteps="139" timeLoss="174.22" rerouteNo="0" devices="tripinfo_mixed.21" vType="car" speedFactor="1.23" vaporized=""/>
    <tripinfo id="mixed.22" depart="25.00" departLane="beg_0" departPos="5.10" departPosLat="0.64" departSpeed="0.00" departDelay="3.00" arrival="236.00" arrivalLane="end_1" arrivalPos="200.00" arrivalPosLat="-0.62" arrivalSpeed="14.71" duration="211.00" routeLength="494.90" waitSteps="134" timeLoss="179.26" rerouteNo="0" devices="tripinfo_mixed.22" vType="car" speedFactor="1.13" vaporized=""/>
    <tripinfo id="mixed.27" depart="31.00" departLane="beg_0" departPos="2.20" departPosLat="0.17" departSpeed="0.00" departDelay="4.00" arrival="237.00" arrivalLane="end_0" arrivalPos="200.00" arrivalPosLat="-1.20" arrivalSpeed="9.22" duration="206.00" routeLength="497.80" waitSteps="132" timeLoss="153.08" rerouteNo="0" devices="tripinfo_mixed.27" vType="moped" speedFactor="0.69" vaporized=""/>
    <tripinfo id="mixed.37" depart="50.00" departLane="beg_1" departPos="2.20" departPosLat="-0.09" departSpeed="0.00" departDelay="13.00" arrival="239.00" arrivalLane="end_0" arrivalPos="200.00" arrivalPosLat="1.36" arrivalSpeed="12.76" duration="189.00" routeLength="497.80" waitSteps="123" timeLoss="149.36" rerouteNo="0" devices="tripinfo_mixed.37" vType="moped" speedFactor="0.92" vaporized=""/>
    <tripinfo id="mixed.29" depart="39.00" departLane="beg_1" departPos="2.20" departPosLat="-0.34" departSpeed="0.00" departDelay="10.00" arrival="240.00" arrivalLane="end_0" arrivalPos="200.00" arrivalPosLat="0.08" arrivalSpeed="9.54" duration="201.00" routeLength="497.80" waitSteps="134" timeLoss="151.34" rerouteNo="0" devices="tripinfo_mixed.29" vType="moped" speedFactor="0.72" vaporized=""/>
    <tripinfo id="mixed.18" depart="25.00" departLane="beg_1" departPos="2.20" departPosLat="-0.94" departSpeed="0.00" departDelay="7.00" arrival="241.00" arrivalLane="end_0" arrivalPos="200.00" arrivalPosLat="-1.20" arrivalSpeed="7.96" duration="216.00" routeLength="497.80" waitSteps="141" timeLoss="155.14" rerouteNo="0" devices="tripinfo_mixed.18" vType="moped" speedFactor="0.59" vaporized=""/>
    <tripinfo id="mixed.36" depart="55.00" departLane="beg_0" departPos="5.10" departPosLat="-0.16" departSpeed="0.00" departDelay="19.00" arrival="241.00" arrivalLane="end_0" arrivalPos="200.00" arrivalPosLat="1.12" arrivalSpeed="12.21" duration="186.00" routeLength="494.90" waitSteps="119" timeLoss="145.41" rerouteNo="0" devices="tripinfo_mixed.36" vType="car" speedFactor="0.88" vaporized=""/>
    <tripinfo id="mixed.31" depart="48.00" departLane="beg_1" departPos="5.10" departPosLat="0.55" departSpeed="0.00" departDelay="17.00" arrival="242.00" arrivalLane="end_1" arrivalPos="200.00" arrivalPosLat="0.64" arrivalSpeed="9.45" duration="194.00" routeLength="494.90" waitSteps="123" timeLoss="143.34" rerouteNo="0" devices="tripinfo_mixed.31" vType="car" speedFactor="0.71" vaporized=""/>
    <tripinfo id="mixed.19" depart="28.00" departLane="beg_0" departPos="5.10" departPosLat="-0.52" departSpeed="0.00" departDelay="9.00" arrival="243.00" arrivalLane="end_0" arrivalPos="200.00" arrivalPosLat="-0.70" arrivalSpeed="14.76" duration="215.00" routeLength="494.90" waitSteps="129" timeLoss="184.86" rerouteNo="0" devices="tripinfo_mixed.19" vType="car" speedFactor="1.20" vaporized=""/>
    <tripinfo id="mixed.38" depart="58.00" departLane="beg_1" departPos="5.10" departPosLat="0.70" departSpeed="0.00" departDelay="20.00" arrival="244.00" arrivalLane="end_1" arrivalPos="200.00" arrivalPosLat="-0.70" arrivalSpeed="12.88" duration="186.00" routeLength="494.90" waitSteps="118" timeLoss="155.58" rerouteNo="0" devices="tripinfo_mixed.38" vType="car" speedFactor="1.20" vaporized=""/>
    <tripinfo id="mixed.45" depart="65.00" departLane="beg_1" departPos="2.20" departPosLat="-0.12" departSpeed="0.00" departDelay="20.00" arrival="244.00" arrivalLane="end_1" arrivalPos="200.00" arrivalPosLat="0.93" arrivalSpeed="14.37" duration="179.00" routeLength="497.80" waitSteps="117" timeLoss="146.62" rerouteNo="0" devices="tripinfo_mixed.45" vType="moped" speedFactor="1.12" vaporized=""/>
    <tripinfo id="mixed.47" depart="68.00" departLane="beg_1" departPos="2.20" departPosLat="0.71" departSpeed="0.00" departDelay="21.00" arrival="246.00" arrivalLane="end_1" arrivalPos="200.00" arrivalPosLat="0.08" arrivalSpeed="14.61" duration="178.00" routeLength="497.80" waitSteps="112" timeLoss="143.56" rerouteNo="0" devices="tripinfo_mixed.47" vType="moped" speedFactor="1.07" vaporized=""/>
    <tripinfo id="mixed.49" depart="58.00" departLane="beg_0" departPos="5.10" departPosLat="-0.48" departSpeed="0.00" departDelay="9.00" arrival="246.00" arrivalLane="end_1" arrivalPos="200.00" arrivalPosLat="-1.58" arrivalSpeed="13.66" duration="188.00" routeLength="494.90" waitSteps="120" timeLoss="153.71" rerouteNo="0" devices="tripinfo_mixed.49" vType="car" speedFactor="1.05" vaporized=""/>
    <tripinfo id="mixed.39" depart="50.00" departLane="beg_1" departPos="2.20" departPosLat="0.88" departSpeed="0.00" departDelay="11.00" arrival="248.00" arrivalLane="end_0" arrivalPos="200.00" arrivalPosLat="0.70" arrivalSpeed="8.43" duration="198.00" routeLength="497.80" waitSteps="119" timeLoss="139.73" rerouteNo="0" devices="tripinfo_mixed.39" vType="moped" speedFactor="0.62" vaporized=""/>
    <tripinfo id="mixed.53" depart="77.00" departLane="beg_1" departPos="5.10" departPosLat="0.20" departSpeed="0.00" departDelay="24.00" arrival="248.00" arrivalLane="end_1" arrivalPos="200.00" arrivalPosLat="0.70" arrivalSpeed="14.96" duration="171.00" routeLength="494.90" waitSteps="110" timeLoss="139.55" rerouteNo="0" devices="tripinfo_mixed.53" vType="car" speedFactor="1.16" vaporized=""/>
    <tripinfo id="mixed.51" depart="68.00" departLane="beg_1" departPos="2.20" departPosLat="-0.93" departSpeed="0.00" departDelay="17.00" arrival="248.00" arrivalLane="end_1" arrivalPos="200.00" arrivalPosLat="-1.20" arrivalSpeed="15.87" duration="180.00" routeLength="497.80" waitSteps="114" timeLoss="149.81" rerouteNo="0" devices="tripinfo_mixed.51" vType="moped" speedFactor="1.89" vaporized=""/>
    <tripinfo id="mixed.16" depart="24.00" departLane="beg_1" departPos="2.20" departPosLat="1.13" departSpeed="0.00" departDelay="8.00" arrival="249.00" arrivalLane="end_0" arrivalPos="200.00" arrivalPosLat="-1.20" arrivalSpeed="6.20" duration="225.00" routeLength="497.80" waitSteps="137" timeLoss="149.32" rerouteNo="0" devices="tripinfo_mixed.16" vType="moped" speedFactor="0.48" vaporized=""/>
    <tripinfo id="mixed.43" depart="61.00" departLane="beg_1" departPos="2.20" departPosLat="-1.17" departSpeed="0.00" departDelay="18.00" arrival="250.00" arrivalLane="end_0" arrivalPos="200.00" arrivalPosLat="0.96" arrivalSpeed="10.15" duration="189.00" routeLength="497.80" waitSteps="119" timeLoss="148.90" rerouteNo="0" devices="tripinfo_mixed.43" vType="moped" speedFactor="0.91" vaporized=""/>
    <tripinfo id="mixed.62" depart="85.00" departLane="beg_1" departPos="2.20" departPosLat="1.09" departSpeed="0.00" departDelay="23.00" arrival="250.00" arrivalLane="end_1" arrivalPos="200.00" arrivalPosLat="0.44" arrivalSpeed="15.98" duration="165.00" routeLength="497.80" waitSteps="105" timeLoss="133.93" rerouteNo="0" devices="tripinfo_mixed.62" vType="moped" speedFactor="1.18" vaporized=""/>
    <tripinfo id="mixed.25" depart="48.00" departLane="beg_0" departPos="5.10" departPosLat="-0.06" departSpeed="0.00" departDelay="23.00" arrival="251.00" arrivalLane="end_0" arrivalPos="200.00" arrivalPosLat="-0.70" arrivalSpeed="10.30" duration="203.00" routeLength="494.90" waitSteps="126" timeLoss="165.99" rerouteNo="0" devices="tripinfo_mixed.25" vType="car" speedFactor="0.99" vaporized=""/>
    <tripinfo id="mixed.54" depart="77.00" departLane="beg_0" departPos="2.20" departPosLat="0.21" departSpeed="0.00" departDelay="23.00" arrival="251.00" arrivalLane="end_1" arrivalPos="200.00" arrivalPosLat="-1.20" arrivalSpeed="10.23" duration="174.00" routeLength="497.80" waitSteps="107" timeLoss="143.90" rerouteNo="0" devices="tripinfo_mixed.54" vType="moped" speedFactor="1.20" vaporized=""/>
    <tripinfo id="mixed.59" depart="85.00" departLane="beg_1" departPos="2.20" departPosLat="-0.94" departSpeed="0.00" departDelay="26.00" arrival="252.00" arrivalLane="end_1" arrivalPos="200.00" arrivalPosLat="0.08" arrivalSpeed="14.20" duration="167.00" routeLength="497.80" waitSteps="102" timeLoss="131.85" rerouteNo="0" devices="tripinfo_mixed.59" vType="moped" speedFactor="1.05" vaporized=""/>
    <tripinfo id="mixed.41" depart="55.00" departLane="beg_1" departPos="2.20" departPosLat="-0.48" departSpeed="0.00" departDelay="14.00" arrival="253.00" arrivalLane="end_0" arrivalPos="200.00" arrivalPosLat="-0.56" arrivalSpeed="9.61" duration="198.00" routeLength="497.80" waitSteps="122" timeLoss="167.45" rerouteNo="0" devices="tripinfo_mixed.41" vType="moped" speedFactor="1.44" vaporized=""/>
    <tripinfo id="mixed.56" depart="82.00" departLane="beg_1" departPos="5.10" departPosLat="-0.47" departSpeed="0.00" departDelay="26.00" arrival="253.00" arrivalLane="end_1" arrivalPos="200.00" arrivalPosLat="-1.34" arrivalSpeed="11.14" duration="171.00" routeLength="494.90" waitSteps="105" timeLoss="130.67" rerouteNo="0" devices="tripinfo_mixed.56" vType="car" speedFactor="0.89" vaporized=""/>
    <tripinfo id="mixed.68" depart="96.00" departLane="beg_1" departPos="5.10" departPosLat="-0.61" departSpeed="0.00" departDelay="28.00" arrival="253.00" arrivalLane="end_1" arrivalPos="200.00" arrivalPosLat="0.70" arrivalSpeed="15.91" duration="157.00" routeLength="494.90" waitSteps="101" timeLoss="127.63" rerouteNo="0" devices="tripinfo_mixed.68" vType="car" speedFactor="1.22" vaporized=""/>
    <tripinfo id="mixed.63" depart="88.00" departLane="beg_1" departPos="2.20" departPosLat="0.31" departSpeed="0.00" departDelay="25.00" arrival="255.00" arrivalLane="end_0" arrivalPos="200.00" arrivalPosLat="1.36" arrivalSpeed="12.27" duration="167.00" routeLength="497.80" waitSteps="102" timeLoss="131.23" rerouteNo="0" devices="tripinfo_mixed.63" vType="moped" speedFactor="1.02" vaporized=""/>
    <tripinfo id="mixed.72" depart="102.00" departLane="beg_1" departPos="5.10" departPosLat="-0.13" departSpeed="0.00" departDelay="30.00" arrival="255.00" arrivalLane="end_1" arrivalPos="200.00" arrivalPosLat="0.70" arrivalSpeed="16.69" duration="153.00" routeLength="494.90" waitSteps="96" timeLoss="123.73" rerouteNo="0" devices="tripinfo_mixed.72" vType="car" speedFactor="1.24" vaporized=""/>
    <tripinfo id="mixed.32" depart="44.00" departLane="beg_0" departPos="2.20" departPosLat="-1.02" departSpeed="0.00" departDelay="12.00" arrival="256.00" arrivalLane="end_0" arrivalPos="200.00" arrivalPosLat="-1.20" arrivalSpeed="7.86" duration="212.00" routeLength="497.80" waitSteps="124" timeLoss="149.95" rerouteNo="0" devices="tripinfo_mixed.32" vType="moped" speedFactor="0.58" vaporized=""/>
    <tripinfo id="mixed.35" depart="51.00" departLane="beg_0" departPos="2.20" departPosLat="-0.60" departSpeed="0.00" departDelay="16.00" arrival="256.00" arrivalLane="end_0" arrivalPos="200.00" arrivalPosLat="0.08" arrivalSpeed="12.21" duration="205.00" routeLength="497.80" waitSteps="122" timeLoss="164.26" rerouteNo="0" devices="tripinfo_mixed.35" vType="moped" speedFactor="0.89" vaporized=""/>
    <tripinfo id="mixed.58" depart="81.00" departLane="beg_0" departPos="2.20" departPosLat="0.25" departSpeed="0.00" departDelay="23.00" arrival="256.00" arrivalLane="end_1" arrivalPos="200.00" arrivalPosLat="-1.07" arrivalSpeed="11.80" duration="175.00" routeLength="497.80" waitSteps="106" timeLoss="145.00" rerouteNo="0" devices="tripinfo_mixed.58" vType="moped" speedFactor="1.39" vaporized=""/>
    <tripinfo id="mixed.74" depart="99.00" departLane="beg_0" departPos="2.20" departPosLat="-0.39" departSpeed="0.00" departDelay="25.00" arrival="257.00" arrivalLane="end_1" arrivalPos="200.00" arrivalPosLat="0.08" arrivalSpeed="15.71" duration="158.00" routeLength="497.80" waitSteps="95" timeLoss="125.90" rerouteNo="0" devices="tripinfo_mixed.74" vType="moped" speedFactor="1.15" vaporized=""/>
    <tripinfo id="mixed.46" depart="65.00" departLane="beg_0" departPos="2.20" departPosLat="0.72" departSpeed="0.00" departDelay="19.00" arrival="258.00" arrivalLane="end_0" arrivalPos="200.00" arrivalPosLat="-0.56" arrivalSpeed="13.12" duration="193.00" routeLength="497.80" waitSteps="116" timeLoss="162.41" rerouteNo="0" devices="tripinfo_mixed.46" vType="moped" speedFactor="1.70" vaporized=""/>
    <tripinfo id="mixed.50" depart="69.00" departLane="beg_0" departPos="2.20" departPosLat="0.98" departSpeed="0.00" departDelay="19.00" arrival="258.00" arrivalLane="end_0" arrivalPos="200.00" arrivalPosLat="1.36" arrivalSpeed="15.77" duration="189.00" routeLength="497.80" waitSteps="115" timeLoss="158.67" rerouteNo="0" devices="tripinfo_mixed.50" vType="moped" speedFactor="1.36" vaporized=""/>
    <tripinfo id="mixed.48" depart="69.00" departLane="beg_0" departPos="2.20" departPosLat="-1.17" departSpeed="0.00" departDelay="21.00" arrival="260.00" arrivalLane="end_0" arrivalPos="200.00" arrivalPosLat="1.48" arrivalSpeed="15.46" duration="191.00" routeLength="497.80" waitSteps="119" timeLoss="160.46" rerouteNo="0" devices="tripinfo_mixed.48" vType="moped" speedFactor="1.38" vaporized=""/>
    <tripinfo id="mixed.79" depart="112.00" departLane="beg_1" departPos="5.10" departPosLat="-0.17" departSpeed="0.00" departDelay="33.00" arrival="260.00" arrivalLane="end_1" arrivalPos="200.00" arrivalPosLat="0.70" arrivalSpeed="11.00" duration="148.00" routeLength="494.90" waitSteps="85" timeLoss="106.95" rerouteNo="0" devices="tripinfo_mixed.79" vType="car" speedFactor="0.88" vaporized=""/>
    <tripinfo id="mixed.34" depart="44.00" departLane="beg_0" departPos="2.20" departPosLat="0.81" departSpeed="0.00" departDelay="10.00" arrival="262.00" arrivalLane="end_0" arrivalPos="200.00" arrivalPosLat="0.62" arrivalSpeed="9.59" duration="218.00" routeLength="497.80" waitSteps="126" timeLoss="165.58" rerouteNo="0" devices="tripinfo_mixed.34" vType="moped" speedFactor="0.69" vaporized=""/>
    <tripinfo id="mixed.84" depart="116.00" departLane="beg_1" departPos="2.20" departPosLat="1.03" departSpeed="0.00" departDelay="32.00" arrival="262.00" arrivalLane="end_1" arrivalPos="200.00" arrivalPosLat="0.89" arrivalSpeed="12.83" duration="146.00" routeLength="497.80" waitSteps="78" timeLoss="114.90" rerouteNo="0" devices="tripinfo_mixed.84" vType="moped" speedFactor="1.18" vaporized=""/>
    <tripinfo id="mixed.60" depart="85.00" departLane="beg_0" departPos="5.10" departPosLat="0.45" departSpeed="0.00" departDelay="25.00" arrival="262.00" arrivalLane="end_1" arrivalPos="200.00" arrivalPosLat="-0.64" arrivalSpeed="13.50" duration="177.00" routeLength="494.90" waitSteps="102" timeLoss="141.24" rerouteNo="0" devices="tripinfo_mixed.60" vType="car" speedFactor="1.01" vaporized=""/>
    <tripinfo id="mixed.91" depart="127.00" departLane="beg_1" departPos="2.20" departPosLat="0.39" departSpeed="0.00" departDelay="36.00" arrival="263.00" arrivalLane="end_1" arrivalPos="200.00" arrivalPosLat="1.20" arrivalSpeed="12.70" duration="136.00" routeLength="497.80" waitSteps="73" timeLoss="98.14" rerouteNo="0" devices="tripinfo_mixed.91" vType="moped" speedFactor="0.96" vaporized=""/>
    <tripinfo id="mixed.40" depart="61.00" departLane="beg_0" departPos="5.10" departPosLat="-0.59" departSpeed="0.00" departDelay="21.00" arrival="264.00" arrivalLane="end_0" arrivalPos="200.00" arrivalPosLat="1.58" arrivalSpeed="11.53" duration="203.00" routeLength="494.90" waitSteps="119" timeLoss="163.01" rerouteNo="0" devices="tripinfo_mixed.40" vType="car" speedFactor="0.91" vaporized=""/>
    <tripinfo id="mixed.8" depart="12.00" departLane="beg_0" departPos="2.20" departPosLat="0.39" departSpeed="0.00" departDelay="4.00" arrival="265.00" arrivalLane="end_0" arrivalPos="200.00" arrivalPosLat="-1.20" arrivalSpeed="4.24" duration="253.00" routeLength="497.80" waitSteps="132" timeLoss="145.07" rerouteNo="0" devices="tripinfo_mixed.8" vType="moped" speedFactor="0.33" vaporized=""/>
    <tripinfo id="mixed.96" depart="134.00" departLane="beg_1" departPos="2.20" departPosLat="1.13" departSpeed="0.00" departDelay="38.00" arrival="265.00" arrivalLane="end_1" arrivalPos="200.00" arrivalPosLat="0.08" arrivalSpeed="11.89" duration="131.00" routeLength="497.80" waitSteps="68" timeLoss="88.72" rerouteNo="0" devices="tripinfo_mixed.96" vType="moped" speedFactor="0.87" vaporized=""/>
    <tripinfo id="mixed.42" depart="64.00" departLane="beg_0" departPos="2.20" departPosLat="-0.88" departSpeed="0.00" departDelay="22.00" arrival="266.00" arrivalLane="end_0" arrivalPos="200.00" arrivalPosLat="-1.20" arrivalSpeed="6.97" duration="202.00" routeLength="497.80" waitSteps="120" timeLoss="157.53" rerouteNo="0" devices="tripinfo_mixed.42" vType="moped" speedFactor="0.81" vaporized=""/>
    <tripinfo id="mixed.66" depart="94.00" departLane="beg_0" departPos="5.10" departPosLat="0.67" departSpeed="0.00" departDelay="28.00" arrival="266.00" arrivalLane="end_1" arrivalPos="200.00" arrivalPosLat="-1.40" arrivalSpeed="12.96" duration="172.00" routeLength="494.90" waitSteps="101" timeLoss="142.78" rerouteNo="0" devices="tripinfo_mixed.66" vType="car" speedFactor="1.25" vaporized=""/>
    <tripinfo id="mixed.98" depart="139.00" departLane="beg_1" departPos="2.20" departPosLat="0.12" departSpeed="0.00" departDelay="41.00" arrival="266.00" arrivalLane="end_1" arrivalPos="200.00" arrivalPosLat="0.92" arrivalSpeed="12.45" duration="127.00" routeLength="497.80" waitSteps="66" timeLoss="96.73" rerouteNo="0" devices="tripinfo_mixed.98" vType="moped" speedFactor="1.35" vaporized=""/>
    <tripinfo id="mixed.69" depart="98.00" departLane="beg_1" departPos="2.20" departPosLat="-0.88" departSpeed="0.00" departDelay="29.00" arrival="267.00" arrivalLane="end_0" arrivalPos="200.00" arrivalPosLat="0.64" arrivalSpeed="11.53" duration="169.00" routeLength="497.80" waitSteps="96" timeLoss="126.48" rerouteNo="0" devices="tripinfo_mixed.69" vType="moped" speedFactor="0.85" vaporized=""/>
    <tripinfo id="mixed.73" depart="104.00" departLane="beg_0" departPos="2.20" departPosLat="0.74" departSpeed="0.00" departDelay="31.00" arrival="268.00" arrivalLane="end_1" arrivalPos="200.00" arrivalPosLat="-0.49" arrivalSpeed="9.81" duration="164.00" routeLength="497.80" waitSteps="89" timeLoss="113.61" rerouteNo="0" devices="tripinfo_mixed.73" vType="moped" speedFactor="0.72" vaporized=""/>
    <tripinfo id="mixed.44" depart="61.00" departLane="beg_1" departPos="2.20" departPosLat="1.05" departSpeed="0.00" departDelay="17.00" arrival="269.00" arrivalLane="end_0" arrivalPos="200.00" arrivalPosLat="-1.20" arrivalSpeed="6.65" duration="208.00" routeLength="497.80" waitSteps="117" timeLoss="135.12" rerouteNo="0" devices="tripinfo_mixed.44" vType="moped" speedFactor="0.50" vaporized=""/>
    <tripinfo id="mixed.81" depart="108.00" departLane="beg_1" departPos="2.20" departPosLat="0.68" departSpeed="0.00" departDelay="27.00" arrival="269.00" arrivalLane="end_0" arrivalPos="200.00" arrivalPosLat="0.85" arrivalSpeed="11.45" duration="161.00" routeLength="497.80" waitSteps="88" timeLoss="118.46" rerouteNo="0" devices="tripinfo_mixed.81" vType="moped" speedFactor="0.85" vaporized=""/>
    <tripinfo id="mixed.80" depart="117.00" departLane="beg_0" departPos="5.10" departPosLat="-0.57" departSpeed="0.00" departDelay="37.00" arrival="270.00" arrivalLane="end_1" arrivalPos="200.00" arrivalPosLat="-0.06" arrivalSpeed="14.05" duration="153.00" routeLength="494.90" waitSteps="84" timeLoss="118.01" rerouteNo="0" devices="tripinfo_mixed.80" vType="car" speedFactor="1.05" vaporized=""/>