<?xml version="1.0" encoding="UTF-8"?>

<!-- generated on Thu May 18 12:32:02 2017 by SUMO Version dev-SVN-r24351
<?xml version="1.0" encoding="UTF-8"?>

<configuration xmlns:xsi="http://www.w3.org/2001/XMLSchema-instance" xsi:noNamespaceSchemaLocation="http://sumo.dlr.de/xsd/sumoConfiguration.xsd">

    <input>
        <net-file value="net.net.xml"/>
        <route-files value="input_routes.rou.xml"/>
    </input>

    <output>
        <tripinfo-output value="tripinfos.xml"/>
    </output>

    <processing>
        <lateral-resolution value="0.64"/>
    </processing>

    <report>
        <xml-validation value="never"/>
        <no-step-log value="true"/>
    </report>

</configuration>
-->

<tripinfos xmlns:xsi="http://www.w3.org/2001/XMLSchema-instance" xsi:noNamespaceSchemaLocation="http://sumo.dlr.de/xsd/tripinfo_file.xsd">
    <tripinfo id="mixed.2" depart="4.00" departLane="beg_1" departPos="5.10" departPosLat="0.53" departSpeed="0.00" departDelay="2.00" arrival="218.00" arrivalLane="end_0" arrivalPos="200.00" arrivalPosLat="-0.70" arrivalSpeed="13.08" duration="214.00" routeLength="494.90" waitSteps="167" timeLoss="177.46" rerouteNo="0" devices="tripinfo_mixed.2" vType="car" speedFactor="0.99" vaporized=""/>
    <tripinfo id="mixed.15" depart="25.00" departLane="beg_1" departPos="5.10" departPosLat="-0.55" departSpeed="0.00" departDelay="10.00" arrival="219.00" arrivalLane="end_0" arrivalPos="200.00" arrivalPosLat="0.58" arrivalSpeed="18.11" duration="194.00" routeLength="494.90" waitSteps="149" timeLoss="166.05" rerouteNo="0" devices="tripinfo_mixed.15" vType="car" speedFactor="1.31" vaporized=""/>
    <tripinfo id="mixed.7" depart="13.00" departLane="beg_1" departPos="2.20" departPosLat="0.97" departSpeed="0.00" departDelay="6.00" arrival="220.00" arrivalLane="end_1" arrivalPos="200.00" arrivalPosLat="-0.56" arrivalSpeed="16.28" duration="207.00" routeLength="497.80" waitSteps="148" timeLoss="176.52" rerouteNo="0" devices="tripinfo_mixed.7" vType="moped" speedFactor="1.53" vaporized=""/>
    <tripinfo id="mixed.5" depart="10.00" departLane="beg_1" departPos="5.10" departPosLat="-0.40" departSpeed="0.00" departDelay="5.00" arrival="221.00" arrivalLane="end_0" arrivalPos="200.00" arrivalPosLat="-0.70" arrivalSpeed="10.25" duration="211.00" routeLength="494.90" waitSteps="157" timeLoss="166.79" rerouteNo="0" devices="tripinfo_mixed.5" vType="car" speedFactor="0.82" vaporized=""/>
    <tripinfo id="mixed.19" depart="32.00" departLane="beg_0" departPos="5.10" departPosLat="-0.51" departSpeed="0.00" departDelay="13.00" arrival="222.00" arrivalLane="end_1" arrivalPos="200.00" arrivalPosLat="-0.70" arrivalSpeed="15.54" duration="190.00" routeLength="494.90" waitSteps="142" timeLoss="159.96" rerouteNo="0" devices="tripinfo_mixed.19" vType="car" speedFactor="1.20" vaporized=""/>
    <tripinfo id="mixed.1" depart="1.00" departLane="beg_1" departPos="2.20" departPosLat="0.22" departSpeed="0.00" departDelay="0.00" arrival="223.00" arrivalLane="end_0" arrivalPos="200.00" arrivalPosLat="0.08" arrivalSpeed="13.40" duration="222.00" routeLength="497.80" waitSteps="159" timeLoss="185.09" rerouteNo="0" devices="tripinfo_mixed.1" vType="moped" speedFactor="0.99" vaporized=""/>
    <tripinfo id="mixed.11" depart="16.00" departLane="beg_0" departPos="2.20" departPosLat="-0.97" departSpeed="0.00" departDelay="5.00" arrival="223.00" arrivalLane="end_1" arrivalPos="200.00" arrivalPosLat="-1.36" arrivalSpeed="12.59" duration="207.00" routeLength="497.80" waitSteps="144" timeLoss="169.53" rerouteNo="0" devices="tripinfo_mixed.11" vType="moped" speedFactor="0.96" vaporized=""/>
    <tripinfo id="mixed.4" depart="5.00" departLane="beg_0" departPos="2.20" departPosLat="0.11" departSpeed="0.00" departDelay="1.00" arrival="224.00" arrivalLane="end_0" arrivalPos="200.00" arrivalPosLat="-1.20" arrivalSpeed="12.92" duration="219.00" routeLength="497.80" waitSteps="158" timeLoss="180.43" rerouteNo="0" devices="tripinfo_mixed.4" vType="moped" speedFactor="0.95" vaporized=""/>
    <tripinfo id="mixed.0" depart="0.00" departLane="beg_0" departPos="2.20" departPosLat="0.51" departSpeed="0.00" departDelay="0.00" arrival="226.00" arrivalLane="end_0" arrivalPos="200.00" arrivalPosLat="-1.20" arrivalSpeed="11.88" duration="226.00" routeLength="497.80" waitSteps="163" timeLoss="184.20" rerouteNo="0" devices="tripinfo_mixed.0" vType="moped" speedFactor="0.88" vaporized=""/>
    <tripinfo id="mixed.12" depart="18.00" departLane="beg_0" departPos="2.20" departPosLat="1.06" departSpeed="0.00" departDelay="6.00" arrival="226.00" arrivalLane="end_0" arrivalPos="200.00" arrivalPosLat="1.56" arrivalSpeed="15.86" duration="208.00" routeLength="497.80" waitSteps="148" timeLoss="176.06" rerouteNo="0" devices="tripinfo_mixed.12" vType="moped" speedFactor="1.15" vaporized=""/>
    <tripinfo id="mixed.23" depart="28.00" departLane="beg_1" departPos="2.20" departPosLat="1.18" departSpeed="0.00" departDelay="5.00" arrival="226.00" arrivalLane="end_1" arrivalPos="200.00" arrivalPosLat="1.20" arrivalSpeed="16.38" duration="198.00" routeLength="497.80" waitSteps="140" timeLoss="167.29" rerouteNo="0" devices="tripinfo_mixed.23" vType="moped" speedFactor="1.31" vaporized=""/>
    <tripinfo id="mixed.6" depart="7.00" departLane="beg_0" departPos="2.20" departPosLat="0.75" departSpeed="0.00" departDelay="1.00" arrival="227.00" arrivalLane="end_0" arrivalPos="200.00" arrivalPosLat="1.20" arrivalSpeed="11.74" duration="220.00" routeLength="497.80" waitSteps="156" timeLoss="178.53" rerouteNo="0" devices="tripinfo_mixed.6" vType="moped" speedFactor="0.88" vaporized=""/>
    <tripinfo id="mixed.10" depart="16.00" departLane="beg_1" departPos="2.20" departPosLat="0.69" departSpeed="0.00" departDelay="6.00" arrival="228.00" arrivalLane="end_0" arrivalPos="200.00" arrivalPosLat="1.20" arrivalSpeed="12.52" duration="212.00" routeLength="497.80" waitSteps="155" timeLoss="181.91" rerouteNo="0" devices="tripinfo_mixed.10" vType="moped" speedFactor="1.37" vaporized=""/>
    <tripinfo id="mixed.22" depart="32.00" departLane="beg_1" departPos="5.10" departPosLat="0.53" departSpeed="0.00" departDelay="10.00" arrival="228.00" arrivalLane="end_1" arrivalPos="200.00" arrivalPosLat="0.30" arrivalSpeed="15.43" duration="196.00" routeLength="494.90" waitSteps="139" timeLoss="163.98" rerouteNo="0" devices="tripinfo_mixed.22" vType="car" speedFactor="1.13" vaporized=""/>
    <tripinfo id="mixed.3" depart="11.00" departLane="beg_0" departPos="5.10" departPosLat="-0.55" departSpeed="0.00" departDelay="8.00" arrival="230.00" arrivalLane="end_0" arrivalPos="200.00" arrivalPosLat="-0.70" arrivalSpeed="9.61" duration="219.00" routeLength="494.90" waitSteps="152" timeLoss="168.18" rerouteNo="0" devices="tripinfo_mixed.3" vType="car" speedFactor="0.71" vaporized=""/>
    <tripinfo id="mixed.33" depart="45.00" departLane="beg_1" departPos="2.20" departPosLat="0.63" departSpeed="0.00" departDelay="12.00" arrival="230.00" arrivalLane="end_1" arrivalPos="200.00" arrivalPosLat="-0.56" arrivalSpeed="16.66" duration="185.00" routeLength="497.80" waitSteps="127" timeLoss="154.41" rerouteNo="0" devices="tripinfo_mixed.33" vType="moped" speedFactor="1.31" vaporized=""/>
    <tripinfo id="mixed.14" depart="28.00" departLane="beg_1" departPos="5.10" departPosLat="-0.65" departSpeed="0.00" departDelay="14.00" arrival="231.00" arrivalLane="end_0" arrivalPos="200.00" arrivalPosLat="0.58" arrivalSpeed="11.46" duration="203.00" routeLength="494.90" waitSteps="141" timeLoss="162.41" rerouteNo="0" devices="tripinfo_mixed.14" vType="car" speedFactor="0.89" vaporized=""/>
    <tripinfo id="mixed.9" depart="14.00" departLane="beg_0" departPos="2.20" departPosLat="0.93" departSpeed="0.00" departDelay="5.00" arrival="232.00" arrivalLane="end_0" arrivalPos="200.00" arrivalPosLat="-1.20" arrivalSpeed="10.58" duration="218.00" routeLength="497.80" waitSteps="148" timeLoss="187.65" rerouteNo="0" devices="tripinfo_mixed.9" vType="moped" speedFactor="1.29" vaporized=""/>
    <tripinfo id="mixed.21" depart="36.00" departLane="beg_1" departPos="5.10" departPosLat="0.39" departSpeed="0.00" departDelay="15.00" arrival="233.00" arrivalLane="end_0" arrivalPos="200.00" arrivalPosLat="0.96" arrivalSpeed="15.60" duration="197.00" routeLength="494.90" waitSteps="138" timeLoss="167.06" rerouteNo="0" devices="tripinfo_mixed.21" vType="car" speedFactor="1.23" vaporized=""/>
    <tripinfo id="mixed.20" depart="21.00" departLane="beg_1" departPos="2.20" departPosLat="-1.16" departSpeed="0.00" departDelay="1.00" arrival="233.00" arrivalLane="end_0" arrivalPos="200.00" arrivalPosLat="-1.20" arrivalSpeed="10.97" duration="212.00" routeLength="497.80" waitSteps="147" timeLoss="181.93" rerouteNo="0" devices="tripinfo_mixed.20" vType="moped" speedFactor="1.23" vaporized=""/>
    <tripinfo id="mixed.25" depart="52.00" departLane="beg_1" departPos="5.10" departPosLat="-0.64" departSpeed="0.00" departDelay="27.00" arrival="233.00" arrivalLane="end_1" arrivalPos="200.00" arrivalPosLat="-0.06" arrivalSpeed="12.68" duration="181.00" routeLength="494.90" waitSteps="127" timeLoss="144.65" rerouteNo="0" devices="tripinfo_mixed.25" vType="car" speedFactor="0.99" vaporized=""/>
    <tripinfo id="mixed.30" depart="43.00" departLane="beg_1" departPos="2.20" departPosLat="0.33" departSpeed="0.00" departDelay="13.00" arrival="234.00" arrivalLane="end_0" arrivalPos="200.00" arrivalPosLat="0.08" arrivalSpeed="13.11" duration="191.00" routeLength="497.80" waitSteps="130" timeLoss="153.82" rerouteNo="0" devices="tripinfo_mixed.30" vType="moped" speedFactor="0.97" vaporized=""/>
    <tripinfo id="mixed.13" depart="22.00" departLane="beg_0" departPos="2.20" departPosLat="-0.67" departSpeed="0.00" departDelay="9.00" arrival="235.00" arrivalLane="end_0" arrivalPos="200.00" arrivalPosLat="-1.20" arrivalSpeed="11.72" duration="213.00" routeLength="497.80" waitSteps="147" timeLoss="172.81" rerouteNo="0" devices="tripinfo_mixed.13" vType="moped" speedFactor="0.91" vaporized=""/>
    <tripinfo id="mixed.38" depart="63.00" departLane="beg_1" departPos="5.10" departPosLat="-0.40" departSpeed="0.00" departDelay="25.00" arrival="235.00" arrivalLane="end_1" arrivalPos="200.00" arrivalPosLat="0.70" arrivalSpeed="15.87" duration="172.00" routeLength="494.90" waitSteps="120" timeLoss="141.52" rerouteNo="0" devices="tripinfo_mixed.38" vType="car" speedFactor="1.20" vaporized=""/>
    <tripinfo id="mixed.26" depart="42.00" departLane="beg_0" departPos="2.20" departPosLat="0.45" departSpeed="0.00" departDelay="16.00" arrival="236.00" arrivalLane="end_0" arrivalPos="200.00" arrivalPosLat="0.72" arrivalSpeed="14.31" duration="194.00" routeLength="497.80" waitSteps="129" timeLoss="159.85" rerouteNo="0" devices="tripinfo_mixed.26" vType="moped" speedFactor="1.08" vaporized=""/>
    <tripinfo id="mixed.28" depart="39.00" departLane="beg_1" departPos="2.20" departPosLat="0.15" departSpeed="0.00" departDelay="11.00" arrival="236.00" arrivalLane="end_0" arrivalPos="200.00" arrivalPosLat="-0.14" arrivalSpeed="11.61" duration="197.00" routeLength="497.80" waitSteps="135" timeLoss="166.84" rerouteNo="0" devices="tripinfo_mixed.28" vType="moped" speedFactor="1.22" vaporized=""/>
    <tripinfo id="mixed.17" depart="26.00" departLane="beg_0" departPos="2.20" departPosLat="-0.64" departSpeed="0.00" departDelay="9.00" arrival="238.00" arrivalLane="end_0" arrivalPos="200.00" arrivalPosLat="0.56" arrivalSpeed="12.63" duration="212.00" routeLength="497.80" waitSteps="131" timeLoss="181.36" rerouteNo="0" devices="tripinfo_mixed.17" vType="moped" speedFactor="1.91" vaporized=""/>
    <tripinfo id="mixed.24" depart="34.00" departLane="beg_0" departPos="2.20" departPosLat="0.28" departSpeed="0.00" departDelay="10.00" arrival="239.00" arrivalLane="end_0" arrivalPos="200.00" arrivalPosLat="0.56" arrivalSpeed="12.51" duration="205.00" routeLength="497.80" waitSteps="145" timeLoss="172.41" rerouteNo="0" devices="tripinfo_mixed.24" vType="moped" speedFactor="1.12" vaporized=""/>
    <tripinfo id="mixed.36" depart="59.00" departLane="beg_1" departPos="5.10" departPosLat="0.33" departSpeed="0.00" departDelay="23.00" arrival="239.00" arrivalLane="end_1" arrivalPos="200.00" arrivalPosLat="-1.34" arrivalSpeed="11.22" duration="180.00" routeLength="494.90" waitSteps="119" timeLoss="138.56" rerouteNo="0" devices="tripinfo_mixed.36" vType="car" speedFactor="0.88" vaporized=""/>
    <tripinfo id="mixed.49" depart="73.00" departLane="beg_1" departPos="5.10" departPosLat="0.49" departSpeed="0.00" departDelay="24.00" arrival="239.00" arrivalLane="end_1" arrivalPos="200.00" arrivalPosLat="0.70" arrivalSpeed="14.56" duration="166.00" routeLength="494.90" waitSteps="112" timeLoss="131.18" rerouteNo="0" devices="tripinfo_mixed.49" vType="car" speedFactor="1.05" vaporized=""/>
    <tripinfo id="mixed.48" depart="70.00" departLane="beg_0" departPos="2.20" departPosLat="0.28" departSpeed="0.00" departDelay="22.00" arrival="240.00" arrivalLane="end_1" arrivalPos="200.00" arrivalPosLat="-0.56" arrivalSpeed="14.97" duration="170.00" routeLength="497.80" waitSteps="109" timeLoss="139.68" rerouteNo="0" devices="tripinfo_mixed.48" vType="moped" speedFactor="1.38" vaporized=""/>
    <tripinfo id="mixed.18" depart="21.00" departLane="beg_1" departPos="2.20" departPosLat="0.98" departSpeed="0.00" departDelay="3.00" arrival="241.00" arrivalLane="end_0" arrivalPos="200.00" arrivalPosLat="-1.20" arrivalSpeed="7.75" duration="220.00" routeLength="497.80" waitSteps="146" timeLoss="158.67" rerouteNo="0" devices="tripinfo_mixed.18" vType="moped" speedFactor="0.59" vaporized=""/>
    <tripinfo id="mixed.27" depart="38.00" departLane="beg_0" departPos="2.20" departPosLat="-0.53" departSpeed="0.00" departDelay="11.00" arrival="242.00" arrivalLane="end_0" arrivalPos="200.00" arrivalPosLat="-1.20" arrivalSpeed="9.48" duration="204.00" routeLength="497.80" waitSteps="127" timeLoss="151.33" rerouteNo="0" devices="tripinfo_mixed.27" vType="moped" speedFactor="0.69" vaporized=""/>
    <tripinfo id="mixed.53" depart="82.00" departLane="beg_0" departPos="5.10" departPosLat="0.01" departSpeed="0.00" departDelay="29.00" arrival="242.00" arrivalLane="end_1" arrivalPos="200.00" arrivalPosLat="-0.70" arrivalSpeed="15.56" duration="160.00" routeLength="494.90" waitSteps="102" timeLoss="128.87" rerouteNo="0" devices="tripinfo_mixed.53" vType="car" speedFactor="1.16" vaporized=""/>
    <tripinfo id="mixed.42" depart="55.00" departLane="beg_1" departPos="2.20" departPosLat="-0.48" departSpeed="0.00" departDelay="13.00" arrival="243.00" arrivalLane="end_0" arrivalPos="200.00" arrivalPosLat="0.72" arrivalSpeed="10.98" duration="188.00" routeLength="497.80" waitSteps="121" timeLoss="143.29" rerouteNo="0" devices="tripinfo_mixed.42" vType="moped" speedFactor="0.81" vaporized=""/>
    <tripinfo id="mixed.31" depart="49.00" departLane="beg_1" departPos="5.10" departPosLat="-0.33" departSpeed="0.00" departDelay="18.00" arrival="244.00" arrivalLane="end_0" arrivalPos="200.00" arrivalPosLat="-0.70" arrivalSpeed="9.57" duration="195.00" routeLength="494.90" waitSteps="127" timeLoss="144.48" rerouteNo="0" devices="tripinfo_mixed.31" vType="car" speedFactor="0.71" vaporized=""/>
    <tripinfo id="mixed.61" depart="91.00" departLane="beg_1" departPos="5.10" departPosLat="0.63" departSpeed="0.00" departDelay="30.00" arrival="244.00" arrivalLane="end_1" arrivalPos="200.00" arrivalPosLat="-0.70" arrivalSpeed="15.07" duration="153.00" routeLength="494.90" waitSteps="101" timeLoss="120.29" rerouteNo="0" devices="tripinfo_mixed.61" vType="car" speedFactor="1.12" vaporized=""/>
    <tripinfo id="mixed.45" depart="64.00" departLane="beg_0" departPos="2.20" departPosLat="-0.88" departSpeed="0.00" departDelay="19.00" arrival="245.00" arrivalLane="end_0" arrivalPos="200.00" arrivalPosLat="0.08" arrivalSpeed="12.28" duration="181.00" routeLength="497.80" waitSteps="119" timeLoss="148.05" rerouteNo="0" devices="tripinfo_mixed.45" vType="moped" speedFactor="1.12" vaporized=""/>
    <tripinfo id="mixed.66" depart="100.00" departLane="beg_0" departPos="5.10" departPosLat="-0.17" departSpeed="0.00" departDelay="34.00" arrival="245.00" arrivalLane="end_1" arrivalPos="200.00" arrivalPosLat="0.70" arrivalSpeed="16.19" duration="145.00" routeLength="494.90" waitSteps="89" timeLoss="116.43" rerouteNo="0" devices="tripinfo_mixed.66" vType="car" speedFactor="1.25" vaporized=""/>
    <tripinfo id="mixed.35" depart="57.00" departLane="beg_0" departPos="2.20" departPosLat="-0.11" departSpeed="0.00" departDelay="22.00" arrival="246.00" arrivalLane="end_0" arrivalPos="200.00" arrivalPosLat="-0.52" arrivalSpeed="10.59" duration="189.00" routeLength="497.80" waitSteps="124" timeLoss="147.91" rerouteNo="0" devices="tripinfo_mixed.35" vType="moped" speedFactor="0.89" vaporized=""/>
    <tripinfo id="mixed.47" depart="69.00" departLane="beg_1" departPos="2.20" departPosLat="0.32" departSpeed="0.00" departDelay="22.00" arrival="246.00" arrivalLane="end_1" arrivalPos="200.00" arrivalPosLat="-1.49" arrivalSpeed="12.13" duration="177.00" routeLength="497.80" waitSteps="116" timeLoss="142.94" rerouteNo="0" devices="tripinfo_mixed.47" vType="moped" speedFactor="1.07" vaporized=""/>
    <tripinfo id="mixed.41" depart="68.00" departLane="beg_0" departPos="2.20" departPosLat="0.47" departSpeed="0.00" departDelay="27.00" arrival="247.00" arrivalLane="end_0" arrivalPos="200.00" arrivalPosLat="0.97" arrivalSpeed="13.29" duration="179.00" routeLength="497.80" waitSteps="115" timeLoss="148.98" rerouteNo="0" devices="tripinfo_mixed.41" vType="moped" speedFactor="1.44" vaporized=""/>
    <tripinfo id="mixed.74" depart="108.00" departLane="beg_0" departPos="2.20" departPosLat="-0.55" departSpeed="0.00" departDelay="34.00" arrival="247.00" arrivalLane="end_1" arrivalPos="200.00" arrivalPosLat="-0.20" arrivalSpeed="15.92" duration="139.00" routeLength="497.80" waitSteps="82" timeLoss="107.58" rerouteNo="0" devices="tripinfo_mixed.74" vType="moped" speedFactor="1.15" vaporized=""/>
    <tripinfo id="mixed.43" depart="57.00" departLane="beg_0" departPos="2.20" departPosLat="0.79" departSpeed="0.00" departDelay="14.00" arrival="248.00" arrivalLane="end_0" arrivalPos="200.00" arrivalPosLat="-1.20" arrivalSpeed="11.24" duration="191.00" routeLength="497.80" waitSteps="120" timeLoss="150.55" rerouteNo="0" devices="tripinfo_mixed.43" vType="moped" speedFactor="0.91" vaporized=""/>
    <tripinfo id="mixed.50" depart="74.00" departLane="beg_0" departPos="2.20" departPosLat="-0.55" departSpeed="0.00" departDelay="24.00" arrival="249.00" arrivalLane="end_0" arrivalPos="200.00" arrivalPosLat="-0.56" arrivalSpeed="13.57" duration="175.00" routeLength="497.80" waitSteps="114" timeLoss="144.50" rerouteNo="0" devices="tripinfo_mixed.50" vType="moped" speedFactor="1.36" vaporized=""/>
    <tripinfo id="mixed.54" depart="81.00" departLane="beg_1" departPos="2.20" departPosLat="0.05" departSpeed="0.00" departDelay="27.00" arrival="250.00" arrivalLane="end_0" arrivalPos="200.00" arrivalPosLat="0.72" arrivalSpeed="13.60" duration="169.00" routeLength="497.80" waitSteps="108" timeLoss="138.79" rerouteNo="0" devices="tripinfo_mixed.54" vType="moped" speedFactor="1.20" vaporized=""/>
    <tripinfo id="mixed.16" depart="19.00" departLane="beg_0" departPos="2.20" departPosLat="0.11" departSpeed="0.00" departDelay="3.00" arrival="251.00" arrivalLane="end_0" arrivalPos="200.00" arrivalPosLat="-1.20" arrivalSpeed="6.38" duration="232.00" routeLength="497.80" waitSteps="142" timeLoss="156.86" rerouteNo="0" devices="tripinfo_mixed.16" vType="moped" speedFactor="0.48" vaporized=""/>
    <tripinfo id="mixed.34" depart="52.00" departLane="beg_1" departPos="2.20" departPosLat="1.04" departSpeed="0.00" departDelay="18.00" arrival="252.00" arrivalLane="end_0" arrivalPos="200.00" arrivalPosLat="0.80" arrivalSpeed="9.14" duration="200.00" routeLength="497.80" waitSteps="124" timeLoss="147.90" rerouteNo="0" devices="tripinfo_mixed.34" vType="moped" speedFactor="0.69" vaporized=""/>
    <tripinfo id="mixed.60" depart="89.00" departLane="beg_0" departPos="5.10" departPosLat="0.07" departSpeed="0.00" departDelay="29.00" arrival="253.00" arrivalLane="end_1" arrivalPos="200.00" arrivalPosLat="-1.34" arrivalSpeed="13.10" duration="164.00" routeLength="494.90" waitSteps="105" timeLoss="128.37" rerouteNo="0" devices="tripinfo_mixed.60" vType="car" speedFactor="1.01" vaporized=""/>
    <tripinfo id="mixed.46" depart="65.00" departLane="beg_1" departPos="2.20" departPosLat="-0.12" departSpeed="0.00" departDelay="19.00" arrival="254.00" arrivalLane="end_0" arrivalPos="200.00" arrivalPosLat="0.56" arrivalSpeed="9.83" duration="189.00" routeLength="497.80" waitSteps="115" timeLoss="158.54" rerouteNo="0" devices="tripinfo_mixed.46" vType="moped" speedFactor="1.70" vaporized=""/>
    <tripinfo id="mixed.59" depart="85.00" departLane="beg_0" departPos="2.20" departPosLat="-1.07" departSpeed="0.00" departDelay="26.00" arrival="255.00" arrivalLane="end_0" arrivalPos="200.00" arrivalPosLat="1.36" arrivalSpeed="14.21" duration="170.00" routeLength="497.80" waitSteps="95" timeLoss="135.31" rerouteNo="0" devices="tripinfo_mixed.59" vType="moped" speedFactor="1.05" vaporized=""/>
    <tripinfo id="mixed.58" depart="82.00" departLane="beg_1" departPos="2.20" departPosLat="-0.81" departSpeed="0.00" departDelay="24.00" arrival="255.00" arrivalLane="end_0" arrivalPos="200.00" arrivalPosLat="0.08" arrivalSpeed="10.25" duration="173.00" routeLength="497.80" waitSteps="102" timeLoss="142.87" rerouteNo="0" devices="tripinfo_mixed.58" vType="moped" speedFactor="1.39" vaporized=""/>
    <tripinfo id="mixed.55" depart="84.00" departLane="beg_1" departPos="2.20" departPosLat="-0.98" departSpeed="0.00" departDelay="29.00" arrival="256.00" arrivalLane="end_0" arrivalPos="200.00" arrivalPosLat="-1.20" arrivalSpeed="8.51" duration="172.00" routeLength="497.80" waitSteps="93" timeLoss="113.59" rerouteNo="0" devices="tripinfo_mixed.55" vType="moped" speedFactor="0.62" vaporized=""/>
    <tripinfo id="mixed.77" depart="113.00" departLane="beg_1" departPos="2.20" departPosLat="0.36" departSpeed="0.00" departDelay="36.00" arrival="257.00" arrivalLane="end_1" arrivalPos="200.00" arrivalPosLat="1.20" arrivalSpeed="15.60" duration="144.00" routeLength="497.80" waitSteps="78" timeLoss="113.45" rerouteNo="0" devices="tripinfo_mixed.77" vType="moped" speedFactor="1.32" vaporized=""/>
    <tripinfo id="mixed.73" depart="105.00" departLane="beg_0" departPos="2.20" departPosLat="-0.45" departSpeed="0.00" departDelay="32.00" arrival="258.00" arrivalLane="end_0" arrivalPos="200.00" arrivalPosLat="1.36" arrivalSpeed="9.85" duration="153.00" routeLength="497.80" waitSteps="79" timeLoss="102.35" rerouteNo="0" devices="tripinfo_mixed.73" vType="moped" speedFactor="0.72" vaporized=""/>
    <tripinfo id="mixed.51" depart="77.00" departLane="beg_0" departPos="2.20" departPosLat="-1.18" departSpeed="0.00" departDelay="26.00" arrival="259.00" arrivalLane="end_1" arrivalPos="200.00" arrivalPosLat="-1.20" arrivalSpeed="10.87" duration="182.00" routeLength="497.80" waitSteps="107" timeLoss="151.66" rerouteNo="0" devices="tripinfo_mixed.51" vType="moped" speedFactor="1.89" vaporized=""/>
    <tripinfo id="mixed.82" depart="123.00" departLane="beg_1" departPos="5.10" departPosLat="0.33" departSpeed="0.00" departDelay="41.00" arrival="259.00" arrivalLane="end_1" arrivalPos="200.00" arrivalPosLat="0.70" arrivalSpeed="13.65" duration="136.00" routeLength="494.90" waitSteps="74" timeLoss="100.45" rerouteNo="0" devices="tripinfo_mixed.82" vType="car" speedFactor="1.02" vaporized=""/>
    <tripinfo id="mixed.37" depart="61.00" departLane="beg_0" departPos="2.20" departPosLat="-0.45" departSpeed="0.00" departDelay="24.00" arrival="260.00" arrivalLane="end_1" arrivalPos="200.00" arrivalPosLat="-1.20" arrivalSpeed="11.25" duration="199.00" routeLength="497.80" waitSteps="117" timeLoss="160.00" rerouteNo="0" devices="tripinfo_mixed.37" vType="moped" speedFactor="0.92" vaporized=""/>
    <tripinfo id="mixed.32" depart="50.00" departLane="beg_0" departPos="2.20" departPosLat="0.45" departSpeed="0.00" departDelay="18.00" arrival="261.00" arrivalLane="end_0" arrivalPos="200.00" arrivalPosLat="-1.20" arrivalSpeed="7.99" duration="211.00" routeLength="497.80" waitSteps="126" timeLoss="148.95" rerouteNo="0" devices="tripinfo_mixed.32" vType="moped" speedFactor="0.58" vaporized=""/>
    <tripinfo id="mixed.90" depart="131.00" departLane="beg_1" departPos="2.20" departPosLat="0.44" departSpeed="0.00" departDelay="41.00" arrival="261.00" arrivalLane="end_1" arrivalPos="200.00" arrivalPosLat="-0.56" arrivalSpeed="12.96" duration="130.00" routeLength="497.80" waitSteps="66" timeLoss="92.04" rerouteNo="0" devices="tripinfo_mixed.90" vType="moped" speedFactor="0.96" vaporized=""/>
    <tripinfo id="mixed.72" depart="104.00" departLane="beg_1" departPos="5.10" departPosLat="0.54" departSpeed="0.00" departDelay="32.00" arrival="263.00" arrivalLane="end_0" arrivalPos="200.00" arrivalPosLat="0.58" arrivalSpeed="16.96" duration="159.00" routeLength="494.90" waitSteps="89" timeLoss="129.42" rerouteNo="0" devices="tripinfo_mixed.72" vType="car" speedFactor="1.24" vaporized=""/>
    <tripinfo id="mixed.67" depart="95.00" departLane="beg_1" departPos="2.20" departPosLat="0.88" departSpeed="0.00" departDelay="28.00" arrival="263.00" arrivalLane="end_0" arrivalPos="200.00" arrivalPosLat="-1.20" arrivalSpeed="9.19" duration="168.00" routeLength="497.80" waitSteps="92" timeLoss="114.05" rerouteNo="0" devices="tripinfo_mixed.67" vType="moped" speedFactor="0.67" vaporized=""/>
    <tripinfo id="mixed.88" depart="128.00" departLane="beg_0" departPos="5.10" departPosLat="0.41" departSpeed="0.00" departDelay="40.00" arrival="263.00" arrivalLane="end_1" arrivalPos="200.00" arrivalPosLat="0.70" arrivalSpeed="17.48" duration="135.00" routeLength="494.90" waitSteps="74" timeLoss="110.49" rerouteNo="0" devices="tripinfo_mixed.88" vType="car" speedFactor="1.51" vaporized=""/>
    <tripinfo id="mixed.80" depart="110.00" departLane="beg_1" departPos="5.10" departPosLat="0.54" departSpeed="0.00" departDelay="30.00" arrival="264.00" arrivalLane="end_0" arrivalPos="200.00" arrivalPosLat="1.22" arrivalSpeed="13.48" duration="154.00" routeLength="494.90" waitSteps="87" timeLoss="119.93" rerouteNo="0" devices="tripinfo_mixed.80" vType="car" speedFactor="1.05" vaporized=""/>
    <tripinfo id="mixed.87" depart="134.00" departLane="beg_1" departPos="5.10" departPosLat="-0.63" departSpeed="0.00" departDelay="47.00" arrival="265.00" arrivalLane="end_1" arrivalPos="200.00" arrivalPosLat="-0.06" arrivalSpeed="12.45" duration="131.00" routeLength="494.90" waitSteps="66" timeLoss="90.93" rerouteNo="0" devices="tripinfo_mixed.87" vType="car" speedFactor="0.90" vaporized=""/>
    <tripinfo id="mixed.29" depart="46.00" departLane="beg_0" departPos="2.20" departPosLat="-0.24" departSpeed="0.00" departDelay="17.00" arrival="266.00" arrivalLane="end_0" arrivalPos="200.00" arrivalPosLat="-0.56" arrivalSpeed="9.66" duration="220.00" routeLength="497.80" waitSteps="133" timeLoss="169.98" rerouteNo="0" devices="tripinfo_mixed.29" vType="moped" speedFactor="0.72" vaporized=""/>
    <tripinfo id="mixed.79" depart="118.00" departLane="beg_1" departPos="5.10" departPosLat="0.07" departSpeed="0.00" departDelay="39.00" arrival="267.00" arrivalLane="end_0" arrivalPos="200.00" arrivalPosLat="0.58" arrivalSpeed="11.27" duration="149.00" routeLength="494.90" waitSteps="81" timeLoss="107.99" rerouteNo="0" devices="tripinfo_mixed.79" vType="car" speedFactor="0.88" vaporized=""/>
    <tripinfo id="mixed.95" depart="137.00" departLane="beg_1" departPos="2.20" departPosLat="-1.17" departSpeed="0.00" departDelay="42.00" arrival="267.00" arrivalLane="end_1" arrivalPos="200.00" arrivalPosLat="-0.56" arrivalSpeed="13.36" duration="130.00" routeLength="497.80" waitSteps="64" timeLoss="99.46" rerouteNo="0" devices="tripinfo_mixed.95" vType="moped" speedFactor="1.24" vaporized=""/>
    <tripinfo id="mixed.96" depart="140.00" departLane="beg_1" departPos="2.20" departPosLat="1.05" departSpeed="0.00" departDelay="44.00" arrival="268.00" arrivalLane="end_1" arrivalPos="200.00" arrivalPosLat="0.08" arrivalSpeed="11.51" duration="128.00" routeLength="497.80" waitSteps="61" timeLoss="86.47" rerouteNo="0" devices="tripinfo_mixed.96" vType="moped" speedFactor="0.87" vaporized=""/>
    <tripinfo id="mixed.40" depart="76.00" departLane="beg_1" departPos="5.10" departPosLat="-0.27" departSpeed="0.00" departDelay="36.00" arrival="269.00" arrivalLane="end_0" arrivalPos="200.00" arrivalPosLat="0.64" arrivalSpeed="11.77" duration="193.00" routeLength="494.90" waitSteps="109" timeLoss="153.08" rerouteNo="0" devices="tripinfo_mixed.40" vType="car" speedFactor="0.91" vaporized=""/>
    <tripinfo id="mixed.93" depart="136.00" departLane="beg_1" departPos="2.20" departPosLat="0.63" departSpeed="0.00" departDelay="43.00" arrival="269.00" arrivalLane="end_1" arrivalPos="200.00" arrivalPosLat="-1.20" arrivalSpeed="13.77" duration="133.00" routeLength="497.80" waitSteps="67" timeLoss="101.38" rerouteNo="0" devices="tripinfo_mixed.93" vType="moped" speedFactor="1.16" vaporized=""/>
    <tripinfo id="mixed.8" depart="12.00" departLane="beg_1" departPos="2.20" departPosLat="0.67" departSpeed="0.00" departDelay="4.00" arrival="270.00" arrivalLane="end_0" arrivalPos="200.00" arrivalPosLat="-1.20" arrivalSpeed="4.55" duration="258.00" routeLength="497.80" waitSteps="136" timeLoss="149.62" rerouteNo="0" devices="tripinfo_mixed.8" vType="moped" speedFactor="0.33" vaporized=""/>
    <tripinfo id="mixed.98" depart="137.00" departLane="beg_0" departPos="2.20" departPosLat="-0.54" departSpeed="0.00" departDelay="39.00" arrival="270.00" arrivalLane="end_1" arrivalPos="200.00" arrivalPosLat="-0.56" arrivalSpeed="13.58" duration="133.00" routeLength="497.80" waitSteps="63" timeLoss="102.43" rerouteNo="0" devices="tripinfo_mixed.98" vType="moped" speedFactor="1.35" vaporized=""/>