<?xml version="1.0" encoding="UTF-8"?>

<!-- generated on Wed Jun 21 08:24:54 2017 by SUMO Version dev-SVN-r24776
<?xml version="1.0" encoding="UTF-8"?>

<configuration xmlns:xsi="http://www.w3.org/2001/XMLSchema-instance" xsi:noNamespaceSchemaLocation="http://sumo.dlr.de/xsd/sumoConfiguration.xsd">

    <input>
        <net-file value="net.net.xml"/>
        <route-files value="input_routes.rou.xml"/>
    </input>

    <output>
        <tripinfo-output value="tripinfos.xml"/>
    </output>

    <processing>
        <lateral-resolution value="0.64"/>
    </processing>

    <report>
        <verbose value="true"/>
        <xml-validation value="never"/>
        <duration-log.statistics value="true"/>
        <no-step-log value="true"/>
    </report>

</configuration>
-->

<tripinfos xmlns:xsi="http://www.w3.org/2001/XMLSchema-instance" xsi:noNamespaceSchemaLocation="http://sumo.dlr.de/xsd/tripinfo_file.xsd">
    <tripinfo id="mixed.15" depart="21.00" departLane="beg_0" departPos="5.10" departPosLat="0.64" departSpeed="0.00" departDelay="6.00" arrival="215.00" arrivalLane="end_0" arrivalPos="200.00" arrivalPosLat="-0.70" arrivalSpeed="17.82" duration="194.00" routeLength="494.90" waitSteps="154" timeLoss="166.37" rerouteNo="0" devices="tripinfo_mixed.15" vType="car" speedFactor="1.31" vaporized=""/>
    <tripinfo id="mixed.2" depart="4.00" departLane="beg_1" departPos="5.10" departPosLat="0.53" departSpeed="0.00" departDelay="2.00" arrival="218.00" arrivalLane="end_0" arrivalPos="200.00" arrivalPosLat="-0.70" arrivalSpeed="13.17" duration="214.00" routeLength="494.90" waitSteps="167" timeLoss="177.42" rerouteNo="0" devices="tripinfo_mixed.2" vType="car" speedFactor="0.99" vaporized=""/>
    <tripinfo id="mixed.9" depart="11.00" departLane="beg_0" departPos="2.20" departPosLat="-0.18" departSpeed="0.00" departDelay="2.00" arrival="221.00" arrivalLane="end_0" arrivalPos="200.00" arrivalPosLat="-1.20" arrivalSpeed="16.34" duration="210.00" routeLength="497.80" waitSteps="149" timeLoss="179.82" rerouteNo="0" devices="tripinfo_mixed.9" vType="moped" speedFactor="1.29" vaporized=""/>
    <tripinfo id="mixed.12" depart="16.00" departLane="beg_0" departPos="2.20" departPosLat="-0.97" departSpeed="0.00" departDelay="4.00" arrival="223.00" arrivalLane="end_0" arrivalPos="200.00" arrivalPosLat="0.72" arrivalSpeed="15.84" duration="207.00" routeLength="497.80" waitSteps="149" timeLoss="174.86" rerouteNo="0" devices="tripinfo_mixed.12" vType="moped" speedFactor="1.15" vaporized=""/>
    <tripinfo id="mixed.4" depart="5.00" departLane="beg_0" departPos="2.20" departPosLat="0.11" departSpeed="0.00" departDelay="1.00" arrival="224.00" arrivalLane="end_0" arrivalPos="200.00" arrivalPosLat="0.08" arrivalSpeed="13.10" duration="219.00" routeLength="497.80" waitSteps="159" timeLoss="180.68" rerouteNo="0" devices="tripinfo_mixed.4" vType="moped" speedFactor="0.95" vaporized=""/>
    <tripinfo id="mixed.6" depart="9.00" departLane="beg_1" departPos="2.20" departPosLat="1.18" departSpeed="0.00" departDelay="3.00" arrival="225.00" arrivalLane="end_0" arrivalPos="200.00" arrivalPosLat="1.36" arrivalSpeed="11.93" duration="216.00" routeLength="497.80" waitSteps="153" timeLoss="174.22" rerouteNo="0" devices="tripinfo_mixed.6" vType="moped" speedFactor="0.88" vaporized=""/>
    <tripinfo id="mixed.0" depart="0.00" departLane="beg_0" departPos="2.20" departPosLat="0.51" departSpeed="0.00" departDelay="0.00" arrival="225.00" arrivalLane="end_0" arrivalPos="200.00" arrivalPosLat="-1.20" arrivalSpeed="11.84" duration="225.00" routeLength="497.80" waitSteps="162" timeLoss="183.31" rerouteNo="0" devices="tripinfo_mixed.0" vType="moped" speedFactor="0.88" vaporized=""/>
    <tripinfo id="mixed.7" depart="13.00" departLane="beg_1" departPos="2.20" departPosLat="0.97" departSpeed="0.00" departDelay="6.00" arrival="225.00" arrivalLane="end_1" arrivalPos="200.00" arrivalPosLat="0.44" arrivalSpeed="16.63" duration="212.00" routeLength="497.80" waitSteps="151" timeLoss="181.30" rerouteNo="0" devices="tripinfo_mixed.7" vType="moped" speedFactor="1.53" vaporized=""/>
    <tripinfo id="mixed.1" depart="1.00" departLane="beg_1" departPos="2.20" departPosLat="0.22" departSpeed="0.00" departDelay="0.00" arrival="226.00" arrivalLane="end_0" arrivalPos="200.00" arrivalPosLat="-1.20" arrivalSpeed="13.21" duration="225.00" routeLength="497.80" waitSteps="163" timeLoss="188.47" rerouteNo="0" devices="tripinfo_mixed.1" vType="moped" speedFactor="0.99" vaporized=""/>
    <tripinfo id="mixed.17" depart="23.00" departLane="beg_1" departPos="2.20" departPosLat="0.85" departSpeed="0.00" departDelay="6.00" arrival="226.00" arrivalLane="end_1" arrivalPos="200.00" arrivalPosLat="-1.08" arrivalSpeed="16.46" duration="203.00" routeLength="497.80" waitSteps="141" timeLoss="172.85" rerouteNo="0" devices="tripinfo_mixed.17" vType="moped" speedFactor="1.91" vaporized=""/>
    <tripinfo id="mixed.23" depart="32.00" departLane="beg_1" departPos="2.20" departPosLat="0.91" departSpeed="0.00" departDelay="9.00" arrival="226.00" arrivalLane="end_1" arrivalPos="200.00" arrivalPosLat="1.08" arrivalSpeed="16.30" duration="194.00" routeLength="497.80" waitSteps="139" timeLoss="163.89" rerouteNo="0" devices="tripinfo_mixed.23" vType="moped" speedFactor="1.31" vaporized=""/>
    <tripinfo id="mixed.14" depart="21.00" departLane="beg_1" departPos="5.10" departPosLat="-0.28" departSpeed="0.00" departDelay="7.00" arrival="227.00" arrivalLane="end_0" arrivalPos="200.00" arrivalPosLat="0.58" arrivalSpeed="12.30" duration="206.00" routeLength="494.90" waitSteps="146" timeLoss="165.28" rerouteNo="0" devices="tripinfo_mixed.14" vType="car" speedFactor="0.89" vaporized=""/>
    <tripinfo id="mixed.19" depart="28.00" departLane="beg_1" departPos="5.10" departPosLat="-0.65" departSpeed="0.00" departDelay="9.00" arrival="229.00" arrivalLane="end_0" arrivalPos="200.00" arrivalPosLat="-0.06" arrivalSpeed="14.32" duration="201.00" routeLength="494.90" waitSteps="146" timeLoss="170.54" rerouteNo="0" devices="tripinfo_mixed.19" vType="car" speedFactor="1.20" vaporized=""/>
    <tripinfo id="mixed.26" depart="35.00" departLane="beg_1" departPos="2.20" departPosLat="-0.17" departSpeed="0.00" departDelay="9.00" arrival="229.00" arrivalLane="end_1" arrivalPos="200.00" arrivalPosLat="-0.20" arrivalSpeed="14.63" duration="194.00" routeLength="497.80" waitSteps="139" timeLoss="160.13" rerouteNo="0" devices="tripinfo_mixed.26" vType="moped" speedFactor="1.08" vaporized=""/>
    <tripinfo id="mixed.10" depart="13.00" departLane="beg_0" departPos="2.20" departPosLat="0.39" departSpeed="0.00" departDelay="3.00" arrival="230.00" arrivalLane="end_0" arrivalPos="200.00" arrivalPosLat="1.20" arrivalSpeed="14.12" duration="217.00" routeLength="497.80" waitSteps="155" timeLoss="186.81" rerouteNo="0" devices="tripinfo_mixed.10" vType="moped" speedFactor="1.37" vaporized=""/>
    <tripinfo id="mixed.3" depart="7.00" departLane="beg_1" departPos="5.10" departPosLat="-0.46" departSpeed="0.00" departDelay="4.00" arrival="231.00" arrivalLane="end_0" arrivalPos="200.00" arrivalPosLat="-0.70" arrivalSpeed="9.37" duration="224.00" routeLength="494.90" waitSteps="157" timeLoss="173.32" rerouteNo="0" devices="tripinfo_mixed.3" vType="car" speedFactor="0.71" vaporized=""/>
    <tripinfo id="mixed.25" depart="34.00" departLane="beg_0" departPos="5.10" departPosLat="0.16" departSpeed="0.00" departDelay="9.00" arrival="232.00" arrivalLane="end_1" arrivalPos="200.00" arrivalPosLat="-0.70" arrivalSpeed="12.75" duration="198.00" routeLength="494.90" waitSteps="133" timeLoss="160.90" rerouteNo="0" devices="tripinfo_mixed.25" vType="car" speedFactor="0.99" vaporized=""/>
    <tripinfo id="mixed.28" depart="37.00" departLane="beg_0" departPos="2.20" departPosLat="0.50" departSpeed="0.00" departDelay="9.00" arrival="232.00" arrivalLane="end_1" arrivalPos="200.00" arrivalPosLat="1.20" arrivalSpeed="16.29" duration="195.00" routeLength="497.80" waitSteps="131" timeLoss="164.42" rerouteNo="0" devices="tripinfo_mixed.28" vType="moped" speedFactor="1.22" vaporized=""/>
    <tripinfo id="mixed.5" depart="9.00" departLane="beg_0" departPos="5.10" departPosLat="-0.61" departSpeed="0.00" departDelay="4.00" arrival="233.00" arrivalLane="end_0" arrivalPos="200.00" arrivalPosLat="-0.70" arrivalSpeed="11.40" duration="224.00" routeLength="494.90" waitSteps="155" timeLoss="180.07" rerouteNo="0" devices="tripinfo_mixed.5" vType="car" speedFactor="0.82" vaporized=""/>
    <tripinfo id="mixed.24" depart="28.00" departLane="beg_1" departPos="2.20" departPosLat="1.18" departSpeed="0.00" departDelay="4.00" arrival="233.00" arrivalLane="end_1" arrivalPos="200.00" arrivalPosLat="-0.61" arrivalSpeed="13.48" duration="205.00" routeLength="497.80" waitSteps="136" timeLoss="172.49" rerouteNo="0" devices="tripinfo_mixed.24" vType="moped" speedFactor="1.12" vaporized=""/>
    <tripinfo id="mixed.41" depart="55.00" departLane="beg_1" departPos="2.20" departPosLat="-0.48" departSpeed="0.00" departDelay="14.00" arrival="233.00" arrivalLane="end_1" arrivalPos="200.00" arrivalPosLat="0.72" arrivalSpeed="16.53" duration="178.00" routeLength="497.80" waitSteps="118" timeLoss="147.95" rerouteNo="0" devices="tripinfo_mixed.41" vType="moped" speedFactor="1.44" vaporized=""/>
    <tripinfo id="mixed.21" depart="31.00" departLane="beg_0" departPos="5.10" departPosLat="0.51" departSpeed="0.00" departDelay="10.00" arrival="235.00" arrivalLane="end_0" arrivalPos="200.00" arrivalPosLat="0.64" arrivalSpeed="14.75" duration="204.00" routeLength="494.90" waitSteps="144" timeLoss="174.18" rerouteNo="0" devices="tripinfo_mixed.21" vType="car" speedFactor="1.23" vaporized=""/>
    <tripinfo id="mixed.11" depart="16.00" departLane="beg_1" departPos="2.20" departPosLat="0.69" departSpeed="0.00" departDelay="5.00" arrival="235.00" arrivalLane="end_0" arrivalPos="200.00" arrivalPosLat="-1.20" arrivalSpeed="10.61" duration="219.00" routeLength="497.80" waitSteps="154" timeLoss="181.27" rerouteNo="0" devices="tripinfo_mixed.11" vType="moped" speedFactor="0.96" vaporized=""/>
    <tripinfo id="mixed.46" depart="63.00" departLane="beg_0" departPos="2.20" departPosLat="-1.12" departSpeed="0.00" departDelay="17.00" arrival="235.00" arrivalLane="end_1" arrivalPos="200.00" arrivalPosLat="0.08" arrivalSpeed="16.38" duration="172.00" routeLength="497.80" waitSteps="115" timeLoss="141.54" rerouteNo="0" devices="tripinfo_mixed.46" vType="moped" speedFactor="1.70" vaporized=""/>
    <tripinfo id="mixed.35" depart="45.00" departLane="beg_1" departPos="2.20" departPosLat="0.72" departSpeed="0.00" departDelay="10.00" arrival="236.00" arrivalLane="end_0" arrivalPos="200.00" arrivalPosLat="1.36" arrivalSpeed="11.94" duration="191.00" routeLength="497.80" waitSteps="129" timeLoss="149.74" rerouteNo="0" devices="tripinfo_mixed.35" vType="moped" speedFactor="0.89" vaporized=""/>
    <tripinfo id="mixed.13" depart="18.00" departLane="beg_0" departPos="2.20" departPosLat="1.06" departSpeed="0.00" departDelay="5.00" arrival="236.00" arrivalLane="end_0" arrivalPos="200.00" arrivalPosLat="-1.20" arrivalSpeed="11.05" duration="218.00" routeLength="497.80" waitSteps="150" timeLoss="178.48" rerouteNo="0" devices="tripinfo_mixed.13" vType="moped" speedFactor="0.91" vaporized=""/>
    <tripinfo id="mixed.48" depart="65.00" departLane="beg_1" departPos="2.20" departPosLat="-0.37" departSpeed="0.00" departDelay="17.00" arrival="236.00" arrivalLane="end_1" arrivalPos="200.00" arrivalPosLat="1.20" arrivalSpeed="16.24" duration="171.00" routeLength="497.80" waitSteps="114" timeLoss="140.84" rerouteNo="0" devices="tripinfo_mixed.48" vType="moped" speedFactor="1.38" vaporized=""/>
    <tripinfo id="mixed.30" depart="39.00" departLane="beg_1" departPos="2.20" departPosLat="-0.34" departSpeed="0.00" departDelay="9.00" arrival="237.00" arrivalLane="end_0" arrivalPos="200.00" arrivalPosLat="0.21" arrivalSpeed="11.71" duration="198.00" routeLength="497.80" waitSteps="131" timeLoss="160.56" rerouteNo="0" devices="tripinfo_mixed.30" vType="moped" speedFactor="0.97" vaporized=""/>
    <tripinfo id="mixed.38" depart="49.00" departLane="beg_1" departPos="5.10" departPosLat="-0.06" departSpeed="0.00" departDelay="11.00" arrival="238.00" arrivalLane="end_0" arrivalPos="200.00" arrivalPosLat="1.24" arrivalSpeed="15.43" duration="189.00" routeLength="494.90" waitSteps="129" timeLoss="158.44" rerouteNo="0" devices="tripinfo_mixed.38" vType="car" speedFactor="1.20" vaporized=""/>
    <tripinfo id="mixed.20" depart="24.00" departLane="beg_0" departPos="2.20" departPosLat="0.42" departSpeed="0.00" departDelay="4.00" arrival="238.00" arrivalLane="end_0" arrivalPos="200.00" arrivalPosLat="-1.20" arrivalSpeed="10.60" duration="214.00" routeLength="497.80" waitSteps="145" timeLoss="183.84" rerouteNo="0" devices="tripinfo_mixed.20" vType="moped" speedFactor="1.23" vaporized=""/>
    <tripinfo id="mixed.51" depart="68.00" departLane="beg_1" departPos="2.20" departPosLat="0.19" departSpeed="0.00" departDelay="17.00" arrival="238.00" arrivalLane="end_1" arrivalPos="200.00" arrivalPosLat="1.20" arrivalSpeed="16.45" duration="170.00" routeLength="497.80" waitSteps="113" timeLoss="139.27" rerouteNo="0" devices="tripinfo_mixed.51" vType="moped" speedFactor="1.89" vaporized=""/>
    <tripinfo id="mixed.22" depart="53.00" departLane="beg_1" departPos="5.10" departPosLat="0.08" departSpeed="0.00" departDelay="31.00" arrival="239.00" arrivalLane="end_0" arrivalPos="200.00" arrivalPosLat="0.43" arrivalSpeed="14.31" duration="186.00" routeLength="494.90" waitSteps="128" timeLoss="154.01" rerouteNo="0" devices="tripinfo_mixed.22" vType="car" speedFactor="1.13" vaporized=""/>
    <tripinfo id="mixed.50" depart="69.00" departLane="beg_0" departPos="2.20" departPosLat="0.98" departSpeed="0.00" departDelay="19.00" arrival="239.00" arrivalLane="end_1" arrivalPos="200.00" arrivalPosLat="1.20" arrivalSpeed="16.47" duration="170.00" routeLength="497.80" waitSteps="113" timeLoss="139.61" rerouteNo="0" devices="tripinfo_mixed.50" vType="moped" speedFactor="1.36" vaporized=""/>
    <tripinfo id="mixed.45" depart="56.00" departLane="beg_0" departPos="2.20" departPosLat="1.02" departSpeed="0.00" departDelay="11.00" arrival="239.00" arrivalLane="end_1" arrivalPos="200.00" arrivalPosLat="-0.64" arrivalSpeed="15.10" duration="183.00" routeLength="497.80" waitSteps="121" timeLoss="150.64" rerouteNo="0" devices="tripinfo_mixed.45" vType="moped" speedFactor="1.12" vaporized=""/>
    <tripinfo id="mixed.33" depart="44.00" departLane="beg_0" departPos="2.20" departPosLat="0.81" departSpeed="0.00" departDelay="11.00" arrival="241.00" arrivalLane="end_1" arrivalPos="200.00" arrivalPosLat="0.08" arrivalSpeed="15.51" duration="197.00" routeLength="497.80" waitSteps="129" timeLoss="166.28" rerouteNo="0" devices="tripinfo_mixed.33" vType="moped" speedFactor="1.31" vaporized=""/>
    <tripinfo id="mixed.18" depart="27.00" departLane="beg_0" departPos="2.20" departPosLat="-0.77" departSpeed="0.00" departDelay="9.00" arrival="243.00" arrivalLane="end_0" arrivalPos="200.00" arrivalPosLat="-1.20" arrivalSpeed="8.08" duration="216.00" routeLength="497.80" waitSteps="140" timeLoss="155.29" rerouteNo="0" devices="tripinfo_mixed.18" vType="moped" speedFactor="0.59" vaporized=""/>
    <tripinfo id="mixed.36" depart="58.00" departLane="beg_1" departPos="5.10" departPosLat="0.20" departSpeed="0.00" departDelay="22.00" arrival="244.00" arrivalLane="end_0" arrivalPos="200.00" arrivalPosLat="1.22" arrivalSpeed="11.66" duration="186.00" routeLength="494.90" waitSteps="118" timeLoss="145.02" rerouteNo="0" devices="tripinfo_mixed.36" vType="car" speedFactor="0.88" vaporized=""/>
    <tripinfo id="mixed.27" depart="36.00" departLane="beg_1" departPos="2.20" departPosLat="0.20" departSpeed="0.00" departDelay="9.00" arrival="245.00" arrivalLane="end_0" arrivalPos="200.00" arrivalPosLat="-1.20" arrivalSpeed="9.42" duration="209.00" routeLength="497.80" waitSteps="132" timeLoss="156.00" rerouteNo="0" devices="tripinfo_mixed.27" vType="moped" speedFactor="0.69" vaporized=""/>
    <tripinfo id="mixed.49" depart="68.00" departLane="beg_0" departPos="5.10" departPosLat="0.42" departSpeed="0.00" departDelay="19.00" arrival="245.00" arrivalLane="end_1" arrivalPos="200.00" arrivalPosLat="-0.06" arrivalSpeed="14.58" duration="177.00" routeLength="494.90" waitSteps="110" timeLoss="143.07" rerouteNo="0" devices="tripinfo_mixed.49" vType="car" speedFactor="1.05" vaporized=""/>
    <tripinfo id="mixed.40" depart="53.00" departLane="beg_0" departPos="5.10" departPosLat="0.20" departSpeed="0.00" departDelay="13.00" arrival="246.00" arrivalLane="end_0" arrivalPos="200.00" arrivalPosLat="0.58" arrivalSpeed="11.69" duration="193.00" routeLength="494.90" waitSteps="127" timeLoss="153.35" rerouteNo="0" devices="tripinfo_mixed.40" vType="car" speedFactor="0.91" vaporized=""/>
    <tripinfo id="mixed.58" depart="78.00" departLane="beg_0" departPos="2.20" departPosLat="0.73" departSpeed="0.00" departDelay="20.00" arrival="247.00" arrivalLane="end_1" arrivalPos="200.00" arrivalPosLat="-1.20" arrivalSpeed="13.97" duration="169.00" routeLength="497.80" waitSteps="106" timeLoss="138.72" rerouteNo="0" devices="tripinfo_mixed.58" vType="moped" speedFactor="1.39" vaporized=""/>
    <tripinfo id="mixed.37" depart="59.00" departLane="beg_0" departPos="2.20" departPosLat="-0.70" departSpeed="0.00" departDelay="22.00" arrival="248.00" arrivalLane="end_0" arrivalPos="200.00" arrivalPosLat="-0.34" arrivalSpeed="12.00" duration="189.00" routeLength="497.80" waitSteps="116" timeLoss="149.67" rerouteNo="0" devices="tripinfo_mixed.37" vType="moped" speedFactor="0.92" vaporized=""/>
    <tripinfo id="mixed.64" depart="90.00" departLane="beg_1" departPos="2.20" departPosLat="1.04" departSpeed="0.00" departDelay="26.00" arrival="249.00" arrivalLane="end_0" arrivalPos="200.00" arrivalPosLat="0.72" arrivalSpeed="15.04" duration="159.00" routeLength="497.80" waitSteps="97" timeLoss="128.15" rerouteNo="0" devices="tripinfo_mixed.64" vType="moped" speedFactor="1.25" vaporized=""/>
    <tripinfo id="mixed.16" depart="23.00" departLane="beg_0" departPos="2.20" departPosLat="0.05" departSpeed="0.00" departDelay="7.00" arrival="250.00" arrivalLane="end_0" arrivalPos="200.00" arrivalPosLat="-1.20" arrivalSpeed="6.52" duration="227.00" routeLength="497.80" waitSteps="133" timeLoss="151.84" rerouteNo="0" devices="tripinfo_mixed.16" vType="moped" speedFactor="0.48" vaporized=""/>
    <tripinfo id="mixed.32" depart="42.00" departLane="beg_1" departPos="2.20" departPosLat="0.33" departSpeed="0.00" departDelay="10.00" arrival="254.00" arrivalLane="end_0" arrivalPos="200.00" arrivalPosLat="-1.20" arrivalSpeed="7.59" duration="212.00" routeLength="497.80" waitSteps="127" timeLoss="150.25" rerouteNo="0" devices="tripinfo_mixed.32" vType="moped" speedFactor="0.58" vaporized=""/>
    <tripinfo id="mixed.34" depart="40.00" departLane="beg_0" departPos="2.20" departPosLat="-0.33" departSpeed="0.00" departDelay="6.00" arrival="254.00" arrivalLane="end_0" arrivalPos="200.00" arrivalPosLat="0.74" arrivalSpeed="9.57" duration="214.00" routeLength="497.80" waitSteps="131" timeLoss="161.80" rerouteNo="0" devices="tripinfo_mixed.34" vType="moped" speedFactor="0.69" vaporized=""/>
    <tripinfo id="mixed.73" depart="102.00" departLane="beg_1" departPos="2.20" departPosLat="-0.23" departSpeed="0.00" departDelay="29.00" arrival="254.00" arrivalLane="end_1" arrivalPos="200.00" arrivalPosLat="-1.20" arrivalSpeed="9.85" duration="152.00" routeLength="497.80" waitSteps="86" timeLoss="102.25" rerouteNo="0" devices="tripinfo_mixed.73" vType="moped" speedFactor="0.72" vaporized=""/>
    <tripinfo id="mixed.81" depart="108.00" departLane="beg_1" departPos="2.20" departPosLat="0.68" departSpeed="0.00" departDelay="27.00" arrival="255.00" arrivalLane="end_1" arrivalPos="200.00" arrivalPosLat="0.08" arrivalSpeed="11.66" duration="147.00" routeLength="497.80" waitSteps="79" timeLoss="104.09" rerouteNo="0" devices="tripinfo_mixed.81" vType="moped" speedFactor="0.85" vaporized=""/>
    <tripinfo id="mixed.53" depart="72.00" departLane="beg_0" departPos="5.10" departPosLat="-0.61" departSpeed="0.00" departDelay="19.00" arrival="256.00" arrivalLane="end_0" arrivalPos="200.00" arrivalPosLat="-0.70" arrivalSpeed="12.56" duration="184.00" routeLength="494.90" waitSteps="108" timeLoss="152.74" rerouteNo="0" devices="tripinfo_mixed.53" vType="car" speedFactor="1.16" vaporized=""/>
    <tripinfo id="mixed.77" depart="112.00" departLane="beg_1" departPos="2.20" departPosLat="-0.29" departSpeed="0.00" departDelay="35.00" arrival="256.00" arrivalLane="end_1" arrivalPos="200.00" arrivalPosLat="1.20" arrivalSpeed="12.80" duration="144.00" routeLength="497.80" waitSteps="78" timeLoss="113.76" rerouteNo="0" devices="tripinfo_mixed.77" vType="moped" speedFactor="1.32" vaporized=""/>
    <tripinfo id="mixed.61" depart="83.00" departLane="beg_1" departPos="5.10" departPosLat="0.10" departSpeed="0.00" departDelay="22.00" arrival="257.00" arrivalLane="end_1" arrivalPos="200.00" arrivalPosLat="-1.34" arrivalSpeed="15.15" duration="174.00" routeLength="494.90" waitSteps="103" timeLoss="141.03" rerouteNo="0" devices="tripinfo_mixed.61" vType="car" speedFactor="1.12" vaporized=""/>
    <tripinfo id="mixed.84" depart="116.00" departLane="beg_1" departPos="2.20" departPosLat="1.03" departSpeed="0.00" departDelay="32.00" arrival="258.00" arrivalLane="end_1" arrivalPos="200.00" arrivalPosLat="1.20" arrivalSpeed="13.15" duration="142.00" routeLength="497.80" waitSteps="73" timeLoss="110.79" rerouteNo="0" devices="tripinfo_mixed.84" vType="moped" speedFactor="1.18" vaporized=""/>
    <tripinfo id="mixed.60" depart="86.00" departLane="beg_0" departPos="5.10" departPosLat="0.67" departSpeed="0.00" departDelay="26.00" arrival="258.00" arrivalLane="end_1" arrivalPos="200.00" arrivalPosLat="-1.34" arrivalSpeed="13.05" duration="172.00" routeLength="494.90" waitSteps="102" timeLoss="136.63" rerouteNo="0" devices="tripinfo_mixed.60" vType="car" speedFactor="1.01" vaporized=""/>
    <tripinfo id="mixed.47" depart="64.00" departLane="beg_0" departPos="2.20" departPosLat="1.10" departSpeed="0.00" departDelay="17.00" arrival="259.00" arrivalLane="end_0" arrivalPos="200.00" arrivalPosLat="-0.56" arrivalSpeed="14.61" duration="195.00" routeLength="497.80" waitSteps="113" timeLoss="160.85" rerouteNo="0" devices="tripinfo_mixed.47" vType="moped" speedFactor="1.07" vaporized=""/>
    <tripinfo id="mixed.68" depart="93.00" departLane="beg_0" departPos="5.10" departPosLat="-0.49" departSpeed="0.00" departDelay="25.00" arrival="260.00" arrivalLane="end_1" arrivalPos="200.00" arrivalPosLat="-1.34" arrivalSpeed="15.70" duration="167.00" routeLength="494.90" waitSteps="97" timeLoss="137.09" rerouteNo="0" devices="tripinfo_mixed.68" vType="car" speedFactor="1.22" vaporized=""/>
    <tripinfo id="mixed.54" depart="74.00" departLane="beg_0" departPos="2.20" departPosLat="-0.11" departSpeed="0.00" departDelay="20.00" arrival="261.00" arrivalLane="end_0" arrivalPos="200.00" arrivalPosLat="-0.56" arrivalSpeed="14.56" duration="187.00" routeLength="497.80" waitSteps="107" timeLoss="156.16" rerouteNo="0" devices="tripinfo_mixed.54" vType="moped" speedFactor="1.20" vaporized=""/>
    <tripinfo id="mixed.66" depart="103.00" departLane="beg_0" departPos="5.10" departPosLat="0.26" departSpeed="0.00" departDelay="37.00" arrival="261.00" arrivalLane="end_1" arrivalPos="200.00" arrivalPosLat="-1.34" arrivalSpeed="17.00" duration="158.00" routeLength="494.90" waitSteps="93" timeLoss="129.39" rerouteNo="0" devices="tripinfo_mixed.66" vType="car" speedFactor="1.25" vaporized=""/>
    <tripinfo id="mixed.76" depart="104.00" departLane="beg_1" departPos="2.20" departPosLat="0.22" departSpeed="0.00" departDelay="28.00" arrival="262.00" arrivalLane="end_1" arrivalPos="200.00" arrivalPosLat="-0.56" arrivalSpeed="9.35" duration="158.00" routeLength="497.80" waitSteps="87" timeLoss="106.33" rerouteNo="0" devices="tripinfo_mixed.76" vType="moped" speedFactor="0.70" vaporized=""/>
    <tripinfo id="mixed.74" depart="105.00" departLane="beg_0" departPos="2.20" departPosLat="0.40" departSpeed="0.00" departDelay="31.00" arrival="263.00" arrivalLane="end_1" arrivalPos="200.00" arrivalPosLat="1.20" arrivalSpeed="11.31" duration="158.00" routeLength="497.80" waitSteps="87" timeLoss="126.54" rerouteNo="0" devices="tripinfo_mixed.74" vType="moped" speedFactor="1.15" vaporized=""/>
    <tripinfo id="mixed.31" depart="44.00" departLane="beg_0" departPos="5.10" departPosLat="-0.59" departSpeed="0.00" departDelay="13.00" arrival="264.00" arrivalLane="end_0" arrivalPos="200.00" arrivalPosLat="1.23" arrivalSpeed="8.68" duration="220.00" routeLength="494.90" waitSteps="130" timeLoss="169.42" rerouteNo="0" devices="tripinfo_mixed.31" vType="car" speedFactor="0.71" vaporized=""/>
    <tripinfo id="mixed.80" depart="113.00" departLane="beg_0" departPos="5.10" departPosLat="0.34" departSpeed="0.00" departDelay="33.00" arrival="265.00" arrivalLane="end_1" arrivalPos="200.00" arrivalPosLat="-0.70" arrivalSpeed="13.59" duration="152.00" routeLength="494.90" waitSteps="81" timeLoss="117.38" rerouteNo="0" devices="tripinfo_mixed.80" vType="car" speedFactor="1.05" vaporized=""/>
    <tripinfo id="mixed.56" depart="83.00" departLane="beg_0" departPos="5.10" departPosLat="-0.29" departSpeed="0.00" departDelay="27.00" arrival="266.00" arrivalLane="end_0" arrivalPos="200.00" arrivalPosLat="1.19" arrivalSpeed="11.06" duration="183.00" routeLength="494.90" waitSteps="106" timeLoss="142.51" rerouteNo="0" devices="tripinfo_mixed.56" vType="car" speedFactor="0.89" vaporized=""/>
    <tripinfo id="mixed.88" depart="124.00" departLane="beg_0" departPos="5.10" departPosLat="-0.12" departSpeed="0.00" departDelay="36.00" arrival="267.00" arrivalLane="end_1" arrivalPos="200.00" arrivalPosLat="-0.06" arrivalSpeed="15.44" duration="143.00" routeLength="494.90" waitSteps="72" timeLoss="118.59" rerouteNo="0" devices="tripinfo_mixed.88" vType="car" speedFactor="1.51" vaporized=""/>
    <tripinfo id="mixed.8" depart="12.00" departLane="beg_1" departPos="2.20" departPosLat="-0.53" departSpeed="0.00" departDelay="4.00" arrival="268.00" arrivalLane="end_0" arrivalPos="200.00" arrivalPosLat="-1.20" arrivalSpeed="4.49" duration="256.00" routeLength="497.80" waitSteps="131" timeLoss="148.38" rerouteNo="0" devices="tripinfo_mixed.8" vType="moped" speedFactor="0.33" vaporized=""/>
    <tripinfo id="mixed.69" depart="94.00" departLane="beg_1" departPos="2.20" departPosLat="-0.32" departSpeed="0.00" departDelay="25.00" arrival="268.00" arrivalLane="end_0" arrivalPos="200.00" arrivalPosLat="0.75" arrivalSpeed="10.27" duration="174.00" routeLength="497.80" waitSteps="96" timeLoss="131.17" rerouteNo="0" devices="tripinfo_mixed.69" vType="moped" speedFactor="0.85" vaporized=""/>
    <tripinfo id="mixed.63" depart="87.00" departLane="beg_1" departPos="2.20" departPosLat="0.86" departSpeed="0.00" departDelay="24.00" arrival="268.00" arrivalLane="end_1" arrivalPos="200.00" arrivalPosLat="-0.72" arrivalSpeed="10.96" duration="181.00" routeLength="497.80" waitSteps="100" timeLoss="145.39" rerouteNo="0" devices="tripinfo_mixed.63" vType="moped" speedFactor="1.02" vaporized=""/>
    <tripinfo id="mixed.95" depart="134.00" departLane="beg_1" departPos="2.20" departPosLat="0.54" departSpeed="0.00" departDelay="39.00" arrival="268.00" arrivalLane="end_1" arrivalPos="200.00" arrivalPosLat="0.96" arrivalSpeed="13.26" duration="134.00" routeLength="497.80" waitSteps="63" timeLoss="103.87" rerouteNo="0" devices="tripinfo_mixed.95" vType="moped" speedFactor="1.24" vaporized=""/>
    <tripinfo id="mixed.42" depart="56.00" departLane="beg_0" departPos="2.20" departPosLat="-1.01" departSpeed="0.00" departDelay="14.00" arrival="270.00" arrivalLane="end_0" arrivalPos="200.00" arrivalPosLat="0.86" arrivalSpeed="10.89" duration="214.00" routeLength="497.80" waitSteps="125" timeLoss="168.86" rerouteNo="0" devices="tripinfo_mixed.42" vType="moped" speedFactor="0.81" vaporized=""/>
    <tripinfo id="mixed.29" depart="47.00" departLane="beg_0" departPos="2.20" departPosLat="-0.03" departSpeed="0.00" departDelay="18.00" arrival="270.00" arrivalLane="end_0" arrivalPos="200.00" arrivalPosLat="-0.50" arrivalSpeed="5.95" duration="223.00" routeLength="497.80" waitSteps="126" timeLoss="173.12" rerouteNo="0" devices="tripinfo_mixed.29" vType="moped" speedFactor="0.72" vaporized=""/>
    <tripinfo id="mixed.75" depart="105.00" departLane="beg_0" departPos="2.20" departPosLat="-0.78" departSpeed="0.00" departDelay="30.00" arrival="270.00" arrivalLane="end_1" arrivalPos="200.00" arrivalPosLat="-0.20" arrivalSpeed="14.78" duration="165.00" routeLength="497.80" waitSteps="80" timeLoss="131.84" rerouteNo="0" devices="tripinfo_mixed.75" vType="moped" speedFactor="1.11" vaporized=""/>
    <tripinfo id="mixed.86" depart="122.00" departLane="beg_1" departPos="2.20" departPosLat="-0.06" departSpeed="0.00" departDelay="36.00" arrival="271.00" arrivalLane="end_1" arrivalPos="200.00" arrivalPosLat="-0.84" arrivalSpeed="15.32" duration="149.00" routeLength="497.80" waitSteps="76" timeLoss="118.42" rerouteNo="0" devices="tripinfo_mixed.86" vType="moped" speedFactor="1.19" vaporized=""/>
    <tripinfo id="mixed.39" depart="48.00" departLane="beg_0" departPos="2.20" departPosLat="1.11" departSpeed="0.00" departDelay="9.00" arrival="272.00" arrivalLane="end_0" arrivalPos="200.00" arrivalPosLat="0.47" arrivalSpeed="6.62" duration="224.00" routeLength="497.80" waitSteps="125" timeLoss="165.30" rerouteNo="0" devices="tripinfo_mixed.39" vType="moped" speedFactor="0.62" vaporized=""/>