<?xml version="1.0" encoding="UTF-8"?>

<!-- generated on Mon Apr  3 12:20:58 2017 by SUMO Version dev-SVN-r23771
<?xml version="1.0" encoding="UTF-8"?>

<configuration xmlns:xsi="http://www.w3.org/2001/XMLSchema-instance" xsi:noNamespaceSchemaLocation="http://sumo.dlr.de/xsd/sumoConfiguration.xsd">

    <input>
        <net-file value="net.net.xml"/>
        <route-files value="input_routes.rou.xml"/>
    </input>

    <output>
        <tripinfo-output value="tripinfos.xml"/>
    </output>

    <processing>
        <lateral-resolution value="0.64"/>
    </processing>

    <report>
        <xml-validation value="never"/>
        <no-step-log value="true"/>
    </report>

</configuration>
-->

<tripinfos xmlns:xsi="http://www.w3.org/2001/XMLSchema-instance" xsi:noNamespaceSchemaLocation="http://sumo.dlr.de/xsd/tripinfo_file.xsd">
    <tripinfo id="mixed.15" depart="24.00" departLane="beg_1" departPos="5.10" departPosLat="0.66" departSpeed="0.00" departDelay="9.00" arrival="216.00" arrivalLane="end_0" arrivalPos="200.00" arrivalPosLat="0.58" arrivalSpeed="17.60" duration="192.00" routeLength="494.90" waitSteps="152" timeLoss="164.66" rerouteNo="0" devices="tripinfo_mixed.15" vType="car" speedFactor="1.31" vaporized=""/>
    <tripinfo id="mixed.2" depart="4.00" departLane="beg_1" departPos="5.10" departPosLat="0.53" departSpeed="0.00" departDelay="2.00" arrival="218.00" arrivalLane="end_0" arrivalPos="200.00" arrivalPosLat="-0.70" arrivalSpeed="13.08" duration="214.00" routeLength="494.90" waitSteps="168" timeLoss="177.61" rerouteNo="0" devices="tripinfo_mixed.2" vType="car" speedFactor="0.99" vaporized=""/>
    <tripinfo id="mixed.19" depart="29.00" departLane="beg_0" departPos="5.10" departPosLat="-0.40" departSpeed="0.00" departDelay="10.00" arrival="219.00" arrivalLane="end_0" arrivalPos="200.00" arrivalPosLat="1.22" arrivalSpeed="15.59" duration="190.00" routeLength="494.90" waitSteps="144" timeLoss="159.92" rerouteNo="0" devices="tripinfo_mixed.19" vType="car" speedFactor="1.20" vaporized=""/>
    <tripinfo id="mixed.5" depart="10.00" departLane="beg_1" departPos="5.10" departPosLat="-0.40" departSpeed="0.00" departDelay="5.00" arrival="220.00" arrivalLane="end_0" arrivalPos="200.00" arrivalPosLat="-0.70" arrivalSpeed="11.01" duration="210.00" routeLength="494.90" waitSteps="157" timeLoss="166.38" rerouteNo="0" devices="tripinfo_mixed.5" vType="car" speedFactor="0.82" vaporized=""/>
    <tripinfo id="mixed.1" depart="1.00" departLane="beg_1" departPos="2.20" departPosLat="0.22" departSpeed="0.00" departDelay="0.00" arrival="224.00" arrivalLane="end_0" arrivalPos="200.00" arrivalPosLat="1.06" arrivalSpeed="13.47" duration="223.00" routeLength="497.80" waitSteps="159" timeLoss="186.45" rerouteNo="0" devices="tripinfo_mixed.1" vType="moped" speedFactor="0.99" vaporized=""/>
    <tripinfo id="mixed.0" depart="0.00" departLane="beg_0" departPos="2.20" departPosLat="0.51" departSpeed="0.00" departDelay="0.00" arrival="224.00" arrivalLane="end_0" arrivalPos="200.00" arrivalPosLat="-1.20" arrivalSpeed="12.08" duration="224.00" routeLength="497.80" waitSteps="168" timeLoss="182.77" rerouteNo="0" devices="tripinfo_mixed.0" vType="moped" speedFactor="0.88" vaporized=""/>
    <tripinfo id="mixed.9" depart="14.00" departLane="beg_0" departPos="2.20" departPosLat="0.93" departSpeed="0.00" departDelay="5.00" arrival="225.00" arrivalLane="end_0" arrivalPos="200.00" arrivalPosLat="1.36" arrivalSpeed="14.43" duration="211.00" routeLength="497.80" waitSteps="155" timeLoss="180.96" rerouteNo="0" devices="tripinfo_mixed.9" vType="moped" speedFactor="1.29" vaporized=""/>
    <tripinfo id="mixed.7" depart="13.00" departLane="beg_1" departPos="2.20" departPosLat="0.97" departSpeed="0.00" departDelay="6.00" arrival="225.00" arrivalLane="end_0" arrivalPos="200.00" arrivalPosLat="0.32" arrivalSpeed="15.85" duration="212.00" routeLength="497.80" waitSteps="154" timeLoss="182.07" rerouteNo="0" devices="tripinfo_mixed.7" vType="moped" speedFactor="1.53" vaporized=""/>
    <tripinfo id="mixed.14" depart="26.00" departLane="beg_0" departPos="5.10" departPosLat="-0.08" departSpeed="0.00" departDelay="12.00" arrival="225.00" arrivalLane="end_1" arrivalPos="200.00" arrivalPosLat="0.12" arrivalSpeed="12.17" duration="199.00" routeLength="494.90" waitSteps="140" timeLoss="158.26" rerouteNo="0" devices="tripinfo_mixed.14" vType="car" speedFactor="0.89" vaporized=""/>
    <tripinfo id="mixed.4" depart="5.00" departLane="beg_0" departPos="2.20" departPosLat="0.11" departSpeed="0.00" departDelay="1.00" arrival="226.00" arrivalLane="end_0" arrivalPos="200.00" arrivalPosLat="-1.20" arrivalSpeed="13.00" duration="221.00" routeLength="497.80" waitSteps="164" timeLoss="182.39" rerouteNo="0" devices="tripinfo_mixed.4" vType="moped" speedFactor="0.95" vaporized=""/>
    <tripinfo id="mixed.10" depart="16.00" departLane="beg_1" departPos="2.20" departPosLat="0.69" departSpeed="0.00" departDelay="6.00" arrival="227.00" arrivalLane="end_0" arrivalPos="200.00" arrivalPosLat="1.36" arrivalSpeed="16.51" duration="211.00" routeLength="497.80" waitSteps="151" timeLoss="180.30" rerouteNo="0" devices="tripinfo_mixed.10" vType="moped" speedFactor="1.37" vaporized=""/>
    <tripinfo id="mixed.12" depart="18.00" departLane="beg_0" departPos="2.20" departPosLat="1.06" departSpeed="0.00" departDelay="6.00" arrival="227.00" arrivalLane="end_0" arrivalPos="200.00" arrivalPosLat="-0.56" arrivalSpeed="15.49" duration="209.00" routeLength="497.80" waitSteps="151" timeLoss="177.69" rerouteNo="0" devices="tripinfo_mixed.12" vType="moped" speedFactor="1.15" vaporized=""/>
    <tripinfo id="mixed.6" depart="7.00" departLane="beg_0" departPos="2.20" departPosLat="0.75" departSpeed="0.00" departDelay="1.00" arrival="229.00" arrivalLane="end_0" arrivalPos="200.00" arrivalPosLat="-1.20" arrivalSpeed="12.13" duration="222.00" routeLength="497.80" waitSteps="163" timeLoss="180.54" rerouteNo="0" devices="tripinfo_mixed.6" vType="moped" speedFactor="0.88" vaporized=""/>
    <tripinfo id="mixed.21" depart="29.00" departLane="beg_1" departPos="5.10" departPosLat="0.68" departSpeed="0.00" departDelay="8.00" arrival="229.00" arrivalLane="end_1" arrivalPos="200.00" arrivalPosLat="-1.34" arrivalSpeed="16.86" duration="200.00" routeLength="494.90" waitSteps="142" timeLoss="170.04" rerouteNo="0" devices="tripinfo_mixed.21" vType="car" speedFactor="1.23" vaporized=""/>
    <tripinfo id="mixed.20" depart="30.00" departLane="beg_1" departPos="2.20" departPosLat="-1.07" departSpeed="0.00" departDelay="10.00" arrival="229.00" arrivalLane="end_1" arrivalPos="200.00" arrivalPosLat="1.08" arrivalSpeed="16.12" duration="199.00" routeLength="497.80" waitSteps="133" timeLoss="168.53" rerouteNo="0" devices="tripinfo_mixed.20" vType="moped" speedFactor="1.23" vaporized=""/>
    <tripinfo id="mixed.23" depart="32.00" departLane="beg_1" departPos="2.20" departPosLat="0.91" departSpeed="0.00" departDelay="9.00" arrival="230.00" arrivalLane="end_0" arrivalPos="200.00" arrivalPosLat="-0.56" arrivalSpeed="16.38" duration="198.00" routeLength="497.80" waitSteps="141" timeLoss="167.86" rerouteNo="0" devices="tripinfo_mixed.23" vType="moped" speedFactor="1.31" vaporized=""/>
    <tripinfo id="mixed.17" depart="26.00" departLane="beg_1" departPos="2.20" departPosLat="-0.46" departSpeed="0.00" departDelay="9.00" arrival="230.00" arrivalLane="end_1" arrivalPos="200.00" arrivalPosLat="1.20" arrivalSpeed="16.62" duration="204.00" routeLength="497.80" waitSteps="131" timeLoss="173.87" rerouteNo="0" devices="tripinfo_mixed.17" vType="moped" speedFactor="1.91" vaporized=""/>
    <tripinfo id="mixed.26" depart="34.00" departLane="beg_1" departPos="2.20" departPosLat="-0.79" departSpeed="0.00" departDelay="8.00" arrival="230.00" arrivalLane="end_1" arrivalPos="200.00" arrivalPosLat="-1.48" arrivalSpeed="14.58" duration="196.00" routeLength="497.80" waitSteps="138" timeLoss="162.65" rerouteNo="0" devices="tripinfo_mixed.26" vType="moped" speedFactor="1.08" vaporized=""/>
    <tripinfo id="mixed.28" depart="39.00" departLane="beg_1" departPos="2.20" departPosLat="-0.34" departSpeed="0.00" departDelay="11.00" arrival="232.00" arrivalLane="end_0" arrivalPos="200.00" arrivalPosLat="0.08" arrivalSpeed="16.21" duration="193.00" routeLength="497.80" waitSteps="131" timeLoss="162.37" rerouteNo="0" devices="tripinfo_mixed.28" vType="moped" speedFactor="1.22" vaporized=""/>
    <tripinfo id="mixed.22" depart="45.00" departLane="beg_0" departPos="5.10" departPosLat="0.51" departSpeed="0.00" departDelay="23.00" arrival="233.00" arrivalLane="end_1" arrivalPos="200.00" arrivalPosLat="-0.06" arrivalSpeed="14.62" duration="188.00" routeLength="494.90" waitSteps="129" timeLoss="155.44" rerouteNo="0" devices="tripinfo_mixed.22" vType="car" speedFactor="1.13" vaporized=""/>
    <tripinfo id="mixed.13" depart="22.00" departLane="beg_0" departPos="2.20" departPosLat="0.49" departSpeed="0.00" departDelay="9.00" arrival="234.00" arrivalLane="end_0" arrivalPos="200.00" arrivalPosLat="1.28" arrivalSpeed="12.38" duration="212.00" routeLength="497.80" waitSteps="143" timeLoss="171.61" rerouteNo="0" devices="tripinfo_mixed.13" vType="moped" speedFactor="0.91" vaporized=""/>
    <tripinfo id="mixed.3" depart="11.00" departLane="beg_0" departPos="5.10" departPosLat="-0.55" departSpeed="0.00" departDelay="8.00" arrival="235.00" arrivalLane="end_0" arrivalPos="200.00" arrivalPosLat="-0.70" arrivalSpeed="9.30" duration="224.00" routeLength="494.90" waitSteps="156" timeLoss="172.74" rerouteNo="0" devices="tripinfo_mixed.3" vType="car" speedFactor="0.71" vaporized=""/>
    <tripinfo id="mixed.11" depart="16.00" departLane="beg_0" departPos="2.20" departPosLat="-0.97" departSpeed="0.00" departDelay="5.00" arrival="236.00" arrivalLane="end_0" arrivalPos="200.00" arrivalPosLat="-1.20" arrivalSpeed="9.56" duration="220.00" routeLength="497.80" waitSteps="156" timeLoss="182.59" rerouteNo="0" devices="tripinfo_mixed.11" vType="moped" speedFactor="0.96" vaporized=""/>
    <tripinfo id="mixed.25" depart="33.00" departLane="beg_0" departPos="5.10" departPosLat="0.42" departSpeed="0.00" departDelay="8.00" arrival="236.00" arrivalLane="end_0" arrivalPos="200.00" arrivalPosLat="1.20" arrivalSpeed="12.54" duration="203.00" routeLength="494.90" waitSteps="140" timeLoss="166.63" rerouteNo="0" devices="tripinfo_mixed.25" vType="car" speedFactor="0.99" vaporized=""/>
    <tripinfo id="mixed.36" depart="58.00" departLane="beg_1" departPos="5.10" departPosLat="0.70" departSpeed="0.00" departDelay="22.00" arrival="237.00" arrivalLane="end_1" arrivalPos="200.00" arrivalPosLat="0.70" arrivalSpeed="11.09" duration="179.00" routeLength="494.90" waitSteps="120" timeLoss="138.02" rerouteNo="0" devices="tripinfo_mixed.36" vType="car" speedFactor="0.88" vaporized=""/>
    <tripinfo id="mixed.24" depart="35.00" departLane="beg_0" departPos="2.20" departPosLat="-0.61" departSpeed="0.00" departDelay="11.00" arrival="238.00" arrivalLane="end_0" arrivalPos="200.00" arrivalPosLat="1.36" arrivalSpeed="11.68" duration="203.00" routeLength="497.80" waitSteps="140" timeLoss="170.54" rerouteNo="0" devices="tripinfo_mixed.24" vType="moped" speedFactor="1.12" vaporized=""/>
    <tripinfo id="mixed.38" depart="61.00" departLane="beg_1" departPos="5.10" departPosLat="-0.68" departSpeed="0.00" departDelay="23.00" arrival="239.00" arrivalLane="end_1" arrivalPos="200.00" arrivalPosLat="-0.06" arrivalSpeed="15.26" duration="178.00" routeLength="494.90" waitSteps="119" timeLoss="147.36" rerouteNo="0" devices="tripinfo_mixed.38" vType="car" speedFactor="1.20" vaporized=""/>
    <tripinfo id="mixed.29" depart="38.00" departLane="beg_0" departPos="2.20" departPosLat="-0.89" departSpeed="0.00" departDelay="9.00" arrival="240.00" arrivalLane="end_0" arrivalPos="200.00" arrivalPosLat="-1.20" arrivalSpeed="9.83" duration="202.00" routeLength="497.80" waitSteps="129" timeLoss="151.92" rerouteNo="0" devices="tripinfo_mixed.29" vType="moped" speedFactor="0.72" vaporized=""/>
    <tripinfo id="mixed.40" depart="55.00" departLane="beg_1" departPos="5.10" departPosLat="-0.28" departSpeed="0.00" departDelay="15.00" arrival="240.00" arrivalLane="end_1" arrivalPos="200.00" arrivalPosLat="-1.22" arrivalSpeed="11.38" duration="185.00" routeLength="494.90" waitSteps="123" timeLoss="145.32" rerouteNo="0" devices="tripinfo_mixed.40" vType="car" speedFactor="0.91" vaporized=""/>
    <tripinfo id="mixed.46" depart="62.00" departLane="beg_0" departPos="2.20" departPosLat="0.69" departSpeed="0.00" departDelay="16.00" arrival="240.00" arrivalLane="end_1" arrivalPos="200.00" arrivalPosLat="0.99" arrivalSpeed="13.70" duration="178.00" routeLength="497.80" waitSteps="114" timeLoss="147.78" rerouteNo="0" devices="tripinfo_mixed.46" vType="moped" speedFactor="1.70" vaporized=""/>
    <tripinfo id="mixed.33" depart="47.00" departLane="beg_1" departPos="2.20" departPosLat="0.41" departSpeed="0.00" departDelay="14.00" arrival="241.00" arrivalLane="end_0" arrivalPos="200.00" arrivalPosLat="0.08" arrivalSpeed="12.25" duration="194.00" routeLength="497.80" waitSteps="134" timeLoss="163.74" rerouteNo="0" devices="tripinfo_mixed.33" vType="moped" speedFactor="1.31" vaporized=""/>
    <tripinfo id="mixed.18" depart="21.00" departLane="beg_1" departPos="2.20" departPosLat="0.98" departSpeed="0.00" departDelay="3.00" arrival="242.00" arrivalLane="end_0" arrivalPos="200.00" arrivalPosLat="-1.20" arrivalSpeed="8.17" duration="221.00" routeLength="497.80" waitSteps="146" timeLoss="159.57" rerouteNo="0" devices="tripinfo_mixed.18" vType="moped" speedFactor="0.59" vaporized=""/>
    <tripinfo id="mixed.51" depart="58.00" departLane="beg_0" departPos="2.20" departPosLat="0.34" departSpeed="0.00" departDelay="7.00" arrival="242.00" arrivalLane="end_1" arrivalPos="200.00" arrivalPosLat="-1.45" arrivalSpeed="13.35" duration="184.00" routeLength="497.80" waitSteps="114" timeLoss="153.31" rerouteNo="0" devices="tripinfo_mixed.51" vType="moped" speedFactor="1.89" vaporized=""/>
    <tripinfo id="mixed.49" depart="70.00" departLane="beg_0" departPos="5.10" departPosLat="0.48" departSpeed="0.00" departDelay="21.00" arrival="242.00" arrivalLane="end_1" arrivalPos="200.00" arrivalPosLat="-0.06" arrivalSpeed="14.21" duration="172.00" routeLength="494.90" waitSteps="112" timeLoss="137.65" rerouteNo="0" devices="tripinfo_mixed.49" vType="car" speedFactor="1.05" vaporized=""/>
    <tripinfo id="mixed.30" depart="46.00" departLane="beg_0" departPos="2.20" departPosLat="-0.24" departSpeed="0.00" departDelay="16.00" arrival="243.00" arrivalLane="end_0" arrivalPos="200.00" arrivalPosLat="-0.44" arrivalSpeed="13.41" duration="197.00" routeLength="497.80" waitSteps="130" timeLoss="159.03" rerouteNo="0" devices="tripinfo_mixed.30" vType="moped" speedFactor="0.97" vaporized=""/>
    <tripinfo id="mixed.47" depart="67.00" departLane="beg_1" departPos="2.20" departPosLat="0.55" departSpeed="0.00" departDelay="20.00" arrival="244.00" arrivalLane="end_0" arrivalPos="200.00" arrivalPosLat="0.72" arrivalSpeed="14.43" duration="177.00" routeLength="497.80" waitSteps="116" timeLoss="142.59" rerouteNo="0" devices="tripinfo_mixed.47" vType="moped" speedFactor="1.07" vaporized=""/>
    <tripinfo id="mixed.43" depart="60.00" departLane="beg_1" departPos="2.20" departPosLat="0.01" departSpeed="0.00" departDelay="17.00" arrival="244.00" arrivalLane="end_0" arrivalPos="200.00" arrivalPosLat="-1.20" arrivalSpeed="12.51" duration="184.00" routeLength="497.80" waitSteps="117" timeLoss="143.96" rerouteNo="0" devices="tripinfo_mixed.43" vType="moped" speedFactor="0.91" vaporized=""/>
    <tripinfo id="mixed.66" depart="95.00" departLane="beg_1" departPos="5.10" departPosLat="-0.25" departSpeed="0.00" departDelay="29.00" arrival="244.00" arrivalLane="end_1" arrivalPos="200.00" arrivalPosLat="0.70" arrivalSpeed="16.19" duration="149.00" routeLength="494.90" waitSteps="93" timeLoss="119.70" rerouteNo="0" devices="tripinfo_mixed.66" vType="car" speedFactor="1.25" vaporized=""/>
    <tripinfo id="mixed.37" depart="50.00" departLane="beg_1" departPos="2.20" departPosLat="0.88" departSpeed="0.00" departDelay="13.00" arrival="245.00" arrivalLane="end_0" arrivalPos="200.00" arrivalPosLat="-1.20" arrivalSpeed="12.67" duration="195.00" routeLength="497.80" waitSteps="123" timeLoss="155.97" rerouteNo="0" devices="tripinfo_mixed.37" vType="moped" speedFactor="0.92" vaporized=""/>
    <tripinfo id="mixed.58" depart="80.00" departLane="beg_1" departPos="2.20" departPosLat="-0.87" departSpeed="0.00" departDelay="22.00" arrival="245.00" arrivalLane="end_1" arrivalPos="200.00" arrivalPosLat="-1.20" arrivalSpeed="14.67" duration="165.00" routeLength="497.80" waitSteps="100" timeLoss="134.70" rerouteNo="0" devices="tripinfo_mixed.58" vType="moped" speedFactor="1.39" vaporized=""/>
    <tripinfo id="mixed.68" depart="98.00" departLane="beg_1" departPos="5.10" departPosLat="-0.52" departSpeed="0.00" departDelay="30.00" arrival="245.00" arrivalLane="end_1" arrivalPos="200.00" arrivalPosLat="0.70" arrivalSpeed="15.98" duration="147.00" routeLength="494.90" waitSteps="92" timeLoss="117.64" rerouteNo="0" devices="tripinfo_mixed.68" vType="car" speedFactor="1.22" vaporized=""/>
    <tripinfo id="mixed.41" depart="66.00" departLane="beg_0" departPos="2.20" departPosLat="-1.14" departSpeed="0.00" departDelay="25.00" arrival="247.00" arrivalLane="end_0" arrivalPos="200.00" arrivalPosLat="0.72" arrivalSpeed="15.56" duration="181.00" routeLength="497.80" waitSteps="113" timeLoss="150.08" rerouteNo="0" devices="tripinfo_mixed.41" vType="moped" speedFactor="1.44" vaporized=""/>
    <tripinfo id="mixed.45" depart="65.00" departLane="beg_0" departPos="2.20" departPosLat="0.94" departSpeed="0.00" departDelay="20.00" arrival="247.00" arrivalLane="end_0" arrivalPos="200.00" arrivalPosLat="-1.20" arrivalSpeed="15.32" duration="182.00" routeLength="497.80" waitSteps="116" timeLoss="148.89" rerouteNo="0" devices="tripinfo_mixed.45" vType="moped" speedFactor="1.12" vaporized=""/>
    <tripinfo id="mixed.64" depart="90.00" departLane="beg_1" departPos="2.20" departPosLat="1.04" departSpeed="0.00" departDelay="26.00" arrival="247.00" arrivalLane="end_1" arrivalPos="200.00" arrivalPosLat="-1.20" arrivalSpeed="15.06" duration="157.00" routeLength="497.80" waitSteps="91" timeLoss="126.75" rerouteNo="0" devices="tripinfo_mixed.64" vType="moped" speedFactor="1.25" vaporized=""/>
    <tripinfo id="mixed.16" depart="19.00" departLane="beg_0" departPos="2.20" departPosLat="0.11" departSpeed="0.00" departDelay="3.00" arrival="249.00" arrivalLane="end_0" arrivalPos="200.00" arrivalPosLat="-1.20" arrivalSpeed="6.47" duration="230.00" routeLength="497.80" waitSteps="142" timeLoss="154.84" rerouteNo="0" devices="tripinfo_mixed.16" vType="moped" speedFactor="0.48" vaporized=""/>
    <tripinfo id="mixed.53" depart="78.00" departLane="beg_1" departPos="5.10" departPosLat="0.59" departSpeed="0.00" departDelay="25.00" arrival="249.00" arrivalLane="end_0" arrivalPos="200.00" arrivalPosLat="1.58" arrivalSpeed="15.97" duration="171.00" routeLength="494.90" waitSteps="111" timeLoss="139.53" rerouteNo="0" devices="tripinfo_mixed.53" vType="car" speedFactor="1.16" vaporized=""/>
    <tripinfo id="mixed.39" depart="48.00" departLane="beg_0" departPos="2.20" departPosLat="1.11" departSpeed="0.00" departDelay="9.00" arrival="251.00" arrivalLane="end_0" arrivalPos="200.00" arrivalPosLat="-0.20" arrivalSpeed="7.72" duration="203.00" routeLength="497.80" waitSteps="126" timeLoss="144.32" rerouteNo="0" devices="tripinfo_mixed.39" vType="moped" speedFactor="0.62" vaporized=""/>
    <tripinfo id="mixed.56" depart="83.00" departLane="beg_0" departPos="5.10" departPosLat="0.12" departSpeed="0.00" departDelay="27.00" arrival="251.00" arrivalLane="end_1" arrivalPos="200.00" arrivalPosLat="-1.16" arrivalSpeed="11.51" duration="168.00" routeLength="494.90" waitSteps="106" timeLoss="127.52" rerouteNo="0" devices="tripinfo_mixed.56" vType="car" speedFactor="0.89" vaporized=""/>
    <tripinfo id="mixed.27" depart="41.00" departLane="beg_0" departPos="2.20" departPosLat="0.42" departSpeed="0.00" departDelay="14.00" arrival="253.00" arrivalLane="end_0" arrivalPos="200.00" arrivalPosLat="-1.20" arrivalSpeed="9.10" duration="212.00" routeLength="497.80" waitSteps="135" timeLoss="159.35" rerouteNo="0" devices="tripinfo_mixed.27" vType="moped" speedFactor="0.69" vaporized=""/>
    <tripinfo id="mixed.69" depart="96.00" departLane="beg_0" departPos="2.20" departPosLat="-0.98" departSpeed="0.00" departDelay="27.00" arrival="253.00" arrivalLane="end_0" arrivalPos="200.00" arrivalPosLat="0.91" arrivalSpeed="11.61" duration="157.00" routeLength="497.80" waitSteps="91" timeLoss="114.27" rerouteNo="0" devices="tripinfo_mixed.69" vType="moped" speedFactor="0.85" vaporized=""/>
    <tripinfo id="mixed.75" depart="104.00" departLane="beg_1" departPos="2.20" departPosLat="0.22" departSpeed="0.00" departDelay="29.00" arrival="253.00" arrivalLane="end_1" arrivalPos="200.00" arrivalPosLat="-0.20" arrivalSpeed="15.34" duration="149.00" routeLength="497.80" waitSteps="79" timeLoss="116.20" rerouteNo="0" devices="tripinfo_mixed.75" vType="moped" speedFactor="1.11" vaporized=""/>
    <tripinfo id="mixed.35" depart="51.00" departLane="beg_1" departPos="2.20" departPosLat="-0.98" departSpeed="0.00" departDelay="16.00" arrival="255.00" arrivalLane="end_0" arrivalPos="200.00" arrivalPosLat="0.46" arrivalSpeed="11.83" duration="204.00" routeLength="497.80" waitSteps="124" timeLoss="162.59" rerouteNo="0" devices="tripinfo_mixed.35" vType="moped" speedFactor="0.89" vaporized=""/>
    <tripinfo id="mixed.34" depart="49.00" departLane="beg_0" departPos="2.20" departPosLat="-1.05" departSpeed="0.00" departDelay="15.00" arrival="255.00" arrivalLane="end_0" arrivalPos="200.00" arrivalPosLat="-1.20" arrivalSpeed="9.52" duration="206.00" routeLength="497.80" waitSteps="124" timeLoss="153.67" rerouteNo="0" devices="tripinfo_mixed.34" vType="moped" speedFactor="0.69" vaporized=""/>
    <tripinfo id="mixed.84" depart="116.00" departLane="beg_1" departPos="2.20" departPosLat="0.17" departSpeed="0.00" departDelay="32.00" arrival="255.00" arrivalLane="end_0" arrivalPos="200.00" arrivalPosLat="1.48" arrivalSpeed="15.85" duration="139.00" routeLength="497.80" waitSteps="74" timeLoss="108.16" rerouteNo="0" devices="tripinfo_mixed.84" vType="moped" speedFactor="1.18" vaporized=""/>
    <tripinfo id="mixed.50" depart="70.00" departLane="beg_1" departPos="2.20" departPosLat="0.01" departSpeed="0.00" departDelay="20.00" arrival="257.00" arrivalLane="end_0" arrivalPos="200.00" arrivalPosLat="-1.20" arrivalSpeed="16.44" duration="187.00" routeLength="497.80" waitSteps="112" timeLoss="156.02" rerouteNo="0" devices="tripinfo_mixed.50" vType="moped" speedFactor="1.36" vaporized=""/>
    <tripinfo id="mixed.67" depart="93.00" departLane="beg_0" departPos="2.20" departPosLat="-0.85" departSpeed="0.00" departDelay="26.00" arrival="258.00" arrivalLane="end_0" arrivalPos="200.00" arrivalPosLat="0.08" arrivalSpeed="9.11" duration="165.00" routeLength="497.80" waitSteps="85" timeLoss="110.49" rerouteNo="0" devices="tripinfo_mixed.67" vType="moped" speedFactor="0.67" vaporized=""/>
    <tripinfo id="mixed.72" depart="109.00" departLane="beg_1" departPos="5.10" departPosLat="0.21" departSpeed="0.00" departDelay="37.00" arrival="259.00" arrivalLane="end_1" arrivalPos="200.00" arrivalPosLat="-1.34" arrivalSpeed="16.45" duration="150.00" routeLength="494.90" waitSteps="81" timeLoss="120.31" rerouteNo="0" devices="tripinfo_mixed.72" vType="car" speedFactor="1.24" vaporized=""/>
    <tripinfo id="mixed.32" depart="42.00" departLane="beg_1" departPos="2.20" departPosLat="0.33" departSpeed="0.00" departDelay="10.00" arrival="260.00" arrivalLane="end_0" arrivalPos="200.00" arrivalPosLat="-1.20" arrivalSpeed="7.58" duration="218.00" routeLength="497.80" waitSteps="127" timeLoss="156.24" rerouteNo="0" devices="tripinfo_mixed.32" vType="moped" speedFactor="0.58" vaporized=""/>
    <tripinfo id="mixed.59" depart="77.00" departLane="beg_0" departPos="2.20" departPosLat="1.18" departSpeed="0.00" departDelay="18.00" arrival="260.00" arrivalLane="end_0" arrivalPos="200.00" arrivalPosLat="0.08" arrivalSpeed="14.31" duration="183.00" routeLength="497.80" waitSteps="108" timeLoss="148.76" rerouteNo="0" devices="tripinfo_mixed.59" vType="moped" speedFactor="1.05" vaporized=""/>
    <tripinfo id="mixed.79" depart="114.00" departLane="beg_1" departPos="5.10" departPosLat="-0.12" departSpeed="0.00" departDelay="35.00" arrival="261.00" arrivalLane="end_1" arrivalPos="200.00" arrivalPosLat="-1.34" arrivalSpeed="11.59" duration="147.00" routeLength="494.90" waitSteps="76" timeLoss="105.38" rerouteNo="0" devices="tripinfo_mixed.79" vType="car" speedFactor="0.88" vaporized=""/>
    <tripinfo id="mixed.80" depart="124.00" departLane="beg_0" departPos="5.10" departPosLat="-0.12" departSpeed="0.00" departDelay="44.00" arrival="262.00" arrivalLane="end_1" arrivalPos="200.00" arrivalPosLat="-0.06" arrivalSpeed="13.36" duration="138.00" routeLength="494.90" waitSteps="73" timeLoss="103.67" rerouteNo="0" devices="tripinfo_mixed.80" vType="car" speedFactor="1.05" vaporized=""/>
    <tripinfo id="mixed.60" depart="85.00" departLane="beg_1" departPos="5.10" departPosLat="0.63" departSpeed="0.00" departDelay="25.00" arrival="263.00" arrivalLane="end_0" arrivalPos="200.00" arrivalPosLat="0.58" arrivalSpeed="13.60" duration="178.00" routeLength="494.90" waitSteps="103" timeLoss="141.80" rerouteNo="0" devices="tripinfo_mixed.60" vType="car" speedFactor="1.01" vaporized=""/>
    <tripinfo id="mixed.91" depart="129.00" departLane="beg_0" departPos="2.20" departPosLat="1.16" departSpeed="0.00" departDelay="38.00" arrival="264.00" arrivalLane="end_0" arrivalPos="200.00" arrivalPosLat="0.72" arrivalSpeed="13.02" duration="135.00" routeLength="497.80" waitSteps="61" timeLoss="97.47" rerouteNo="0" devices="tripinfo_mixed.91" vType="moped" speedFactor="0.96" vaporized=""/>
    <tripinfo id="mixed.82" depart="121.00" departLane="beg_0" departPos="5.10" departPosLat="0.23" departSpeed="0.00" departDelay="39.00" arrival="264.00" arrivalLane="end_1" arrivalPos="200.00" arrivalPosLat="-0.06" arrivalSpeed="13.36" duration="143.00" routeLength="494.90" waitSteps="72" timeLoss="107.28" rerouteNo="0" devices="tripinfo_mixed.82" vType="car" speedFactor="1.02" vaporized=""/>
    <tripinfo id="mixed.31" depart="55.00" departLane="beg_0" departPos="5.10" departPosLat="-0.16" departSpeed="0.00" departDelay="24.00" arrival="266.00" arrivalLane="end_0" arrivalPos="200.00" arrivalPosLat="0.70" arrivalSpeed="9.80" duration="211.00" routeLength="494.90" waitSteps="123" timeLoss="160.76" rerouteNo="0" devices="tripinfo_mixed.31" vType="car" speedFactor="0.71" vaporized=""/>
    <tripinfo id="mixed.88" depart="144.00" departLane="beg_0" departPos="5.10" departPosLat="-0.14" departSpeed="0.00" departDelay="56.00" arrival="266.00" arrivalLane="end_1" arrivalPos="200.00" arrivalPosLat="-0.06" arrivalSpeed="17.25" duration="122.00" routeLength="494.90" waitSteps="56" timeLoss="97.45" rerouteNo="0" devices="tripinfo_mixed.88" vType="car" speedFactor="1.51" vaporized=""/>
    <tripinfo id="mixed.8" depart="12.00" departLane="beg_1" departPos="2.20" departPosLat="0.67" departSpeed="0.00" departDelay="4.00" arrival="267.00" arrivalLane="end_0" arrivalPos="200.00" arrivalPosLat="-1.20" arrivalSpeed="4.50" duration="255.00" routeLength="497.80" waitSteps="135" timeLoss="147.33" rerouteNo="0" devices="tripinfo_mixed.8" vType="moped" speedFactor="0.33" vaporized=""/>
    <tripinfo id="mixed.86" depart="116.00" departLane="beg_1" departPos="2.20" departPosLat="-0.91" departSpeed="0.00" departDelay="30.00" arrival="267.00" arrivalLane="end_1" arrivalPos="200.00" arrivalPosLat="-0.24" arrivalSpeed="12.84" duration="151.00" routeLength="497.80" waitSteps="76" timeLoss="120.20" rerouteNo="0" devices="tripinfo_mixed.86" vType="moped" speedFactor="1.19" vaporized=""/>
    <tripinfo id="mixed.61" depart="86.00" departLane="beg_0" departPos="5.10" departPosLat="-0.33" departSpeed="0.00" departDelay="25.00" arrival="268.00" arrivalLane="end_0" arrivalPos="200.00" arrivalPosLat="0.96" arrivalSpeed="12.09" duration="182.00" routeLength="494.90" waitSteps="103" timeLoss="149.87" rerouteNo="0" devices="tripinfo_mixed.61" vType="car" speedFactor="1.12" vaporized=""/>
    <tripinfo id="mixed.48" depart="58.00" departLane="beg_0" departPos="2.20" departPosLat="-0.82" departSpeed="0.00" departDelay="10.00" arrival="269.00" arrivalLane="end_0" arrivalPos="200.00" arrivalPosLat="-0.20" arrivalSpeed="7.78" duration="211.00" routeLength="497.80" waitSteps="121" timeLoss="180.58" rerouteNo="0" devices="tripinfo_mixed.48" vType="moped" speedFactor="1.38" vaporized=""/>
    <tripinfo id="mixed.96" depart="138.00" departLane="beg_0" departPos="2.20" departPosLat="-1.17" departSpeed="0.00" departDelay="42.00" arrival="269.00" arrivalLane="end_1" arrivalPos="200.00" arrivalPosLat="-0.56" arrivalSpeed="11.69" duration="131.00" routeLength="497.80" waitSteps="56" timeLoss="88.66" rerouteNo="0" devices="tripinfo_mixed.96" vType="moped" speedFactor="0.87" vaporized=""/>
    <tripinfo id="mixed.42" depart="61.00" departLane="beg_0" departPos="2.20" departPosLat="-0.33" departSpeed="0.00" departDelay="19.00" arrival="270.00" arrivalLane="end_0" arrivalPos="200.00" arrivalPosLat="-1.20" arrivalSpeed="7.47" duration="209.00" routeLength="497.80" waitSteps="120" timeLoss="164.45" rerouteNo="0" devices="tripinfo_mixed.42" vType="moped" speedFactor="0.81" vaporized=""/>
    <tripinfo id="mixed.54" depart="75.00" departLane="beg_0" departPos="2.20" departPosLat="-0.25" departSpeed="0.00" departDelay="21.00" arrival="271.00" arrivalLane="end_0" arrivalPos="200.00" arrivalPosLat="0.57" arrivalSpeed="9.70" duration="196.00" routeLength="497.80" waitSteps="112" timeLoss="165.83" rerouteNo="0" devices="tripinfo_mixed.54" vType="moped" speedFactor="1.20" vaporized=""/>