<?xml version="1.0" encoding="UTF-8"?>

<!-- generated on Tue Apr 19 13:59:26 2016 by SUMO Version dev-SVN-r20491
<?xml version="1.0" encoding="UTF-8"?>

<configuration xmlns:xsi="http://www.w3.org/2001/XMLSchema-instance" xsi:noNamespaceSchemaLocation="http://sumo.dlr.de/xsd/sumoConfiguration.xsd">

    <input>
        <net-file value="net.net.xml"/>
        <route-files value="input_routes.rou.xml"/>
    </input>

    <output>
        <tripinfo-output value="tripinfos.xml"/>
    </output>

    <processing>
        <lateral-resolution value="0.64"/>
    </processing>

    <report>
        <xml-validation value="never"/>
        <no-step-log value="true"/>
    </report>

</configuration>
-->

<tripinfos xmlns:xsi="http://www.w3.org/2001/XMLSchema-instance" xsi:noNamespaceSchemaLocation="http://sumo.dlr.de/xsd/tripinfo_file.xsd">
    <tripinfo id="mixed.11" depart="17.00" departLane="beg_0" departPos="5.10" departSpeed="0.00" departDelay="6.00" arrival="219.00" arrivalLane="end_0" arrivalPos="200.00" arrivalSpeed="14.66" duration="202.00" routeLength="494.90" waitSteps="147" timeLoss="168.73" rerouteNo="0" devices="tripinfo_mixed.11" vType="car" vaporized=""/>
    <tripinfo id="mixed.6" depart="7.00" departLane="beg_1" departPos="2.20" departSpeed="0.00" departDelay="1.00" arrival="221.00" arrivalLane="end_0" arrivalPos="200.00" arrivalSpeed="16.14" duration="214.00" routeLength="497.80" waitSteps="162" timeLoss="183.33" rerouteNo="0" devices="tripinfo_mixed.6" vType="moped" vaporized=""/>
    <tripinfo id="mixed.9" depart="13.00" departLane="beg_0" departPos="5.10" departSpeed="0.00" departDelay="4.00" arrival="221.00" arrivalLane="end_0" arrivalPos="200.00" arrivalSpeed="10.40" duration="208.00" routeLength="494.90" waitSteps="147" timeLoss="162.71" rerouteNo="0" devices="tripinfo_mixed.9" vType="car" vaporized=""/>
    <tripinfo id="mixed.3" depart="4.00" departLane="beg_1" departPos="2.20" departSpeed="0.00" departDelay="1.00" arrival="222.00" arrivalLane="end_0" arrivalPos="200.00" arrivalSpeed="11.86" duration="218.00" routeLength="497.80" waitSteps="164" timeLoss="181.41" rerouteNo="0" devices="tripinfo_mixed.3" vType="moped" vaporized=""/>
    <tripinfo id="mixed.0" depart="0.00" departLane="beg_0" departPos="2.20" departSpeed="0.00" departDelay="0.00" arrival="225.00" arrivalLane="end_0" arrivalPos="200.00" arrivalSpeed="10.06" duration="225.00" routeLength="497.80" waitSteps="163" timeLoss="176.90" rerouteNo="0" devices="tripinfo_mixed.0" vType="moped" vaporized=""/>
    <tripinfo id="mixed.18" depart="28.00" departLane="beg_1" departPos="5.10" departSpeed="0.00" departDelay="10.00" arrival="226.00" arrivalLane="end_0" arrivalPos="200.00" arrivalSpeed="9.65" duration="198.00" routeLength="494.90" waitSteps="139" timeLoss="149.89" rerouteNo="0" devices="tripinfo_mixed.18" vType="car" vaporized=""/>
    <tripinfo id="mixed.5" depart="6.00" departLane="beg_0" departPos="5.10" departSpeed="0.00" departDelay="1.00" arrival="227.00" arrivalLane="end_0" arrivalPos="200.00" arrivalSpeed="13.83" duration="221.00" routeLength="494.90" waitSteps="162" timeLoss="185.46" rerouteNo="0" devices="tripinfo_mixed.5" vType="car" vaporized=""/>
    <tripinfo id="mixed.23" depart="37.00" departLane="beg_1" departPos="2.20" departSpeed="0.00" departDelay="14.00" arrival="227.00" arrivalLane="end_1" arrivalPos="200.00" arrivalSpeed="16.36" duration="190.00" routeLength="497.80" waitSteps="137" timeLoss="160.02" rerouteNo="0" devices="tripinfo_mixed.23" vType="moped" vaporized=""/>
    <tripinfo id="mixed.7" depart="9.00" departLane="beg_1" departPos="2.20" departSpeed="0.00" departDelay="2.00" arrival="228.00" arrivalLane="end_0" arrivalPos="200.00" arrivalSpeed="9.20" duration="219.00" routeLength="497.80" waitSteps="149" timeLoss="166.75" rerouteNo="0" devices="tripinfo_mixed.7" vType="moped" vaporized=""/>
    <tripinfo id="mixed.20" depart="32.00" departLane="beg_0" departPos="5.10" departSpeed="0.00" departDelay="12.00" arrival="228.00" arrivalLane="end_1" arrivalPos="200.00" arrivalSpeed="13.59" duration="196.00" routeLength="494.90" waitSteps="137" timeLoss="167.21" rerouteNo="0" devices="tripinfo_mixed.20" vType="car" vaporized=""/>
    <tripinfo id="mixed.41" depart="66.00" departLane="beg_1" departPos="2.20" departSpeed="0.00" departDelay="25.00" arrival="229.00" arrivalLane="end_1" arrivalPos="200.00" arrivalSpeed="16.55" duration="163.00" routeLength="497.80" waitSteps="105" timeLoss="132.35" rerouteNo="0" devices="tripinfo_mixed.41" vType="moped" vaporized=""/>
    <tripinfo id="mixed.19" depart="31.00" departLane="beg_1" departPos="5.10" departSpeed="0.00" departDelay="12.00" arrival="229.00" arrivalLane="end_1" arrivalPos="200.00" arrivalSpeed="14.77" duration="198.00" routeLength="494.90" waitSteps="134" timeLoss="164.32" rerouteNo="0" devices="tripinfo_mixed.19" vType="car" vaporized=""/>
    <tripinfo id="mixed.8" depart="10.00" departLane="beg_0" departPos="5.10" departSpeed="0.00" departDelay="2.00" arrival="230.00" arrivalLane="end_0" arrivalPos="200.00" arrivalSpeed="14.22" duration="220.00" routeLength="494.90" waitSteps="142" timeLoss="190.66" rerouteNo="0" devices="tripinfo_mixed.8" vType="car" vaporized=""/>
    <tripinfo id="mixed.12" depart="19.00" departLane="beg_1" departPos="2.20" departSpeed="0.00" departDelay="7.00" arrival="232.00" arrivalLane="end_0" arrivalPos="200.00" arrivalSpeed="9.82" duration="213.00" routeLength="497.80" waitSteps="139" timeLoss="164.17" rerouteNo="0" devices="tripinfo_mixed.12" vType="moped" vaporized=""/>
    <tripinfo id="mixed.13" depart="20.00" departLane="beg_0" departPos="2.20" departSpeed="0.00" departDelay="7.00" arrival="233.00" arrivalLane="end_0" arrivalPos="200.00" arrivalSpeed="13.46" duration="213.00" routeLength="497.80" waitSteps="137" timeLoss="182.44" rerouteNo="0" devices="tripinfo_mixed.13" vType="moped" vaporized=""/>
    <tripinfo id="mixed.15" depart="23.00" departLane="beg_0" departPos="2.20" departSpeed="0.00" departDelay="8.00" arrival="234.00" arrivalLane="end_0" arrivalPos="200.00" arrivalSpeed="13.33" duration="211.00" routeLength="497.80" waitSteps="137" timeLoss="178.51" rerouteNo="0" devices="tripinfo_mixed.15" vType="moped" vaporized=""/>
    <tripinfo id="mixed.21" depart="34.00" departLane="beg_0" departPos="5.10" departSpeed="0.00" departDelay="13.00" arrival="234.00" arrivalLane="end_1" arrivalPos="200.00" arrivalSpeed="10.00" duration="200.00" routeLength="494.90" waitSteps="132" timeLoss="154.13" rerouteNo="0" devices="tripinfo_mixed.21" vType="car" vaporized=""/>
    <tripinfo id="mixed.4" depart="4.00" departLane="beg_0" departPos="2.20" departSpeed="0.00" departDelay="0.00" arrival="236.00" arrivalLane="end_0" arrivalPos="200.00" arrivalSpeed="7.27" duration="232.00" routeLength="497.80" waitSteps="152" timeLoss="165.17" rerouteNo="0" devices="tripinfo_mixed.4" vType="moped" vaporized=""/>
    <tripinfo id="mixed.17" depart="28.00" departLane="beg_0" departPos="5.10" departSpeed="0.00" departDelay="11.00" arrival="236.00" arrivalLane="end_0" arrivalPos="200.00" arrivalSpeed="14.05" duration="208.00" routeLength="494.90" waitSteps="132" timeLoss="172.38" rerouteNo="0" devices="tripinfo_mixed.17" vType="car" vaporized=""/>
    <tripinfo id="mixed.25" depart="43.00" departLane="beg_0" departPos="5.10" departSpeed="0.00" departDelay="18.00" arrival="236.00" arrivalLane="end_1" arrivalPos="200.00" arrivalSpeed="12.54" duration="193.00" routeLength="494.90" waitSteps="131" timeLoss="153.87" rerouteNo="0" devices="tripinfo_mixed.25" vType="car" vaporized=""/>
    <tripinfo id="mixed.10" depart="13.00" departLane="beg_1" departPos="2.20" departSpeed="0.00" departDelay="3.00" arrival="237.00" arrivalLane="end_0" arrivalPos="200.00" arrivalSpeed="8.41" duration="224.00" routeLength="497.80" waitSteps="151" timeLoss="172.98" rerouteNo="0" devices="tripinfo_mixed.10" vType="moped" vaporized=""/>
    <tripinfo id="mixed.45" depart="75.00" departLane="beg_1" departPos="5.10" departSpeed="0.00" departDelay="30.00" arrival="237.00" arrivalLane="end_1" arrivalPos="200.00" arrivalSpeed="13.69" duration="162.00" routeLength="494.90" waitSteps="105" timeLoss="125.76" rerouteNo="0" devices="tripinfo_mixed.45" vType="car" vaporized=""/>
    <tripinfo id="mixed.32" depart="54.00" departLane="beg_0" departPos="5.10" departSpeed="0.00" departDelay="22.00" arrival="238.00" arrivalLane="end_0" arrivalPos="200.00" arrivalSpeed="13.93" duration="184.00" routeLength="494.90" waitSteps="128" timeLoss="149.90" rerouteNo="0" devices="tripinfo_mixed.32" vType="car" vaporized=""/>
    <tripinfo id="mixed.14" depart="20.00" departLane="beg_1" departPos="2.20" departSpeed="0.00" departDelay="6.00" arrival="239.00" arrivalLane="end_0" arrivalPos="200.00" arrivalSpeed="9.12" duration="219.00" routeLength="497.80" waitSteps="149" timeLoss="184.04" rerouteNo="0" devices="tripinfo_mixed.14" vType="moped" vaporized=""/>
    <tripinfo id="mixed.35" depart="58.00" departLane="beg_1" departPos="2.20" departSpeed="0.00" departDelay="23.00" arrival="239.00" arrivalLane="end_0" arrivalPos="200.00" arrivalSpeed="13.44" duration="181.00" routeLength="497.80" waitSteps="125" timeLoss="147.71" rerouteNo="0" devices="tripinfo_mixed.35" vType="moped" vaporized=""/>
    <tripinfo id="mixed.54" depart="91.00" departLane="beg_1" departPos="5.10" departSpeed="0.00" departDelay="37.00" arrival="239.00" arrivalLane="end_1" arrivalPos="200.00" arrivalSpeed="14.75" duration="148.00" routeLength="494.90" waitSteps="89" timeLoss="115.30" rerouteNo="0" devices="tripinfo_mixed.54" vType="car" vaporized=""/>
    <tripinfo id="mixed.30" depart="49.00" departLane="beg_0" departPos="2.20" departSpeed="0.00" departDelay="19.00" arrival="240.00" arrivalLane="end_0" arrivalPos="200.00" arrivalSpeed="13.93" duration="191.00" routeLength="497.80" waitSteps="128" timeLoss="158.01" rerouteNo="0" devices="tripinfo_mixed.30" vType="moped" vaporized=""/>
    <tripinfo id="mixed.27" depart="45.00" departLane="beg_1" departPos="2.20" departSpeed="0.00" departDelay="18.00" arrival="240.00" arrivalLane="end_0" arrivalPos="200.00" arrivalSpeed="9.10" duration="195.00" routeLength="497.80" waitSteps="129" timeLoss="147.61" rerouteNo="0" devices="tripinfo_mixed.27" vType="moped" vaporized=""/>
    <tripinfo id="mixed.37" depart="63.00" departLane="beg_1" departPos="2.20" departSpeed="0.00" departDelay="26.00" arrival="241.00" arrivalLane="end_0" arrivalPos="200.00" arrivalSpeed="14.59" duration="178.00" routeLength="497.80" waitSteps="119" timeLoss="147.43" rerouteNo="0" devices="tripinfo_mixed.37" vType="moped" vaporized=""/>
    <tripinfo id="mixed.46" depart="77.00" departLane="beg_0" departPos="2.20" departSpeed="0.00" departDelay="31.00" arrival="241.00" arrivalLane="end_1" arrivalPos="200.00" arrivalSpeed="13.44" duration="164.00" routeLength="497.80" waitSteps="99" timeLoss="133.48" rerouteNo="0" devices="tripinfo_mixed.46" vType="moped" vaporized=""/>
    <tripinfo id="mixed.28" depart="49.00" departLane="beg_1" departPos="2.20" departSpeed="0.00" departDelay="21.00" arrival="242.00" arrivalLane="end_0" arrivalPos="200.00" arrivalSpeed="10.40" duration="193.00" routeLength="497.80" waitSteps="127" timeLoss="162.58" rerouteNo="0" devices="tripinfo_mixed.28" vType="moped" vaporized=""/>
    <tripinfo id="mixed.39" depart="64.00" departLane="beg_1" departPos="2.20" departSpeed="0.00" departDelay="25.00" arrival="243.00" arrivalLane="end_0" arrivalPos="200.00" arrivalSpeed="13.29" duration="179.00" routeLength="497.80" waitSteps="115" timeLoss="148.05" rerouteNo="0" devices="tripinfo_mixed.39" vType="moped" vaporized=""/>
    <tripinfo id="mixed.56" depart="94.00" departLane="beg_1" departPos="5.10" departSpeed="0.00" departDelay="38.00" arrival="243.00" arrivalLane="end_1" arrivalPos="200.00" arrivalSpeed="13.91" duration="149.00" routeLength="494.90" waitSteps="88" timeLoss="114.67" rerouteNo="0" devices="tripinfo_mixed.56" vType="car" vaporized=""/>
    <tripinfo id="mixed.52" depart="86.00" departLane="beg_0" departPos="5.10" departSpeed="0.00" departDelay="34.00" arrival="244.00" arrivalLane="end_1" arrivalPos="200.00" arrivalSpeed="14.16" duration="158.00" routeLength="494.90" waitSteps="80" timeLoss="123.69" rerouteNo="0" devices="tripinfo_mixed.52" vType="car" vaporized=""/>
    <tripinfo id="mixed.44" depart="71.00" departLane="beg_1" departPos="5.10" departSpeed="0.00" departDelay="27.00" arrival="246.00" arrivalLane="end_0" arrivalPos="200.00" arrivalSpeed="13.80" duration="175.00" routeLength="494.90" waitSteps="110" timeLoss="140.71" rerouteNo="0" devices="tripinfo_mixed.44" vType="car" vaporized=""/>
    <tripinfo id="mixed.63" depart="104.00" departLane="beg_0" departPos="2.20" departSpeed="0.00" departDelay="41.00" arrival="250.00" arrivalLane="end_1" arrivalPos="200.00" arrivalSpeed="12.40" duration="146.00" routeLength="497.80" waitSteps="66" timeLoss="106.74" rerouteNo="0" devices="tripinfo_mixed.63" vType="moped" vaporized=""/>
    <tripinfo id="mixed.16" depart="24.00" departLane="beg_1" departPos="2.20" departSpeed="0.00" departDelay="8.00" arrival="252.00" arrivalLane="end_0" arrivalPos="200.00" arrivalSpeed="7.71" duration="228.00" routeLength="497.80" waitSteps="134" timeLoss="163.43" rerouteNo="0" devices="tripinfo_mixed.16" vType="moped" vaporized=""/>
    <tripinfo id="mixed.55" depart="92.00" departLane="beg_0" departPos="5.10" departSpeed="0.00" departDelay="37.00" arrival="254.00" arrivalLane="end_0" arrivalPos="200.00" arrivalSpeed="11.85" duration="162.00" routeLength="494.90" waitSteps="88" timeLoss="132.57" rerouteNo="0" devices="tripinfo_mixed.55" vType="car" vaporized=""/>
    <tripinfo id="mixed.57" depart="96.00" departLane="beg_1" departPos="2.20" departSpeed="0.00" departDelay="39.00" arrival="254.00" arrivalLane="end_1" arrivalPos="200.00" arrivalSpeed="9.31" duration="158.00" routeLength="497.80" waitSteps="70" timeLoss="103.69" rerouteNo="0" devices="tripinfo_mixed.57" vType="moped" vaporized=""/>
    <tripinfo id="mixed.60" depart="100.00" departLane="beg_1" departPos="5.10" departSpeed="0.00" departDelay="40.00" arrival="255.00" arrivalLane="end_1" arrivalPos="200.00" arrivalSpeed="10.61" duration="155.00" routeLength="494.90" waitSteps="76" timeLoss="120.37" rerouteNo="0" devices="tripinfo_mixed.60" vType="car" vaporized=""/>
    <tripinfo id="mixed.26" depart="45.00" departLane="beg_0" departPos="2.20" departSpeed="0.00" departDelay="19.00" arrival="256.00" arrivalLane="end_1" arrivalPos="200.00" arrivalSpeed="10.48" duration="211.00" routeLength="497.80" waitSteps="130" timeLoss="177.14" rerouteNo="0" devices="tripinfo_mixed.26" vType="moped" vaporized=""/>
    <tripinfo id="mixed.1" depart="1.00" departLane="beg_1" departPos="2.20" departSpeed="0.00" departDelay="0.00" arrival="257.00" arrivalLane="end_0" arrivalPos="200.00" arrivalSpeed="4.42" duration="256.00" routeLength="497.80" waitSteps="143" timeLoss="155.09" rerouteNo="0" devices="tripinfo_mixed.1" vType="moped" vaporized=""/>
    <tripinfo id="mixed.31" depart="50.00" departLane="beg_0" departPos="2.20" departSpeed="0.00" departDelay="19.00" arrival="257.00" arrivalLane="end_0" arrivalPos="200.00" arrivalSpeed="10.37" duration="207.00" routeLength="497.80" waitSteps="126" timeLoss="176.84" rerouteNo="0" devices="tripinfo_mixed.31" vType="moped" vaporized=""/>
    <tripinfo id="mixed.61" depart="103.00" departLane="beg_1" departPos="2.20" departSpeed="0.00" departDelay="42.00" arrival="257.00" arrivalLane="end_1" arrivalPos="200.00" arrivalSpeed="10.28" duration="154.00" routeLength="497.80" waitSteps="76" timeLoss="123.94" rerouteNo="0" devices="tripinfo_mixed.61" vType="moped" vaporized=""/>
    <tripinfo id="mixed.71" depart="119.00" departLane="beg_0" departPos="5.10" departSpeed="0.00" departDelay="48.00" arrival="257.00" arrivalLane="end_1" arrivalPos="200.00" arrivalSpeed="12.39" duration="138.00" routeLength="494.90" waitSteps="63" timeLoss="109.96" rerouteNo="0" devices="tripinfo_mixed.71" vType="car" vaporized=""/>
    <tripinfo id="mixed.38" depart="64.00" departLane="beg_0" departPos="2.20" departSpeed="0.00" departDelay="26.00" arrival="259.00" arrivalLane="end_0" arrivalPos="200.00" arrivalSpeed="10.85" duration="195.00" routeLength="497.80" waitSteps="109" timeLoss="164.59" rerouteNo="0" devices="tripinfo_mixed.38" vType="moped" vaporized=""/>
    <tripinfo id="mixed.22" depart="36.00" departLane="beg_1" departPos="2.20" departSpeed="0.00" departDelay="14.00" arrival="259.00" arrivalLane="end_0" arrivalPos="200.00" arrivalSpeed="11.25" duration="223.00" routeLength="497.80" waitSteps="133" timeLoss="192.82" rerouteNo="0" devices="tripinfo_mixed.22" vType="moped" vaporized=""/>
    <tripinfo id="mixed.75" depart="125.00" departLane="beg_1" departPos="5.10" departSpeed="0.00" departDelay="50.00" arrival="259.00" arrivalLane="end_1" arrivalPos="200.00" arrivalSpeed="11.29" duration="134.00" routeLength="494.90" waitSteps="61" timeLoss="93.93" rerouteNo="0" devices="tripinfo_mixed.75" vType="car" vaporized=""/>
    <tripinfo id="mixed.77" depart="129.00" departLane="beg_0" departPos="2.20" departSpeed="0.00" departDelay="52.00" arrival="261.00" arrivalLane="end_1" arrivalPos="200.00" arrivalSpeed="12.52" duration="132.00" routeLength="497.80" waitSteps="53" timeLoss="101.61" rerouteNo="0" devices="tripinfo_mixed.77" vType="moped" vaporized=""/>
    <tripinfo id="mixed.90" depart="150.00" departLane="beg_1" departPos="2.20" departSpeed="0.00" departDelay="60.00" arrival="261.00" arrivalLane="end_1" arrivalPos="200.00" arrivalSpeed="10.60" duration="111.00" routeLength="497.80" waitSteps="43" timeLoss="63.76" rerouteNo="0" devices="tripinfo_mixed.90" vType="moped" vaporized=""/>
    <tripinfo id="mixed.72" depart="119.00" departLane="beg_1" departPos="2.20" departSpeed="0.00" departDelay="47.00" arrival="262.00" arrivalLane="end_1" arrivalPos="200.00" arrivalSpeed="12.37" duration="143.00" routeLength="497.80" waitSteps="68" timeLoss="112.92" rerouteNo="0" devices="tripinfo_mixed.72" vType="moped" vaporized=""/>
    <tripinfo id="mixed.59" depart="98.00" departLane="beg_0" departPos="2.20" departSpeed="0.00" departDelay="39.00" arrival="263.00" arrivalLane="end_0" arrivalPos="200.00" arrivalSpeed="8.03" duration="165.00" routeLength="497.80" waitSteps="74" timeLoss="103.89" rerouteNo="0" devices="tripinfo_mixed.59" vType="moped" vaporized=""/>
    <tripinfo id="mixed.83" depart="139.00" departLane="beg_1" departPos="2.20" departSpeed="0.00" departDelay="56.00" arrival="263.00" arrivalLane="end_1" arrivalPos="200.00" arrivalSpeed="12.12" duration="124.00" routeLength="497.80" waitSteps="46" timeLoss="90.11" rerouteNo="0" devices="tripinfo_mixed.83" vType="moped" vaporized=""/>
    <tripinfo id="mixed.2" depart="2.00" departLane="beg_0" departPos="2.20" departSpeed="0.00" departDelay="0.00" arrival="264.00" arrivalLane="end_0" arrivalPos="200.00" arrivalSpeed="4.17" duration="262.00" routeLength="497.80" waitSteps="135" timeLoss="151.05" rerouteNo="0" devices="tripinfo_mixed.2" vType="moped" vaporized=""/>
    <tripinfo id="mixed.79" depart="134.00" departLane="beg_1" departPos="5.10" departSpeed="0.00" departDelay="55.00" arrival="264.00" arrivalLane="end_1" arrivalPos="200.00" arrivalSpeed="13.02" duration="130.00" routeLength="494.90" waitSteps="56" timeLoss="92.43" rerouteNo="0" devices="tripinfo_mixed.79" vType="car" vaporized=""/>
    <tripinfo id="mixed.43" depart="70.00" departLane="beg_0" departPos="2.20" departSpeed="0.00" departDelay="27.00" arrival="265.00" arrivalLane="end_0" arrivalPos="200.00" arrivalSpeed="9.73" duration="195.00" routeLength="497.80" waitSteps="112" timeLoss="151.91" rerouteNo="0" devices="tripinfo_mixed.43" vType="moped" vaporized=""/>
    <tripinfo id="mixed.24" depart="38.00" departLane="beg_0" departPos="2.20" departSpeed="0.00" departDelay="14.00" arrival="266.00" arrivalLane="end_0" arrivalPos="200.00" arrivalSpeed="6.70" duration="228.00" routeLength="497.80" waitSteps="130" timeLoss="190.87" rerouteNo="0" devices="tripinfo_mixed.24" vType="moped" vaporized=""/>
    <tripinfo id="mixed.47" depart="80.00" departLane="beg_1" departPos="2.20" departSpeed="0.00" departDelay="33.00" arrival="266.00" arrivalLane="end_0" arrivalPos="200.00" arrivalSpeed="9.91" duration="186.00" routeLength="497.80" waitSteps="106" timeLoss="149.56" rerouteNo="0" devices="tripinfo_mixed.47" vType="moped" vaporized=""/>
    <tripinfo id="mixed.78" depart="131.00" departLane="beg_1" departPos="5.10" departSpeed="0.00" departDelay="53.00" arrival="266.00" arrivalLane="end_1" arrivalPos="200.00" arrivalSpeed="14.24" duration="135.00" routeLength="494.90" waitSteps="65" timeLoss="101.10" rerouteNo="0" devices="tripinfo_mixed.78" vType="car" vaporized=""/>
    <tripinfo id="mixed.34" depart="58.00" departLane="beg_0" departPos="5.10" departSpeed="0.00" departDelay="24.00" arrival="268.00" arrivalLane="end_0" arrivalPos="200.00" arrivalSpeed="8.55" duration="210.00" routeLength="494.90" waitSteps="123" timeLoss="164.77" rerouteNo="0" devices="tripinfo_mixed.34" vType="car" vaporized=""/>
    <tripinfo id="mixed.97" depart="160.00" departLane="beg_1" departPos="2.20" departSpeed="0.00" departDelay="63.00" arrival="268.00" arrivalLane="end_1" arrivalPos="200.00" arrivalSpeed="16.66" duration="108.00" routeLength="497.80" waitSteps="24" timeLoss="77.24" rerouteNo="0" devices="tripinfo_mixed.97" vType="moped" vaporized=""/>
    <tripinfo id="mixed.84" depart="141.00" departLane="beg_0" departPos="5.10" departSpeed="0.00" departDelay="57.00" arrival="268.00" arrivalLane="end_1" arrivalPos="200.00" arrivalSpeed="16.54" duration="127.00" routeLength="494.90" waitSteps="53" timeLoss="96.16" rerouteNo="0" devices="tripinfo_mixed.84" vType="car" vaporized=""/>
    <tripinfo id="mixed.81" depart="136.00" departLane="beg_0" departPos="5.10" departSpeed="0.00" departDelay="55.00" arrival="269.00" arrivalLane="end_1" arrivalPos="200.00" arrivalSpeed="16.24" duration="133.00" routeLength="494.90" waitSteps="53" timeLoss="107.24" rerouteNo="0" devices="tripinfo_mixed.81" vType="car" vaporized=""/>
    <tripinfo id="mixed.58" depart="96.00" departLane="beg_0" departPos="5.10" departSpeed="0.00" departDelay="38.00" arrival="270.00" arrivalLane="end_0" arrivalPos="200.00" arrivalSpeed="10.62" duration="174.00" routeLength="494.90" waitSteps="95" timeLoss="143.00" rerouteNo="0" devices="tripinfo_mixed.58" vType="car" vaporized=""/>
    <tripinfo id="mixed.40" depart="66.00" departLane="beg_0" departPos="2.20" departSpeed="0.00" departDelay="26.00" arrival="270.00" arrivalLane="end_0" arrivalPos="200.00" arrivalSpeed="6.88" duration="204.00" routeLength="497.80" waitSteps="117" timeLoss="168.43" rerouteNo="0" devices="tripinfo_mixed.40" vType="moped" vaporized=""/>
    <tripinfo id="mixed.92" depart="155.00" departLane="beg_1" departPos="5.10" departSpeed="0.00" departDelay="63.00" arrival="272.00" arrivalLane="end_1" arrivalPos="200.00" arrivalSpeed="13.50" duration="117.00" routeLength="494.90" waitSteps="36" timeLoss="82.22" rerouteNo="0" devices="tripinfo_mixed.92" vType="car" vaporized=""/>
    <tripinfo id="mixed.96" depart="159.00" departLane="beg_0" departPos="5.10" departSpeed="0.00" departDelay="63.00" arrival="272.00" arrivalLane="end_1" arrivalPos="200.00" arrivalSpeed="16.19" duration="113.00" routeLength="494.90" waitSteps="27" timeLoss="83.72" rerouteNo="0" devices="tripinfo_mixed.96" vType="car" vaporized=""/>
    <tripinfo id="mixed.48" depart="81.00" departLane="beg_0" departPos="2.20" departSpeed="0.00" departDelay="33.00" arrival="273.00" arrivalLane="end_0" arrivalPos="200.00" arrivalSpeed="7.02" duration="192.00" routeLength="497.80" waitSteps="96" timeLoss="153.62" rerouteNo="0" devices="tripinfo_mixed.48" vType="moped" vaporized=""/>
    <tripinfo id="mixed.64" depart="106.00" departLane="beg_1" departPos="5.10" departSpeed="0.00" departDelay="42.00" arrival="274.00" arrivalLane="end_0" arrivalPos="200.00" arrivalSpeed="8.44" duration="168.00" routeLength="494.90" waitSteps="87" timeLoss="132.70" rerouteNo="0" devices="tripinfo_mixed.64" vType="car" vaporized=""/>
    <tripinfo id="mixed.76" depart="127.00" departLane="beg_0" departPos="2.20" departSpeed="0.00" departDelay="51.00" arrival="274.00" arrivalLane="end_1" arrivalPos="200.00" arrivalSpeed="16.54" duration="147.00" routeLength="497.80" waitSteps="65" timeLoss="116.66" rerouteNo="0" devices="tripinfo_mixed.76" vType="moped" vaporized=""/>
    <tripinfo id="mixed.95" depart="158.00" departLane="beg_1" departPos="5.10" departSpeed="0.00" departDelay="63.00" arrival="274.00" arrivalLane="end_1" arrivalPos="200.00" arrivalSpeed="12.77" duration="116.00" routeLength="494.90" waitSteps="35" timeLoss="80.52" rerouteNo="0" devices="tripinfo_mixed.95" vType="car" vaporized=""/>
    <tripinfo id="mixed.87" depart="146.00" departLane="beg_1" departPos="2.20" departSpeed="0.00" departDelay="59.00" arrival="276.00" arrivalLane="end_1" arrivalPos="200.00" arrivalSpeed="16.28" duration="130.00" routeLength="497.80" waitSteps="48" timeLoss="99.28" rerouteNo="0" devices="tripinfo_mixed.87" vType="moped" vaporized=""/>
    <tripinfo id="mixed.62" depart="103.00" departLane="beg_0" departPos="2.20" departSpeed="0.00" departDelay="41.00" arrival="277.00" arrivalLane="end_0" arrivalPos="200.00" arrivalSpeed="8.15" duration="174.00" routeLength="497.80" waitSteps="85" timeLoss="133.76" rerouteNo="0" devices="tripinfo_mixed.62" vType="moped" vaporized=""/>
    <tripinfo id="mixed.98" depart="163.00" departLane="beg_0" departPos="5.10" departSpeed="0.00" departDelay="65.00" arrival="278.00" arrivalLane="end_1" arrivalPos="200.00" arrivalSpeed="13.58" duration="115.00" routeLength="494.90" waitSteps="43" timeLoss="81.03" rerouteNo="0" devices="tripinfo_mixed.98" vType="car" vaporized=""/>
    <tripinfo id="mixed.68" depart="111.00" departLane="beg_1" departPos="2.20" departSpeed="0.00" departDelay="43.00" arrival="279.00" arrivalLane="end_0" arrivalPos="200.00" arrivalSpeed="8.24" duration="168.00" routeLength="497.80" waitSteps="84" timeLoss="137.53" rerouteNo="0" devices="tripinfo_mixed.68" vType="moped" vaporized=""/>
    <tripinfo id="mixed.29" depart="49.00" departLane="beg_1" departPos="2.20" departSpeed="0.00" departDelay="20.00" arrival="280.00" arrivalLane="end_0" arrivalPos="200.00" arrivalSpeed="4.34" duration="231.00" routeLength="497.80" waitSteps="112" timeLoss="124.88" rerouteNo="0" devices="tripinfo_mixed.29" vType="moped" vaporized=""/>
    <tripinfo id="mixed.91" depart="151.00" departLane="beg_1" departPos="2.20" departSpeed="0.00" departDelay="60.00" arrival="280.00" arrivalLane="end_1" arrivalPos="200.00" arrivalSpeed="15.59" duration="129.00" routeLength="497.80" waitSteps="47" timeLoss="96.82" rerouteNo="0" devices="tripinfo_mixed.91" vType="moped" vaporized=""/>
    <tripinfo id="mixed.70" depart="116.00" departLane="beg_0" departPos="5.10" departSpeed="0.00" departDelay="46.00" arrival="281.00" arrivalLane="end_0" arrivalPos="200.00" arrivalSpeed="10.11" duration="165.00" routeLength="494.90" waitSteps="77" timeLoss="120.17" rerouteNo="0" devices="tripinfo_mixed.70" vType="car" vaporized=""/>
    <tripinfo id="mixed.94" depart="155.00" departLane="beg_0" departPos="2.20" departSpeed="0.00" departDelay="61.00" arrival="281.00" arrivalLane="end_1" arrivalPos="200.00" arrivalSpeed="15.21" duration="126.00" routeLength="497.80" waitSteps="47" timeLoss="93.25" rerouteNo="0" devices="tripinfo_mixed.94" vType="moped" vaporized=""/>
    <tripinfo id="mixed.36" depart="62.00" departLane="beg_1" departPos="2.20" departSpeed="0.00" departDelay="26.00" arrival="282.00" arrivalLane="end_0" arrivalPos="200.00" arrivalSpeed="5.47" duration="220.00" routeLength="497.80" waitSteps="111" timeLoss="148.80" rerouteNo="0" devices="tripinfo_mixed.36" vType="moped" vaporized=""/>
    <tripinfo id="mixed.69" depart="115.00" departLane="beg_1" departPos="5.10" departSpeed="0.00" departDelay="46.00" arrival="282.00" arrivalLane="end_0" arrivalPos="200.00" arrivalSpeed="9.22" duration="167.00" routeLength="494.90" waitSteps="80" timeLoss="117.43" rerouteNo="0" devices="tripinfo_mixed.69" vType="car" vaporized=""/>
    <tripinfo id="mixed.42" depart="69.00" departLane="beg_0" departPos="2.20" departSpeed="0.00" departDelay="27.00" arrival="284.00" arrivalLane="end_0" arrivalPos="200.00" arrivalSpeed="6.41" duration="215.00" routeLength="497.80" waitSteps="110" timeLoss="154.06" rerouteNo="0" devices="tripinfo_mixed.42" vType="moped" vaporized=""/>
    <tripinfo id="mixed.85" depart="143.00" departLane="beg_1" departPos="2.20" departSpeed="0.00" departDelay="58.00" arrival="284.00" arrivalLane="end_1" arrivalPos="200.00" arrivalSpeed="10.93" duration="141.00" routeLength="497.80" waitSteps="43" timeLoss="99.52" rerouteNo="0" devices="tripinfo_mixed.85" vType="moped" vaporized=""/>
    <tripinfo id="mixed.65" depart="108.00" departLane="beg_0" departPos="2.20" departSpeed="0.00" departDelay="43.00" arrival="285.00" arrivalLane="end_0" arrivalPos="200.00" arrivalSpeed="9.18" duration="177.00" routeLength="497.80" waitSteps="86" timeLoss="129.88" rerouteNo="0" devices="tripinfo_mixed.65" vType="moped" vaporized=""/>
    <tripinfo id="mixed.74" depart="121.00" departLane="beg_0" departPos="2.20" departSpeed="0.00" departDelay="47.00" arrival="285.00" arrivalLane="end_1" arrivalPos="200.00" arrivalSpeed="11.08" duration="164.00" routeLength="497.80" waitSteps="68" timeLoss="122.47" rerouteNo="0" devices="tripinfo_mixed.74" vType="moped" vaporized=""/>
    <tripinfo id="mixed.49" depart="81.00" departLane="beg_1" departPos="2.20" departSpeed="0.00" departDelay="32.00" arrival="286.00" arrivalLane="end_0" arrivalPos="200.00" arrivalSpeed="7.30" duration="205.00" routeLength="497.80" waitSteps="106" timeLoss="161.53" rerouteNo="0" devices="tripinfo_mixed.49" vType="moped" vaporized=""/>