<?xml version="1.0" encoding="UTF-8"?>

<!-- generated on Wed Jun  8 09:22:55 2016 by SUMO Version dev-SVN-r20907
<?xml version="1.0" encoding="UTF-8"?>

<configuration xmlns:xsi="http://www.w3.org/2001/XMLSchema-instance" xsi:noNamespaceSchemaLocation="http://sumo.dlr.de/xsd/sumoConfiguration.xsd">

    <input>
        <net-file value="net.net.xml"/>
        <route-files value="input_routes.rou.xml"/>
    </input>

    <output>
        <tripinfo-output value="tripinfos.xml"/>
    </output>

    <processing>
        <lateral-resolution value="0.64"/>
    </processing>

    <report>
        <xml-validation value="never"/>
        <no-step-log value="true"/>
    </report>

</configuration>
-->

<tripinfos xmlns:xsi="http://www.w3.org/2001/XMLSchema-instance" xsi:noNamespaceSchemaLocation="http://sumo.dlr.de/xsd/tripinfo_file.xsd">
    <tripinfo id="mixed.11" depart="17.00" departLane="beg_0" departPos="5.10" departSpeed="0.00" departDelay="6.00" arrival="217.00" arrivalLane="end_0" arrivalPos="200.00" arrivalSpeed="14.13" duration="200.00" routeLength="494.90" waitSteps="150" timeLoss="166.53" rerouteNo="0" devices="tripinfo_mixed.11" vType="car" vaporized=""/>
    <tripinfo id="mixed.6" depart="7.00" departLane="beg_1" departPos="2.20" departSpeed="0.00" departDelay="1.00" arrival="221.00" arrivalLane="end_0" arrivalPos="200.00" arrivalSpeed="16.23" duration="214.00" routeLength="497.80" waitSteps="163" timeLoss="184.06" rerouteNo="0" devices="tripinfo_mixed.6" vType="moped" vaporized=""/>
    <tripinfo id="mixed.3" depart="4.00" departLane="beg_1" departPos="2.20" departSpeed="0.00" departDelay="1.00" arrival="222.00" arrivalLane="end_0" arrivalPos="200.00" arrivalSpeed="13.21" duration="218.00" routeLength="497.80" waitSteps="163" timeLoss="180.54" rerouteNo="0" devices="tripinfo_mixed.3" vType="moped" vaporized=""/>
    <tripinfo id="mixed.0" depart="0.00" departLane="beg_0" departPos="2.20" departSpeed="0.00" departDelay="0.00" arrival="225.00" arrivalLane="end_0" arrivalPos="200.00" arrivalSpeed="10.09" duration="225.00" routeLength="497.80" waitSteps="164" timeLoss="177.09" rerouteNo="0" devices="tripinfo_mixed.0" vType="moped" vaporized=""/>
    <tripinfo id="mixed.9" depart="13.00" departLane="beg_0" departPos="5.10" departSpeed="0.00" departDelay="4.00" arrival="227.00" arrivalLane="end_0" arrivalPos="200.00" arrivalSpeed="10.98" duration="214.00" routeLength="494.90" waitSteps="152" timeLoss="168.66" rerouteNo="0" devices="tripinfo_mixed.9" vType="car" vaporized=""/>
    <tripinfo id="mixed.5" depart="6.00" departLane="beg_0" departPos="5.10" departSpeed="0.00" departDelay="1.00" arrival="227.00" arrivalLane="end_0" arrivalPos="200.00" arrivalSpeed="13.16" duration="221.00" routeLength="494.90" waitSteps="162" timeLoss="185.73" rerouteNo="0" devices="tripinfo_mixed.5" vType="car" vaporized=""/>
    <tripinfo id="mixed.8" depart="10.00" departLane="beg_0" departPos="5.10" departSpeed="0.00" departDelay="2.00" arrival="229.00" arrivalLane="end_0" arrivalPos="200.00" arrivalSpeed="15.80" duration="219.00" routeLength="494.90" waitSteps="147" timeLoss="189.52" rerouteNo="0" devices="tripinfo_mixed.8" vType="car" vaporized=""/>
    <tripinfo id="mixed.7" depart="9.00" departLane="beg_1" departPos="2.20" departSpeed="0.00" departDelay="2.00" arrival="229.00" arrivalLane="end_0" arrivalPos="200.00" arrivalSpeed="9.29" duration="220.00" routeLength="497.80" waitSteps="150" timeLoss="167.46" rerouteNo="0" devices="tripinfo_mixed.7" vType="moped" vaporized=""/>
    <tripinfo id="mixed.13" depart="20.00" departLane="beg_0" departPos="2.20" departSpeed="0.00" departDelay="7.00" arrival="230.00" arrivalLane="end_0" arrivalPos="200.00" arrivalSpeed="13.34" duration="210.00" routeLength="497.80" waitSteps="143" timeLoss="180.01" rerouteNo="0" devices="tripinfo_mixed.13" vType="moped" vaporized=""/>
    <tripinfo id="mixed.19" depart="31.00" departLane="beg_1" departPos="5.10" departSpeed="0.00" departDelay="12.00" arrival="230.00" arrivalLane="end_1" arrivalPos="200.00" arrivalSpeed="14.58" duration="199.00" routeLength="494.90" waitSteps="140" timeLoss="164.53" rerouteNo="0" devices="tripinfo_mixed.19" vType="car" vaporized=""/>
    <tripinfo id="mixed.12" depart="19.00" departLane="beg_1" departPos="2.20" departSpeed="0.00" departDelay="7.00" arrival="230.00" arrivalLane="end_1" arrivalPos="200.00" arrivalSpeed="10.29" duration="211.00" routeLength="497.80" waitSteps="138" timeLoss="162.61" rerouteNo="0" devices="tripinfo_mixed.12" vType="moped" vaporized=""/>
    <tripinfo id="mixed.23" depart="37.00" departLane="beg_1" departPos="2.20" departSpeed="0.00" departDelay="14.00" arrival="232.00" arrivalLane="end_0" arrivalPos="200.00" arrivalSpeed="11.68" duration="195.00" routeLength="497.80" waitSteps="135" timeLoss="164.45" rerouteNo="0" devices="tripinfo_mixed.23" vType="moped" vaporized=""/>
    <tripinfo id="mixed.15" depart="23.00" departLane="beg_0" departPos="2.20" departSpeed="0.00" departDelay="8.00" arrival="232.00" arrivalLane="end_1" arrivalPos="200.00" arrivalSpeed="13.21" duration="209.00" routeLength="497.80" waitSteps="133" timeLoss="176.12" rerouteNo="0" devices="tripinfo_mixed.15" vType="moped" vaporized=""/>
    <tripinfo id="mixed.24" depart="38.00" departLane="beg_0" departPos="2.20" departSpeed="0.00" departDelay="14.00" arrival="233.00" arrivalLane="end_1" arrivalPos="200.00" arrivalSpeed="13.27" duration="195.00" routeLength="497.80" waitSteps="131" timeLoss="157.91" rerouteNo="0" devices="tripinfo_mixed.24" vType="moped" vaporized=""/>
    <tripinfo id="mixed.10" depart="13.00" departLane="beg_1" departPos="2.20" departSpeed="0.00" departDelay="3.00" arrival="234.00" arrivalLane="end_0" arrivalPos="200.00" arrivalSpeed="9.35" duration="221.00" routeLength="497.80" waitSteps="151" timeLoss="169.84" rerouteNo="0" devices="tripinfo_mixed.10" vType="moped" vaporized=""/>
    <tripinfo id="mixed.18" depart="28.00" departLane="beg_1" departPos="5.10" departSpeed="0.00" departDelay="10.00" arrival="234.00" arrivalLane="end_1" arrivalPos="200.00" arrivalSpeed="9.39" duration="206.00" routeLength="494.90" waitSteps="142" timeLoss="157.51" rerouteNo="0" devices="tripinfo_mixed.18" vType="car" vaporized=""/>
    <tripinfo id="mixed.35" depart="58.00" departLane="beg_1" departPos="2.20" departSpeed="0.00" departDelay="23.00" arrival="235.00" arrivalLane="end_1" arrivalPos="200.00" arrivalSpeed="14.79" duration="177.00" routeLength="497.80" waitSteps="115" timeLoss="142.98" rerouteNo="0" devices="tripinfo_mixed.35" vType="moped" vaporized=""/>
    <tripinfo id="mixed.4" depart="4.00" departLane="beg_0" departPos="2.20" departSpeed="0.00" departDelay="0.00" arrival="236.00" arrivalLane="end_0" arrivalPos="200.00" arrivalSpeed="7.07" duration="232.00" routeLength="497.80" waitSteps="152" timeLoss="165.56" rerouteNo="0" devices="tripinfo_mixed.4" vType="moped" vaporized=""/>
    <tripinfo id="mixed.25" depart="43.00" departLane="beg_0" departPos="5.10" departSpeed="0.00" departDelay="18.00" arrival="236.00" arrivalLane="end_0" arrivalPos="200.00" arrivalSpeed="12.99" duration="193.00" routeLength="494.90" waitSteps="131" timeLoss="154.14" rerouteNo="0" devices="tripinfo_mixed.25" vType="car" vaporized=""/>
    <tripinfo id="mixed.14" depart="20.00" departLane="beg_1" departPos="2.20" departSpeed="0.00" departDelay="6.00" arrival="238.00" arrivalLane="end_0" arrivalPos="200.00" arrivalSpeed="8.62" duration="218.00" routeLength="497.80" waitSteps="148" timeLoss="182.94" rerouteNo="0" devices="tripinfo_mixed.14" vType="moped" vaporized=""/>
    <tripinfo id="mixed.41" depart="65.00" departLane="beg_1" departPos="2.20" departSpeed="0.00" departDelay="24.00" arrival="238.00" arrivalLane="end_1" arrivalPos="200.00" arrivalSpeed="16.25" duration="173.00" routeLength="497.80" waitSteps="108" timeLoss="142.20" rerouteNo="0" devices="tripinfo_mixed.41" vType="moped" vaporized=""/>
    <tripinfo id="mixed.21" depart="34.00" departLane="beg_0" departPos="5.10" departSpeed="0.00" departDelay="13.00" arrival="239.00" arrivalLane="end_0" arrivalPos="200.00" arrivalSpeed="9.95" duration="205.00" routeLength="494.90" waitSteps="130" timeLoss="159.42" rerouteNo="0" devices="tripinfo_mixed.21" vType="car" vaporized=""/>
    <tripinfo id="mixed.45" depart="75.00" departLane="beg_1" departPos="5.10" departSpeed="0.00" departDelay="30.00" arrival="240.00" arrivalLane="end_1" arrivalPos="200.00" arrivalSpeed="13.09" duration="165.00" routeLength="494.90" waitSteps="104" timeLoss="128.74" rerouteNo="0" devices="tripinfo_mixed.45" vType="car" vaporized=""/>
    <tripinfo id="mixed.16" depart="24.00" departLane="beg_1" departPos="2.20" departSpeed="0.00" departDelay="8.00" arrival="241.00" arrivalLane="end_0" arrivalPos="200.00" arrivalSpeed="7.71" duration="217.00" routeLength="497.80" waitSteps="136" timeLoss="152.02" rerouteNo="0" devices="tripinfo_mixed.16" vType="moped" vaporized=""/>
    <tripinfo id="mixed.27" depart="45.00" departLane="beg_1" departPos="2.20" departSpeed="0.00" departDelay="18.00" arrival="241.00" arrivalLane="end_0" arrivalPos="200.00" arrivalSpeed="10.52" duration="196.00" routeLength="497.80" waitSteps="121" timeLoss="148.25" rerouteNo="0" devices="tripinfo_mixed.27" vType="moped" vaporized=""/>
    <tripinfo id="mixed.38" depart="61.00" departLane="beg_0" departPos="2.20" departSpeed="0.00" departDelay="23.00" arrival="242.00" arrivalLane="end_0" arrivalPos="200.00" arrivalSpeed="9.13" duration="181.00" routeLength="497.80" waitSteps="106" timeLoss="150.93" rerouteNo="0" devices="tripinfo_mixed.38" vType="moped" vaporized=""/>
    <tripinfo id="mixed.52" depart="85.00" departLane="beg_1" departPos="5.10" departSpeed="0.00" departDelay="33.00" arrival="242.00" arrivalLane="end_1" arrivalPos="200.00" arrivalSpeed="13.94" duration="157.00" routeLength="494.90" waitSteps="92" timeLoss="122.05" rerouteNo="0" devices="tripinfo_mixed.52" vType="car" vaporized=""/>
    <tripinfo id="mixed.32" depart="54.00" departLane="beg_0" departPos="5.10" departSpeed="0.00" departDelay="22.00" arrival="243.00" arrivalLane="end_1" arrivalPos="200.00" arrivalSpeed="11.48" duration="189.00" routeLength="494.90" waitSteps="122" timeLoss="155.09" rerouteNo="0" devices="tripinfo_mixed.32" vType="car" vaporized=""/>
    <tripinfo id="mixed.55" depart="91.00" departLane="beg_1" departPos="5.10" departSpeed="0.00" departDelay="36.00" arrival="243.00" arrivalLane="end_1" arrivalPos="200.00" arrivalSpeed="15.99" duration="152.00" routeLength="494.90" waitSteps="92" timeLoss="122.89" rerouteNo="0" devices="tripinfo_mixed.55" vType="car" vaporized=""/>
    <tripinfo id="mixed.30" depart="49.00" departLane="beg_0" departPos="2.20" departSpeed="0.00" departDelay="19.00" arrival="244.00" arrivalLane="end_1" arrivalPos="200.00" arrivalSpeed="9.60" duration="195.00" routeLength="497.80" waitSteps="120" timeLoss="162.94" rerouteNo="0" devices="tripinfo_mixed.30" vType="moped" vaporized=""/>
    <tripinfo id="mixed.61" depart="102.00" departLane="beg_1" departPos="2.20" departSpeed="0.00" departDelay="41.00" arrival="245.00" arrivalLane="end_1" arrivalPos="200.00" arrivalSpeed="16.21" duration="143.00" routeLength="497.80" waitSteps="86" timeLoss="112.50" rerouteNo="0" devices="tripinfo_mixed.61" vType="moped" vaporized=""/>
    <tripinfo id="mixed.28" depart="49.00" departLane="beg_1" departPos="2.20" departSpeed="0.00" departDelay="21.00" arrival="246.00" arrivalLane="end_1" arrivalPos="200.00" arrivalSpeed="10.41" duration="197.00" routeLength="497.80" waitSteps="126" timeLoss="166.58" rerouteNo="0" devices="tripinfo_mixed.28" vType="moped" vaporized=""/>
    <tripinfo id="mixed.56" depart="95.00" departLane="beg_1" departPos="5.10" departSpeed="0.00" departDelay="39.00" arrival="247.00" arrivalLane="end_1" arrivalPos="200.00" arrivalSpeed="14.44" duration="152.00" routeLength="494.90" waitSteps="92" timeLoss="118.13" rerouteNo="0" devices="tripinfo_mixed.56" vType="car" vaporized=""/>
    <tripinfo id="mixed.44" depart="74.00" departLane="beg_0" departPos="5.10" departSpeed="0.00" departDelay="30.00" arrival="247.00" arrivalLane="end_1" arrivalPos="200.00" arrivalSpeed="12.08" duration="173.00" routeLength="494.90" waitSteps="98" timeLoss="139.01" rerouteNo="0" devices="tripinfo_mixed.44" vType="car" vaporized=""/>
    <tripinfo id="mixed.17" depart="28.00" departLane="beg_0" departPos="5.10" departSpeed="0.00" departDelay="11.00" arrival="249.00" arrivalLane="end_0" arrivalPos="200.00" arrivalSpeed="13.38" duration="221.00" routeLength="494.90" waitSteps="136" timeLoss="185.58" rerouteNo="0" devices="tripinfo_mixed.17" vType="car" vaporized=""/>
    <tripinfo id="mixed.37" depart="61.00" departLane="beg_1" departPos="2.20" departSpeed="0.00" departDelay="24.00" arrival="249.00" arrivalLane="end_1" arrivalPos="200.00" arrivalSpeed="11.38" duration="188.00" routeLength="497.80" waitSteps="116" timeLoss="157.87" rerouteNo="0" devices="tripinfo_mixed.37" vType="moped" vaporized=""/>
    <tripinfo id="mixed.40" depart="65.00" departLane="beg_0" departPos="2.20" departSpeed="0.00" departDelay="25.00" arrival="249.00" arrivalLane="end_1" arrivalPos="200.00" arrivalSpeed="13.76" duration="184.00" routeLength="497.80" waitSteps="107" timeLoss="148.28" rerouteNo="0" devices="tripinfo_mixed.40" vType="moped" vaporized=""/>
    <tripinfo id="mixed.54" depart="91.00" departLane="beg_0" departPos="5.10" departSpeed="0.00" departDelay="37.00" arrival="251.00" arrivalLane="end_1" arrivalPos="200.00" arrivalSpeed="15.27" duration="160.00" routeLength="494.90" waitSteps="91" timeLoss="127.59" rerouteNo="0" devices="tripinfo_mixed.54" vType="car" vaporized=""/>
    <tripinfo id="mixed.64" depart="107.00" departLane="beg_0" departPos="5.10" departSpeed="0.00" departDelay="43.00" arrival="253.00" arrivalLane="end_1" arrivalPos="200.00" arrivalSpeed="13.47" duration="146.00" routeLength="494.90" waitSteps="83" timeLoss="110.39" rerouteNo="0" devices="tripinfo_mixed.64" vType="car" vaporized=""/>
    <tripinfo id="mixed.71" depart="117.00" departLane="beg_1" departPos="5.10" departSpeed="0.00" departDelay="46.00" arrival="255.00" arrivalLane="end_1" arrivalPos="200.00" arrivalSpeed="17.39" duration="138.00" routeLength="494.90" waitSteps="78" timeLoss="109.30" rerouteNo="0" devices="tripinfo_mixed.71" vType="car" vaporized=""/>
    <tripinfo id="mixed.46" depart="76.00" departLane="beg_0" departPos="2.20" departSpeed="0.00" departDelay="30.00" arrival="256.00" arrivalLane="end_1" arrivalPos="200.00" arrivalSpeed="12.72" duration="180.00" routeLength="497.80" waitSteps="100" timeLoss="149.90" rerouteNo="0" devices="tripinfo_mixed.46" vType="moped" vaporized=""/>
    <tripinfo id="mixed.1" depart="1.00" departLane="beg_1" departPos="2.20" departSpeed="0.00" departDelay="0.00" arrival="257.00" arrivalLane="end_0" arrivalPos="200.00" arrivalSpeed="4.58" duration="256.00" routeLength="497.80" waitSteps="143" timeLoss="154.70" rerouteNo="0" devices="tripinfo_mixed.1" vType="moped" vaporized=""/>
    <tripinfo id="mixed.36" depart="61.00" departLane="beg_1" departPos="2.20" departSpeed="0.00" departDelay="25.00" arrival="258.00" arrivalLane="end_0" arrivalPos="200.00" arrivalSpeed="6.61" duration="197.00" routeLength="497.80" waitSteps="107" timeLoss="126.17" rerouteNo="0" devices="tripinfo_mixed.36" vType="moped" vaporized=""/>
    <tripinfo id="mixed.47" depart="78.00" departLane="beg_1" departPos="2.20" departSpeed="0.00" departDelay="31.00" arrival="258.00" arrivalLane="end_1" arrivalPos="200.00" arrivalSpeed="13.64" duration="180.00" routeLength="497.80" waitSteps="99" timeLoss="143.00" rerouteNo="0" devices="tripinfo_mixed.47" vType="moped" vaporized=""/>
    <tripinfo id="mixed.31" depart="50.00" departLane="beg_0" departPos="2.20" departSpeed="0.00" departDelay="19.00" arrival="259.00" arrivalLane="end_0" arrivalPos="200.00" arrivalSpeed="12.18" duration="209.00" routeLength="497.80" waitSteps="123" timeLoss="178.73" rerouteNo="0" devices="tripinfo_mixed.31" vType="moped" vaporized=""/>
    <tripinfo id="mixed.26" depart="45.00" departLane="beg_0" departPos="2.20" departSpeed="0.00" departDelay="19.00" arrival="261.00" arrivalLane="end_1" arrivalPos="200.00" arrivalSpeed="13.18" duration="216.00" routeLength="497.80" waitSteps="134" timeLoss="181.83" rerouteNo="0" devices="tripinfo_mixed.26" vType="moped" vaporized=""/>
    <tripinfo id="mixed.43" depart="71.00" departLane="beg_1" departPos="2.20" departSpeed="0.00" departDelay="28.00" arrival="262.00" arrivalLane="end_0" arrivalPos="200.00" arrivalSpeed="11.52" duration="191.00" routeLength="497.80" waitSteps="106" timeLoss="147.69" rerouteNo="0" devices="tripinfo_mixed.43" vType="moped" vaporized=""/>
    <tripinfo id="mixed.48" depart="81.00" departLane="beg_1" departPos="2.20" departSpeed="0.00" departDelay="33.00" arrival="263.00" arrivalLane="end_0" arrivalPos="200.00" arrivalSpeed="12.67" duration="182.00" routeLength="497.80" waitSteps="101" timeLoss="143.85" rerouteNo="0" devices="tripinfo_mixed.48" vType="moped" vaporized=""/>
    <tripinfo id="mixed.69" depart="114.00" departLane="beg_1" departPos="5.10" departSpeed="0.00" departDelay="45.00" arrival="263.00" arrivalLane="end_1" arrivalPos="200.00" arrivalSpeed="9.92" duration="149.00" routeLength="494.90" waitSteps="77" timeLoss="99.34" rerouteNo="0" devices="tripinfo_mixed.69" vType="car" vaporized=""/>
    <tripinfo id="mixed.2" depart="2.00" departLane="beg_0" departPos="2.20" departSpeed="0.00" departDelay="0.00" arrival="264.00" arrivalLane="end_0" arrivalPos="200.00" arrivalSpeed="4.43" duration="262.00" routeLength="497.80" waitSteps="137" timeLoss="150.97" rerouteNo="0" devices="tripinfo_mixed.2" vType="moped" vaporized=""/>
    <tripinfo id="mixed.78" depart="132.00" departLane="beg_1" departPos="5.10" departSpeed="0.00" departDelay="54.00" arrival="265.00" arrivalLane="end_1" arrivalPos="200.00" arrivalSpeed="13.57" duration="133.00" routeLength="494.90" waitSteps="65" timeLoss="99.04" rerouteNo="0" devices="tripinfo_mixed.78" vType="car" vaporized=""/>
    <tripinfo id="mixed.20" depart="32.00" departLane="beg_0" departPos="5.10" departSpeed="0.00" departDelay="12.00" arrival="266.00" arrivalLane="end_0" arrivalPos="200.00" arrivalSpeed="8.19" duration="234.00" routeLength="494.90" waitSteps="134" timeLoss="205.37" rerouteNo="0" devices="tripinfo_mixed.20" vType="car" vaporized=""/>
    <tripinfo id="mixed.81" depart="138.00" departLane="beg_1" departPos="5.10" departSpeed="0.00" departDelay="57.00" arrival="267.00" arrivalLane="end_1" arrivalPos="200.00" arrivalSpeed="14.78" duration="129.00" routeLength="494.90" waitSteps="62" timeLoss="102.85" rerouteNo="0" devices="tripinfo_mixed.81" vType="car" vaporized=""/>
    <tripinfo id="mixed.22" depart="36.00" departLane="beg_1" departPos="2.20" departSpeed="0.00" departDelay="14.00" arrival="268.00" arrivalLane="end_0" arrivalPos="200.00" arrivalSpeed="7.83" duration="232.00" routeLength="497.80" waitSteps="133" timeLoss="201.68" rerouteNo="0" devices="tripinfo_mixed.22" vType="moped" vaporized=""/>
    <tripinfo id="mixed.84" depart="142.00" departLane="beg_0" departPos="5.10" departSpeed="0.00" departDelay="58.00" arrival="268.00" arrivalLane="end_1" arrivalPos="200.00" arrivalSpeed="15.01" duration="126.00" routeLength="494.90" waitSteps="49" timeLoss="95.82" rerouteNo="0" devices="tripinfo_mixed.84" vType="car" vaporized=""/>
    <tripinfo id="mixed.86" depart="142.00" departLane="beg_1" departPos="2.20" departSpeed="0.00" departDelay="56.00" arrival="269.00" arrivalLane="end_1" arrivalPos="200.00" arrivalSpeed="12.45" duration="127.00" routeLength="497.80" waitSteps="55" timeLoss="96.39" rerouteNo="0" devices="tripinfo_mixed.86" vType="moped" vaporized=""/>
    <tripinfo id="mixed.34" depart="58.00" departLane="beg_0" departPos="5.10" departSpeed="0.00" departDelay="24.00" arrival="270.00" arrivalLane="end_0" arrivalPos="200.00" arrivalSpeed="9.61" duration="212.00" routeLength="494.90" waitSteps="122" timeLoss="166.74" rerouteNo="0" devices="tripinfo_mixed.34" vType="car" vaporized=""/>
    <tripinfo id="mixed.95" depart="160.00" departLane="beg_1" departPos="5.10" departSpeed="0.00" departDelay="65.00" arrival="270.00" arrivalLane="end_1" arrivalPos="200.00" arrivalSpeed="13.23" duration="110.00" routeLength="494.90" waitSteps="43" timeLoss="74.11" rerouteNo="0" devices="tripinfo_mixed.95" vType="car" vaporized=""/>
    <tripinfo id="mixed.49" depart="82.00" departLane="beg_0" departPos="2.20" departSpeed="0.00" departDelay="33.00" arrival="271.00" arrivalLane="end_0" arrivalPos="200.00" arrivalSpeed="9.06" duration="189.00" routeLength="497.80" waitSteps="79" timeLoss="145.80" rerouteNo="0" devices="tripinfo_mixed.49" vType="moped" vaporized=""/>
    <tripinfo id="mixed.58" depart="98.00" departLane="beg_0" departPos="5.10" departSpeed="0.00" departDelay="40.00" arrival="272.00" arrivalLane="end_0" arrivalPos="200.00" arrivalSpeed="10.84" duration="174.00" routeLength="494.90" waitSteps="86" timeLoss="143.03" rerouteNo="0" devices="tripinfo_mixed.58" vType="car" vaporized=""/>
    <tripinfo id="mixed.98" depart="164.00" departLane="beg_0" departPos="5.10" departSpeed="0.00" departDelay="66.00" arrival="272.00" arrivalLane="end_1" arrivalPos="200.00" arrivalSpeed="13.62" duration="108.00" routeLength="494.90" waitSteps="39" timeLoss="73.76" rerouteNo="0" devices="tripinfo_mixed.98" vType="car" vaporized=""/>
    <tripinfo id="mixed.87" depart="145.00" departLane="beg_1" departPos="2.20" departSpeed="0.00" departDelay="58.00" arrival="274.00" arrivalLane="end_0" arrivalPos="200.00" arrivalSpeed="8.78" duration="129.00" routeLength="497.80" waitSteps="46" timeLoss="98.89" rerouteNo="0" devices="tripinfo_mixed.87" vType="moped" vaporized=""/>
    <tripinfo id="mixed.57" depart="95.00" departLane="beg_0" departPos="2.20" departSpeed="0.00" departDelay="38.00" arrival="274.00" arrivalLane="end_0" arrivalPos="200.00" arrivalSpeed="8.68" duration="179.00" routeLength="497.80" waitSteps="84" timeLoss="125.60" rerouteNo="0" devices="tripinfo_mixed.57" vType="moped" vaporized=""/>
    <tripinfo id="mixed.91" depart="151.00" departLane="beg_1" departPos="2.20" departSpeed="0.00" departDelay="60.00" arrival="274.00" arrivalLane="end_1" arrivalPos="200.00" arrivalSpeed="14.41" duration="123.00" routeLength="497.80" waitSteps="49" timeLoss="90.47" rerouteNo="0" devices="tripinfo_mixed.91" vType="moped" vaporized=""/>
    <tripinfo id="mixed.89" depart="149.00" departLane="beg_1" departPos="2.20" departSpeed="0.00" departDelay="60.00" arrival="274.00" arrivalLane="end_1" arrivalPos="200.00" arrivalSpeed="12.13" duration="125.00" routeLength="497.80" waitSteps="47" timeLoss="84.86" rerouteNo="0" devices="tripinfo_mixed.89" vType="moped" vaporized=""/>
    <tripinfo id="mixed.73" depart="121.00" departLane="beg_1" departPos="2.20" departSpeed="0.00" departDelay="48.00" arrival="276.00" arrivalLane="end_0" arrivalPos="200.00" arrivalSpeed="9.32" duration="155.00" routeLength="497.80" waitSteps="65" timeLoss="124.65" rerouteNo="0" devices="tripinfo_mixed.73" vType="moped" vaporized=""/>
    <tripinfo id="mixed.68" depart="112.00" departLane="beg_0" departPos="2.20" departSpeed="0.00" departDelay="44.00" arrival="276.00" arrivalLane="end_0" arrivalPos="200.00" arrivalSpeed="9.15" duration="164.00" routeLength="497.80" waitSteps="76" timeLoss="133.76" rerouteNo="0" devices="tripinfo_mixed.68" vType="moped" vaporized=""/>
    <tripinfo id="mixed.94" depart="156.00" departLane="beg_1" departPos="2.20" departSpeed="0.00" departDelay="62.00" arrival="276.00" arrivalLane="end_1" arrivalPos="200.00" arrivalSpeed="15.54" duration="120.00" routeLength="497.80" waitSteps="58" timeLoss="87.56" rerouteNo="0" devices="tripinfo_mixed.94" vType="moped" vaporized=""/>
    <tripinfo id="mixed.29" depart="49.00" departLane="beg_1" departPos="2.20" departSpeed="0.00" departDelay="20.00" arrival="278.00" arrivalLane="end_0" arrivalPos="200.00" arrivalSpeed="4.22" duration="229.00" routeLength="497.80" waitSteps="109" timeLoss="122.87" rerouteNo="0" devices="tripinfo_mixed.29" vType="moped" vaporized=""/>
    <tripinfo id="mixed.67" depart="110.00" departLane="beg_1" departPos="2.20" departSpeed="0.00" departDelay="43.00" arrival="278.00" arrivalLane="end_0" arrivalPos="200.00" arrivalSpeed="9.33" duration="168.00" routeLength="497.80" waitSteps="79" timeLoss="137.56" rerouteNo="0" devices="tripinfo_mixed.67" vType="moped" vaporized=""/>
    <tripinfo id="mixed.63" depart="103.00" departLane="beg_0" departPos="2.20" departSpeed="0.00" departDelay="40.00" arrival="278.00" arrivalLane="end_1" arrivalPos="200.00" arrivalSpeed="9.62" duration="175.00" routeLength="497.80" waitSteps="79" timeLoss="135.35" rerouteNo="0" devices="tripinfo_mixed.63" vType="moped" vaporized=""/>
    <tripinfo id="mixed.85" depart="142.00" departLane="beg_1" departPos="2.20" departSpeed="0.00" departDelay="57.00" arrival="279.00" arrivalLane="end_0" arrivalPos="200.00" arrivalSpeed="9.32" duration="137.00" routeLength="497.80" waitSteps="52" timeLoss="96.11" rerouteNo="0" devices="tripinfo_mixed.85" vType="moped" vaporized=""/>
    <tripinfo id="mixed.39" depart="61.00" departLane="beg_0" departPos="2.20" departSpeed="0.00" departDelay="22.00" arrival="280.00" arrivalLane="end_0" arrivalPos="200.00" arrivalSpeed="6.29" duration="219.00" routeLength="497.80" waitSteps="109" timeLoss="188.44" rerouteNo="0" devices="tripinfo_mixed.39" vType="moped" vaporized=""/>
    <tripinfo id="mixed.79" depart="133.00" departLane="beg_0" departPos="5.10" departSpeed="0.00" departDelay="54.00" arrival="280.00" arrivalLane="end_1" arrivalPos="200.00" arrivalSpeed="12.20" duration="147.00" routeLength="494.90" waitSteps="69" timeLoss="108.81" rerouteNo="0" devices="tripinfo_mixed.79" vType="car" vaporized=""/>
    <tripinfo id="mixed.50" depart="83.00" departLane="beg_1" departPos="2.20" departSpeed="0.00" departDelay="33.00" arrival="281.00" arrivalLane="end_0" arrivalPos="200.00" arrivalSpeed="8.21" duration="198.00" routeLength="497.80" waitSteps="93" timeLoss="140.33" rerouteNo="0" devices="tripinfo_mixed.50" vType="moped" vaporized=""/>
    <tripinfo id="mixed.42" depart="68.00" departLane="beg_0" departPos="2.20" departSpeed="0.00" departDelay="26.00" arrival="281.00" arrivalLane="end_0" arrivalPos="200.00" arrivalSpeed="6.55" duration="213.00" routeLength="497.80" waitSteps="107" timeLoss="152.62" rerouteNo="0" devices="tripinfo_mixed.42" vType="moped" vaporized=""/>
    <tripinfo id="mixed.65" depart="109.00" departLane="beg_1" departPos="2.20" departSpeed="0.00" departDelay="44.00" arrival="281.00" arrivalLane="end_1" arrivalPos="200.00" arrivalSpeed="10.46" duration="172.00" routeLength="497.80" waitSteps="81" timeLoss="124.45" rerouteNo="0" devices="tripinfo_mixed.65" vType="moped" vaporized=""/>
    <tripinfo id="mixed.60" depart="101.00" departLane="beg_0" departPos="5.10" departSpeed="0.00" departDelay="41.00" arrival="282.00" arrivalLane="end_1" arrivalPos="200.00" arrivalSpeed="13.27" duration="181.00" routeLength="494.90" waitSteps="83" timeLoss="146.10" rerouteNo="0" devices="tripinfo_mixed.60" vType="car" vaporized=""/>
    <tripinfo id="mixed.51" depart="83.00" departLane="beg_0" departPos="2.20" departSpeed="0.00" departDelay="32.00" arrival="283.00" arrivalLane="end_0" arrivalPos="200.00" arrivalSpeed="6.57" duration="200.00" routeLength="497.80" waitSteps="94" timeLoss="154.52" rerouteNo="0" devices="tripinfo_mixed.51" vType="moped" vaporized=""/>
    <tripinfo id="mixed.75" depart="126.00" departLane="beg_1" departPos="5.10" departSpeed="0.00" departDelay="51.00" arrival="284.00" arrivalLane="end_0" arrivalPos="200.00" arrivalSpeed="11.36" duration="158.00" routeLength="494.90" waitSteps="71" timeLoss="117.67" rerouteNo="0" devices="tripinfo_mixed.75" vType="car" vaporized=""/>
    <tripinfo id="mixed.72" depart="119.00" departLane="beg_1" departPos="2.20" departSpeed="0.00" departDelay="47.00" arrival="284.00" arrivalLane="end_1" arrivalPos="200.00" arrivalSpeed="11.52" duration="165.00" routeLength="497.80" waitSteps="75" timeLoss="134.87" rerouteNo="0" devices="tripinfo_mixed.72" vType="moped" vaporized=""/>
    <tripinfo id="mixed.90" depart="149.00" departLane="beg_0" departPos="2.20" departSpeed="0.00" departDelay="59.00" arrival="285.00" arrivalLane="end_1" arrivalPos="200.00" arrivalSpeed="10.10" duration="136.00" routeLength="497.80" waitSteps="60" timeLoss="88.97" rerouteNo="0" devices="tripinfo_mixed.90" vType="moped" vaporized=""/>
    <tripinfo id="mixed.62" depart="102.00" departLane="beg_1" departPos="2.20" departSpeed="0.00" departDelay="40.00" arrival="286.00" arrivalLane="end_0" arrivalPos="200.00" arrivalSpeed="11.27" duration="184.00" routeLength="497.80" waitSteps="87" timeLoss="143.81" rerouteNo="0" devices="tripinfo_mixed.62" vType="moped" vaporized=""/>
    <tripinfo id="mixed.76" depart="128.00" departLane="beg_1" departPos="2.20" departSpeed="0.00" departDelay="52.00" arrival="287.00" arrivalLane="end_0" arrivalPos="200.00" arrivalSpeed="12.08" duration="159.00" routeLength="497.80" waitSteps="69" timeLoss="128.52" rerouteNo="0" devices="tripinfo_mixed.76" vType="moped" vaporized=""/>
    <tripinfo id="mixed.97" depart="162.00" departLane="beg_1" departPos="2.20" departSpeed="0.00" departDelay="65.00" arrival="287.00" arrivalLane="end_1" arrivalPos="200.00" arrivalSpeed="14.40" duration="125.00" routeLength="497.80" waitSteps="45" timeLoss="95.01" rerouteNo="0" devices="tripinfo_mixed.97" vType="moped" vaporized=""/>
    <tripinfo id="mixed.93" depart="156.00" departLane="beg_1" departPos="2.20" departSpeed="0.00" departDelay="63.00" arrival="288.00" arrivalLane="end_1" arrivalPos="200.00" arrivalSpeed="7.39" duration="132.00" routeLength="497.80" waitSteps="50" timeLoss="64.66" rerouteNo="0" devices="tripinfo_mixed.93" vType="moped" vaporized=""/>