<?xml version="1.0" encoding="UTF-8"?>

<!-- generated on Wed Sep 27 13:34:30 2017 by SUMO Version dev-SVN-r26249
<?xml version="1.0" encoding="UTF-8"?>

<configuration xmlns:xsi="http://www.w3.org/2001/XMLSchema-instance" xsi:noNamespaceSchemaLocation="http://sumo.dlr.de/xsd/sumoConfiguration.xsd">

    <input>
        <net-file value="net.net.xml"/>
        <route-files value="input_routes.rou.xml"/>
    </input>

    <output>
        <tripinfo-output value="tripinfos.xml"/>
    </output>

    <processing>
        <lateral-resolution value="0.64"/>
    </processing>

    <report>
        <verbose value="true"/>
        <xml-validation value="never"/>
        <duration-log.statistics value="true"/>
        <no-step-log value="true"/>
    </report>

</configuration>
-->

<tripinfos xmlns:xsi="http://www.w3.org/2001/XMLSchema-instance" xsi:noNamespaceSchemaLocation="http://sumo.dlr.de/xsd/tripinfo_file.xsd">
    <tripinfo id="mixed.5" depart="9.00" departLane="beg_1" departPos="5.10" departPosLat="0.60" departSpeed="0.00" departDelay="4.00" arrival="217.00" arrivalLane="end_0" arrivalPos="200.00" arrivalPosLat="-0.70" arrivalSpeed="13.15" duration="208.00" routeLength="494.90" waitSteps="162" timeLoss="173.05" rerouteNo="0" devices="tripinfo_mixed.5" vType="car" speedFactor="1.03" vaporized=""/>
    <tripinfo id="mixed.3" depart="4.00" departLane="beg_1" departPos="2.20" departPosLat="-0.43" departSpeed="0.00" departDelay="1.00" arrival="221.00" arrivalLane="end_0" arrivalPos="200.00" arrivalPosLat="-1.20" arrivalSpeed="13.40" duration="217.00" routeLength="497.80" waitSteps="165" timeLoss="180.38" rerouteNo="0" devices="tripinfo_mixed.3" vType="moped" speedFactor="0.98" vaporized=""/>
    <tripinfo id="mixed.9" depart="11.00" departLane="beg_0" departPos="5.10" departPosLat="-0.55" departSpeed="0.00" departDelay="2.00" arrival="223.00" arrivalLane="end_0" arrivalPos="200.00" arrivalPosLat="0.18" arrivalSpeed="9.83" duration="212.00" routeLength="494.90" waitSteps="153" timeLoss="166.95" rerouteNo="0" devices="tripinfo_mixed.9" vType="car" speedFactor="0.80" vaporized=""/>
    <tripinfo id="mixed.13" depart="17.00" departLane="beg_0" departPos="2.20" departPosLat="-0.23" departSpeed="0.00" departDelay="4.00" arrival="223.00" arrivalLane="end_1" arrivalPos="200.00" arrivalPosLat="-0.56" arrivalSpeed="16.36" duration="206.00" routeLength="497.80" waitSteps="154" timeLoss="175.69" rerouteNo="0" devices="tripinfo_mixed.13" vType="moped" speedFactor="1.33" vaporized=""/>
    <tripinfo id="mixed.6" depart="6.00" departLane="beg_0" departPos="2.20" departPosLat="-0.40" departSpeed="0.00" departDelay="0.00" arrival="225.00" arrivalLane="end_0" arrivalPos="200.00" arrivalPosLat="0.68" arrivalSpeed="12.27" duration="219.00" routeLength="497.80" waitSteps="157" timeLoss="188.42" rerouteNo="0" devices="tripinfo_mixed.6" vType="moped" speedFactor="1.36" vaporized=""/>
    <tripinfo id="mixed.0" depart="0.00" departLane="beg_0" departPos="2.20" departPosLat="0.51" departSpeed="0.00" departDelay="0.00" arrival="225.00" arrivalLane="end_0" arrivalPos="200.00" arrivalPosLat="-1.20" arrivalSpeed="10.25" duration="225.00" routeLength="497.80" waitSteps="163" timeLoss="177.23" rerouteNo="0" devices="tripinfo_mixed.0" vType="moped" speedFactor="0.75" vaporized=""/>
    <tripinfo id="mixed.20" depart="25.00" departLane="beg_0" departPos="5.10" departPosLat="-0.52" departSpeed="0.00" departDelay="5.00" arrival="225.00" arrivalLane="end_1" arrivalPos="200.00" arrivalPosLat="-0.10" arrivalSpeed="16.72" duration="200.00" routeLength="494.90" waitSteps="150" timeLoss="171.33" rerouteNo="0" devices="tripinfo_mixed.20" vType="car" speedFactor="1.26" vaporized=""/>
    <tripinfo id="mixed.11" depart="15.00" departLane="beg_0" departPos="5.10" departPosLat="-0.54" departSpeed="0.00" departDelay="4.00" arrival="226.00" arrivalLane="end_0" arrivalPos="200.00" arrivalPosLat="0.58" arrivalSpeed="13.08" duration="211.00" routeLength="494.90" waitSteps="155" timeLoss="178.05" rerouteNo="0" devices="tripinfo_mixed.11" vType="car" speedFactor="1.08" vaporized=""/>
    <tripinfo id="mixed.7" depart="7.00" departLane="beg_0" departPos="2.20" departPosLat="0.75" departSpeed="0.00" departDelay="0.00" arrival="228.00" arrivalLane="end_0" arrivalPos="200.00" arrivalPosLat="-1.20" arrivalSpeed="9.29" duration="221.00" routeLength="497.80" waitSteps="154" timeLoss="168.99" rerouteNo="0" devices="tripinfo_mixed.7" vType="moped" speedFactor="0.69" vaporized=""/>
    <tripinfo id="mixed.14" depart="22.00" departLane="beg_1" departPos="2.20" departPosLat="-1.06" departSpeed="0.00" departDelay="8.00" arrival="228.00" arrivalLane="end_0" arrivalPos="200.00" arrivalPosLat="0.68" arrivalSpeed="12.86" duration="206.00" routeLength="497.80" waitSteps="149" timeLoss="171.22" rerouteNo="0" devices="tripinfo_mixed.14" vType="moped" speedFactor="1.04" vaporized=""/>
    <tripinfo id="mixed.15" depart="19.00" departLane="beg_0" departPos="2.20" departPosLat="-1.12" departSpeed="0.00" departDelay="4.00" arrival="228.00" arrivalLane="end_1" arrivalPos="200.00" arrivalPosLat="-0.60" arrivalSpeed="15.46" duration="209.00" routeLength="497.80" waitSteps="146" timeLoss="176.52" rerouteNo="0" devices="tripinfo_mixed.15" vType="moped" speedFactor="1.12" vaporized=""/>
    <tripinfo id="mixed.10" depart="19.00" departLane="beg_1" departPos="2.20" departPosLat="-0.69" departSpeed="0.00" departDelay="9.00" arrival="231.00" arrivalLane="end_0" arrivalPos="200.00" arrivalPosLat="-1.20" arrivalSpeed="9.50" duration="212.00" routeLength="497.80" waitSteps="147" timeLoss="161.27" rerouteNo="0" devices="tripinfo_mixed.10" vType="moped" speedFactor="0.71" vaporized=""/>
    <tripinfo id="mixed.18" depart="27.00" departLane="beg_1" departPos="5.10" departPosLat="-0.20" departSpeed="0.00" departDelay="9.00" arrival="231.00" arrivalLane="end_1" arrivalPos="200.00" arrivalPosLat="-0.06" arrivalSpeed="9.18" duration="204.00" routeLength="494.90" waitSteps="142" timeLoss="156.12" rerouteNo="0" devices="tripinfo_mixed.18" vType="car" speedFactor="0.75" vaporized=""/>
    <tripinfo id="mixed.25" depart="38.00" departLane="beg_1" departPos="5.10" departPosLat="-0.11" departSpeed="0.00" departDelay="13.00" arrival="232.00" arrivalLane="end_0" arrivalPos="200.00" arrivalPosLat="0.74" arrivalSpeed="12.53" duration="194.00" routeLength="494.90" waitSteps="137" timeLoss="155.07" rerouteNo="0" devices="tripinfo_mixed.25" vType="car" speedFactor="0.94" vaporized=""/>
    <tripinfo id="mixed.8" depart="16.00" departLane="beg_1" departPos="5.10" departPosLat="-0.19" departSpeed="0.00" departDelay="8.00" arrival="233.00" arrivalLane="end_0" arrivalPos="200.00" arrivalPosLat="0.64" arrivalSpeed="16.42" duration="217.00" routeLength="494.90" waitSteps="150" timeLoss="188.08" rerouteNo="0" devices="tripinfo_mixed.8" vType="car" speedFactor="1.25" vaporized=""/>
    <tripinfo id="mixed.24" depart="36.00" departLane="beg_0" departPos="2.20" departPosLat="-0.16" departSpeed="0.00" departDelay="12.00" arrival="233.00" arrivalLane="end_1" arrivalPos="200.00" arrivalPosLat="0.04" arrivalSpeed="10.92" duration="197.00" routeLength="497.80" waitSteps="136" timeLoss="160.08" rerouteNo="0" devices="tripinfo_mixed.24" vType="moped" speedFactor="0.98" vaporized=""/>
    <tripinfo id="mixed.4" depart="5.00" departLane="beg_1" departPos="2.20" departPosLat="0.93" departSpeed="0.00" departDelay="1.00" arrival="235.00" arrivalLane="end_0" arrivalPos="200.00" arrivalPosLat="-1.20" arrivalSpeed="7.56" duration="230.00" routeLength="497.80" waitSteps="152" timeLoss="164.07" rerouteNo="0" devices="tripinfo_mixed.4" vType="moped" speedFactor="0.54" vaporized=""/>
    <tripinfo id="mixed.17" depart="29.00" departLane="beg_0" departPos="5.10" departPosLat="0.15" departSpeed="0.00" departDelay="12.00" arrival="235.00" arrivalLane="end_0" arrivalPos="200.00" arrivalPosLat="0.64" arrivalSpeed="13.81" duration="206.00" routeLength="494.90" waitSteps="146" timeLoss="170.86" rerouteNo="0" devices="tripinfo_mixed.17" vType="car" speedFactor="1.02" vaporized=""/>
    <tripinfo id="mixed.30" depart="41.00" departLane="beg_0" departPos="2.20" departPosLat="0.71" departSpeed="0.00" departDelay="11.00" arrival="235.00" arrivalLane="end_1" arrivalPos="200.00" arrivalPosLat="-0.68" arrivalSpeed="11.82" duration="194.00" routeLength="497.80" waitSteps="128" timeLoss="161.22" rerouteNo="0" devices="tripinfo_mixed.30" vType="moped" speedFactor="1.12" vaporized=""/>
    <tripinfo id="mixed.26" depart="40.00" departLane="beg_1" departPos="2.20" departPosLat="-0.28" departSpeed="0.00" departDelay="14.00" arrival="235.00" arrivalLane="end_1" arrivalPos="200.00" arrivalPosLat="1.20" arrivalSpeed="11.64" duration="195.00" routeLength="497.80" waitSteps="133" timeLoss="160.97" rerouteNo="0" devices="tripinfo_mixed.26" vType="moped" speedFactor="1.08" vaporized=""/>
    <tripinfo id="mixed.36" depart="48.00" departLane="beg_0" departPos="2.20" departPosLat="0.70" departSpeed="0.00" departDelay="12.00" arrival="236.00" arrivalLane="end_1" arrivalPos="200.00" arrivalPosLat="-0.96" arrivalSpeed="11.79" duration="188.00" routeLength="497.80" waitSteps="124" timeLoss="157.71" rerouteNo="0" devices="tripinfo_mixed.36" vType="moped" speedFactor="1.68" vaporized=""/>
    <tripinfo id="mixed.31" depart="44.00" departLane="beg_1" departPos="2.20" departPosLat="1.02" departSpeed="0.00" departDelay="13.00" arrival="236.00" arrivalLane="end_1" arrivalPos="200.00" arrivalPosLat="0.68" arrivalSpeed="11.23" duration="192.00" routeLength="497.80" waitSteps="133" timeLoss="161.75" rerouteNo="0" devices="tripinfo_mixed.31" vType="moped" speedFactor="1.26" vaporized=""/>
    <tripinfo id="mixed.12" depart="12.00" departLane="beg_1" departPos="2.20" departPosLat="0.67" departSpeed="0.00" departDelay="0.00" arrival="237.00" arrivalLane="end_0" arrivalPos="200.00" arrivalPosLat="-1.20" arrivalSpeed="8.39" duration="225.00" routeLength="497.80" waitSteps="153" timeLoss="176.49" rerouteNo="0" devices="tripinfo_mixed.12" vType="moped" speedFactor="0.74" vaporized=""/>
    <tripinfo id="mixed.19" depart="30.00" departLane="beg_1" departPos="5.10" departPosLat="-0.14" departSpeed="0.00" departDelay="11.00" arrival="238.00" arrivalLane="end_0" arrivalPos="200.00" arrivalPosLat="0.10" arrivalSpeed="14.74" duration="208.00" routeLength="494.90" waitSteps="145" timeLoss="173.89" rerouteNo="0" devices="tripinfo_mixed.19" vType="car" speedFactor="1.06" vaporized=""/>
    <tripinfo id="mixed.37" depart="51.00" departLane="beg_1" departPos="2.20" departPosLat="-0.97" departSpeed="0.00" departDelay="14.00" arrival="238.00" arrivalLane="end_1" arrivalPos="200.00" arrivalPosLat="1.20" arrivalSpeed="13.92" duration="187.00" routeLength="497.80" waitSteps="130" timeLoss="155.97" rerouteNo="0" devices="tripinfo_mixed.37" vType="moped" speedFactor="1.19" vaporized=""/>
    <tripinfo id="mixed.32" depart="48.00" departLane="beg_1" departPos="5.10" departPosLat="-0.60" departSpeed="0.00" departDelay="16.00" arrival="238.00" arrivalLane="end_1" arrivalPos="200.00" arrivalPosLat="-0.70" arrivalSpeed="13.22" duration="190.00" routeLength="494.90" waitSteps="133" timeLoss="156.28" rerouteNo="0" devices="tripinfo_mixed.32" vType="car" speedFactor="1.08" vaporized=""/>
    <tripinfo id="mixed.35" depart="53.00" departLane="beg_1" departPos="2.20" departPosLat="-0.41" departSpeed="0.00" departDelay="18.00" arrival="239.00" arrivalLane="end_1" arrivalPos="200.00" arrivalPosLat="0.72" arrivalSpeed="13.47" duration="186.00" routeLength="497.80" waitSteps="129" timeLoss="155.56" rerouteNo="0" devices="tripinfo_mixed.35" vType="moped" speedFactor="1.25" vaporized=""/>
    <tripinfo id="mixed.22" depart="33.00" departLane="beg_1" departPos="2.20" departPosLat="0.88" departSpeed="0.00" departDelay="11.00" arrival="240.00" arrivalLane="end_0" arrivalPos="200.00" arrivalPosLat="1.36" arrivalSpeed="15.34" duration="207.00" routeLength="497.80" waitSteps="141" timeLoss="176.31" rerouteNo="0" devices="tripinfo_mixed.22" vType="moped" speedFactor="1.62" vaporized=""/>
    <tripinfo id="mixed.42" depart="64.00" departLane="beg_1" departPos="5.10" departPosLat="0.52" departSpeed="0.00" departDelay="22.00" arrival="241.00" arrivalLane="end_1" arrivalPos="200.00" arrivalPosLat="-0.06" arrivalSpeed="13.88" duration="177.00" routeLength="494.90" waitSteps="119" timeLoss="142.30" rerouteNo="0" devices="tripinfo_mixed.42" vType="car" speedFactor="1.05" vaporized=""/>
    <tripinfo id="mixed.39" depart="52.00" departLane="beg_0" departPos="2.20" departPosLat="0.10" departSpeed="0.00" departDelay="13.00" arrival="242.00" arrivalLane="end_0" arrivalPos="200.00" arrivalPosLat="0.44" arrivalSpeed="16.23" duration="190.00" routeLength="497.80" waitSteps="122" timeLoss="159.20" rerouteNo="0" devices="tripinfo_mixed.39" vType="moped" speedFactor="1.40" vaporized=""/>
    <tripinfo id="mixed.27" depart="40.00" departLane="beg_1" departPos="2.20" departPosLat="0.72" departSpeed="0.00" departDelay="13.00" arrival="243.00" arrivalLane="end_0" arrivalPos="200.00" arrivalPosLat="-1.20" arrivalSpeed="10.54" duration="203.00" routeLength="497.80" waitSteps="132" timeLoss="155.33" rerouteNo="0" devices="tripinfo_mixed.27" vType="moped" speedFactor="0.76" vaporized=""/>
    <tripinfo id="mixed.44" depart="56.00" departLane="beg_1" departPos="2.20" departPosLat="-0.98" departSpeed="0.00" departDelay="12.00" arrival="243.00" arrivalLane="end_0" arrivalPos="200.00" arrivalPosLat="0.28" arrivalSpeed="16.30" duration="187.00" routeLength="497.80" waitSteps="121" timeLoss="156.65" rerouteNo="0" devices="tripinfo_mixed.44" vType="moped" speedFactor="1.48" vaporized=""/>
    <tripinfo id="mixed.43" depart="67.00" departLane="beg_1" departPos="5.10" departPosLat="-0.62" departSpeed="0.00" departDelay="24.00" arrival="244.00" arrivalLane="end_0" arrivalPos="200.00" arrivalPosLat="1.46" arrivalSpeed="12.88" duration="177.00" routeLength="494.90" waitSteps="119" timeLoss="140.61" rerouteNo="0" devices="tripinfo_mixed.43" vType="car" speedFactor="0.99" vaporized=""/>
    <tripinfo id="mixed.41" depart="56.00" departLane="beg_1" departPos="2.20" departPosLat="0.15" departSpeed="0.00" departDelay="15.00" arrival="246.00" arrivalLane="end_0" arrivalPos="200.00" arrivalPosLat="0.68" arrivalSpeed="11.27" duration="190.00" routeLength="497.80" waitSteps="120" timeLoss="147.46" rerouteNo="0" devices="tripinfo_mixed.41" vType="moped" speedFactor="0.85" vaporized=""/>
    <tripinfo id="mixed.56" depart="80.00" departLane="beg_0" departPos="5.10" departPosLat="-0.08" departSpeed="0.00" departDelay="24.00" arrival="246.00" arrivalLane="end_1" arrivalPos="200.00" arrivalPosLat="-0.70" arrivalSpeed="15.20" duration="166.00" routeLength="494.90" waitSteps="110" timeLoss="134.69" rerouteNo="0" devices="tripinfo_mixed.56" vType="car" speedFactor="1.17" vaporized=""/>
    <tripinfo id="mixed.16" depart="20.00" departLane="beg_0" departPos="2.20" departPosLat="0.94" departSpeed="0.00" departDelay="4.00" arrival="248.00" arrivalLane="end_0" arrivalPos="200.00" arrivalPosLat="-1.20" arrivalSpeed="7.57" duration="228.00" routeLength="497.80" waitSteps="141" timeLoss="163.01" rerouteNo="0" devices="tripinfo_mixed.16" vType="moped" speedFactor="0.56" vaporized=""/>
    <tripinfo id="mixed.23" depart="32.00" departLane="beg_0" departPos="2.20" departPosLat="1.15" departSpeed="0.00" departDelay="9.00" arrival="248.00" arrivalLane="end_0" arrivalPos="200.00" arrivalPosLat="0.68" arrivalSpeed="15.47" duration="216.00" routeLength="497.80" waitSteps="141" timeLoss="185.85" rerouteNo="0" devices="tripinfo_mixed.23" vType="moped" speedFactor="1.49" vaporized=""/>
    <tripinfo id="mixed.28" depart="41.00" departLane="beg_0" departPos="2.20" departPosLat="-1.00" departSpeed="0.00" departDelay="13.00" arrival="250.00" arrivalLane="end_0" arrivalPos="200.00" arrivalPosLat="0.60" arrivalSpeed="15.69" duration="209.00" routeLength="497.80" waitSteps="137" timeLoss="178.32" rerouteNo="0" devices="tripinfo_mixed.28" vType="moped" speedFactor="1.41" vaporized=""/>
    <tripinfo id="mixed.49" depart="68.00" departLane="beg_0" departPos="2.20" departPosLat="0.47" departSpeed="0.00" departDelay="19.00" arrival="250.00" arrivalLane="end_1" arrivalPos="200.00" arrivalPosLat="-0.60" arrivalSpeed="10.82" duration="182.00" routeLength="497.80" waitSteps="117" timeLoss="135.99" rerouteNo="0" devices="tripinfo_mixed.49" vType="moped" speedFactor="0.79" vaporized=""/>
    <tripinfo id="mixed.21" depart="45.00" departLane="beg_0" departPos="5.10" departPosLat="0.35" departSpeed="0.00" departDelay="24.00" arrival="253.00" arrivalLane="end_0" arrivalPos="200.00" arrivalPosLat="-0.70" arrivalSpeed="9.67" duration="208.00" routeLength="494.90" waitSteps="129" timeLoss="162.43" rerouteNo="0" devices="tripinfo_mixed.21" vType="car" speedFactor="0.79" vaporized=""/>
    <tripinfo id="mixed.51" depart="69.00" departLane="beg_1" departPos="2.20" departPosLat="0.04" departSpeed="0.00" departDelay="18.00" arrival="254.00" arrivalLane="end_1" arrivalPos="200.00" arrivalPosLat="-0.60" arrivalSpeed="9.35" duration="185.00" routeLength="497.80" waitSteps="116" timeLoss="133.86" rerouteNo="0" devices="tripinfo_mixed.51" vType="moped" speedFactor="0.71" vaporized=""/>
    <tripinfo id="mixed.46" depart="58.00" departLane="beg_0" departPos="2.20" departPosLat="0.15" departSpeed="0.00" departDelay="12.00" arrival="255.00" arrivalLane="end_0" arrivalPos="200.00" arrivalPosLat="0.08" arrivalSpeed="12.92" duration="197.00" routeLength="497.80" waitSteps="120" timeLoss="158.25" rerouteNo="0" devices="tripinfo_mixed.46" vType="moped" speedFactor="0.95" vaporized=""/>
    <tripinfo id="mixed.59" depart="84.00" departLane="beg_1" departPos="2.20" departPosLat="-0.63" departSpeed="0.00" departDelay="25.00" arrival="255.00" arrivalLane="end_1" arrivalPos="200.00" arrivalPosLat="-0.96" arrivalSpeed="10.45" duration="171.00" routeLength="497.80" waitSteps="105" timeLoss="140.87" rerouteNo="0" devices="tripinfo_mixed.59" vType="moped" speedFactor="1.33" vaporized=""/>
    <tripinfo id="mixed.47" depart="62.00" departLane="beg_0" departPos="2.20" departPosLat="1.13" departSpeed="0.00" departDelay="15.00" arrival="256.00" arrivalLane="end_0" arrivalPos="200.00" arrivalPosLat="0.68" arrivalSpeed="11.19" duration="194.00" routeLength="497.80" waitSteps="121" timeLoss="150.92" rerouteNo="0" devices="tripinfo_mixed.47" vType="moped" speedFactor="0.84" vaporized=""/>
    <tripinfo id="mixed.55" depart="76.00" departLane="beg_0" departPos="2.20" departPosLat="-0.04" departSpeed="0.00" departDelay="21.00" arrival="256.00" arrivalLane="end_1" arrivalPos="200.00" arrivalPosLat="0.68" arrivalSpeed="9.05" duration="180.00" routeLength="497.80" waitSteps="106" timeLoss="125.75" rerouteNo="0" devices="tripinfo_mixed.55" vType="moped" speedFactor="0.67" vaporized=""/>
    <tripinfo id="mixed.58" depart="91.00" departLane="beg_0" departPos="5.10" departPosLat="0.45" departSpeed="0.00" departDelay="33.00" arrival="257.00" arrivalLane="end_1" arrivalPos="200.00" arrivalPosLat="-1.10" arrivalSpeed="10.79" duration="166.00" routeLength="494.90" waitSteps="103" timeLoss="131.40" rerouteNo="0" devices="tripinfo_mixed.58" vType="car" speedFactor="1.03" vaporized=""/>
    <tripinfo id="mixed.69" depart="99.00" departLane="beg_1" departPos="5.10" departPosLat="0.16" departSpeed="0.00" departDelay="30.00" arrival="259.00" arrivalLane="end_0" arrivalPos="200.00" arrivalPosLat="0.58" arrivalSpeed="12.41" duration="160.00" routeLength="494.90" waitSteps="99" timeLoss="132.05" rerouteNo="0" devices="tripinfo_mixed.69" vType="car" speedFactor="1.28" vaporized=""/>
    <tripinfo id="mixed.63" depart="95.00" departLane="beg_1" departPos="2.20" departPosLat="-0.66" departSpeed="0.00" departDelay="32.00" arrival="260.00" arrivalLane="end_1" arrivalPos="200.00" arrivalPosLat="0.72" arrivalSpeed="10.66" duration="165.00" routeLength="497.80" waitSteps="98" timeLoss="118.08" rerouteNo="0" devices="tripinfo_mixed.63" vType="moped" speedFactor="0.77" vaporized=""/>
    <tripinfo id="mixed.1" depart="1.00" departLane="beg_1" departPos="2.20" departPosLat="0.22" departSpeed="0.00" departDelay="0.00" arrival="261.00" arrivalLane="end_0" arrivalPos="200.00" arrivalPosLat="-1.20" arrivalSpeed="4.43" duration="260.00" routeLength="497.80" waitSteps="144" timeLoss="158.81" rerouteNo="0" devices="tripinfo_mixed.1" vType="moped" speedFactor="0.36" vaporized=""/>
    <tripinfo id="mixed.50" depart="73.00" departLane="beg_0" departPos="5.10" departPosLat="0.27" departSpeed="0.00" departDelay="23.00" arrival="261.00" arrivalLane="end_0" arrivalPos="200.00" arrivalPosLat="0.96" arrivalSpeed="14.06" duration="188.00" routeLength="494.90" waitSteps="117" timeLoss="153.45" rerouteNo="0" devices="tripinfo_mixed.50" vType="car" speedFactor="1.04" vaporized=""/>
    <tripinfo id="mixed.71" depart="109.00" departLane="beg_0" departPos="2.20" departPosLat="0.82" departSpeed="0.00" departDelay="38.00" arrival="261.00" arrivalLane="end_1" arrivalPos="200.00" arrivalPosLat="-0.32" arrivalSpeed="12.12" duration="152.00" routeLength="497.80" waitSteps="90" timeLoss="121.61" rerouteNo="0" devices="tripinfo_mixed.71" vType="moped" speedFactor="1.58" vaporized=""/>
    <tripinfo id="mixed.74" depart="110.00" departLane="beg_1" departPos="2.20" departPosLat="0.62" departSpeed="0.00" departDelay="36.00" arrival="262.00" arrivalLane="end_1" arrivalPos="200.00" arrivalPosLat="1.20" arrivalSpeed="12.58" duration="152.00" routeLength="497.80" waitSteps="89" timeLoss="121.33" rerouteNo="0" devices="tripinfo_mixed.74" vType="moped" speedFactor="1.29" vaporized=""/>
    <tripinfo id="mixed.40" depart="59.00" departLane="beg_1" departPos="2.20" departPosLat="0.57" departSpeed="0.00" departDelay="19.00" arrival="263.00" arrivalLane="end_0" arrivalPos="200.00" arrivalPosLat="-1.20" arrivalSpeed="6.02" duration="204.00" routeLength="497.80" waitSteps="118" timeLoss="143.06" rerouteNo="0" devices="tripinfo_mixed.40" vType="moped" speedFactor="0.60" vaporized=""/>
    <tripinfo id="mixed.53" depart="77.00" departLane="beg_1" departPos="5.10" departPosLat="-0.63" departSpeed="0.00" departDelay="24.00" arrival="263.00" arrivalLane="end_0" arrivalPos="200.00" arrivalPosLat="0.74" arrivalSpeed="16.31" duration="186.00" routeLength="494.90" waitSteps="115" timeLoss="156.41" rerouteNo="0" devices="tripinfo_mixed.53" vType="car" speedFactor="1.24" vaporized=""/>
    <tripinfo id="mixed.61" depart="88.00" departLane="beg_1" departPos="2.20" departPosLat="0.98" departSpeed="0.00" departDelay="27.00" arrival="263.00" arrivalLane="end_1" arrivalPos="200.00" arrivalPosLat="0.04" arrivalSpeed="12.54" duration="175.00" routeLength="497.80" waitSteps="103" timeLoss="135.39" rerouteNo="0" devices="tripinfo_mixed.61" vType="moped" speedFactor="0.92" vaporized=""/>
    <tripinfo id="mixed.65" depart="97.00" departLane="beg_0" departPos="2.20" departPosLat="0.33" departSpeed="0.00" departDelay="32.00" arrival="264.00" arrivalLane="end_1" arrivalPos="200.00" arrivalPosLat="-1.20" arrivalSpeed="14.86" duration="167.00" routeLength="497.80" waitSteps="97" timeLoss="136.95" rerouteNo="0" devices="tripinfo_mixed.65" vType="moped" speedFactor="1.21" vaporized=""/>
    <tripinfo id="mixed.60" depart="87.00" departLane="beg_0" departPos="2.20" departPosLat="-0.59" departSpeed="0.00" departDelay="27.00" arrival="265.00" arrivalLane="end_0" arrivalPos="200.00" arrivalPosLat="0.60" arrivalSpeed="12.11" duration="178.00" routeLength="497.80" waitSteps="106" timeLoss="137.62" rerouteNo="0" devices="tripinfo_mixed.60" vType="moped" speedFactor="0.90" vaporized=""/>
    <tripinfo id="mixed.67" depart="108.00" departLane="beg_1" departPos="5.10" departPosLat="-0.57" departSpeed="0.00" departDelay="41.00" arrival="268.00" arrivalLane="end_1" arrivalPos="200.00" arrivalPosLat="-0.10" arrivalSpeed="9.06" duration="160.00" routeLength="494.90" waitSteps="92" timeLoss="110.44" rerouteNo="0" devices="tripinfo_mixed.67" vType="car" speedFactor="0.72" vaporized=""/>
    <tripinfo id="mixed.38" depart="55.00" departLane="beg_0" departPos="2.20" departPosLat="-1.10" departSpeed="0.00" departDelay="17.00" arrival="269.00" arrivalLane="end_0" arrivalPos="200.00" arrivalPosLat="0.72" arrivalSpeed="9.68" duration="214.00" routeLength="497.80" waitSteps="124" timeLoss="178.41" rerouteNo="0" devices="tripinfo_mixed.38" vType="moped" speedFactor="1.01" vaporized=""/>
    <tripinfo id="mixed.83" depart="125.00" departLane="beg_1" departPos="2.20" departPosLat="-0.63" departSpeed="0.00" departDelay="42.00" arrival="270.00" arrivalLane="end_1" arrivalPos="200.00" arrivalPosLat="1.20" arrivalSpeed="10.58" duration="145.00" routeLength="497.80" waitSteps="78" timeLoss="103.90" rerouteNo="0" devices="tripinfo_mixed.83" vType="moped" speedFactor="0.88" vaporized=""/>
    <tripinfo id="mixed.79" depart="118.00" departLane="beg_0" departPos="5.10" departPosLat="-0.50" departSpeed="0.00" departDelay="39.00" arrival="270.00" arrivalLane="end_1" arrivalPos="200.00" arrivalPosLat="-0.70" arrivalSpeed="12.20" duration="152.00" routeLength="494.90" waitSteps="86" timeLoss="127.84" rerouteNo="0" devices="tripinfo_mixed.79" vType="car" speedFactor="1.50" vaporized=""/>
    <tripinfo id="mixed.2" depart="2.00" departLane="beg_0" departPos="2.20" departPosLat="0.11" departSpeed="0.00" departDelay="0.00" arrival="271.00" arrivalLane="end_0" arrivalPos="200.00" arrivalPosLat="-1.20" arrivalSpeed="4.49" duration="269.00" routeLength="497.80" waitSteps="142" timeLoss="157.66" rerouteNo="0" devices="tripinfo_mixed.2" vType="moped" speedFactor="0.32" vaporized=""/>
    <tripinfo id="mixed.45" depart="65.00" departLane="beg_0" departPos="2.20" departPosLat="0.97" departSpeed="0.00" departDelay="20.00" arrival="271.00" arrivalLane="end_0" arrivalPos="200.00" arrivalPosLat="0.96" arrivalSpeed="10.19" duration="206.00" routeLength="497.80" waitSteps="120" timeLoss="169.34" rerouteNo="0" devices="tripinfo_mixed.45" vType="moped" speedFactor="0.99" vaporized=""/>
    <tripinfo id="mixed.87" depart="126.00" departLane="beg_1" departPos="2.20" departPosLat="0.95" departSpeed="0.00" departDelay="39.00" arrival="272.00" arrivalLane="end_1" arrivalPos="200.00" arrivalPosLat="0.72" arrivalSpeed="11.45" duration="146.00" routeLength="497.80" waitSteps="77" timeLoss="105.51" rerouteNo="0" devices="tripinfo_mixed.87" vType="moped" speedFactor="0.91" vaporized=""/>
    <tripinfo id="mixed.33" depart="48.00" departLane="beg_0" departPos="2.20" departPosLat="-1.18" departSpeed="0.00" departDelay="15.00" arrival="273.00" arrivalLane="end_0" arrivalPos="200.00" arrivalPosLat="-0.20" arrivalSpeed="5.67" duration="225.00" routeLength="497.80" waitSteps="125" timeLoss="180.08" rerouteNo="0" devices="tripinfo_mixed.33" vType="moped" speedFactor="0.81" vaporized=""/>
    <tripinfo id="mixed.48" depart="67.00" departLane="beg_0" departPos="2.20" departPosLat="-0.91" departSpeed="0.00" departDelay="19.00" arrival="273.00" arrivalLane="end_0" arrivalPos="200.00" arrivalPosLat="1.32" arrivalSpeed="8.54" duration="206.00" routeLength="497.80" waitSteps="117" timeLoss="148.12" rerouteNo="0" devices="tripinfo_mixed.48" vType="moped" speedFactor="0.63" vaporized=""/>
    <tripinfo id="mixed.89" depart="130.00" departLane="beg_1" departPos="2.20" departPosLat="0.25" departSpeed="0.00" departDelay="41.00" arrival="273.00" arrivalLane="end_1" arrivalPos="200.00" arrivalPosLat="0.72" arrivalSpeed="11.73" duration="143.00" routeLength="497.80" waitSteps="77" timeLoss="110.77" rerouteNo="0" devices="tripinfo_mixed.89" vType="moped" speedFactor="1.13" vaporized=""/>
    <tripinfo id="mixed.34" depart="51.00" departLane="beg_0" departPos="2.20" departPosLat="-0.10" departSpeed="0.00" departDelay="17.00" arrival="275.00" arrivalLane="end_0" arrivalPos="200.00" arrivalPosLat="-0.68" arrivalSpeed="5.81" duration="224.00" routeLength="497.80" waitSteps="124" timeLoss="152.63" rerouteNo="0" devices="tripinfo_mixed.34" vType="moped" speedFactor="0.51" vaporized=""/>
    <tripinfo id="mixed.68" depart="92.00" departLane="beg_1" departPos="5.10" departPosLat="0.41" departSpeed="0.00" departDelay="24.00" arrival="275.00" arrivalLane="end_1" arrivalPos="200.00" arrivalPosLat="-1.60" arrivalSpeed="10.02" duration="183.00" routeLength="494.90" waitSteps="105" timeLoss="138.27" rerouteNo="0" devices="tripinfo_mixed.68" vType="car" speedFactor="0.81" vaporized=""/>
    <tripinfo id="mixed.93" depart="134.00" departLane="beg_1" departPos="5.10" departPosLat="0.22" departSpeed="0.00" departDelay="41.00" arrival="275.00" arrivalLane="end_1" arrivalPos="200.00" arrivalPosLat="0.70" arrivalSpeed="12.71" duration="141.00" routeLength="494.90" waitSteps="78" timeLoss="104.73" rerouteNo="0" devices="tripinfo_mixed.93" vType="car" speedFactor="1.01" vaporized=""/>
    <tripinfo id="mixed.62" depart="105.00" departLane="beg_1" departPos="5.10" departPosLat="0.28" departSpeed="0.00" departDelay="43.00" arrival="276.00" arrivalLane="end_0" arrivalPos="200.00" arrivalPosLat="1.38" arrivalSpeed="12.69" duration="171.00" routeLength="494.90" waitSteps="94" timeLoss="135.64" rerouteNo="0" devices="tripinfo_mixed.62" vType="car" speedFactor="1.01" vaporized=""/>
    <tripinfo id="mixed.94" depart="137.00" departLane="beg_1" departPos="5.10" departPosLat="0.42" departSpeed="0.00" departDelay="43.00" arrival="276.00" arrivalLane="end_1" arrivalPos="200.00" arrivalPosLat="0.70" arrivalSpeed="13.96" duration="139.00" routeLength="494.90" waitSteps="76" timeLoss="109.97" rerouteNo="0" devices="tripinfo_mixed.94" vType="car" speedFactor="1.24" vaporized=""/>