<?xml version="1.0" encoding="UTF-8"?>

<!-- generated on Fri May 13 13:08:46 2016 by SUMO Version dev-SVN-r20719
<?xml version="1.0" encoding="UTF-8"?>

<configuration xmlns:xsi="http://www.w3.org/2001/XMLSchema-instance" xsi:noNamespaceSchemaLocation="http://sumo.dlr.de/xsd/sumoConfiguration.xsd">

    <input>
        <net-file value="net2.net.xml"/>
        <route-files value="routes.rou.xml"/>
    </input>

    <output>
        <netstate-dump value="netstate_dump.xml"/>
    </output>

    <report>
        <xml-validation value="never"/>
        <no-step-log value="true"/>
    </report>

    <traci_server>
        <remote-port value="17013"/>
    </traci_server>

</configuration>
-->

<netstate xmlns:xsi="http://www.w3.org/2001/XMLSchema-instance" xsi:noNamespaceSchemaLocation="http://sumo.dlr.de/xsd/netstate_file.xsd">
    <timestep time="0.00">
        <edge id="SC">
            <lane id="SC_0">
                <vehicle id="VTD_EGO" pos="90.95" speed="0.00"/>
            </lane>
            <lane id="SC_1"/>
        </edge>
    </timestep>
    <timestep time="1.00">
        <edge id=":C_14">
            <lane id=":C_14_0">
                <vehicle id="VTD_EGO" pos="1.05" speed="0.00"/>
            </lane>
        </edge>
    </timestep>
    <timestep time="2.00">
        <edge id=":C_6">
            <lane id=":C_6_0">
                <vehicle id="VTD_EGO" pos="15.05" speed="0.00"/>
            </lane>
        </edge>
    </timestep>
    <timestep time="3.00">
        <edge id="CW">
            <lane id="CW_0"/>
            <lane id="CW_1">
                <vehicle id="VTD_EGO" pos="1.55" speed="2.60"/>
            </lane>
        </edge>
    </timestep>
    <timestep time="4.00">
        <edge id="CW">
            <lane id="CW_0"/>
            <lane id="CW_1">
                <vehicle id="VTD_EGO" pos="6.75" speed="5.20"/>
            </lane>
        </edge>
    </timestep>
    <timestep time="5.00">
        <edge id="CW">
            <lane id="CW_0"/>
            <lane id="CW_1">
                <vehicle id="VTD_EGO" pos="14.55" speed="7.80"/>
            </lane>
        </edge>
    </timestep>
    <timestep time="6.00">
        <edge id="CW">
            <lane id="CW_0"/>
            <lane id="CW_1">
                <vehicle id="VTD_EGO" pos="24.95" speed="10.40"/>
            </lane>
        </edge>
    </timestep>
    <timestep time="7.00">
        <edge id="CW">
            <lane id="CW_0"/>
            <lane id="CW_1">
                <vehicle id="VTD_EGO" pos="37.95" speed="13.00"/>
            </lane>
        </edge>
    </timestep>
    <timestep time="8.00">
        <edge id="CW">
            <lane id="CW_0"/>
            <lane id="CW_1">
                <vehicle id="VTD_EGO" pos="51.84" speed="13.89"/>
            </lane>
        </edge>
    </timestep>
</netstate>
