<?xml version="1.0" encoding="UTF-8"?>

<!-- generated on 2026-01-13T17:01:36.123560+01:00 by Eclipse SUMO sumo v1_25_0+0949-aa5a42a5b7b
This data file and the accompanying materials
are made available under the terms of the Eclipse Public License v2.0
which accompanies this distribution, and is available at
http://www.eclipse.org/legal/epl-v20.html
This file may also be made available under the following Secondary
Licenses when the conditions for such availability set forth in the Eclipse
Public License 2.0 are satisfied: GNU General Public License, version 2
or later which is available at
https://www.gnu.org/licenses/old-licenses/gpl-2.0-standalone.html
SPDX-License-Identifier: EPL-2.0 OR GPL-2.0-or-later
<sumoConfiguration xmlns:xsi="http://www.w3.org/2001/XMLSchema-instance" xsi:noNamespaceSchemaLocation="http://sumo.dlr.de/xsd/sumoConfiguration.xsd">

    <input>
        <net-file value="net.net.xml"/>
        <route-files value="input_routes.rou.xml"/>
    </input>

    <output>
        <write-license value="true"/>
        <fcd-output value="fcd.xml"/>
        <fcd-output.attributes value="pos,speed"/>
        <vehroute-output value="vehroutes.xml"/>
        <stop-output value="stopinfos.xml"/>
    </output>

    <processing>
        <default.speeddev value="0"/>
    </processing>

    <report>
        <xml-validation value="never"/>
        <duration-log.disable value="true"/>
        <no-step-log value="true"/>
    </report>

</sumoConfiguration>
-->

<fcd-export xmlns:xsi="http://www.w3.org/2001/XMLSchema-instance" xsi:noNamespaceSchemaLocation="http://sumo.dlr.de/xsd/fcd_file.xsd">
    <timestep time="0.00"/>
    <timestep time="1.00"/>
    <timestep time="2.00"/>
    <timestep time="3.00"/>
    <timestep time="4.00"/>
    <timestep time="5.00"/>
    <timestep time="6.00"/>
    <timestep time="7.00"/>
    <timestep time="8.00"/>
    <timestep time="9.00"/>
    <timestep time="10.00"/>
    <timestep time="11.00"/>
    <timestep time="12.00"/>
    <timestep time="13.00"/>
    <timestep time="14.00"/>
    <timestep time="15.00"/>
    <timestep time="16.00"/>
    <timestep time="17.00"/>
    <timestep time="18.00"/>
    <timestep time="19.00"/>
    <timestep time="20.00">
        <vehicle id="veh0" speed="0.00" pos="0.00"/>
    </timestep>
    <timestep time="21.00">
        <vehicle id="veh0" speed="1.00" pos="1.00"/>
    </timestep>
    <timestep time="22.00">
        <vehicle id="veh0" speed="2.00" pos="3.00"/>
    </timestep>
    <timestep time="23.00">
        <vehicle id="veh0" speed="3.00" pos="6.00"/>
    </timestep>
    <timestep time="24.00">
        <vehicle id="veh0" speed="4.00" pos="10.00"/>
    </timestep>
    <timestep time="25.00">
        <vehicle id="veh0" speed="5.00" pos="15.00"/>
    </timestep>
    <timestep time="26.00">
        <vehicle id="veh0" speed="6.00" pos="21.00"/>
    </timestep>
    <timestep time="27.00">
        <vehicle id="veh0" speed="7.00" pos="28.00"/>
    </timestep>
    <timestep time="28.00">
        <vehicle id="veh0" speed="8.00" pos="36.00"/>
    </timestep>
    <timestep time="29.00">
        <vehicle id="veh0" speed="9.00" pos="45.00"/>
    </timestep>
    <timestep time="30.00">
        <vehicle id="veh0" speed="10.00" pos="55.00"/>
    </timestep>
    <timestep time="31.00">
        <vehicle id="veh0" speed="11.00" pos="66.00"/>
    </timestep>
    <timestep time="32.00">
        <vehicle id="veh0" speed="12.00" pos="78.00"/>
    </timestep>
    <timestep time="33.00">
        <vehicle id="veh0" speed="11.00" pos="89.00"/>
    </timestep>
    <timestep time="34.00">
        <vehicle id="veh0" speed="12.00" pos="0.90"/>
    </timestep>
    <timestep time="35.00">
        <vehicle id="veh0" speed="13.00" pos="13.90"/>
    </timestep>
    <timestep time="36.00">
        <vehicle id="veh0" speed="13.90" pos="27.80"/>
    </timestep>
    <timestep time="37.00">
        <vehicle id="veh0" speed="13.90" pos="41.70"/>
    </timestep>
    <timestep time="38.00">
        <vehicle id="veh0" speed="13.90" pos="55.60"/>
    </timestep>
    <timestep time="39.00">
        <vehicle id="veh0" speed="13.90" pos="69.50"/>
    </timestep>
    <timestep time="40.00">
        <vehicle id="veh0" speed="13.90" pos="83.40"/>
    </timestep>
    <timestep time="41.00">
        <vehicle id="veh0" speed="13.90" pos="97.30"/>
    </timestep>
    <timestep time="42.00"/>
</fcd-export>
