<?xml version="1.0" encoding="UTF-8"?>

<!-- generated on Mon Nov 19 11:03:11 2018 by Eclipse SUMO Version v1_0_1+0645-93703db
This data file and the accompanying materials
are made available under the terms of the Eclipse Public License v2.0
which accompanies this distribution, and is available at
http://www.eclipse.org/legal/epl-v20.html
SPDX-License-Identifier: EPL-2.0
<configuration xmlns:xsi="http://www.w3.org/2001/XMLSchema-instance" xsi:noNamespaceSchemaLocation="http://sumo.dlr.de/xsd/sumoConfiguration.xsd">

    <input>
        <net-file value="net.net.xml"/>
        <route-files value="input_routes.rou.xml"/>
        <additional-files value="input_additional.add.xml"/>
    </input>

    <output>
        <write-license value="true"/>
        <fcd-output value="fcd.xml"/>
    </output>

    <time>
        <step-length value="0.5"/>
    </time>

    <processing>
        <lanechange.duration value="12"/>
        <default.speeddev value="0"/>
    </processing>

    <report>
        <xml-validation value="never"/>
        <duration-log.disable value="true"/>
        <no-step-log value="true"/>
    </report>

    <gui_only>
        <tracker-interval value="0.5"/>
    </gui_only>

</configuration>
-->

<fcd-export xmlns:xsi="http://www.w3.org/2001/XMLSchema-instance" xsi:noNamespaceSchemaLocation="http://sumo.dlr.de/xsd/fcd_file.xsd">
    <timestep time="0.00">
        <vehicle id="v0" x="256.60" y="495.05" angle="90.00" type="DEFAULT_VEHTYPE" speed="0.00" pos="5.10" lane="1si_0" slope="0.00"/>
    </timestep>
    <timestep time="0.50">
        <vehicle id="v0" x="257.25" y="495.05" angle="90.00" type="DEFAULT_VEHTYPE" speed="1.30" pos="5.75" lane="1si_0" slope="0.00"/>
    </timestep>
    <timestep time="1.00">
        <vehicle id="v0" x="258.55" y="495.05" angle="90.00" type="DEFAULT_VEHTYPE" speed="2.60" pos="7.05" lane="1si_0" slope="0.00"/>
    </timestep>
    <timestep time="1.50">
        <vehicle id="v0" x="260.50" y="495.05" angle="90.00" type="DEFAULT_VEHTYPE" speed="3.90" pos="9.00" lane="1si_0" slope="0.00"/>
    </timestep>
    <timestep time="2.00">
        <vehicle id="v0" x="263.10" y="495.05" angle="90.00" type="DEFAULT_VEHTYPE" speed="5.20" pos="11.60" lane="1si_0" slope="0.00"/>
    </timestep>
    <timestep time="2.50">
        <vehicle id="v0" x="266.35" y="495.05" angle="90.00" type="DEFAULT_VEHTYPE" speed="6.50" pos="14.85" lane="1si_0" slope="0.00"/>
    </timestep>
    <timestep time="3.00">
        <vehicle id="v0" x="270.25" y="495.05" angle="90.00" type="DEFAULT_VEHTYPE" speed="7.80" pos="18.75" lane="1si_0" slope="0.00"/>
    </timestep>
    <timestep time="3.50">
        <vehicle id="v0" x="274.80" y="495.05" angle="90.00" type="DEFAULT_VEHTYPE" speed="9.10" pos="23.30" lane="1si_0" slope="0.00"/>
    </timestep>
    <timestep time="4.00">
        <vehicle id="v0" x="280.00" y="495.05" angle="90.00" type="DEFAULT_VEHTYPE" speed="10.40" pos="28.50" lane="1si_0" slope="0.00"/>
    </timestep>
    <timestep time="4.50">
        <vehicle id="v0" x="285.85" y="495.05" angle="90.00" type="DEFAULT_VEHTYPE" speed="11.70" pos="34.35" lane="1si_0" slope="0.00"/>
    </timestep>
    <timestep time="5.00">
        <vehicle id="v0" x="292.35" y="495.05" angle="90.00" type="DEFAULT_VEHTYPE" speed="13.00" pos="40.85" lane="1si_0" slope="0.00"/>
    </timestep>
    <timestep time="5.50">
        <vehicle id="v0" x="299.30" y="495.05" angle="90.00" type="DEFAULT_VEHTYPE" speed="13.89" pos="47.80" lane="1si_0" slope="0.00"/>
    </timestep>
    <timestep time="6.00">
        <vehicle id="v0" x="306.24" y="495.05" angle="90.00" type="DEFAULT_VEHTYPE" speed="13.89" pos="54.74" lane="1si_0" slope="0.00"/>
    </timestep>
    <timestep time="6.50">
        <vehicle id="v0" x="313.19" y="495.05" angle="90.00" type="DEFAULT_VEHTYPE" speed="13.89" pos="61.69" lane="1si_0" slope="0.00"/>
    </timestep>
    <timestep time="7.00">
        <vehicle id="v0" x="320.13" y="495.05" angle="90.00" type="DEFAULT_VEHTYPE" speed="13.89" pos="68.63" lane="1si_0" slope="0.00"/>
    </timestep>
    <timestep time="7.50">
        <vehicle id="v0" x="327.07" y="495.05" angle="90.00" type="DEFAULT_VEHTYPE" speed="13.89" pos="75.57" lane="1si_0" slope="0.00"/>
    </timestep>
    <timestep time="8.00">
        <vehicle id="v0" x="334.02" y="495.05" angle="90.00" type="DEFAULT_VEHTYPE" speed="13.89" pos="82.52" lane="1si_0" slope="0.00"/>
    </timestep>
    <timestep time="8.50">
        <vehicle id="v0" x="340.96" y="495.05" angle="90.00" type="DEFAULT_VEHTYPE" speed="13.89" pos="89.46" lane="1si_0" slope="0.00"/>
    </timestep>
    <timestep time="9.00">
        <vehicle id="v0" x="347.91" y="495.05" angle="90.00" type="DEFAULT_VEHTYPE" speed="13.89" pos="96.41" lane="1si_0" slope="0.00"/>
    </timestep>
    <timestep time="9.50">
        <vehicle id="v0" x="354.85" y="495.05" angle="90.00" type="DEFAULT_VEHTYPE" speed="13.89" pos="103.35" lane="1si_0" slope="0.00"/>
    </timestep>
    <timestep time="10.00">
        <vehicle id="v0" x="361.80" y="495.05" angle="90.00" type="DEFAULT_VEHTYPE" speed="13.89" pos="110.30" lane="1si_0" slope="0.00"/>
    </timestep>
    <timestep time="10.50">
        <vehicle id="v0" x="368.74" y="495.05" angle="90.00" type="DEFAULT_VEHTYPE" speed="13.89" pos="117.24" lane="1si_0" slope="0.00"/>
    </timestep>
    <timestep time="11.00">
        <vehicle id="v0" x="375.69" y="495.05" angle="90.00" type="DEFAULT_VEHTYPE" speed="13.89" pos="124.19" lane="1si_0" slope="0.00"/>
    </timestep>
    <timestep time="11.50">
        <vehicle id="v0" x="382.63" y="495.05" angle="90.00" type="DEFAULT_VEHTYPE" speed="13.89" pos="131.13" lane="1si_0" slope="0.00"/>
    </timestep>
    <timestep time="12.00">
        <vehicle id="v0" x="389.58" y="495.05" angle="90.00" type="DEFAULT_VEHTYPE" speed="13.89" pos="138.08" lane="1si_0" slope="0.00"/>
    </timestep>
    <timestep time="12.50">
        <vehicle id="v0" x="396.52" y="495.05" angle="90.00" type="DEFAULT_VEHTYPE" speed="13.89" pos="145.02" lane="1si_0" slope="0.00"/>
    </timestep>
    <timestep time="13.00">
        <vehicle id="v0" x="403.47" y="495.05" angle="90.00" type="DEFAULT_VEHTYPE" speed="13.89" pos="151.97" lane="1si_0" slope="0.00"/>
    </timestep>
    <timestep time="13.50">
        <vehicle id="v0" x="410.41" y="495.05" angle="90.00" type="DEFAULT_VEHTYPE" speed="13.89" pos="158.91" lane="1si_0" slope="0.00"/>
    </timestep>
    <timestep time="14.00">
        <vehicle id="v0" x="417.36" y="495.05" angle="90.00" type="DEFAULT_VEHTYPE" speed="13.89" pos="165.86" lane="1si_0" slope="0.00"/>
    </timestep>
    <timestep time="14.50">
        <vehicle id="v0" x="424.30" y="495.05" angle="90.00" type="DEFAULT_VEHTYPE" speed="13.89" pos="172.80" lane="1si_0" slope="0.00"/>
    </timestep>
    <timestep time="15.00">
        <vehicle id="v0" x="431.25" y="495.05" angle="90.00" type="DEFAULT_VEHTYPE" speed="13.89" pos="179.75" lane="1si_0" slope="0.00"/>
    </timestep>
    <timestep time="15.50">
        <vehicle id="v0" x="438.19" y="495.05" angle="90.00" type="DEFAULT_VEHTYPE" speed="13.89" pos="186.69" lane="1si_0" slope="0.00"/>
    </timestep>
    <timestep time="16.00">
        <vehicle id="v0" x="445.14" y="495.05" angle="90.00" type="DEFAULT_VEHTYPE" speed="13.89" pos="193.64" lane="1si_0" slope="0.00"/>
    </timestep>
    <timestep time="16.50">
        <vehicle id="v0" x="452.08" y="495.18" angle="89.79" type="DEFAULT_VEHTYPE" speed="13.89" pos="200.58" lane="1si_0" slope="0.00"/>
    </timestep>
    <timestep time="17.00">
        <vehicle id="v0" x="456.78" y="495.32" angle="89.58" type="DEFAULT_VEHTYPE" speed="9.39" pos="205.28" lane="1si_0" slope="0.00"/>
    </timestep>
    <timestep time="17.50">
        <vehicle id="v0" x="459.22" y="495.45" angle="89.38" type="DEFAULT_VEHTYPE" speed="4.89" pos="207.72" lane="1si_0" slope="0.00"/>
    </timestep>
    <timestep time="18.00">
        <vehicle id="v0" x="460.62" y="495.58" angle="89.17" type="DEFAULT_VEHTYPE" speed="2.79" pos="209.12" lane="1si_0" slope="0.00"/>
    </timestep>
    <timestep time="18.50">
        <vehicle id="v0" x="462.02" y="495.72" angle="88.96" type="DEFAULT_VEHTYPE" speed="2.79" pos="210.52" lane="1si_0" slope="0.00"/>
    </timestep>
    <timestep time="19.00">
        <vehicle id="v0" x="463.41" y="495.85" angle="88.75" type="DEFAULT_VEHTYPE" speed="2.79" pos="211.91" lane="1si_0" slope="0.00"/>
    </timestep>
    <timestep time="19.50">
        <vehicle id="v0" x="464.81" y="495.98" angle="88.54" type="DEFAULT_VEHTYPE" speed="2.79" pos="213.31" lane="1si_0" slope="0.00"/>
    </timestep>
    <timestep time="20.00">
        <vehicle id="v0" x="466.21" y="496.12" angle="88.33" type="DEFAULT_VEHTYPE" speed="2.79" pos="214.71" lane="1si_0" slope="0.00"/>
    </timestep>
    <timestep time="20.50">
        <vehicle id="v0" x="467.60" y="496.25" angle="88.12" type="DEFAULT_VEHTYPE" speed="2.79" pos="216.10" lane="1si_0" slope="0.00"/>
    </timestep>
    <timestep time="21.00">
        <vehicle id="v0" x="469.00" y="496.38" angle="87.92" type="DEFAULT_VEHTYPE" speed="2.79" pos="217.50" lane="1si_0" slope="0.00"/>
    </timestep>
    <timestep time="21.50">
        <vehicle id="v0" x="470.40" y="496.52" angle="87.71" type="DEFAULT_VEHTYPE" speed="2.79" pos="218.90" lane="1si_0" slope="0.00"/>
    </timestep>
    <timestep time="22.00">
        <vehicle id="v0" x="471.79" y="496.75" angle="87.50" type="DEFAULT_VEHTYPE" speed="2.79" pos="220.29" lane="1si_1" slope="0.00"/>
    </timestep>
    <timestep time="22.50">
        <vehicle id="v0" x="473.19" y="496.88" angle="87.71" type="DEFAULT_VEHTYPE" speed="2.79" pos="221.69" lane="1si_1" slope="0.00"/>
    </timestep>
    <timestep time="23.00">
        <vehicle id="v0" x="474.59" y="497.02" angle="87.92" type="DEFAULT_VEHTYPE" speed="2.79" pos="223.09" lane="1si_1" slope="0.00"/>
    </timestep>
    <timestep time="23.50">
        <vehicle id="v0" x="475.98" y="497.15" angle="88.12" type="DEFAULT_VEHTYPE" speed="2.79" pos="224.48" lane="1si_1" slope="0.00"/>
    </timestep>
    <timestep time="24.00">
        <vehicle id="v0" x="477.38" y="497.28" angle="88.33" type="DEFAULT_VEHTYPE" speed="2.79" pos="225.88" lane="1si_1" slope="0.00"/>
    </timestep>
    <timestep time="24.50">
        <vehicle id="v0" x="478.78" y="497.42" angle="88.54" type="DEFAULT_VEHTYPE" speed="2.79" pos="227.28" lane="1si_1" slope="0.00"/>
    </timestep>
    <timestep time="25.00">
        <vehicle id="v0" x="480.17" y="497.55" angle="88.75" type="DEFAULT_VEHTYPE" speed="2.79" pos="228.67" lane="1si_1" slope="0.00"/>
    </timestep>
    <timestep time="25.50">
        <vehicle id="v0" x="481.57" y="497.68" angle="88.96" type="DEFAULT_VEHTYPE" speed="2.79" pos="230.07" lane="1si_1" slope="0.00"/>
    </timestep>
    <timestep time="26.00">
        <vehicle id="v0" x="483.61" y="497.82" angle="89.17" type="DEFAULT_VEHTYPE" speed="4.09" pos="232.11" lane="1si_1" slope="0.00"/>
    </timestep>
    <timestep time="26.50">
        <vehicle id="v0" x="486.31" y="497.95" angle="89.38" type="DEFAULT_VEHTYPE" speed="5.39" pos="234.81" lane="1si_1" slope="0.00"/>
    </timestep>
    <timestep time="27.00">
        <vehicle id="v0" x="489.66" y="498.08" angle="89.58" type="DEFAULT_VEHTYPE" speed="6.69" pos="1.01" lane=":0_16_0" slope="0.00"/>
    </timestep>
    <timestep time="27.50">
        <vehicle id="v0" x="493.65" y="498.22" angle="89.79" type="DEFAULT_VEHTYPE" speed="7.99" pos="5.00" lane=":0_16_0" slope="0.00"/>
    </timestep>
    <timestep time="28.00">
        <vehicle id="v0" x="498.30" y="498.35" angle="90.00" type="DEFAULT_VEHTYPE" speed="9.29" pos="9.65" lane=":0_16_0" slope="0.00"/>
    </timestep>
    <timestep time="28.50">
        <vehicle id="v0" x="503.60" y="498.35" angle="90.00" type="DEFAULT_VEHTYPE" speed="10.59" pos="14.95" lane=":0_16_0" slope="0.00"/>
    </timestep>
    <timestep time="29.00">
        <vehicle id="v0" x="509.54" y="498.35" angle="90.00" type="DEFAULT_VEHTYPE" speed="11.89" pos="20.89" lane=":0_16_0" slope="0.00"/>
    </timestep>
    <timestep time="29.50">
        <vehicle id="v0" x="515.10" y="498.35" angle="90.00" type="DEFAULT_VEHTYPE" speed="11.11" pos="3.75" lane="2o_1" slope="0.00"/>
    </timestep>
    <timestep time="30.00">
        <vehicle id="v0" x="520.65" y="498.35" angle="90.00" type="DEFAULT_VEHTYPE" speed="11.11" pos="9.30" lane="2o_1" slope="0.00"/>
    </timestep>
    <timestep time="30.50">
        <vehicle id="v0" x="526.21" y="498.35" angle="90.00" type="DEFAULT_VEHTYPE" speed="11.11" pos="14.86" lane="2o_1" slope="0.00"/>
    </timestep>
    <timestep time="31.00">
        <vehicle id="v0" x="531.76" y="498.35" angle="90.00" type="DEFAULT_VEHTYPE" speed="11.11" pos="20.41" lane="2o_1" slope="0.00"/>
    </timestep>
    <timestep time="31.50">
        <vehicle id="v0" x="537.32" y="498.35" angle="90.00" type="DEFAULT_VEHTYPE" speed="11.11" pos="25.97" lane="2o_1" slope="0.00"/>
    </timestep>
    <timestep time="32.00">
        <vehicle id="v0" x="542.87" y="498.35" angle="90.00" type="DEFAULT_VEHTYPE" speed="11.11" pos="31.52" lane="2o_1" slope="0.00"/>
    </timestep>
    <timestep time="32.50">
        <vehicle id="v0" x="548.43" y="498.35" angle="90.00" type="DEFAULT_VEHTYPE" speed="11.11" pos="37.08" lane="2o_1" slope="0.00"/>
    </timestep>
    <timestep time="33.00">
        <vehicle id="v0" x="553.98" y="498.35" angle="90.00" type="DEFAULT_VEHTYPE" speed="11.11" pos="42.63" lane="2o_1" slope="0.00"/>
    </timestep>
    <timestep time="33.50">
        <vehicle id="v0" x="559.54" y="498.35" angle="90.00" type="DEFAULT_VEHTYPE" speed="11.11" pos="48.19" lane="2o_1" slope="0.00"/>
    </timestep>
    <timestep time="34.00">
        <vehicle id="v0" x="565.09" y="498.35" angle="90.00" type="DEFAULT_VEHTYPE" speed="11.11" pos="53.74" lane="2o_1" slope="0.00"/>
    </timestep>
    <timestep time="34.50">
        <vehicle id="v0" x="570.65" y="498.35" angle="90.00" type="DEFAULT_VEHTYPE" speed="11.11" pos="59.30" lane="2o_1" slope="0.00"/>
    </timestep>
    <timestep time="35.00">
        <vehicle id="v0" x="576.20" y="498.35" angle="90.00" type="DEFAULT_VEHTYPE" speed="11.11" pos="64.85" lane="2o_1" slope="0.00"/>
    </timestep>
    <timestep time="35.50">
        <vehicle id="v0" x="581.76" y="498.35" angle="90.00" type="DEFAULT_VEHTYPE" speed="11.11" pos="70.41" lane="2o_1" slope="0.00"/>
    </timestep>
    <timestep time="36.00">
        <vehicle id="v0" x="587.31" y="498.35" angle="90.00" type="DEFAULT_VEHTYPE" speed="11.11" pos="75.96" lane="2o_1" slope="0.00"/>
    </timestep>
    <timestep time="36.50">
        <vehicle id="v0" x="592.87" y="498.35" angle="90.00" type="DEFAULT_VEHTYPE" speed="11.11" pos="81.52" lane="2o_1" slope="0.00"/>
    </timestep>
    <timestep time="37.00">
        <vehicle id="v0" x="598.42" y="498.35" angle="90.00" type="DEFAULT_VEHTYPE" speed="11.11" pos="87.07" lane="2o_1" slope="0.00"/>
    </timestep>
    <timestep time="37.50">
        <vehicle id="v0" x="603.98" y="498.35" angle="90.00" type="DEFAULT_VEHTYPE" speed="11.11" pos="92.63" lane="2o_1" slope="0.00"/>
    </timestep>
    <timestep time="38.00">
        <vehicle id="v0" x="609.53" y="498.35" angle="90.00" type="DEFAULT_VEHTYPE" speed="11.11" pos="98.18" lane="2o_1" slope="0.00"/>
    </timestep>
    <timestep time="38.50">
        <vehicle id="v0" x="615.09" y="498.35" angle="90.00" type="DEFAULT_VEHTYPE" speed="11.11" pos="103.74" lane="2o_1" slope="0.00"/>
    </timestep>
    <timestep time="39.00">
        <vehicle id="v0" x="620.64" y="498.35" angle="90.00" type="DEFAULT_VEHTYPE" speed="11.11" pos="109.29" lane="2o_1" slope="0.00"/>
    </timestep>
    <timestep time="39.50">
        <vehicle id="v0" x="626.20" y="498.35" angle="90.00" type="DEFAULT_VEHTYPE" speed="11.11" pos="114.85" lane="2o_1" slope="0.00"/>
    </timestep>
    <timestep time="40.00">
        <vehicle id="v0" x="631.75" y="498.35" angle="90.00" type="DEFAULT_VEHTYPE" speed="11.11" pos="120.40" lane="2o_1" slope="0.00"/>
    </timestep>
    <timestep time="40.50">
        <vehicle id="v0" x="637.31" y="498.35" angle="90.00" type="DEFAULT_VEHTYPE" speed="11.11" pos="125.96" lane="2o_1" slope="0.00"/>
    </timestep>
    <timestep time="41.00">
        <vehicle id="v0" x="642.86" y="498.35" angle="90.00" type="DEFAULT_VEHTYPE" speed="11.11" pos="131.51" lane="2o_1" slope="0.00"/>
    </timestep>
    <timestep time="41.50">
        <vehicle id="v0" x="648.42" y="498.35" angle="90.00" type="DEFAULT_VEHTYPE" speed="11.11" pos="137.07" lane="2o_1" slope="0.00"/>
    </timestep>
    <timestep time="42.00">
        <vehicle id="v0" x="653.97" y="498.35" angle="90.00" type="DEFAULT_VEHTYPE" speed="11.11" pos="142.62" lane="2o_1" slope="0.00"/>
    </timestep>
    <timestep time="42.50">
        <vehicle id="v0" x="659.53" y="498.35" angle="90.00" type="DEFAULT_VEHTYPE" speed="11.11" pos="148.18" lane="2o_1" slope="0.00"/>
    </timestep>
    <timestep time="43.00">
        <vehicle id="v0" x="665.08" y="498.35" angle="90.00" type="DEFAULT_VEHTYPE" speed="11.11" pos="153.73" lane="2o_1" slope="0.00"/>
    </timestep>
    <timestep time="43.50">
        <vehicle id="v0" x="670.64" y="498.35" angle="90.00" type="DEFAULT_VEHTYPE" speed="11.11" pos="159.29" lane="2o_1" slope="0.00"/>
    </timestep>
    <timestep time="44.00">
        <vehicle id="v0" x="676.19" y="498.35" angle="90.00" type="DEFAULT_VEHTYPE" speed="11.11" pos="164.84" lane="2o_1" slope="0.00"/>
    </timestep>
    <timestep time="44.50">
        <vehicle id="v0" x="681.75" y="498.35" angle="90.00" type="DEFAULT_VEHTYPE" speed="11.11" pos="170.40" lane="2o_1" slope="0.00"/>
    </timestep>
    <timestep time="45.00">
        <vehicle id="v0" x="687.30" y="498.35" angle="90.00" type="DEFAULT_VEHTYPE" speed="11.11" pos="175.95" lane="2o_1" slope="0.00"/>
    </timestep>
    <timestep time="45.50">
        <vehicle id="v0" x="692.86" y="498.35" angle="90.00" type="DEFAULT_VEHTYPE" speed="11.11" pos="181.51" lane="2o_1" slope="0.00"/>
    </timestep>
    <timestep time="46.00">
        <vehicle id="v0" x="698.41" y="498.35" angle="90.00" type="DEFAULT_VEHTYPE" speed="11.11" pos="187.06" lane="2o_1" slope="0.00"/>
    </timestep>
    <timestep time="46.50">
        <vehicle id="v0" x="703.97" y="498.35" angle="90.00" type="DEFAULT_VEHTYPE" speed="11.11" pos="192.62" lane="2o_1" slope="0.00"/>
    </timestep>
    <timestep time="47.00">
        <vehicle id="v0" x="709.52" y="498.35" angle="90.00" type="DEFAULT_VEHTYPE" speed="11.11" pos="198.17" lane="2o_1" slope="0.00"/>
    </timestep>
    <timestep time="47.50">
        <vehicle id="v0" x="715.08" y="498.35" angle="90.00" type="DEFAULT_VEHTYPE" speed="11.11" pos="203.73" lane="2o_1" slope="0.00"/>
    </timestep>
    <timestep time="48.00">
        <vehicle id="v0" x="720.63" y="498.35" angle="90.00" type="DEFAULT_VEHTYPE" speed="11.11" pos="209.28" lane="2o_1" slope="0.00"/>
    </timestep>
    <timestep time="48.50">
        <vehicle id="v0" x="726.19" y="498.35" angle="90.00" type="DEFAULT_VEHTYPE" speed="11.11" pos="214.84" lane="2o_1" slope="0.00"/>
    </timestep>
    <timestep time="49.00">
        <vehicle id="v0" x="731.74" y="498.35" angle="90.00" type="DEFAULT_VEHTYPE" speed="11.11" pos="220.39" lane="2o_1" slope="0.00"/>
    </timestep>
    <timestep time="49.50">
        <vehicle id="v0" x="737.30" y="498.35" angle="90.00" type="DEFAULT_VEHTYPE" speed="11.11" pos="225.95" lane="2o_1" slope="0.00"/>
    </timestep>
    <timestep time="50.00">
        <vehicle id="v0" x="742.85" y="498.35" angle="90.00" type="DEFAULT_VEHTYPE" speed="11.11" pos="231.50" lane="2o_1" slope="0.00"/>
    </timestep>
    <timestep time="50.50">
        <vehicle id="v0" x="748.41" y="498.35" angle="90.00" type="DEFAULT_VEHTYPE" speed="11.11" pos="237.06" lane="2o_1" slope="0.00"/>
    </timestep>
    <timestep time="51.00">
        <vehicle id="v0" x="753.96" y="498.35" angle="90.00" type="DEFAULT_VEHTYPE" speed="11.11" pos="242.61" lane="2o_1" slope="0.00"/>
    </timestep>
    <timestep time="51.50">
        <vehicle id="v0" x="759.52" y="498.35" angle="90.00" type="DEFAULT_VEHTYPE" speed="11.11" pos="248.17" lane="2o_1" slope="0.00"/>
    </timestep>
    <timestep time="52.00"/>
</fcd-export>
