<?xml version="1.0" encoding="UTF-8"?>

<!-- generated on 2021-11-23 12:57:37 by Eclipse SUMO sumo Version v1_11_0+0012-279bcfd
This data file and the accompanying materials
are made available under the terms of the Eclipse Public License v2.0
which accompanies this distribution, and is available at
http://www.eclipse.org/legal/epl-v20.html
SPDX-License-Identifier: EPL-2.0
<configuration xmlns:xsi="http://www.w3.org/2001/XMLSchema-instance" xsi:noNamespaceSchemaLocation="http://sumo.dlr.de/xsd/sumoConfiguration.xsd">

    <input>
        <net-file value="net2.net.xml"/>
        <route-files value="input_routes.rou.xml"/>
        <additional-files value="input_additional.add.xml"/>
    </input>

    <output>
        <write-license value="true"/>
    </output>

    <processing>
        <collision.check-junctions value="true"/>
        <default.speeddev value="0"/>
        <pedestrian.model value="nonInteracting"/>
    </processing>

    <report>
        <verbose value="true"/>
        <xml-validation value="never"/>
        <xml-validation.routes value="never"/>
        <duration-log.statistics value="true"/>
        <no-step-log value="true"/>
    </report>

    <mesoscopic>
        <mesosim value="true"/>
        <meso-junction-control value="true"/>
    </mesoscopic>

</configuration>
-->

<meandata xmlns:xsi="http://www.w3.org/2001/XMLSchema-instance" xsi:noNamespaceSchemaLocation="http://sumo.dlr.de/xsd/meandata_file.xsd">
    <interval begin="0.00" end="1029.00" id="cars">
        <edge id="CS" sampledSeconds="1265.02" traveltime="12.91" overlapTraveltime="13.63" density="13.72" laneDensity="6.86" occupancy="3.43" waitingTime="0.00" timeLoss="632.86" speed="6.94" speedRelative="0.50" departed="0" arrived="98" entered="98" left="0" laneChangedFrom="0" laneChangedTo="0"/>
        <edge id="CW" sampledSeconds="992.87" traveltime="11.96" overlapTraveltime="12.63" density="10.77" laneDensity="5.38" occupancy="2.69" waitingTime="0.00" timeLoss="457.47" speed="7.49" speedRelative="0.54" departed="0" arrived="83" entered="83" left="0" laneChangedFrom="0" laneChangedTo="0"/>
        <edge id="NC" sampledSeconds="750.42" traveltime="7.66" overlapTraveltime="8.08" density="8.14" laneDensity="4.07" occupancy="2.03" waitingTime="0.00" timeLoss="118.26" speed="11.70" speedRelative="0.84" departed="98" arrived="0" entered="0" left="98" laneChangedFrom="0" laneChangedTo="0"/>
        <edge id="SC" sampledSeconds="1688.55" traveltime="20.34" overlapTraveltime="21.48" density="18.31" laneDensity="9.16" occupancy="4.58" waitingTime="0.00" timeLoss="1153.14" speed="4.40" speedRelative="0.32" departed="83" arrived="0" entered="0" left="83" laneChangedFrom="0" laneChangedTo="0"/>
    </interval>
    <interval begin="0.00" end="1029.00" id="bikes">
        <edge id="CS" sampledSeconds="1645.06" traveltime="16.13" overlapTraveltime="16.42" density="17.84" laneDensity="8.92" occupancy="1.43" waitingTime="0.00" timeLoss="0.00" speed="5.56" speedRelative="0.40" departed="0" arrived="102" entered="102" left="0" laneChangedFrom="0" laneChangedTo="0"/>
        <edge id="CW" sampledSeconds="967.69" traveltime="16.13" overlapTraveltime="16.42" density="10.50" laneDensity="5.25" occupancy="0.84" waitingTime="0.00" timeLoss="0.01" speed="5.56" speedRelative="0.40" departed="0" arrived="60" entered="60" left="0" laneChangedFrom="0" laneChangedTo="0"/>
        <edge id="NC" sampledSeconds="1645.06" traveltime="16.13" overlapTraveltime="16.42" density="17.84" laneDensity="8.92" occupancy="1.43" waitingTime="0.00" timeLoss="0.00" speed="5.56" speedRelative="0.40" departed="102" arrived="0" entered="0" left="102" laneChangedFrom="0" laneChangedTo="0"/>
        <edge id="SC" sampledSeconds="2047.48" traveltime="34.12" overlapTraveltime="34.73" density="22.21" laneDensity="11.10" occupancy="1.78" waitingTime="0.00" timeLoss="1079.80" speed="2.63" speedRelative="0.19" departed="60" arrived="0" entered="0" left="60" laneChangedFrom="0" laneChangedTo="0"/>
    </interval>
</meandata>
