<?xml version="1.0" encoding="UTF-8"?>

<!-- generated on Wed Jan  3 09:20:50 2018 by SUMO Version v0_32_0+0043-24523c2
<?xml version="1.0" encoding="UTF-8"?>

<configuration xmlns:xsi="http://www.w3.org/2001/XMLSchema-instance" xsi:noNamespaceSchemaLocation="http://sumo.dlr.de/xsd/sumoConfiguration.xsd">

    <input>
        <net-file value="net3.net.xml"/>
        <route-files value="input_routes.rou.xml"/>
    </input>

    <output>
        <tripinfo-output value="tripinfos.xml"/>
    </output>

    <report>
        <xml-validation value="never"/>
        <duration-log.disable value="true"/>
        <no-step-log value="true"/>
    </report>

</configuration>
-->

<tripinfos xmlns:xsi="http://www.w3.org/2001/XMLSchema-instance" xsi:noNamespaceSchemaLocation="http://sumo.dlr.de/xsd/tripinfo_file.xsd">
    <tripinfo id="1" depart="0.00" departLane="SC_3" departPos="5.10" departSpeed="0.00" departDelay="0.00" arrival="55.00" arrivalLane="CE_3" arrivalPos="86.15" arrivalSpeed="13.87" duration="55.00" routeLength="174.95" waitingTime="33.00" stopTime="0.00" timeLoss="41.55" rerouteNo="0" devices="tripinfo_1" vType="DEFAULT_VEHTYPE" speedFactor="1.00" vaporized=""/>
    <tripinfo id="2" depart="3.00" departLane="SC_3" departPos="5.10" departSpeed="0.00" departDelay="3.00" arrival="58.00" arrivalLane="CE_3" arrivalPos="86.15" arrivalSpeed="13.13" duration="55.00" routeLength="174.95" waitingTime="31.00" stopTime="0.00" timeLoss="41.05" rerouteNo="0" devices="tripinfo_2" vType="DEFAULT_VEHTYPE" speedFactor="1.00" vaporized=""/>
    <tripinfo id="3" depart="6.00" departLane="SC_3" departPos="5.10" departSpeed="0.00" departDelay="6.00" arrival="60.00" arrivalLane="CE_3" arrivalPos="86.15" arrivalSpeed="13.45" duration="54.00" routeLength="174.95" waitingTime="28.00" stopTime="0.00" timeLoss="39.83" rerouteNo="0" devices="tripinfo_3" vType="DEFAULT_VEHTYPE" speedFactor="1.00" vaporized=""/>
    <tripinfo id="4" depart="9.00" departLane="SC_3" departPos="5.10" departSpeed="0.00" departDelay="9.00" arrival="63.00" arrivalLane="CE_3" arrivalPos="86.15" arrivalSpeed="13.58" duration="54.00" routeLength="174.95" waitingTime="28.00" stopTime="0.00" timeLoss="40.11" rerouteNo="0" devices="tripinfo_4" vType="DEFAULT_VEHTYPE" speedFactor="1.00" vaporized=""/>
    <tripinfo id="5" depart="12.00" departLane="SC_3" departPos="5.10" departSpeed="0.00" departDelay="12.00" arrival="65.00" arrivalLane="CE_3" arrivalPos="86.15" arrivalSpeed="13.04" duration="53.00" routeLength="174.95" waitingTime="27.00" stopTime="0.00" timeLoss="39.00" rerouteNo="0" devices="tripinfo_5" vType="DEFAULT_VEHTYPE" speedFactor="1.00" vaporized=""/>
</tripinfos>
