<?xml version="1.0" encoding="UTF-8"?>

<!-- generated on Fri Dec 18 21:42:55 2020 by Eclipse SUMO sumo Version v1_8_0+0336-8a5f057eb2
This data file and the accompanying materials
are made available under the terms of the Eclipse Public License v2.0
which accompanies this distribution, and is available at
http://www.eclipse.org/legal/epl-v20.html
SPDX-License-Identifier: EPL-2.0
<configuration xmlns:xsi="http://www.w3.org/2001/XMLSchema-instance" xsi:noNamespaceSchemaLocation="http://sumo.dlr.de/xsd/sumoConfiguration.xsd">

    <input>
        <net-file value="net2.net.xml"/>
        <additional-files value="input_routes.rou.xml,input_additional.add.xml"/>
    </input>

    <output>
        <write-license value="true"/>
    </output>

    <processing>
        <default.speeddev value="0"/>
        <pedestrian.model value="nonInteracting"/>
    </processing>

    <report>
        <xml-validation value="never"/>
        <xml-validation.routes value="never"/>
        <duration-log.disable value="true"/>
        <no-step-log value="true"/>
    </report>

    <mesoscopic>
        <mesosim value="true"/>
    </mesoscopic>

</configuration>
-->

<detector xmlns:xsi="http://www.w3.org/2001/XMLSchema-instance" xsi:noNamespaceSchemaLocation="http://sumo.dlr.de/xsd/det_e1meso_file.xsd">
    <interval begin="0.00" end="1.00" id="onJunction" sampledSeconds="0.00" departed="0" arrived="0" entered="0" left="0"/>
    <interval begin="1.00" end="2.00" id="onJunction" sampledSeconds="0.00" departed="0" arrived="0" entered="0" left="0"/>
    <interval begin="2.00" end="3.00" id="onJunction" sampledSeconds="0.00" departed="0" arrived="0" entered="0" left="0"/>
    <interval begin="3.00" end="4.00" id="onJunction" sampledSeconds="0.00" departed="0" arrived="0" entered="0" left="0"/>
    <interval begin="4.00" end="5.00" id="onJunction" sampledSeconds="0.00" departed="0" arrived="0" entered="0" left="0"/>
    <interval begin="5.00" end="6.00" id="onJunction" sampledSeconds="0.00" departed="0" arrived="0" entered="0" left="0"/>
    <interval begin="6.00" end="7.00" id="onJunction" sampledSeconds="0.00" departed="0" arrived="0" entered="0" left="0"/>
    <interval begin="7.00" end="8.00" id="onJunction" sampledSeconds="0.00" departed="0" arrived="0" entered="0" left="0"/>
    <interval begin="8.00" end="9.00" id="onJunction" sampledSeconds="0.00" departed="0" arrived="0" entered="0" left="0"/>
    <interval begin="9.00" end="10.00" id="onJunction" sampledSeconds="0.00" departed="0" arrived="0" entered="0" left="0"/>
    <interval begin="10.00" end="11.00" id="onJunction" sampledSeconds="0.00" departed="0" arrived="0" entered="0" left="0"/>
    <interval begin="11.00" end="12.00" id="onJunction" sampledSeconds="0.00" departed="0" arrived="0" entered="0" left="0"/>
    <interval begin="12.00" end="13.00" id="onJunction" sampledSeconds="0.00" departed="0" arrived="0" entered="0" left="0"/>
    <interval begin="13.00" end="14.00" id="onJunction" sampledSeconds="0.00" departed="0" arrived="0" entered="0" left="0"/>
    <interval begin="14.00" end="15.00" id="onJunction" sampledSeconds="0.00" departed="0" arrived="0" entered="0" left="0"/>
    <interval begin="15.00" end="16.00" id="onJunction" sampledSeconds="0.00" departed="0" arrived="0" entered="0" left="0"/>
    <interval begin="16.00" end="17.00" id="onJunction" sampledSeconds="0.00" departed="0" arrived="0" entered="0" left="0"/>
    <interval begin="17.00" end="18.00" id="onJunction" sampledSeconds="0.00" departed="0" arrived="0" entered="0" left="0"/>
    <interval begin="18.00" end="19.00" id="onJunction" sampledSeconds="0.00" departed="0" arrived="0" entered="0" left="0"/>
    <interval begin="19.00" end="20.00" id="onJunction" sampledSeconds="0.00" departed="0" arrived="0" entered="0" left="0"/>
</detector>
