<?xml version="1.0" encoding="UTF-8"?>

<!-- generated on Thu Jan 26 09:25:45 2017 by SUMO Version dev-SVN-r22703
<?xml version="1.0" encoding="UTF-8"?>

<configuration xmlns:xsi="http://www.w3.org/2001/XMLSchema-instance" xsi:noNamespaceSchemaLocation="http://sumo.dlr.de/xsd/sumoConfiguration.xsd">

    <input>
        <net-file value="net.net.xml"/>
        <route-files value="input_routes.rou.xml"/>
        <additional-files value="input_additional2.add.xml"/>
    </input>

    <output>
        <tripinfo-output value="tripinfos.xml"/>
    </output>

    <processing>
        <pedestrian.model value="nonInteracting"/>
    </processing>

    <report>
        <xml-validation value="never"/>
        <no-step-log value="true"/>
    </report>

</configuration>
-->

<tripinfos xmlns:xsi="http://www.w3.org/2001/XMLSchema-instance" xsi:noNamespaceSchemaLocation="http://sumo.dlr.de/xsd/tripinfo_file.xsd">
    <personinfo id="p0" depart="15.00">
        <walk arrival="23.00"/>
    </personinfo>
    <tripinfo id="car_NE" depart="10.00" departLane="NC_4" departPos="5.10" departSpeed="0.00" departDelay="0.00" arrival="55.00" arrivalLane="CE_4" arrivalPos="86.15" arrivalSpeed="13.89" duration="45.00" routeLength="175.85" waitSteps="24" timeLoss="30.34" rerouteNo="0" devices="tripinfo_car_NE" vType="car" speedFactor="1.00" vaporized=""/>
</tripinfos>
