<?xml version="1.0" encoding="UTF-8"?>

<!-- generated on 2024-05-05 23:37:08 by Eclipse SUMO sumo Version v1_19_0+2073-a7ccca7495b
This data file and the accompanying materials
are made available under the terms of the Eclipse Public License v2.0
which accompanies this distribution, and is available at
http://www.eclipse.org/legal/epl-v20.html
This file may also be made available under the following Secondary
Licenses when the conditions for such availability set forth in the Eclipse
Public License 2.0 are satisfied: GNU General Public License, version 2
or later which is available at
https://www.gnu.org/licenses/old-licenses/gpl-2.0-standalone.html
SPDX-License-Identifier: EPL-2.0 OR GPL-2.0-or-later
<configuration xmlns:xsi="http://www.w3.org/2001/XMLSchema-instance" xsi:noNamespaceSchemaLocation="http://sumo.dlr.de/xsd/sumoConfiguration.xsd">

    <input>
        <net-file value="net.net.xml"/>
        <route-files value="input_routes.rou.xml"/>
    </input>

    <output>
        <write-license value="true"/>
        <tripinfo-output value="tripinfos.xml"/>
    </output>

    <processing>
        <ignore-route-errors value="true"/>
        <default.speeddev value="0"/>
        <pedestrian.model value="striping"/>
        <pedestrian.striping.dawdling value="0.0"/>
    </processing>

    <report>
        <xml-validation value="never"/>
        <no-step-log value="true"/>
    </report>

</configuration>
-->

<tripinfos xmlns:xsi="http://www.w3.org/2001/XMLSchema-instance" xsi:noNamespaceSchemaLocation="http://sumo.dlr.de/xsd/tripinfo_file.xsd">
    <personinfo id="backward_backward" depart="0.00" type="DEFAULT_PEDTYPE" speedFactor="1.00" duration="19.00" waitingTime="0.00" timeLoss="-3.67" traveltime="19.00">
        <walk depart="0.00" departPos="0.00" arrival="19.00" arrivalPos="41.98" duration="19.00" routeLength="31.49" timeLoss="-3.67" maxSpeed="1.39"/>
    </personinfo>
    <personinfo id="backward_forward" depart="0.00" type="DEFAULT_PEDTYPE" speedFactor="1.00" duration="31.00" waitingTime="0.00" timeLoss="-3.44" traveltime="31.00">
        <walk depart="0.00" departPos="0.00" arrival="31.00" arrivalPos="41.98" duration="31.00" routeLength="47.83" timeLoss="-3.44" maxSpeed="1.39"/>
    </personinfo>
    <personinfo id="forward_backward" depart="0.00" type="DEFAULT_PEDTYPE" speedFactor="1.00" duration="290.00" waitingTime="0.00" timeLoss="-3.70" traveltime="290.00">
        <walk depart="0.00" departPos="0.00" arrival="290.00" arrivalPos="41.98" duration="290.00" routeLength="407.92" timeLoss="-3.70" maxSpeed="1.39"/>
    </personinfo>
    <personinfo id="forward_forward" depart="0.00" type="DEFAULT_PEDTYPE" speedFactor="1.00" duration="336.00" waitingTime="0.00" timeLoss="-3.29" traveltime="336.00">
        <walk depart="0.00" departPos="0.00" arrival="336.00" arrivalPos="41.98" duration="336.00" routeLength="471.23" timeLoss="-3.29" maxSpeed="1.39"/>
    </personinfo>
</tripinfos>
