<?xml version="1.0" encoding="UTF-8"?>

<!-- generated on Wed May  6 14:37:58 2020 by Eclipse SUMO Version v1_6_0+0116-fc17f5a0a5
This data file and the accompanying materials
are made available under the terms of the Eclipse Public License v2.0
which accompanies this distribution, and is available at
http://www.eclipse.org/legal/epl-v20.html
SPDX-License-Identifier: EPL-2.0
<configuration xmlns:xsi="http://www.w3.org/2001/XMLSchema-instance" xsi:noNamespaceSchemaLocation="http://sumo.dlr.de/xsd/sumoConfiguration.xsd">

    <input>
        <net-file value="net.net.xml"/>
        <route-files value="input_routes.rou.xml"/>
    </input>

    <output>
        <write-license value="true"/>
        <tripinfo-output value="tripinfos.xml"/>
        <railsignal-block-output value="railsignal_blocks.xml"/>
    </output>

    <processing>
        <default.speeddev value="0"/>
        <pedestrian.model value="nonInteracting"/>
    </processing>

    <routing>
        <device.rerouting.period value="10"/>
        <device.rerouting.adaptation-steps value="10"/>
    </routing>

    <report>
        <xml-validation value="never"/>
        <duration-log.disable value="true"/>
        <no-step-log value="true"/>
    </report>

    <mesoscopic>
        <mesosim value="true"/>
    </mesoscopic>

</configuration>
-->

<tripinfos xmlns:xsi="http://www.w3.org/2001/XMLSchema-instance" xsi:noNamespaceSchemaLocation="http://sumo.dlr.de/xsd/tripinfo_file.xsd">
    <tripinfo id="rail1" depart="10.00" departLane="" departPos="0.00" departSpeed="44.44" departDelay="0.00" arrival="95.00" arrivalLane="" arrivalPos="400.00" arrivalSpeed="44.44" duration="85.00" routeLength="3735.28" waitingTime="0.00" waitingCount="0" stopTime="0.00" timeLoss="0.00" rerouteNo="1" devices="tripinfo_rail1 routing_rail1" vType="rail_rail" speedFactor="1.00" vaporized=""/>
    <tripinfo id="rail2" depart="20.00" departLane="" departPos="0.00" departSpeed="44.44" departDelay="0.00" arrival="103.00" arrivalLane="" arrivalPos="400.00" arrivalSpeed="44.44" duration="83.00" routeLength="3670.66" waitingTime="0.00" waitingCount="0" stopTime="0.00" timeLoss="0.00" rerouteNo="1" devices="tripinfo_rail2 routing_rail2" vType="rail_rail" speedFactor="1.00" vaporized=""/>
    <tripinfo id="rail3" depart="42.00" departLane="" departPos="0.00" departSpeed="44.44" departDelay="0.00" arrival="127.00" arrivalLane="" arrivalPos="400.00" arrivalSpeed="44.44" duration="85.00" routeLength="3735.28" waitingTime="0.00" waitingCount="0" stopTime="0.00" timeLoss="0.00" rerouteNo="1" devices="tripinfo_rail3 routing_rail3" vType="rail_rail" speedFactor="1.00" vaporized=""/>
    <tripinfo id="rail4" depart="300.00" departLane="" departPos="0.00" departSpeed="44.44" departDelay="0.00" arrival="385.00" arrivalLane="" arrivalPos="400.00" arrivalSpeed="44.44" duration="85.00" routeLength="3735.28" waitingTime="0.00" waitingCount="0" stopTime="0.00" timeLoss="0.00" rerouteNo="1" devices="tripinfo_rail4 routing_rail4" vType="rail_rail" speedFactor="1.00" vaporized=""/>
    <tripinfo id="rail5" depart="350.00" departLane="" departPos="0.00" departSpeed="44.44" departDelay="0.00" arrival="435.00" arrivalLane="" arrivalPos="400.00" arrivalSpeed="44.44" duration="85.00" routeLength="3735.28" waitingTime="0.00" waitingCount="0" stopTime="0.00" timeLoss="0.00" rerouteNo="1" devices="tripinfo_rail5 routing_rail5" vType="rail_rail" speedFactor="1.00" vaporized=""/>
    <tripinfo id="rail6" depart="400.00" departLane="" departPos="0.00" departSpeed="44.44" departDelay="0.00" arrival="485.00" arrivalLane="" arrivalPos="400.00" arrivalSpeed="44.44" duration="85.00" routeLength="3735.28" waitingTime="0.00" waitingCount="0" stopTime="0.00" timeLoss="0.00" rerouteNo="1" devices="tripinfo_rail6 routing_rail6" vType="rail_rail" speedFactor="1.00" vaporized=""/>
</tripinfos>
