<?xml version="1.0" encoding="UTF-8"?>

<!-- generated on 2024-04-26 12:46:38 by Eclipse SUMO sumo Version v1_19_0+1947-e408924a531
This data file and the accompanying materials
are made available under the terms of the Eclipse Public License v2.0
which accompanies this distribution, and is available at
http://www.eclipse.org/legal/epl-v20.html
This file may also be made available under the following Secondary
Licenses when the conditions for such availability set forth in the Eclipse
Public License 2.0 are satisfied: GNU General Public License, version 2
or later which is available at
https://www.gnu.org/licenses/old-licenses/gpl-2.0-standalone.html
SPDX-License-Identifier: EPL-2.0 OR GPL-2.0-or-later
<configuration xmlns:xsi="http://www.w3.org/2001/XMLSchema-instance" xsi:noNamespaceSchemaLocation="http://sumo.dlr.de/xsd/sumoConfiguration.xsd">

    <input>
        <net-file value="net.net.xml"/>
        <route-files value="input_routes.rou.xml"/>
    </input>

    <output>
        <write-license value="true"/>
        <fcd-output value="fcd.xml"/>
        <fcd-output.attributes value="x,y"/>
        <tripinfo-output value="tripinfos.xml"/>
    </output>

    <processing>
        <default.speeddev value="0"/>
        <pedestrian.model value="striping"/>
        <pedestrian.striping.dawdling value="0.0"/>
    </processing>

    <report>
        <xml-validation value="never"/>
        <no-step-log value="true"/>
    </report>

</configuration>
-->

<fcd-export xmlns:xsi="http://www.w3.org/2001/XMLSchema-instance" xsi:noNamespaceSchemaLocation="http://sumo.dlr.de/xsd/fcd_file.xsd">
    <timestep time="0.00">
        <person id="p_0" x="-99.68" y="100.00"/>
    </timestep>
    <timestep time="1.00">
        <person id="p_0" x="-99.68" y="98.61"/>
    </timestep>
    <timestep time="2.00">
        <person id="p_0" x="-99.68" y="97.22"/>
    </timestep>
    <timestep time="3.00">
        <person id="p_0" x="-99.68" y="95.83"/>
    </timestep>
    <timestep time="4.00">
        <person id="p_0" x="-99.68" y="94.44"/>
    </timestep>
    <timestep time="5.00">
        <person id="p_0" x="-99.68" y="93.06"/>
    </timestep>
    <timestep time="6.00">
        <person id="p_0" x="-99.68" y="91.67"/>
    </timestep>
    <timestep time="7.00">
        <person id="p_0" x="-99.68" y="90.28"/>
    </timestep>
    <timestep time="8.00">
        <person id="p_0" x="-99.68" y="88.89"/>
    </timestep>
    <timestep time="9.00">
        <person id="p_0" x="-99.68" y="87.50"/>
    </timestep>
    <timestep time="10.00">
        <person id="p_0" x="-99.68" y="86.11"/>
    </timestep>
    <timestep time="11.00">
        <person id="p_0" x="-99.68" y="84.72"/>
    </timestep>
    <timestep time="12.00">
        <person id="p_0" x="-99.68" y="83.33"/>
    </timestep>
    <timestep time="13.00">
        <person id="p_0" x="-99.68" y="81.94"/>
    </timestep>
    <timestep time="14.00">
        <person id="p_0" x="-99.68" y="80.56"/>
    </timestep>
    <timestep time="15.00">
        <person id="p_0" x="-99.68" y="79.17"/>
    </timestep>
    <timestep time="16.00">
        <person id="p_0" x="-99.68" y="77.78"/>
    </timestep>
    <timestep time="17.00">
        <person id="p_0" x="-99.68" y="76.39"/>
    </timestep>
    <timestep time="18.00">
        <person id="p_0" x="-99.68" y="75.00"/>
    </timestep>
    <timestep time="19.00">
        <person id="p_0" x="-99.68" y="73.61"/>
    </timestep>
    <timestep time="20.00">
        <person id="p_0" x="-99.68" y="72.22"/>
    </timestep>
    <timestep time="21.00">
        <person id="p_0" x="-99.68" y="70.83"/>
    </timestep>
    <timestep time="22.00">
        <person id="p_0" x="-99.68" y="69.44"/>
    </timestep>
    <timestep time="23.00">
        <person id="p_0" x="-99.68" y="68.06"/>
    </timestep>
    <timestep time="24.00">
        <person id="p_0" x="-99.68" y="66.67"/>
    </timestep>
    <timestep time="25.00">
        <person id="p_0" x="-99.68" y="65.28"/>
    </timestep>
    <timestep time="26.00">
        <person id="p_0" x="-99.68" y="63.89"/>
    </timestep>
    <timestep time="27.00">
        <person id="p_0" x="-99.68" y="62.50"/>
    </timestep>
    <timestep time="28.00">
        <person id="p_0" x="-99.68" y="61.11"/>
    </timestep>
    <timestep time="29.00">
        <person id="p_0" x="-99.68" y="59.72"/>
    </timestep>
    <timestep time="30.00">
        <person id="p_0" x="-99.68" y="58.33"/>
    </timestep>
    <timestep time="31.00">
        <person id="p_0" x="-99.68" y="56.94"/>
    </timestep>
    <timestep time="32.00">
        <person id="p_0" x="-99.68" y="55.56"/>
    </timestep>
    <timestep time="33.00">
        <person id="p_0" x="-99.68" y="54.17"/>
    </timestep>
    <timestep time="34.00">
        <person id="p_0" x="-99.68" y="52.78"/>
    </timestep>
    <timestep time="35.00">
        <person id="p_0" x="-99.68" y="51.39"/>
    </timestep>
    <timestep time="36.00">
        <person id="p_0" x="-99.68" y="50.00"/>
    </timestep>
    <timestep time="37.00">
        <person id="p_0" x="-99.68" y="48.61"/>
    </timestep>
    <timestep time="38.00">
        <person id="p_0" x="-99.68" y="47.22"/>
    </timestep>
    <timestep time="39.00">
        <person id="p_0" x="-99.68" y="45.83"/>
    </timestep>
    <timestep time="40.00">
        <person id="p_0" x="-99.68" y="44.44"/>
    </timestep>
    <timestep time="41.00">
        <person id="p_0" x="-99.68" y="43.06"/>
    </timestep>
    <timestep time="42.00">
        <person id="p_0" x="-99.68" y="41.67"/>
    </timestep>
    <timestep time="43.00">
        <person id="p_0" x="-99.68" y="40.28"/>
    </timestep>
    <timestep time="44.00">
        <person id="p_0" x="-99.68" y="38.89"/>
    </timestep>
    <timestep time="45.00">
        <person id="p_0" x="-99.68" y="37.50"/>
    </timestep>
    <timestep time="46.00">
        <person id="p_0" x="-99.68" y="36.11"/>
    </timestep>
    <timestep time="47.00">
        <person id="p_0" x="-99.68" y="34.72"/>
    </timestep>
    <timestep time="48.00">
        <person id="p_0" x="-99.68" y="33.33"/>
    </timestep>
    <timestep time="49.00">
        <person id="p_0" x="-99.68" y="31.94"/>
    </timestep>
    <timestep time="50.00">
        <person id="p_0" x="-99.68" y="30.56"/>
    </timestep>
    <timestep time="51.00">
        <person id="p_0" x="-99.68" y="29.17"/>
    </timestep>
    <timestep time="52.00">
        <person id="p_0" x="-99.68" y="27.78"/>
    </timestep>
    <timestep time="53.00">
        <person id="p_0" x="-99.68" y="26.39"/>
    </timestep>
    <timestep time="54.00">
        <person id="p_0" x="-99.68" y="25.00"/>
    </timestep>
    <timestep time="55.00">
        <person id="p_0" x="-99.68" y="23.61"/>
    </timestep>
    <timestep time="56.00">
        <person id="p_0" x="-99.68" y="22.22"/>
    </timestep>
    <timestep time="57.00">
        <person id="p_0" x="-99.68" y="20.83"/>
    </timestep>
    <timestep time="58.00">
        <person id="p_0" x="-99.68" y="19.44"/>
    </timestep>
    <timestep time="59.00">
        <person id="p_0" x="-99.68" y="18.06"/>
    </timestep>
    <timestep time="60.00">
        <person id="p_0" x="-99.68" y="16.67"/>
    </timestep>
    <timestep time="61.00">
        <person id="p_0" x="-99.68" y="15.28"/>
    </timestep>
    <timestep time="62.00">
        <person id="p_0" x="-99.68" y="13.89"/>
    </timestep>
    <timestep time="63.00">
        <person id="p_0" x="-99.68" y="12.50"/>
    </timestep>
    <timestep time="64.00">
        <person id="p_0" x="-99.68" y="11.11"/>
    </timestep>
    <timestep time="65.00">
        <person id="p_0" x="-99.68" y="9.72"/>
    </timestep>
    <timestep time="66.00">
        <person id="p_0" x="-99.68" y="8.33"/>
    </timestep>
    <timestep time="67.00">
        <person id="p_0" x="-99.68" y="6.94"/>
    </timestep>
    <timestep time="68.00">
        <person id="p_0" x="-99.68" y="5.56"/>
    </timestep>
    <timestep time="69.00">
        <person id="p_0" x="-99.68" y="4.17"/>
    </timestep>
    <timestep time="70.00">
        <person id="p_0" x="-96.38" y="0.32"/>
    </timestep>
    <timestep time="71.00">
        <person id="p_0" x="-94.99" y="0.32"/>
    </timestep>
    <timestep time="72.00">
        <person id="p_0" x="-93.60" y="0.32"/>
    </timestep>
    <timestep time="73.00">
        <person id="p_0" x="-92.21" y="0.32"/>
    </timestep>
    <timestep time="74.00">
        <person id="p_0" x="-90.82" y="0.32"/>
    </timestep>
    <timestep time="75.00">
        <person id="p_0" x="-89.43" y="0.32"/>
    </timestep>
    <timestep time="76.00">
        <person id="p_0" x="-88.04" y="0.32"/>
    </timestep>
    <timestep time="77.00">
        <person id="p_0" x="-86.66" y="0.32"/>
    </timestep>
    <timestep time="78.00">
        <person id="p_0" x="-85.27" y="0.32"/>
    </timestep>
    <timestep time="79.00">
        <person id="p_0" x="-83.88" y="0.32"/>
    </timestep>
    <timestep time="80.00">
        <person id="p_0" x="-82.49" y="0.32"/>
    </timestep>
    <timestep time="81.00">
        <person id="p_0" x="-81.10" y="0.32"/>
    </timestep>
    <timestep time="82.00">
        <person id="p_0" x="-79.71" y="0.32"/>
    </timestep>
    <timestep time="83.00">
        <person id="p_0" x="-78.32" y="0.32"/>
    </timestep>
    <timestep time="84.00">
        <person id="p_0" x="-76.93" y="0.32"/>
    </timestep>
    <timestep time="85.00">
        <person id="p_0" x="-75.54" y="0.32"/>
    </timestep>
    <timestep time="86.00">
        <person id="p_0" x="-74.16" y="0.32"/>
    </timestep>
    <timestep time="87.00">
        <person id="p_0" x="-72.77" y="0.32"/>
    </timestep>
    <timestep time="88.00">
        <person id="p_0" x="-71.38" y="0.32"/>
    </timestep>
    <timestep time="89.00">
        <person id="p_0" x="-69.99" y="0.32"/>
    </timestep>
    <timestep time="90.00">
        <person id="p_0" x="-68.60" y="0.32"/>
    </timestep>
    <timestep time="91.00">
        <person id="p_0" x="-67.21" y="0.32"/>
    </timestep>
    <timestep time="92.00">
        <person id="p_0" x="-65.82" y="0.32"/>
    </timestep>
    <timestep time="93.00">
        <person id="p_0" x="-64.43" y="0.32"/>
    </timestep>
    <timestep time="94.00">
        <person id="p_0" x="-63.04" y="0.32"/>
    </timestep>
    <timestep time="95.00">
        <person id="p_0" x="-61.66" y="0.32"/>
    </timestep>
    <timestep time="96.00">
        <person id="p_0" x="-60.27" y="0.32"/>
    </timestep>
    <timestep time="97.00">
        <person id="p_0" x="-58.88" y="0.32"/>
    </timestep>
    <timestep time="98.00">
        <person id="p_0" x="-57.49" y="0.32"/>
    </timestep>
    <timestep time="99.00">
        <person id="p_0" x="-56.10" y="0.32"/>
    </timestep>
    <timestep time="100.00">
        <person id="p_0" x="-54.71" y="0.32"/>
    </timestep>
    <timestep time="101.00">
        <person id="p_0" x="-53.32" y="0.32"/>
    </timestep>
    <timestep time="102.00">
        <person id="p_0" x="-51.93" y="0.32"/>
    </timestep>
    <timestep time="103.00">
        <person id="p_0" x="-50.54" y="0.32"/>
    </timestep>
    <timestep time="104.00">
        <person id="p_0" x="-49.16" y="0.32"/>
    </timestep>
    <timestep time="105.00">
        <person id="p_0" x="-47.77" y="0.32"/>
    </timestep>
    <timestep time="106.00">
        <person id="p_0" x="-46.38" y="0.32"/>
    </timestep>
    <timestep time="107.00">
        <person id="p_0" x="-44.99" y="0.32"/>
    </timestep>
    <timestep time="108.00">
        <person id="p_0" x="-43.60" y="0.32"/>
    </timestep>
    <timestep time="109.00">
        <person id="p_0" x="-42.21" y="0.32"/>
    </timestep>
    <timestep time="110.00">
        <person id="p_0" x="-40.82" y="0.32"/>
    </timestep>
    <timestep time="111.00">
        <person id="p_0" x="-39.43" y="0.32"/>
    </timestep>
    <timestep time="112.00">
        <person id="p_0" x="-38.04" y="0.32"/>
    </timestep>
    <timestep time="113.00">
        <person id="p_0" x="-36.66" y="0.32"/>
    </timestep>
    <timestep time="114.00">
        <person id="p_0" x="-35.27" y="0.32"/>
    </timestep>
    <timestep time="115.00">
        <person id="p_0" x="-33.88" y="0.32"/>
    </timestep>
    <timestep time="116.00">
        <person id="p_0" x="-32.49" y="0.32"/>
    </timestep>
    <timestep time="117.00">
        <person id="p_0" x="-31.10" y="0.32"/>
    </timestep>
    <timestep time="118.00">
        <person id="p_0" x="-29.71" y="0.32"/>
    </timestep>
    <timestep time="119.00">
        <person id="p_0" x="-28.32" y="0.32"/>
    </timestep>
    <timestep time="120.00">
        <person id="p_0" x="-26.93" y="0.32"/>
    </timestep>
    <timestep time="121.00">
        <person id="p_0" x="-25.54" y="0.32"/>
    </timestep>
    <timestep time="122.00">
        <person id="p_0" x="-24.16" y="0.32"/>
    </timestep>
    <timestep time="123.00">
        <person id="p_0" x="-22.77" y="0.32"/>
    </timestep>
    <timestep time="124.00">
        <person id="p_0" x="-21.38" y="0.32"/>
    </timestep>
    <timestep time="125.00">
        <person id="p_0" x="-19.99" y="0.32"/>
    </timestep>
    <timestep time="126.00">
        <person id="p_0" x="-18.60" y="0.32"/>
    </timestep>
    <timestep time="127.00">
        <person id="p_0" x="-17.21" y="0.32"/>
    </timestep>
    <timestep time="128.00">
        <person id="p_0" x="-15.82" y="0.32"/>
    </timestep>
    <timestep time="129.00">
        <person id="p_0" x="-14.43" y="0.32"/>
    </timestep>
    <timestep time="130.00">
        <person id="p_0" x="-13.04" y="0.32"/>
    </timestep>
    <timestep time="131.00">
        <person id="p_0" x="-11.66" y="0.32"/>
    </timestep>
    <timestep time="132.00">
        <person id="p_0" x="-10.27" y="0.32"/>
    </timestep>
    <timestep time="133.00">
        <person id="p_0" x="-8.88" y="0.32"/>
    </timestep>
    <timestep time="134.00">
        <person id="p_0" x="-7.49" y="0.32"/>
    </timestep>
    <timestep time="135.00">
        <person id="p_0" x="-6.10" y="0.32"/>
    </timestep>
    <timestep time="136.00">
        <person id="p_0" x="-4.71" y="0.32"/>
    </timestep>
    <timestep time="137.00">
        <person id="p_0" x="-3.32" y="0.32"/>
    </timestep>
    <timestep time="138.00">
        <person id="p_0" x="-1.93" y="0.32"/>
    </timestep>
    <timestep time="139.00">
        <person id="p_0" x="-0.54" y="0.32"/>
    </timestep>
    <timestep time="140.00">
        <person id="p_0" x="0.84" y="0.32"/>
    </timestep>
    <timestep time="141.00">
        <person id="p_0" x="2.23" y="0.32"/>
    </timestep>
    <timestep time="142.00">
        <person id="p_0" x="3.62" y="0.32"/>
    </timestep>
    <timestep time="143.00">
        <person id="p_0" x="5.01" y="0.32"/>
    </timestep>
    <timestep time="144.00">
        <person id="p_0" x="6.40" y="0.32"/>
    </timestep>
    <timestep time="145.00">
        <person id="p_0" x="7.79" y="0.32"/>
    </timestep>
    <timestep time="146.00">
        <person id="p_0" x="9.18" y="0.32"/>
    </timestep>
    <timestep time="147.00">
        <person id="p_0" x="10.57" y="0.32"/>
    </timestep>
    <timestep time="148.00">
        <person id="p_0" x="11.96" y="0.32"/>
    </timestep>
    <timestep time="149.00">
        <person id="p_0" x="13.34" y="0.32"/>
    </timestep>
    <timestep time="150.00">
        <person id="p_0" x="14.73" y="0.32"/>
    </timestep>
    <timestep time="151.00">
        <person id="p_0" x="16.12" y="0.32"/>
    </timestep>
    <timestep time="152.00">
        <person id="p_0" x="17.51" y="0.32"/>
    </timestep>
    <timestep time="153.00">
        <person id="p_0" x="18.90" y="0.32"/>
    </timestep>
    <timestep time="154.00">
        <person id="p_0" x="20.29" y="0.32"/>
    </timestep>
    <timestep time="155.00">
        <person id="p_0" x="21.68" y="0.32"/>
    </timestep>
    <timestep time="156.00">
        <person id="p_0" x="23.07" y="0.32"/>
    </timestep>
    <timestep time="157.00">
        <person id="p_0" x="24.46" y="0.32"/>
    </timestep>
    <timestep time="158.00">
        <person id="p_0" x="25.84" y="0.32"/>
    </timestep>
    <timestep time="159.00">
        <person id="p_0" x="27.23" y="0.32"/>
    </timestep>
    <timestep time="160.00">
        <person id="p_0" x="28.62" y="0.32"/>
    </timestep>
    <timestep time="161.00">
        <person id="p_0" x="30.01" y="0.32"/>
    </timestep>
    <timestep time="162.00">
        <person id="p_0" x="31.40" y="0.32"/>
    </timestep>
    <timestep time="163.00">
        <person id="p_0" x="32.79" y="0.32"/>
    </timestep>
    <timestep time="164.00">
        <person id="p_0" x="34.18" y="0.32"/>
    </timestep>
    <timestep time="165.00">
        <person id="p_0" x="35.57" y="0.32"/>
    </timestep>
    <timestep time="166.00">
        <person id="p_0" x="36.96" y="0.32"/>
    </timestep>
    <timestep time="167.00">
        <person id="p_0" x="38.34" y="0.32"/>
    </timestep>
    <timestep time="168.00">
        <person id="p_0" x="39.73" y="0.32"/>
    </timestep>
    <timestep time="169.00">
        <person id="p_0" x="41.12" y="0.32"/>
    </timestep>
    <timestep time="170.00">
        <person id="p_0" x="42.51" y="0.32"/>
    </timestep>
    <timestep time="171.00">
        <person id="p_0" x="43.90" y="0.32"/>
    </timestep>
    <timestep time="172.00">
        <person id="p_0" x="45.29" y="0.32"/>
    </timestep>
    <timestep time="173.00">
        <person id="p_0" x="46.68" y="0.32"/>
    </timestep>
    <timestep time="174.00">
        <person id="p_0" x="48.07" y="0.32"/>
    </timestep>
    <timestep time="175.00">
        <person id="p_0" x="49.46" y="0.32"/>
    </timestep>
    <timestep time="176.00">
        <person id="p_0" x="50.84" y="0.32"/>
    </timestep>
    <timestep time="177.00">
        <person id="p_0" x="52.23" y="0.32"/>
    </timestep>
    <timestep time="178.00">
        <person id="p_0" x="53.62" y="0.32"/>
    </timestep>
    <timestep time="179.00">
        <person id="p_0" x="55.01" y="0.32"/>
    </timestep>
    <timestep time="180.00">
        <person id="p_0" x="56.40" y="0.32"/>
    </timestep>
    <timestep time="181.00">
        <person id="p_0" x="57.79" y="0.32"/>
    </timestep>
    <timestep time="182.00">
        <person id="p_0" x="59.18" y="0.32"/>
    </timestep>
    <timestep time="183.00">
        <person id="p_0" x="60.57" y="0.32"/>
    </timestep>
    <timestep time="184.00">
        <person id="p_0" x="61.96" y="0.32"/>
    </timestep>
    <timestep time="185.00">
        <person id="p_0" x="63.34" y="0.32"/>
    </timestep>
    <timestep time="186.00">
        <person id="p_0" x="64.73" y="0.32"/>
    </timestep>
    <timestep time="187.00">
        <person id="p_0" x="66.12" y="0.32"/>
    </timestep>
    <timestep time="188.00">
        <person id="p_0" x="67.51" y="0.32"/>
    </timestep>
    <timestep time="189.00">
        <person id="p_0" x="68.90" y="0.32"/>
    </timestep>
    <timestep time="190.00">
        <person id="p_0" x="70.29" y="0.32"/>
    </timestep>
    <timestep time="191.00">
        <person id="p_0" x="71.68" y="0.32"/>
    </timestep>
    <timestep time="192.00">
        <person id="p_0" x="73.07" y="0.32"/>
    </timestep>
    <timestep time="193.00">
        <person id="p_0" x="74.46" y="0.32"/>
    </timestep>
    <timestep time="194.00">
        <person id="p_0" x="75.84" y="0.32"/>
    </timestep>
    <timestep time="195.00">
        <person id="p_0" x="77.23" y="0.32"/>
    </timestep>
    <timestep time="196.00">
        <person id="p_0" x="78.62" y="0.32"/>
    </timestep>
    <timestep time="197.00">
        <person id="p_0" x="80.01" y="0.32"/>
    </timestep>
    <timestep time="198.00">
        <person id="p_0" x="81.40" y="0.32"/>
    </timestep>
    <timestep time="199.00">
        <person id="p_0" x="82.79" y="0.32"/>
    </timestep>
    <timestep time="200.00">
        <person id="p_0" x="84.18" y="0.32"/>
    </timestep>
    <timestep time="201.00">
        <person id="p_0" x="85.57" y="0.32"/>
    </timestep>
    <timestep time="202.00">
        <person id="p_0" x="86.96" y="0.32"/>
    </timestep>
    <timestep time="203.00">
        <person id="p_0" x="88.34" y="0.32"/>
    </timestep>
    <timestep time="204.00">
        <person id="p_0" x="89.73" y="0.32"/>
    </timestep>
    <timestep time="205.00">
        <person id="p_0" x="91.12" y="0.32"/>
    </timestep>
    <timestep time="206.00">
        <person id="p_0" x="92.51" y="0.32"/>
    </timestep>
    <timestep time="207.00">
        <person id="p_0" x="93.90" y="0.32"/>
    </timestep>
    <timestep time="208.00">
        <person id="p_0" x="95.29" y="0.32"/>
    </timestep>
    <timestep time="209.00">
        <person id="p_0" x="96.68" y="0.32"/>
    </timestep>
    <timestep time="210.00">
        <person id="p_0" x="98.07" y="0.32"/>
    </timestep>
    <timestep time="211.00">
        <person id="p_0" x="99.46" y="0.32"/>
    </timestep>
    <timestep time="212.00">
        <person id="p_0" x="100.84" y="0.32"/>
    </timestep>
    <timestep time="213.00">
        <person id="p_0" x="102.23" y="0.32"/>
    </timestep>
    <timestep time="214.00">
        <person id="p_0" x="103.62" y="0.32"/>
    </timestep>
    <timestep time="215.00">
        <person id="p_0" x="105.01" y="0.32"/>
    </timestep>
    <timestep time="216.00">
        <person id="p_0" x="106.40" y="0.32"/>
    </timestep>
    <timestep time="217.00">
        <person id="p_0" x="107.79" y="0.32"/>
    </timestep>
    <timestep time="218.00">
        <person id="p_0" x="109.18" y="0.32"/>
    </timestep>
    <timestep time="219.00">
        <person id="p_0" x="110.57" y="0.32"/>
    </timestep>
    <timestep time="220.00">
        <person id="p_0" x="111.96" y="0.32"/>
    </timestep>
    <timestep time="221.00">
        <person id="p_0" x="113.34" y="0.32"/>
    </timestep>
    <timestep time="222.00">
        <person id="p_0" x="114.73" y="0.32"/>
    </timestep>
    <timestep time="223.00">
        <person id="p_0" x="116.12" y="0.32"/>
    </timestep>
    <timestep time="224.00">
        <person id="p_0" x="117.51" y="0.32"/>
    </timestep>
    <timestep time="225.00">
        <person id="p_0" x="118.90" y="0.32"/>
    </timestep>
    <timestep time="226.00">
        <person id="p_0" x="120.29" y="0.32"/>
    </timestep>
    <timestep time="227.00">
        <person id="p_0" x="121.68" y="0.32"/>
    </timestep>
    <timestep time="228.00">
        <person id="p_0" x="123.07" y="0.32"/>
    </timestep>
    <timestep time="229.00">
        <person id="p_0" x="124.46" y="0.32"/>
    </timestep>
    <timestep time="230.00">
        <person id="p_0" x="125.84" y="0.32"/>
    </timestep>
    <timestep time="231.00">
        <person id="p_0" x="127.23" y="0.32"/>
    </timestep>
    <timestep time="232.00">
        <person id="p_0" x="128.62" y="0.32"/>
    </timestep>
    <timestep time="233.00">
        <person id="p_0" x="130.01" y="0.32"/>
    </timestep>
    <timestep time="234.00">
        <person id="p_0" x="131.40" y="0.32"/>
    </timestep>
    <timestep time="235.00">
        <person id="p_0" x="132.79" y="0.32"/>
    </timestep>
    <timestep time="236.00">
        <person id="p_0" x="134.18" y="0.32"/>
    </timestep>
    <timestep time="237.00">
        <person id="p_0" x="135.57" y="0.32"/>
    </timestep>
    <timestep time="238.00">
        <person id="p_0" x="136.96" y="0.32"/>
    </timestep>
    <timestep time="239.00">
        <person id="p_0" x="138.34" y="0.32"/>
    </timestep>
    <timestep time="240.00">
        <person id="p_0" x="139.73" y="0.32"/>
    </timestep>
    <timestep time="241.00">
        <person id="p_0" x="141.12" y="0.32"/>
    </timestep>
    <timestep time="242.00">
        <person id="p_0" x="142.51" y="0.32"/>
    </timestep>
    <timestep time="243.00">
        <person id="p_0" x="143.90" y="0.32"/>
    </timestep>
    <timestep time="244.00">
        <person id="p_0" x="145.29" y="0.32"/>
    </timestep>
    <timestep time="245.00">
        <person id="p_0" x="146.68" y="0.32"/>
    </timestep>
    <timestep time="246.00">
        <person id="p_0" x="148.07" y="0.32"/>
    </timestep>
    <timestep time="247.00">
        <person id="p_0" x="149.46" y="0.32"/>
    </timestep>
    <timestep time="248.00">
        <person id="p_0" x="150.84" y="0.32"/>
    </timestep>
    <timestep time="249.00">
        <person id="p_0" x="152.23" y="0.32"/>
    </timestep>
    <timestep time="250.00">
        <person id="p_0" x="153.62" y="0.32"/>
    </timestep>
    <timestep time="251.00">
        <person id="p_0" x="155.01" y="0.32"/>
    </timestep>
    <timestep time="252.00">
        <person id="p_0" x="156.40" y="0.32"/>
    </timestep>
    <timestep time="253.00">
        <person id="p_0" x="157.79" y="0.32"/>
    </timestep>
    <timestep time="254.00">
        <person id="p_0" x="159.18" y="0.32"/>
    </timestep>
    <timestep time="255.00">
        <person id="p_0" x="160.57" y="0.32"/>
    </timestep>
    <timestep time="256.00">
        <person id="p_0" x="161.96" y="0.32"/>
    </timestep>
    <timestep time="257.00">
        <person id="p_0" x="163.34" y="0.32"/>
    </timestep>
    <timestep time="258.00">
        <person id="p_0" x="164.73" y="0.32"/>
    </timestep>
    <timestep time="259.00">
        <person id="p_0" x="166.12" y="0.32"/>
    </timestep>
    <timestep time="260.00">
        <person id="p_0" x="167.51" y="0.32"/>
    </timestep>
    <timestep time="261.00">
        <person id="p_0" x="168.90" y="0.32"/>
    </timestep>
    <timestep time="262.00">
        <person id="p_0" x="170.29" y="0.32"/>
    </timestep>
    <timestep time="263.00">
        <person id="p_0" x="171.68" y="0.32"/>
    </timestep>
    <timestep time="264.00">
        <person id="p_0" x="173.07" y="0.32"/>
    </timestep>
    <timestep time="265.00">
        <person id="p_0" x="174.46" y="0.32"/>
    </timestep>
    <timestep time="266.00">
        <person id="p_0" x="175.84" y="0.32"/>
    </timestep>
    <timestep time="267.00">
        <person id="p_0" x="177.23" y="0.32"/>
    </timestep>
    <timestep time="268.00">
        <person id="p_0" x="178.62" y="0.32"/>
    </timestep>
    <timestep time="269.00">
        <person id="p_0" x="180.01" y="0.32"/>
    </timestep>
    <timestep time="270.00">
        <person id="p_0" x="181.40" y="0.32"/>
    </timestep>
    <timestep time="271.00">
        <person id="p_0" x="182.79" y="0.32"/>
    </timestep>
    <timestep time="272.00">
        <person id="p_0" x="184.18" y="0.32"/>
    </timestep>
    <timestep time="273.00">
        <person id="p_0" x="185.57" y="0.32"/>
    </timestep>
    <timestep time="274.00">
        <person id="p_0" x="186.96" y="0.32"/>
    </timestep>
    <timestep time="275.00">
        <person id="p_0" x="188.34" y="0.32"/>
    </timestep>
    <timestep time="276.00">
        <person id="p_0" x="189.73" y="0.32"/>
    </timestep>
    <timestep time="277.00">
        <person id="p_0" x="191.12" y="0.32"/>
    </timestep>
    <timestep time="278.00">
        <person id="p_0" x="192.51" y="0.32"/>
    </timestep>
    <timestep time="279.00">
        <person id="p_0" x="193.90" y="0.32"/>
    </timestep>
    <timestep time="280.00">
        <person id="p_0" x="195.29" y="0.32"/>
    </timestep>
    <timestep time="281.00">
        <person id="p_0" x="196.68" y="0.32"/>
    </timestep>
    <timestep time="282.00">
        <person id="p_0" x="46.02" y="101.04"/>
    </timestep>
    <timestep time="283.00">
        <person id="p_0" x="46.02" y="99.65"/>
    </timestep>
    <timestep time="284.00">
        <person id="p_0" x="46.02" y="98.27"/>
    </timestep>
    <timestep time="285.00">
        <person id="p_0" x="46.02" y="96.88"/>
    </timestep>
    <timestep time="286.00">
        <person id="p_0" x="46.02" y="95.49"/>
    </timestep>
    <timestep time="287.00">
        <person id="p_0" x="46.02" y="94.10"/>
    </timestep>
    <timestep time="288.00">
        <person id="p_0" x="46.02" y="92.71"/>
    </timestep>
    <timestep time="289.00">
        <person id="p_0" x="46.02" y="91.32"/>
    </timestep>
    <timestep time="290.00">
        <person id="p_0" x="46.02" y="89.93"/>
    </timestep>
    <timestep time="291.00">
        <person id="p_0" x="46.02" y="88.54"/>
    </timestep>
    <timestep time="292.00">
        <person id="p_0" x="46.02" y="87.15"/>
    </timestep>
    <timestep time="293.00">
        <person id="p_0" x="46.02" y="85.77"/>
    </timestep>
    <timestep time="294.00">
        <person id="p_0" x="46.02" y="84.38"/>
    </timestep>
    <timestep time="295.00">
        <person id="p_0" x="46.02" y="82.99"/>
    </timestep>
    <timestep time="296.00">
        <person id="p_0" x="46.02" y="81.60"/>
    </timestep>
    <timestep time="297.00">
        <person id="p_0" x="46.02" y="80.21"/>
    </timestep>
    <timestep time="298.00">
        <person id="p_0" x="46.02" y="78.82"/>
    </timestep>
    <timestep time="299.00">
        <person id="p_0" x="46.02" y="77.43"/>
    </timestep>
    <timestep time="300.00">
        <person id="p_0" x="46.02" y="76.04"/>
    </timestep>
    <timestep time="301.00">
        <person id="p_0" x="46.02" y="74.65"/>
    </timestep>
    <timestep time="302.00">
        <person id="p_0" x="46.02" y="73.27"/>
    </timestep>
    <timestep time="303.00">
        <person id="p_0" x="46.02" y="71.88"/>
    </timestep>
    <timestep time="304.00">
        <person id="p_0" x="46.02" y="70.49"/>
    </timestep>
    <timestep time="305.00">
        <person id="p_0" x="46.02" y="69.10"/>
    </timestep>
    <timestep time="306.00">
        <person id="p_0" x="46.02" y="67.71"/>
    </timestep>
    <timestep time="307.00">
        <person id="p_0" x="46.02" y="66.32"/>
    </timestep>
    <timestep time="308.00">
        <person id="p_0" x="46.02" y="64.93"/>
    </timestep>
    <timestep time="309.00">
        <person id="p_0" x="46.02" y="63.54"/>
    </timestep>