<?xml version="1.0" encoding="UTF-8"?>

<!-- generated on Wed Jul  5 10:32:24 2017 by SUMO Version dev-SVN-r23112
<?xml version="1.0" encoding="UTF-8"?>

<configuration xmlns:xsi="http://www.w3.org/2001/XMLSchema-instance" xsi:noNamespaceSchemaLocation="http://sumo.dlr.de/xsd/sumoConfiguration.xsd">

    <input>
        <net-file value="net.net.xml"/>
        <route-files value="input_routes.rou.xml"/>
        <additional-files value="input_additional.add.xml,input_additional2.add.xml"/>
    </input>

    <time>
        <begin value="0"/>
        <end value="3000"/>
    </time>

    <report>
        <verbose value="true"/>
        <xml-validation value="never"/>
        <duration-log.statistics value="true"/>
        <no-step-log value="true"/>
    </report>

</configuration>
-->

<meandata xmlns:xsi="http://www.w3.org/2001/XMLSchema-instance" xsi:noNamespaceSchemaLocation="http://sumo.dlr.de/xsd/meandata_file.xsd">
    <interval begin="0.00" end="60.00" id="dump_60">
        <edge id="1/1to2/1" sampledSeconds="633.99" traveltime="79.50" overlapTraveltime="79.49" density="10.78" occupancy="5.34" waitingTime="0.00" speed="12.39" departed="60" arrived="0" entered="0" left="41" laneChangedFrom="0" laneChangedTo="0"/>
        <edge id="2/1to3/1" sampledSeconds="1130.09" traveltime="50.34" overlapTraveltime="50.59" density="19.22" occupancy="9.55" waitingTime="0.00" speed="19.47" departed="0" arrived="0" entered="41" left="4" laneChangedFrom="0" laneChangedTo="0"/>
        <edge id="3/1to4/1" sampledSeconds="11.35" traveltime="50.00" overlapTraveltime="50.25" density="0.19" occupancy="0.09" waitingTime="0.00" speed="19.60" departed="0" arrived="0" entered="4" left="0" laneChangedFrom="0" laneChangedTo="0"/>
    </interval>
    <interval begin="60.00" end="120.00" id="dump_60">
        <edge id="1/1to2/1" sampledSeconds="1597.07" traveltime="59.56" overlapTraveltime="59.79" density="27.16" occupancy="13.53" waitingTime="15.00" speed="16.47" departed="60" arrived="0" entered="0" left="44" laneChangedFrom="0" laneChangedTo="0"/>
        <edge id="2/1to3/1" sampledSeconds="2221.66" traveltime="50.00" overlapTraveltime="50.25" density="37.79" occupancy="18.80" waitingTime="0.00" speed="19.60" departed="0" arrived="0" entered="44" left="44" laneChangedFrom="0" laneChangedTo="0"/>
        <edge id="3/1to4/1" sampledSeconds="1475.76" traveltime="50.00" overlapTraveltime="50.25" density="25.10" occupancy="12.49" waitingTime="0.00" speed="19.60" departed="0" arrived="0" entered="44" left="11" laneChangedFrom="0" laneChangedTo="0"/>
        <edge id="4/1to5/1" sampledSeconds="85.45" traveltime="50.00" overlapTraveltime="50.25" density="1.45" occupancy="0.71" waitingTime="0.00" speed="19.60" departed="0" arrived="0" entered="11" left="0" laneChangedFrom="0" laneChangedTo="0"/>
    </interval>
    <interval begin="120.00" end="180.00" id="dump_60">
        <edge id="1/1to2/1" sampledSeconds="2146.50" traveltime="54.11" overlapTraveltime="54.36" density="36.51" occupancy="18.16" waitingTime="14.00" speed="18.12" departed="40" arrived="0" entered="0" left="44" laneChangedFrom="0" laneChangedTo="0"/>
        <edge id="2/1to3/1" sampledSeconds="2221.66" traveltime="50.00" overlapTraveltime="50.25" density="37.79" occupancy="18.80" waitingTime="0.00" speed="19.60" departed="0" arrived="0" entered="44" left="44" laneChangedFrom="0" laneChangedTo="0"/>
        <edge id="3/1to4/1" sampledSeconds="2221.66" traveltime="50.00" overlapTraveltime="50.25" density="37.79" occupancy="18.80" waitingTime="0.00" speed="19.60" departed="0" arrived="0" entered="44" left="44" laneChangedFrom="0" laneChangedTo="0"/>
        <edge id="4/1to5/1" sampledSeconds="1766.32" traveltime="50.00" overlapTraveltime="50.25" density="30.04" occupancy="14.95" waitingTime="0.00" speed="19.60" departed="0" arrived="0" entered="44" left="19" laneChangedFrom="0" laneChangedTo="0"/>
        <edge id="5/1to6/1" sampledSeconds="230.93" traveltime="50.00" overlapTraveltime="50.25" density="3.93" occupancy="1.94" waitingTime="0.00" speed="19.60" departed="0" arrived="0" entered="18" left="0" laneChangedFrom="0" laneChangedTo="0"/>
    </interval>
    <interval begin="180.00" end="240.00" id="dump_60">
        <edge id="1/1to2/1" sampledSeconds="1603.66" traveltime="53.41" overlapTraveltime="53.66" density="27.27" occupancy="13.51" waitingTime="0.00" speed="18.35" departed="29" arrived="0" entered="0" left="34" laneChangedFrom="0" laneChangedTo="0"/>
        <edge id="2/1to3/1" sampledSeconds="1978.83" traveltime="50.00" overlapTraveltime="50.25" density="33.66" occupancy="16.74" waitingTime="0.00" speed="19.60" departed="0" arrived="0" entered="33" left="45" laneChangedFrom="0" laneChangedTo="0"/>
        <edge id="3/1to4/1" sampledSeconds="2221.70" traveltime="50.00" overlapTraveltime="50.25" density="37.79" occupancy="18.80" waitingTime="0.00" speed="19.60" departed="0" arrived="0" entered="45" left="45" laneChangedFrom="0" laneChangedTo="0"/>
        <edge id="4/1to5/1" sampledSeconds="2221.70" traveltime="50.00" overlapTraveltime="50.25" density="37.79" occupancy="18.80" waitingTime="0.00" speed="19.60" departed="0" arrived="0" entered="45" left="44" laneChangedFrom="0" laneChangedTo="0"/>
        <edge id="5/1to6/1" sampledSeconds="1985.54" traveltime="50.00" overlapTraveltime="50.25" density="33.77" occupancy="16.81" waitingTime="0.00" speed="19.60" departed="0" arrived="0" entered="45" left="26" laneChangedFrom="0" laneChangedTo="0"/>
        <edge id="6/1to7/1" sampledSeconds="448.02" traveltime="50.00" overlapTraveltime="50.25" density="7.62" occupancy="3.78" waitingTime="0.00" speed="19.60" departed="0" arrived="0" entered="26" left="0" laneChangedFrom="0" laneChangedTo="0"/>
    </interval>
    <interval begin="240.00" end="300.00" id="dump_60">
        <edge id="1/1to2/1" sampledSeconds="1582.77" traveltime="53.55" overlapTraveltime="53.81" density="26.92" occupancy="13.30" waitingTime="2.00" speed="18.31" departed="30" arrived="0" entered="0" left="29" laneChangedFrom="0" laneChangedTo="0"/>
        <edge id="2/1to3/1" sampledSeconds="1479.56" traveltime="50.00" overlapTraveltime="50.25" density="25.16" occupancy="12.52" waitingTime="0.00" speed="19.60" departed="0" arrived="0" entered="30" left="30" laneChangedFrom="0" laneChangedTo="0"/>
        <edge id="3/1to4/1" sampledSeconds="1860.59" traveltime="50.00" overlapTraveltime="50.25" density="31.64" occupancy="15.74" waitingTime="0.00" speed="19.60" departed="0" arrived="0" entered="30" left="43" laneChangedFrom="0" laneChangedTo="0"/>
        <edge id="4/1to5/1" sampledSeconds="2219.29" traveltime="50.00" overlapTraveltime="50.25" density="37.75" occupancy="18.78" waitingTime="0.00" speed="19.60" departed="0" arrived="0" entered="43" left="44" laneChangedFrom="0" laneChangedTo="0"/>
        <edge id="5/1to6/1" sampledSeconds="2221.66" traveltime="50.00" overlapTraveltime="50.25" density="37.79" occupancy="18.80" waitingTime="0.00" speed="19.60" departed="0" arrived="0" entered="44" left="44" laneChangedFrom="0" laneChangedTo="0"/>
        <edge id="6/1to7/1" sampledSeconds="2133.11" traveltime="50.00" overlapTraveltime="50.25" density="36.28" occupancy="18.06" waitingTime="0.00" speed="19.60" departed="0" arrived="0" entered="44" left="33" laneChangedFrom="0" laneChangedTo="0"/>
        <edge id="7/1to8/1" sampledSeconds="736.60" traveltime="50.00" overlapTraveltime="50.25" density="12.53" occupancy="6.23" waitingTime="0.00" speed="19.60" departed="0" arrived="0" entered="33" left="0" laneChangedFrom="0" laneChangedTo="0"/>
    </interval>
    <interval begin="300.00" end="360.00" id="dump_60">
        <edge id="1/1to2/1" sampledSeconds="1599.94" traveltime="53.46" overlapTraveltime="53.72" density="27.21" occupancy="13.44" waitingTime="1.00" speed="18.34" departed="29" arrived="0" entered="0" left="30" laneChangedFrom="0" laneChangedTo="0"/>
        <edge id="2/1to3/1" sampledSeconds="1486.47" traveltime="50.00" overlapTraveltime="50.25" density="25.28" occupancy="12.58" waitingTime="0.00" speed="19.60" departed="0" arrived="0" entered="30" left="30" laneChangedFrom="0" laneChangedTo="0"/>
        <edge id="3/1to4/1" sampledSeconds="1475.31" traveltime="50.00" overlapTraveltime="50.25" density="25.09" occupancy="12.48" waitingTime="0.00" speed="19.60" departed="0" arrived="0" entered="30" left="29" laneChangedFrom="0" laneChangedTo="0"/>
        <edge id="4/1to5/1" sampledSeconds="1740.73" traveltime="50.00" overlapTraveltime="50.25" density="29.61" occupancy="14.73" waitingTime="0.00" speed="19.60" departed="0" arrived="0" entered="29" left="41" laneChangedFrom="0" laneChangedTo="0"/>
        <edge id="5/1to6/1" sampledSeconds="2197.07" traveltime="50.00" overlapTraveltime="50.25" density="37.37" occupancy="18.59" waitingTime="0.00" speed="19.60" departed="0" arrived="0" entered="41" left="44" laneChangedFrom="0" laneChangedTo="0"/>
        <edge id="6/1to7/1" sampledSeconds="2221.66" traveltime="50.00" overlapTraveltime="50.25" density="37.79" occupancy="18.80" waitingTime="0.00" speed="19.60" departed="0" arrived="0" entered="44" left="44" laneChangedFrom="0" laneChangedTo="0"/>
        <edge id="7/1to8/1" sampledSeconds="2209.18" traveltime="50.00" overlapTraveltime="50.25" density="37.57" occupancy="18.70" waitingTime="0.00" speed="19.60" departed="0" arrived="0" entered="44" left="40" laneChangedFrom="0" laneChangedTo="0"/>
        <edge id="8/1to9/1" sampledSeconds="1088.78" traveltime="50.00" overlapTraveltime="50.25" density="18.52" occupancy="9.21" waitingTime="0.00" speed="19.60" departed="0" arrived="0" entered="40" left="3" laneChangedFrom="0" laneChangedTo="0"/>
        <edge id="9/1to10/1" sampledSeconds="8.09" traveltime="50.00" overlapTraveltime="50.25" density="0.14" occupancy="0.07" waitingTime="0.00" speed="19.60" departed="0" arrived="0" entered="3" left="0" laneChangedFrom="0" laneChangedTo="0"/>
    </interval>
    <interval begin="360.00" end="420.00" id="dump_60">
        <edge id="1/1to2/1" sampledSeconds="1575.77" traveltime="53.49" overlapTraveltime="53.74" density="26.80" occupancy="13.30" waitingTime="0.00" speed="18.33" departed="30" arrived="0" entered="0" left="29" laneChangedFrom="0" laneChangedTo="0"/>
        <edge id="10/1to1/1" sampledSeconds="75.48" traveltime="50.29" overlapTraveltime="50.54" density="1.28" occupancy="0.63" waitingTime="0.00" speed="19.49" departed="0" arrived="0" entered="10" left="0" laneChangedFrom="0" laneChangedTo="0"/>
        <edge id="2/1to3/1" sampledSeconds="1496.98" traveltime="50.00" overlapTraveltime="50.25" density="25.46" occupancy="12.67" waitingTime="0.00" speed="19.60" departed="0" arrived="0" entered="29" left="30" laneChangedFrom="0" laneChangedTo="0"/>
        <edge id="3/1to4/1" sampledSeconds="1490.99" traveltime="50.00" overlapTraveltime="50.25" density="25.36" occupancy="12.61" waitingTime="0.00" speed="19.60" departed="0" arrived="0" entered="30" left="30" laneChangedFrom="0" laneChangedTo="0"/>
        <edge id="4/1to5/1" sampledSeconds="1475.08" traveltime="50.00" overlapTraveltime="50.25" density="25.09" occupancy="12.48" waitingTime="0.00" speed="19.60" departed="0" arrived="0" entered="30" left="29" laneChangedFrom="0" laneChangedTo="0"/>
        <edge id="5/1to6/1" sampledSeconds="1640.58" traveltime="50.00" overlapTraveltime="50.25" density="27.90" occupancy="13.88" waitingTime="0.00" speed="19.60" departed="0" arrived="0" entered="29" left="39" laneChangedFrom="0" laneChangedTo="0"/>
        <edge id="6/1to7/1" sampledSeconds="2151.40" traveltime="50.00" overlapTraveltime="50.25" density="36.59" occupancy="18.21" waitingTime="0.00" speed="19.60" departed="0" arrived="0" entered="38" left="44" laneChangedFrom="0" laneChangedTo="0"/>
        <edge id="7/1to8/1" sampledSeconds="2221.66" traveltime="50.00" overlapTraveltime="50.25" density="37.79" occupancy="18.80" waitingTime="0.00" speed="19.60" departed="0" arrived="0" entered="44" left="45" laneChangedFrom="0" laneChangedTo="0"/>
        <edge id="8/1to9/1" sampledSeconds="2221.66" traveltime="50.00" overlapTraveltime="50.25" density="37.79" occupancy="18.80" waitingTime="0.00" speed="19.60" departed="0" arrived="0" entered="44" left="45" laneChangedFrom="0" laneChangedTo="0"/>
        <edge id="9/1to10/1" sampledSeconds="1445.35" traveltime="50.00" overlapTraveltime="50.25" density="24.58" occupancy="12.23" waitingTime="0.00" speed="19.60" departed="0" arrived="0" entered="44" left="11" laneChangedFrom="0" laneChangedTo="0"/>
    </interval>
    <interval begin="420.00" end="480.00" id="dump_60">
        <edge id="1/1to2/1" sampledSeconds="1575.78" traveltime="53.52" overlapTraveltime="53.77" density="26.80" occupancy="13.27" waitingTime="0.00" speed="18.32" departed="29" arrived="0" entered="0" left="30" laneChangedFrom="0" laneChangedTo="0"/>
        <edge id="10/1to1/1" sampledSeconds="1940.42" traveltime="69.86" overlapTraveltime="70.21" density="33.00" occupancy="16.45" waitingTime="0.00" speed="14.03" departed="0" arrived="0" entered="44" left="0" laneChangedFrom="0" laneChangedTo="0"/>
        <edge id="2/1to3/1" sampledSeconds="1476.63" traveltime="50.00" overlapTraveltime="50.25" density="25.11" occupancy="12.49" waitingTime="0.00" speed="19.60" departed="0" arrived="0" entered="30" left="29" laneChangedFrom="0" laneChangedTo="0"/>
        <edge id="3/1to4/1" sampledSeconds="1492.84" traveltime="50.00" overlapTraveltime="50.25" density="25.39" occupancy="12.63" waitingTime="0.00" speed="19.60" departed="0" arrived="0" entered="29" left="30" laneChangedFrom="0" laneChangedTo="0"/>
        <edge id="4/1to5/1" sampledSeconds="1497.11" traveltime="50.00" overlapTraveltime="50.25" density="25.46" occupancy="12.67" waitingTime="0.00" speed="19.60" departed="0" arrived="0" entered="30" left="30" laneChangedFrom="0" laneChangedTo="0"/>
        <edge id="5/1to6/1" sampledSeconds="1474.80" traveltime="50.00" overlapTraveltime="50.25" density="25.08" occupancy="12.48" waitingTime="0.00" speed="19.60" departed="0" arrived="0" entered="30" left="29" laneChangedFrom="0" laneChangedTo="0"/>
        <edge id="6/1to7/1" sampledSeconds="1563.79" traveltime="50.00" overlapTraveltime="50.25" density="26.60" occupancy="13.23" waitingTime="0.00" speed="19.60" departed="0" arrived="0" entered="30" left="36" laneChangedFrom="0" laneChangedTo="0"/>
        <edge id="7/1to8/1" sampledSeconds="2082.40" traveltime="50.00" overlapTraveltime="50.25" density="35.42" occupancy="17.62" waitingTime="0.00" speed="19.60" departed="0" arrived="0" entered="36" left="44" laneChangedFrom="0" laneChangedTo="0"/>
        <edge id="8/1to9/1" sampledSeconds="2221.70" traveltime="50.00" overlapTraveltime="50.25" density="37.79" occupancy="18.80" waitingTime="0.00" speed="19.60" departed="0" arrived="0" entered="45" left="44" laneChangedFrom="0" laneChangedTo="0"/>
        <edge id="9/1to10/1" sampledSeconds="2236.76" traveltime="50.49" overlapTraveltime="50.76" density="38.04" occupancy="18.92" waitingTime="0.00" speed="19.40" departed="0" arrived="0" entered="45" left="43" laneChangedFrom="0" laneChangedTo="0"/>
    </interval>
    <interval begin="480.00" end="540.00" id="dump_60">
        <edge id="1/1to2/1" sampledSeconds="1771.99" traveltime="50.72" overlapTraveltime="50.98" density="30.14" occupancy="14.98" waitingTime="0.00" speed="19.32" departed="4" arrived="0" entered="35" left="29" laneChangedFrom="0" laneChangedTo="0"/>
        <edge id="10/1to1/1" sampledSeconds="3619.35" traveltime="106.59" overlapTraveltime="106.89" density="61.56" occupancy="30.68" waitingTime="0.00" speed="9.21" departed="0" arrived="0" entered="40" left="35" laneChangedFrom="0" laneChangedTo="0"/>
        <edge id="2/1to3/1" sampledSeconds="1477.15" traveltime="50.00" overlapTraveltime="50.25" density="25.12" occupancy="12.50" waitingTime="0.00" speed="19.60" departed="0" arrived="0" entered="29" left="30" laneChangedFrom="0" laneChangedTo="0"/>
        <edge id="3/1to4/1" sampledSeconds="1476.23" traveltime="50.00" overlapTraveltime="50.25" density="25.11" occupancy="12.49" waitingTime="0.00" speed="19.60" departed="0" arrived="0" entered="29" left="29" laneChangedFrom="0" laneChangedTo="0"/>
        <edge id="4/1to5/1" sampledSeconds="1486.48" traveltime="50.00" overlapTraveltime="50.25" density="25.28" occupancy="12.58" waitingTime="0.00" speed="19.60" departed="0" arrived="0" entered="29" left="29" laneChangedFrom="0" laneChangedTo="0"/>
        <edge id="5/1to6/1" sampledSeconds="1501.85" traveltime="50.00" overlapTraveltime="50.25" density="25.54" occupancy="12.71" waitingTime="0.00" speed="19.60" departed="0" arrived="0" entered="29" left="30" laneChangedFrom="0" laneChangedTo="0"/>
        <edge id="6/1to7/1" sampledSeconds="1477.71" traveltime="50.00" overlapTraveltime="50.25" density="25.13" occupancy="12.50" waitingTime="0.00" speed="19.60" departed="0" arrived="0" entered="29" left="30" laneChangedFrom="0" laneChangedTo="0"/>
        <edge id="7/1to8/1" sampledSeconds="1509.54" traveltime="50.00" overlapTraveltime="50.25" density="25.67" occupancy="12.77" waitingTime="0.00" speed="19.60" departed="0" arrived="0" entered="30" left="33" laneChangedFrom="0" laneChangedTo="0"/>
        <edge id="8/1to9/1" sampledSeconds="1988.83" traveltime="50.00" overlapTraveltime="50.25" density="33.83" occupancy="16.83" waitingTime="0.00" speed="19.60" departed="0" arrived="0" entered="33" left="44" laneChangedFrom="0" laneChangedTo="0"/>
        <edge id="9/1to10/1" sampledSeconds="2363.35" traveltime="54.47" overlapTraveltime="54.77" density="40.20" occupancy="20.00" waitingTime="0.00" speed="17.98" departed="0" arrived="0" entered="44" left="40" laneChangedFrom="0" laneChangedTo="0"/>
    </interval>
    <interval begin="540.00" end="600.00" id="dump_60">
        <edge id="1/1to2/1" sampledSeconds="2220.51" traveltime="50.00" overlapTraveltime="50.25" density="37.77" occupancy="18.79" waitingTime="0.00" speed="19.60" departed="0" arrived="0" entered="44" left="44" laneChangedFrom="0" laneChangedTo="0"/>
        <edge id="10/1to1/1" sampledSeconds="3305.15" traveltime="90.55" overlapTraveltime="90.76" density="56.21" occupancy="27.99" waitingTime="0.00" speed="10.85" departed="0" arrived="0" entered="35" left="45" laneChangedFrom="0" laneChangedTo="0"/>
        <edge id="2/1to3/1" sampledSeconds="1869.66" traveltime="50.00" overlapTraveltime="50.25" density="31.80" occupancy="15.82" waitingTime="0.00" speed="19.60" departed="0" arrived="0" entered="43" left="31" laneChangedFrom="0" laneChangedTo="0"/>
        <edge id="3/1to4/1" sampledSeconds="1483.08" traveltime="50.00" overlapTraveltime="50.25" density="25.22" occupancy="12.55" waitingTime="0.00" speed="19.60" departed="0" arrived="0" entered="31" left="29" laneChangedFrom="0" laneChangedTo="0"/>
        <edge id="4/1to5/1" sampledSeconds="1476.89" traveltime="50.00" overlapTraveltime="50.25" density="25.12" occupancy="12.50" waitingTime="0.00" speed="19.60" departed="0" arrived="0" entered="29" left="30" laneChangedFrom="0" laneChangedTo="0"/>
        <edge id="5/1to6/1" sampledSeconds="1482.02" traveltime="50.00" overlapTraveltime="50.25" density="25.21" occupancy="12.54" waitingTime="0.00" speed="19.60" departed="0" arrived="0" entered="30" left="29" laneChangedFrom="0" laneChangedTo="0"/>
        <edge id="6/1to7/1" sampledSeconds="1502.04" traveltime="50.00" overlapTraveltime="50.25" density="25.55" occupancy="12.71" waitingTime="0.00" speed="19.60" departed="0" arrived="0" entered="30" left="29" laneChangedFrom="0" laneChangedTo="0"/>
        <edge id="7/1to8/1" sampledSeconds="1481.47" traveltime="50.00" overlapTraveltime="50.25" density="25.20" occupancy="12.54" waitingTime="0.00" speed="19.60" departed="0" arrived="0" entered="29" left="29" laneChangedFrom="0" laneChangedTo="0"/>
        <edge id="8/1to9/1" sampledSeconds="1480.70" traveltime="50.00" overlapTraveltime="50.25" density="25.18" occupancy="12.53" waitingTime="0.00" speed="19.60" departed="0" arrived="0" entered="29" left="31" laneChangedFrom="0" laneChangedTo="0"/>
        <edge id="9/1to10/1" sampledSeconds="2394.55" traveltime="66.13" overlapTraveltime="66.59" density="40.73" occupancy="20.26" waitingTime="0.00" speed="14.79" departed="0" arrived="0" entered="31" left="35" laneChangedFrom="0" laneChangedTo="0"/>
    </interval>
    <interval begin="600.00" end="660.00" id="dump_60">
        <edge id="1/1to2/1" sampledSeconds="2221.70" traveltime="50.00" overlapTraveltime="50.25" density="37.79" occupancy="18.80" waitingTime="0.00" speed="19.60" departed="0" arrived="0" entered="45" left="44" laneChangedFrom="0" laneChangedTo="0"/>
        <edge id="10/1to1/1" sampledSeconds="2438.46" traveltime="56.93" overlapTraveltime="57.18" density="41.47" occupancy="20.61" waitingTime="0.00" speed="17.22" departed="0" arrived="0" entered="32" left="44" laneChangedFrom="0" laneChangedTo="0"/>
        <edge id="2/1to3/1" sampledSeconds="2221.70" traveltime="50.00" overlapTraveltime="50.25" density="37.79" occupancy="18.80" waitingTime="0.00" speed="19.60" departed="0" arrived="0" entered="45" left="44" laneChangedFrom="0" laneChangedTo="0"/>
        <edge id="3/1to4/1" sampledSeconds="1986.24" traveltime="50.00" overlapTraveltime="50.25" density="33.78" occupancy="16.81" waitingTime="0.00" speed="19.60" departed="0" arrived="0" entered="45" left="34" laneChangedFrom="0" laneChangedTo="0"/>
        <edge id="4/1to5/1" sampledSeconds="1511.41" traveltime="50.00" overlapTraveltime="50.25" density="25.71" occupancy="12.78" waitingTime="0.00" speed="19.60" departed="0" arrived="0" entered="34" left="29" laneChangedFrom="0" laneChangedTo="0"/>
        <edge id="5/1to6/1" sampledSeconds="1477.17" traveltime="50.00" overlapTraveltime="50.25" density="25.12" occupancy="12.50" waitingTime="0.00" speed="19.60" departed="0" arrived="0" entered="29" left="30" laneChangedFrom="0" laneChangedTo="0"/>
        <edge id="6/1to7/1" sampledSeconds="1479.11" traveltime="50.00" overlapTraveltime="50.25" density="25.16" occupancy="12.51" waitingTime="0.00" speed="19.60" departed="0" arrived="0" entered="30" left="30" laneChangedFrom="0" laneChangedTo="0"/>
        <edge id="7/1to8/1" sampledSeconds="1500.41" traveltime="50.00" overlapTraveltime="50.25" density="25.52" occupancy="12.69" waitingTime="0.00" speed="19.60" departed="0" arrived="0" entered="30" left="30" laneChangedFrom="0" laneChangedTo="0"/>
        <edge id="8/1to9/1" sampledSeconds="1486.10" traveltime="50.00" overlapTraveltime="50.25" density="25.28" occupancy="12.57" waitingTime="0.00" speed="19.60" departed="0" arrived="0" entered="30" left="29" laneChangedFrom="0" laneChangedTo="0"/>
        <edge id="9/1to10/1" sampledSeconds="2376.43" traveltime="80.72" overlapTraveltime="81.29" density="40.42" occupancy="20.10" waitingTime="0.00" speed="12.12" departed="0" arrived="0" entered="29" left="32" laneChangedFrom="0" laneChangedTo="0"/>
    </interval>
    <interval begin="660.00" end="720.00" id="dump_60">
        <edge id="1/1to2/1" sampledSeconds="2221.44" traveltime="50.00" overlapTraveltime="50.25" density="37.78" occupancy="18.80" waitingTime="0.00" speed="19.60" departed="0" arrived="0" entered="44" left="44" laneChangedFrom="0" laneChangedTo="0"/>
        <edge id="10/1to1/1" sampledSeconds="2176.65" traveltime="50.00" overlapTraveltime="50.25" density="37.02" occupancy="18.42" waitingTime="0.00" speed="19.60" departed="0" arrived="0" entered="40" left="44" laneChangedFrom="0" laneChangedTo="0"/>
        <edge id="2/1to3/1" sampledSeconds="2221.66" traveltime="50.00" overlapTraveltime="50.25" density="37.79" occupancy="18.80" waitingTime="0.00" speed="19.60" departed="0" arrived="0" entered="44" left="44" laneChangedFrom="0" laneChangedTo="0"/>
        <edge id="3/1to4/1" sampledSeconds="2221.66" traveltime="50.00" overlapTraveltime="50.25" density="37.79" occupancy="18.80" waitingTime="0.00" speed="19.60" departed="0" arrived="0" entered="44" left="44" laneChangedFrom="0" laneChangedTo="0"/>
        <edge id="4/1to5/1" sampledSeconds="2079.96" traveltime="50.00" overlapTraveltime="50.25" density="35.38" occupancy="17.60" waitingTime="0.00" speed="19.60" departed="0" arrived="0" entered="44" left="36" laneChangedFrom="0" laneChangedTo="0"/>
        <edge id="5/1to6/1" sampledSeconds="1563.32" traveltime="50.00" overlapTraveltime="50.25" density="26.59" occupancy="13.22" waitingTime="0.00" speed="19.60" departed="0" arrived="0" entered="36" left="29" laneChangedFrom="0" laneChangedTo="0"/>
        <edge id="6/1to7/1" sampledSeconds="1477.13" traveltime="50.00" overlapTraveltime="50.25" density="25.12" occupancy="12.50" waitingTime="0.00" speed="19.60" departed="0" arrived="0" entered="29" left="29" laneChangedFrom="0" laneChangedTo="0"/>
        <edge id="7/1to8/1" sampledSeconds="1478.13" traveltime="50.00" overlapTraveltime="50.25" density="25.14" occupancy="12.51" waitingTime="0.00" speed="19.60" departed="0" arrived="0" entered="29" left="30" laneChangedFrom="0" laneChangedTo="0"/>
        <edge id="8/1to9/1" sampledSeconds="1497.44" traveltime="50.00" overlapTraveltime="50.25" density="25.47" occupancy="12.67" waitingTime="0.00" speed="19.60" departed="0" arrived="0" entered="30" left="30" laneChangedFrom="0" laneChangedTo="0"/>
        <edge id="9/1to10/1" sampledSeconds="1759.86" traveltime="54.30" overlapTraveltime="54.55" density="29.93" occupancy="14.89" waitingTime="0.00" speed="18.06" departed="0" arrived="0" entered="30" left="40" laneChangedFrom="0" laneChangedTo="0"/>
    </interval>
    <interval begin="720.00" end="780.00" id="dump_60">
        <edge id="1/1to2/1" sampledSeconds="2127.87" traveltime="50.00" overlapTraveltime="50.25" density="36.19" occupancy="18.01" waitingTime="0.00" speed="19.60" departed="0" arrived="0" entered="38" left="44" laneChangedFrom="0" laneChangedTo="0"/>
        <edge id="10/1to1/1" sampledSeconds="1667.87" traveltime="50.00" overlapTraveltime="50.25" density="28.37" occupancy="14.11" waitingTime="0.00" speed="19.60" departed="0" arrived="0" entered="30" left="38" laneChangedFrom="0" laneChangedTo="0"/>
        <edge id="2/1to3/1" sampledSeconds="2221.37" traveltime="50.00" overlapTraveltime="50.25" density="37.78" occupancy="18.79" waitingTime="0.00" speed="19.60" departed="0" arrived="0" entered="44" left="44" laneChangedFrom="0" laneChangedTo="0"/>
        <edge id="3/1to4/1" sampledSeconds="2221.66" traveltime="50.00" overlapTraveltime="50.25" density="37.79" occupancy="18.80" waitingTime="0.00" speed="19.60" departed="0" arrived="0" entered="44" left="44" laneChangedFrom="0" laneChangedTo="0"/>
        <edge id="4/1to5/1" sampledSeconds="2221.66" traveltime="50.00" overlapTraveltime="50.25" density="37.79" occupancy="18.80" waitingTime="0.00" speed="19.60" departed="0" arrived="0" entered="44" left="44" laneChangedFrom="0" laneChangedTo="0"/>
        <edge id="5/1to6/1" sampledSeconds="2150.13" traveltime="50.00" overlapTraveltime="50.25" density="36.57" occupancy="18.20" waitingTime="0.00" speed="19.60" departed="0" arrived="0" entered="44" left="38" laneChangedFrom="0" laneChangedTo="0"/>
        <edge id="6/1to7/1" sampledSeconds="1638.96" traveltime="50.00" overlapTraveltime="50.25" density="27.88" occupancy="13.86" waitingTime="0.00" speed="19.60" departed="0" arrived="0" entered="38" left="30" laneChangedFrom="0" laneChangedTo="0"/>
        <edge id="7/1to8/1" sampledSeconds="1476.91" traveltime="50.00" overlapTraveltime="50.25" density="25.12" occupancy="12.50" waitingTime="0.00" speed="19.60" departed="0" arrived="0" entered="30" left="29" laneChangedFrom="0" laneChangedTo="0"/>
        <edge id="8/1to9/1" sampledSeconds="1476.79" traveltime="50.00" overlapTraveltime="50.25" density="25.12" occupancy="12.49" waitingTime="0.00" speed="19.60" departed="0" arrived="0" entered="29" left="30" laneChangedFrom="0" laneChangedTo="0"/>
        <edge id="9/1to10/1" sampledSeconds="1494.05" traveltime="50.00" overlapTraveltime="50.25" density="25.41" occupancy="12.64" waitingTime="0.00" speed="19.60" departed="0" arrived="0" entered="30" left="30" laneChangedFrom="0" laneChangedTo="0"/>
    </interval>
    <interval begin="780.00" end="840.00" id="dump_60">
        <edge id="1/1to2/1" sampledSeconds="1599.01" traveltime="50.00" overlapTraveltime="50.25" density="27.20" occupancy="13.53" waitingTime="0.00" speed="19.60" departed="0" arrived="0" entered="30" left="36" laneChangedFrom="0" laneChangedTo="0"/>
        <edge id="10/1to1/1" sampledSeconds="1486.98" traveltime="50.00" overlapTraveltime="50.25" density="25.29" occupancy="12.58" waitingTime="0.00" speed="19.60" departed="0" arrived="0" entered="29" left="30" laneChangedFrom="0" laneChangedTo="0"/>
        <edge id="2/1to3/1" sampledSeconds="2057.96" traveltime="50.00" overlapTraveltime="50.25" density="35.00" occupancy="17.41" waitingTime="0.00" speed="19.60" departed="0" arrived="0" entered="36" left="44" laneChangedFrom="0" laneChangedTo="0"/>
        <edge id="3/1to4/1" sampledSeconds="2221.31" traveltime="50.00" overlapTraveltime="50.25" density="37.78" occupancy="18.79" waitingTime="0.00" speed="19.60" departed="0" arrived="0" entered="44" left="44" laneChangedFrom="0" laneChangedTo="0"/>
        <edge id="4/1to5/1" sampledSeconds="2221.62" traveltime="50.00" overlapTraveltime="50.25" density="37.79" occupancy="18.80" waitingTime="0.00" speed="19.60" departed="0" arrived="0" entered="44" left="45" laneChangedFrom="0" laneChangedTo="0"/>
        <edge id="5/1to6/1" sampledSeconds="2221.66" traveltime="50.00" overlapTraveltime="50.25" density="37.79" occupancy="18.80" waitingTime="0.00" speed="19.60" departed="0" arrived="0" entered="44" left="45" laneChangedFrom="0" laneChangedTo="0"/>
        <edge id="6/1to7/1" sampledSeconds="2196.81" traveltime="50.00" overlapTraveltime="50.25" density="37.36" occupancy="18.59" waitingTime="0.00" speed="19.60" departed="0" arrived="0" entered="44" left="41" laneChangedFrom="0" laneChangedTo="0"/>