<?xml version="1.0" encoding="UTF-8"?>

<!-- generated on 2022-03-02 11:24:05 by Eclipse SUMO sumo Version v1_12_0+1018-7558949
<configuration xmlns:xsi="http://www.w3.org/2001/XMLSchema-instance" xsi:noNamespaceSchemaLocation="http://sumo.dlr.de/xsd/sumoConfiguration.xsd">

    <input>
        <net-file value="input_net.net.xml"/>
        <route-files value="input_routes.rou.xml"/>
    </input>

    <output>
        <vehroute-output value="vehroutes.xml"/>
        <save-state.times value="50"/>
        <save-state.files value="state.xml"/>
        <save-state.transportables value="true"/>
    </output>

    <processing>
        <pedestrian.striping.dawdling value="0"/>
    </processing>

    <report>
        <duration-log.disable value="true"/>
        <no-step-log value="true"/>
    </report>

</configuration>
-->

<snapshot xmlns:xsi="http://www.w3.org/2001/XMLSchema-instance" xsi:noNamespaceSchemaLocation="http://sumo.dlr.de/xsd/state_file.xsd" version="v1_12_0+1018-7558949" time="50.00" type="micro">
    <route id="r0" state="1" edges="2/1to1/1 3/1to2/1"/>
    <delay number="0" begin="0" end="0" depart="0.00" time="0.00"/>
    <vType id="DEFAULT_PEDTYPE" speedFactor="normc(1.00,0.00)" vClass="pedestrian"/>
    <transportables type="person" state="1 2 0 1 0 0 0 0 0 0">
        <person id="p0" type="DEFAULT_PEDTYPE" depart="0.00" state="0 1 0 1 44000 3/1to2/1_0 391.667 2.56 -1 1.38889 0 0 0 null null 0 null null null 0">
            <walk edges="2/1to1/1 3/1to2/1"/>
        </person>
        <person id="p2" type="DEFAULT_PEDTYPE" depart="100.00" state="0 0 -1">
            <walk edges="2/1to1/1 3/1to2/1"/>
        </person>
    </transportables>
    <tlLogic id="0/0" programID="0" phase="2" duration="16000"/>
    <tlLogic id="0/1" programID="0" phase="4" duration="7000"/>
    <tlLogic id="0/2" programID="0" phase="2" duration="16000"/>
    <tlLogic id="1/0" programID="0" phase="4" duration="7000"/>
    <tlLogic id="1/1" programID="0" phase="4" duration="7000"/>
    <tlLogic id="1/2" programID="0" phase="4" duration="7000"/>
    <tlLogic id="2/0" programID="0" phase="4" duration="7000"/>
    <tlLogic id="2/1" programID="0" phase="4" duration="7000"/>
    <tlLogic id="2/2" programID="0" phase="4" duration="7000"/>
    <tlLogic id="3/0" programID="0" phase="4" duration="7000"/>
    <tlLogic id="3/1" programID="0" phase="4" duration="7000"/>
    <tlLogic id="3/2" programID="0" phase="4" duration="7000"/>
    <tlLogic id="4/0" programID="0" phase="2" duration="16000"/>
    <tlLogic id="4/1" programID="0" phase="4" duration="7000"/>
    <tlLogic id="4/2" programID="0" phase="2" duration="16000"/>
</snapshot>
