<?xml version="1.0" encoding="UTF-8"?>

<!-- generated on 2026-01-23T11:05:46.814926+01:00 by Eclipse SUMO sumo v1_25_0+1151-2ef687ab93b
<sumoConfiguration xmlns:xsi="http://www.w3.org/2001/XMLSchema-instance" xsi:noNamespaceSchemaLocation="http://sumo.dlr.de/xsd/sumoConfiguration.xsd">

    <input>
        <net-file value="input_net.net.xml"/>
        <route-files value="input_routes.rou.xml"/>
    </input>

    <output>
        <fcd-output value="fcd.xml"/>
        <vehroute-output value="vehroutes.xml"/>
        <save-state.times value="50"/>
        <save-state.files value="state.xml"/>
        <save-state.transportables value="true"/>
    </output>

    <processing>
        <pedestrian.striping.dawdling value="0"/>
    </processing>

    <report>
        <duration-log.disable value="true"/>
        <no-step-log value="true"/>
    </report>

    <mesoscopic>
        <mesosim value="true"/>
    </mesoscopic>

</sumoConfiguration>
-->

<snapshot type="meso" version="v1_25_0+1151-2ef687ab93b" time="50.00" xmlns:xsi="http://www.w3.org/2001/XMLSchema-instance" xsi:noNamespaceSchemaLocation="http://sumo.dlr.de/xsd/state_file.xsd">
    <route id="r0" state="1" edges="2/1to1/1"/>
    <delay number="0" begin="0" end="0" depart="0.00" time="0.00"/>
    <vType id="DEFAULT_PEDTYPE" speedFactor="normc(1.00,0.00)" vClass="pedestrian"/>
    <transportables type="person" state="0 2 1 1 1 0 0 0 0 0">
        <person id="p2" type="DEFAULT_PEDTYPE" depart="100.00" departPos="10.00" state="8 0 -1">
            <walk edges="2/1to1/1" arrivalPos="20.00"/>
        </person>
    </transportables>
    <tlLogic id="0/0" programID="0" phase="2" duration="16000" active="1"/>
    <tlLogic id="0/1" programID="0" phase="4" duration="7000" active="1"/>
    <tlLogic id="0/2" programID="0" phase="2" duration="16000" active="1"/>
    <tlLogic id="1/0" programID="0" phase="4" duration="7000" active="1"/>
    <tlLogic id="1/1" programID="0" phase="4" duration="7000" active="1"/>
    <tlLogic id="1/2" programID="0" phase="4" duration="7000" active="1"/>
    <tlLogic id="2/0" programID="0" phase="4" duration="7000" active="1"/>
    <tlLogic id="2/1" programID="0" phase="4" duration="7000" active="1"/>
    <tlLogic id="2/2" programID="0" phase="4" duration="7000" active="1"/>
    <tlLogic id="3/0" programID="0" phase="4" duration="7000" active="1"/>
    <tlLogic id="3/1" programID="0" phase="4" duration="7000" active="1"/>
    <tlLogic id="3/2" programID="0" phase="4" duration="7000" active="1"/>
    <tlLogic id="4/0" programID="0" phase="2" duration="16000" active="1"/>
    <tlLogic id="4/1" programID="0" phase="4" duration="7000" active="1"/>
    <tlLogic id="4/2" programID="0" phase="2" duration="16000" active="1"/>
</snapshot>
