<?xml version="1.0" encoding="UTF-8"?>

<!-- generated on 2022-03-02 11:24:05 by Eclipse SUMO sumo Version v1_12_0+1018-7558949
<configuration xmlns:xsi="http://www.w3.org/2001/XMLSchema-instance" xsi:noNamespaceSchemaLocation="http://sumo.dlr.de/xsd/sumoConfiguration.xsd">

    <input>
        <net-file value="input_net.net.xml"/>
        <route-files value="input_routes.rou.xml"/>
    </input>

    <output>
        <vehroute-output value="vehroutes.xml"/>
        <save-state.times value="50"/>
        <save-state.files value="state.xml"/>
        <save-state.transportables value="true"/>
    </output>

    <processing>
        <pedestrian.striping.dawdling value="0"/>
    </processing>

    <report>
        <duration-log.disable value="true"/>
        <no-step-log value="true"/>
    </report>

</configuration>
-->

<routes xmlns:xsi="http://www.w3.org/2001/XMLSchema-instance" xsi:noNamespaceSchemaLocation="http://sumo.dlr.de/xsd/routes_file.xsd">
    <person id="p0" depart="0.00" arrival="187.00">
        <walk edges="2/1to1/1 3/1to2/1"/>
    </person>

    <person id="p2" depart="100.00" arrival="272.00">
        <walk edges="2/1to1/1 3/1to2/1"/>
    </person>

</routes>
