<?xml version="1.0" encoding="UTF-8"?>

<!-- generated on 05/20/16 14:19:59 by SUMO Version dev-SVN-r20765
<?xml version="1.0" encoding="UTF-8"?>

<configuration xmlns:xsi="http://www.w3.org/2001/XMLSchema-instance" xsi:noNamespaceSchemaLocation="http://sumo.dlr.de/xsd/sumoConfiguration.xsd">

    <input>
        <net-file value="net.net.xml"/>
        <route-files value="input_routes.rou.xml"/>
        <additional-files value="input_additional.add.xml"/>
    </input>

    <output>
        <netstate-dump value="rawdump.xml"/>
        <tripinfo-output value="tripinfos.xml"/>
    </output>

    <time>
        <end value="1000"/>
    </time>

    <report>
        <xml-validation value="never"/>
        <duration-log.disable value="true"/>
        <no-step-log value="true"/>
    </report>

</configuration>
-->

<netstate xmlns:xsi="http://www.w3.org/2001/XMLSchema-instance" xsi:noNamespaceSchemaLocation="http://sumo.dlr.de/xsd/netstate_file.xsd">
    <timestep time="0.00">
        <edge id="gneE0">
            <lane id="gneE0_0">
                <vehicle id="v1" pos="0.00" speed="0.00"/>
            </lane>
        </edge>
    </timestep>
    <timestep time="1.00">
        <edge id="gneE0">
            <lane id="gneE0_0">
                <vehicle id="v1" pos="0.10" speed="0.10"/>
            </lane>
        </edge>
    </timestep>
    <timestep time="2.00">
        <edge id="gneE0">
            <lane id="gneE0_0">
                <vehicle id="v1" pos="0.30" speed="0.20"/>
            </lane>
        </edge>
    </timestep>
    <timestep time="3.00">
        <edge id="gneE0">
            <lane id="gneE0_0">
                <vehicle id="v1" pos="0.60" speed="0.30"/>
            </lane>
        </edge>
    </timestep>
    <timestep time="4.00">
        <edge id="gneE0">
            <lane id="gneE0_0">
                <vehicle id="v1" pos="1.00" speed="0.40"/>
            </lane>
        </edge>
    </timestep>
    <timestep time="5.00">
        <edge id="gneE0">
            <lane id="gneE0_0">
                <vehicle id="v1" pos="1.50" speed="0.50"/>
            </lane>
        </edge>
    </timestep>
    <timestep time="6.00">
        <edge id="gneE0">
            <lane id="gneE0_0">
                <vehicle id="v1" pos="2.10" speed="0.60"/>
            </lane>
        </edge>
    </timestep>
    <timestep time="7.00">
        <edge id="gneE0">
            <lane id="gneE0_0">
                <vehicle id="v1" pos="2.80" speed="0.70"/>
            </lane>
        </edge>
    </timestep>
    <timestep time="8.00">
        <edge id="gneE0">
            <lane id="gneE0_0">
                <vehicle id="v1" pos="3.60" speed="0.80"/>
            </lane>
        </edge>
    </timestep>
    <timestep time="9.00">
        <edge id="gneE0">
            <lane id="gneE0_0">
                <vehicle id="v1" pos="4.50" speed="0.90"/>
            </lane>
        </edge>
    </timestep>
    <timestep time="10.00">
        <edge id="gneE0">
            <lane id="gneE0_0">
                <vehicle id="v1" pos="5.50" speed="1.00"/>
            </lane>
        </edge>
    </timestep>
    <timestep time="11.00">
        <edge id="gneE0">
            <lane id="gneE0_0">
                <vehicle id="v1" pos="6.60" speed="1.10"/>
            </lane>
        </edge>
    </timestep>
    <timestep time="12.00">
        <edge id="gneE0">
            <lane id="gneE0_0">
                <vehicle id="v1" pos="7.80" speed="1.20"/>
            </lane>
        </edge>
    </timestep>
    <timestep time="13.00">
        <edge id="gneE0">
            <lane id="gneE0_0">
                <vehicle id="v1" pos="9.10" speed="1.30"/>
            </lane>
        </edge>
    </timestep>
    <timestep time="14.00">
        <edge id="gneE0">
            <lane id="gneE0_0">
                <vehicle id="v1" pos="10.50" speed="1.40"/>
            </lane>
        </edge>
    </timestep>
    <timestep time="15.00">
        <edge id="gneE0">
            <lane id="gneE0_0">
                <vehicle id="v1" pos="12.00" speed="1.50"/>
            </lane>
        </edge>
    </timestep>
    <timestep time="16.00">
        <edge id="gneE0">
            <lane id="gneE0_0">
                <vehicle id="v1" pos="13.60" speed="1.60"/>
            </lane>
        </edge>
    </timestep>
    <timestep time="17.00">
        <edge id="gneE0">
            <lane id="gneE0_0">
                <vehicle id="v1" pos="15.30" speed="1.70"/>
            </lane>
        </edge>
    </timestep>
    <timestep time="18.00">
        <edge id="gneE0">
            <lane id="gneE0_0">
                <vehicle id="v1" pos="17.10" speed="1.80"/>
            </lane>
        </edge>
    </timestep>
    <timestep time="19.00">
        <edge id="gneE0">
            <lane id="gneE0_0">
                <vehicle id="v1" pos="19.00" speed="1.90"/>
            </lane>
        </edge>
    </timestep>
    <timestep time="20.00">
        <edge id="gneE0">
            <lane id="gneE0_0">
                <vehicle id="v1" pos="21.00" speed="2.00"/>
            </lane>
        </edge>
    </timestep>
    <timestep time="21.00">
        <edge id="gneE0">
            <lane id="gneE0_0">
                <vehicle id="v1" pos="23.10" speed="2.10"/>
            </lane>
        </edge>
    </timestep>
    <timestep time="22.00">
        <edge id="gneE0">
            <lane id="gneE0_0">
                <vehicle id="v1" pos="25.30" speed="2.20"/>
            </lane>
        </edge>
    </timestep>
    <timestep time="23.00">
        <edge id="gneE0">
            <lane id="gneE0_0">
                <vehicle id="v1" pos="27.60" speed="2.30"/>
            </lane>
        </edge>
    </timestep>
    <timestep time="24.00">
        <edge id="gneE0">
            <lane id="gneE0_0">
                <vehicle id="v1" pos="30.00" speed="2.40"/>
            </lane>
        </edge>
    </timestep>
    <timestep time="25.00">
        <edge id="gneE0">
            <lane id="gneE0_0">
                <vehicle id="v1" pos="32.50" speed="2.50"/>
            </lane>
        </edge>
    </timestep>
    <timestep time="26.00">
        <edge id="gneE0">
            <lane id="gneE0_0">
                <vehicle id="v1" pos="35.10" speed="2.60"/>
            </lane>
        </edge>
    </timestep>
    <timestep time="27.00">
        <edge id="gneE0">
            <lane id="gneE0_0">
                <vehicle id="v1" pos="37.80" speed="2.70"/>
            </lane>
        </edge>
    </timestep>
    <timestep time="28.00">
        <edge id="gneE0">
            <lane id="gneE0_0">
                <vehicle id="v1" pos="40.60" speed="2.80"/>
            </lane>
        </edge>
    </timestep>
    <timestep time="29.00">
        <edge id="gneE0">
            <lane id="gneE0_0">
                <vehicle id="v1" pos="43.50" speed="2.90"/>
            </lane>
        </edge>
    </timestep>
    <timestep time="30.00">
        <edge id="gneE0">
            <lane id="gneE0_0">
                <vehicle id="v1" pos="46.50" speed="3.00"/>
            </lane>
        </edge>
    </timestep>
    <timestep time="31.00">
        <edge id="gneE0">
            <lane id="gneE0_0">
                <vehicle id="v1" pos="49.60" speed="3.10"/>
            </lane>
        </edge>
    </timestep>
    <timestep time="32.00">
        <edge id="gneE0">
            <lane id="gneE0_0">
                <vehicle id="v1" pos="52.80" speed="3.20"/>
            </lane>
        </edge>
    </timestep>
    <timestep time="33.00">
        <edge id="gneE0">
            <lane id="gneE0_0">
                <vehicle id="v1" pos="56.10" speed="3.30"/>
            </lane>
        </edge>
    </timestep>
    <timestep time="34.00">
        <edge id="gneE0">
            <lane id="gneE0_0">
                <vehicle id="v1" pos="59.50" speed="3.40"/>
            </lane>
        </edge>
    </timestep>
    <timestep time="35.00">
        <edge id="gneE0">
            <lane id="gneE0_0">
                <vehicle id="v1" pos="63.00" speed="3.50"/>
            </lane>
        </edge>
    </timestep>
    <timestep time="36.00">
        <edge id="gneE0">
            <lane id="gneE0_0">
                <vehicle id="v1" pos="66.60" speed="3.60"/>
            </lane>
        </edge>
    </timestep>
    <timestep time="37.00">
        <edge id="gneE0">
            <lane id="gneE0_0">
                <vehicle id="v1" pos="70.30" speed="3.70"/>
            </lane>
        </edge>
    </timestep>
    <timestep time="38.00">
        <edge id="gneE0">
            <lane id="gneE0_0">
                <vehicle id="v1" pos="74.10" speed="3.80"/>
            </lane>
        </edge>
    </timestep>
    <timestep time="39.00">
        <edge id="gneE0">
            <lane id="gneE0_0">
                <vehicle id="v1" pos="78.00" speed="3.90"/>
            </lane>
        </edge>
    </timestep>
    <timestep time="40.00">
        <edge id="gneE0">
            <lane id="gneE0_0">
                <vehicle id="v1" pos="82.00" speed="4.00"/>
            </lane>
        </edge>
    </timestep>
    <timestep time="41.00">
        <edge id="gneE0">
            <lane id="gneE0_0">
                <vehicle id="v1" pos="86.10" speed="4.10"/>
            </lane>
        </edge>
    </timestep>
    <timestep time="42.00">
        <edge id="gneE0">
            <lane id="gneE0_0">
                <vehicle id="v1" pos="90.22" speed="4.12"/>
            </lane>
        </edge>
    </timestep>
    <timestep time="43.00">
        <edge id="gneE0">
            <lane id="gneE0_0">
                <vehicle id="v1" pos="94.35" speed="4.12"/>
            </lane>
        </edge>
    </timestep>
    <timestep time="44.00">
        <edge id="gneE0">
            <lane id="gneE0_0">
                <vehicle id="v1" pos="98.47" speed="4.12"/>
            </lane>
        </edge>
    </timestep>
    <timestep time="45.00">
        <edge id="gneE0">
            <lane id="gneE0_0">
                <vehicle id="v1" pos="102.59" speed="4.12"/>
            </lane>
        </edge>
    </timestep>
    <timestep time="46.00">
        <edge id="gneE0">
            <lane id="gneE0_0">
                <vehicle id="v1" pos="106.72" speed="4.12"/>
            </lane>
        </edge>
    </timestep>
    <timestep time="47.00">
        <edge id="gneE0">
            <lane id="gneE0_0">
                <vehicle id="v1" pos="110.84" speed="4.12"/>
            </lane>
        </edge>
    </timestep>
    <timestep time="48.00">
        <edge id="gneE0">
            <lane id="gneE0_0">
                <vehicle id="v1" pos="114.97" speed="4.12"/>
            </lane>
        </edge>
    </timestep>
    <timestep time="49.00">
        <edge id="gneE0">
            <lane id="gneE0_0">
                <vehicle id="v1" pos="119.09" speed="4.12"/>
            </lane>
        </edge>
    </timestep>
    <timestep time="50.00">
        <edge id="gneE0">
            <lane id="gneE0_0">
                <vehicle id="v1" pos="123.21" speed="4.12"/>
            </lane>
        </edge>
    </timestep>
    <timestep time="51.00">
        <edge id="gneE0">
            <lane id="gneE0_0">
                <vehicle id="v1" pos="127.34" speed="4.12"/>
            </lane>
        </edge>
    </timestep>
    <timestep time="52.00">
        <edge id="gneE0">
            <lane id="gneE0_0">
                <vehicle id="v1" pos="131.46" speed="4.12"/>
            </lane>
        </edge>
    </timestep>
    <timestep time="53.00">
        <edge id="gneE0">
            <lane id="gneE0_0">
                <vehicle id="v1" pos="135.58" speed="4.12"/>
            </lane>
        </edge>
    </timestep>
    <timestep time="54.00">
        <edge id="gneE0">
            <lane id="gneE0_0">
                <vehicle id="v1" pos="139.71" speed="4.12"/>
            </lane>
        </edge>
    </timestep>
    <timestep time="55.00">
        <edge id="gneE0">
            <lane id="gneE0_0">
                <vehicle id="v1" pos="143.83" speed="4.12"/>
            </lane>
        </edge>
    </timestep>
    <timestep time="56.00">
        <edge id="gneE0">
            <lane id="gneE0_0">
                <vehicle id="v1" pos="147.96" speed="4.12"/>
            </lane>
        </edge>
    </timestep>
    <timestep time="57.00">
        <edge id="gneE0">
            <lane id="gneE0_0">
                <vehicle id="v1" pos="152.08" speed="4.12"/>
            </lane>
        </edge>
    </timestep>
    <timestep time="58.00">
        <edge id="gneE0">
            <lane id="gneE0_0">
                <vehicle id="v1" pos="156.20" speed="4.12"/>
            </lane>
        </edge>
    </timestep>
    <timestep time="59.00">
        <edge id="gneE0">
            <lane id="gneE0_0">
                <vehicle id="v1" pos="160.33" speed="4.12"/>
            </lane>
        </edge>
    </timestep>
    <timestep time="60.00">
        <edge id="gneE0">
            <lane id="gneE0_0">
                <vehicle id="v1" pos="164.45" speed="4.12"/>
            </lane>
        </edge>
    </timestep>
    <timestep time="61.00">
        <edge id="gneE0">
            <lane id="gneE0_0">
                <vehicle id="v1" pos="168.57" speed="4.12"/>
            </lane>
        </edge>
    </timestep>
    <timestep time="62.00">
        <edge id="gneE0">
            <lane id="gneE0_0">
                <vehicle id="v1" pos="172.70" speed="4.12"/>
            </lane>
        </edge>
    </timestep>
    <timestep time="63.00">
        <edge id="gneE0">
            <lane id="gneE0_0">
                <vehicle id="v1" pos="176.82" speed="4.12"/>
            </lane>
        </edge>
    </timestep>
    <timestep time="64.00">
        <edge id="gneE0">
            <lane id="gneE0_0">
                <vehicle id="v1" pos="180.95" speed="4.12"/>
            </lane>
        </edge>
    </timestep>
    <timestep time="65.00">
        <edge id="gneE0">
            <lane id="gneE0_0">
                <vehicle id="v1" pos="185.07" speed="4.12"/>
            </lane>
        </edge>
    </timestep>
    <timestep time="66.00">
        <edge id="gneE0">
            <lane id="gneE0_0">
                <vehicle id="v1" pos="189.19" speed="4.12"/>
            </lane>
        </edge>
    </timestep>
    <timestep time="67.00">
        <edge id="gneE0">
            <lane id="gneE0_0">
                <vehicle id="v1" pos="193.32" speed="4.12"/>
            </lane>
        </edge>
    </timestep>
    <timestep time="68.00">
        <edge id="gneE0">
            <lane id="gneE0_0">
                <vehicle id="v1" pos="197.44" speed="4.12"/>
            </lane>
        </edge>
    </timestep>
    <timestep time="69.00">
        <edge id="gneE0">
            <lane id="gneE0_0">
                <vehicle id="v1" pos="201.56" speed="4.12"/>
            </lane>
        </edge>
    </timestep>
    <timestep time="70.00">
        <edge id="gneE0">
            <lane id="gneE0_0">
                <vehicle id="v1" pos="205.69" speed="4.12"/>
            </lane>
        </edge>
    </timestep>
    <timestep time="71.00">
        <edge id="gneE0">
            <lane id="gneE0_0">
                <vehicle id="v1" pos="209.81" speed="4.12"/>
            </lane>
        </edge>
    </timestep>
    <timestep time="72.00">
        <edge id="gneE0">
            <lane id="gneE0_0">
                <vehicle id="v1" pos="213.94" speed="4.12"/>
            </lane>
        </edge>
    </timestep>
    <timestep time="73.00">
        <edge id="gneE0">
            <lane id="gneE0_0">
                <vehicle id="v1" pos="218.06" speed="4.12"/>
            </lane>
        </edge>
    </timestep>
    <timestep time="74.00">
        <edge id="gneE0">
            <lane id="gneE0_0">
                <vehicle id="v1" pos="222.18" speed="4.12"/>
            </lane>
        </edge>
    </timestep>
    <timestep time="75.00">
        <edge id="gneE0">
            <lane id="gneE0_0">
                <vehicle id="v1" pos="226.31" speed="4.12"/>
            </lane>
        </edge>
    </timestep>
    <timestep time="76.00">
        <edge id="gneE0">
            <lane id="gneE0_0">
                <vehicle id="v1" pos="230.43" speed="4.12"/>
            </lane>
        </edge>
    </timestep>
    <timestep time="77.00">
        <edge id="gneE0">
            <lane id="gneE0_0">
                <vehicle id="v1" pos="234.55" speed="4.12"/>
            </lane>
        </edge>
    </timestep>
    <timestep time="78.00">
        <edge id="gneE0">
            <lane id="gneE0_0">
                <vehicle id="v1" pos="238.68" speed="4.12"/>
            </lane>
        </edge>
    </timestep>
    <timestep time="79.00">
        <edge id="gneE0">
            <lane id="gneE0_0">
                <vehicle id="v1" pos="242.80" speed="4.12"/>
            </lane>
        </edge>
    </timestep>
    <timestep time="80.00">
        <edge id="gneE0">
            <lane id="gneE0_0">
                <vehicle id="v1" pos="246.92" speed="4.12"/>
            </lane>
        </edge>
    </timestep>
    <timestep time="81.00">
        <edge id="gneE0">
            <lane id="gneE0_0">
                <vehicle id="v1" pos="251.05" speed="4.12"/>
            </lane>
        </edge>
    </timestep>
    <timestep time="82.00">
        <edge id="gneE0">
            <lane id="gneE0_0">
                <vehicle id="v1" pos="255.17" speed="4.12"/>
            </lane>
        </edge>
    </timestep>
    <timestep time="83.00">
        <edge id="gneE0">
            <lane id="gneE0_0">
                <vehicle id="v1" pos="259.30" speed="4.12"/>
            </lane>
        </edge>
    </timestep>
    <timestep time="84.00">
        <edge id="gneE0">
            <lane id="gneE0_0">
                <vehicle id="v1" pos="263.42" speed="4.12"/>
            </lane>
        </edge>
    </timestep>
    <timestep time="85.00">
        <edge id="gneE0">
            <lane id="gneE0_0">
                <vehicle id="v1" pos="267.54" speed="4.12"/>
            </lane>
        </edge>
    </timestep>
    <timestep time="86.00">
        <edge id="gneE0">
            <lane id="gneE0_0">
                <vehicle id="v1" pos="271.67" speed="4.12"/>
            </lane>
        </edge>
    </timestep>
    <timestep time="87.00">
        <edge id="gneE0">
            <lane id="gneE0_0">
                <vehicle id="v1" pos="275.79" speed="4.12"/>
            </lane>
        </edge>
    </timestep>
    <timestep time="88.00">
        <edge id="gneE0">
            <lane id="gneE0_0">
                <vehicle id="v1" pos="279.91" speed="4.12"/>
            </lane>
        </edge>
    </timestep>
    <timestep time="89.00">
        <edge id="gneE0">
            <lane id="gneE0_0">
                <vehicle id="v1" pos="284.04" speed="4.12"/>
            </lane>
        </edge>
    </timestep>
    <timestep time="90.00">
        <edge id="gneE1">
            <lane id="gneE1_0">
                <vehicle id="v1" pos="0.42" speed="4.12"/>
            </lane>
        </edge>
    </timestep>
    <timestep time="91.00">
        <edge id="gneE1">
            <lane id="gneE1_0">
                <vehicle id="v1" pos="4.55" speed="4.12"/>
            </lane>
        </edge>
    </timestep>
    <timestep time="92.00">
        <edge id="gneE1">
            <lane id="gneE1_0">
                <vehicle id="v1" pos="8.67" speed="4.12"/>
            </lane>
        </edge>
    </timestep>
    <timestep time="93.00">
        <edge id="gneE1">
            <lane id="gneE1_0">
                <vehicle id="v1" pos="12.79" speed="4.12"/>
            </lane>
        </edge>
    </timestep>
    <timestep time="94.00">
        <edge id="gneE1">
            <lane id="gneE1_0">
                <vehicle id="v1" pos="16.92" speed="4.12"/>
            </lane>
        </edge>
    </timestep>
    <timestep time="95.00">
        <edge id="gneE1">
            <lane id="gneE1_0">
                <vehicle id="v1" pos="21.04" speed="4.12"/>
            </lane>
        </edge>
    </timestep>
    <timestep time="96.00">
        <edge id="gneE1">
            <lane id="gneE1_0">
                <vehicle id="v1" pos="25.16" speed="4.12"/>
            </lane>
        </edge>
    </timestep>
    <timestep time="97.00">
        <edge id="gneE1">
            <lane id="gneE1_0">
                <vehicle id="v1" pos="29.29" speed="4.12"/>
            </lane>
        </edge>
    </timestep>
    <timestep time="98.00">
        <edge id="gneE1">
            <lane id="gneE1_0">
                <vehicle id="v1" pos="33.41" speed="4.12"/>
            </lane>
        </edge>
    </timestep>
    <timestep time="99.00">
        <edge id="gneE1">
            <lane id="gneE1_0">
                <vehicle id="v1" pos="37.54" speed="4.12"/>
            </lane>
        </edge>
    </timestep>
    <timestep time="100.00">
        <edge id="gneE1">
            <lane id="gneE1_0">
                <vehicle id="v1" pos="41.66" speed="4.12"/>
            </lane>
        </edge>
    </timestep>
    <timestep time="101.00">
        <edge id="gneE1">
            <lane id="gneE1_0">
                <vehicle id="v1" pos="45.78" speed="4.12"/>
            </lane>
        </edge>
    </timestep>
    <timestep time="102.00">
        <edge id="gneE1">
            <lane id="gneE1_0">
                <vehicle id="v1" pos="49.91" speed="4.12"/>
            </lane>
        </edge>
    </timestep>
    <timestep time="103.00">
        <edge id="gneE1">
            <lane id="gneE1_0">
                <vehicle id="v1" pos="54.03" speed="4.12"/>
            </lane>
        </edge>
    </timestep>
    <timestep time="104.00">
        <edge id="gneE1">
            <lane id="gneE1_0">
                <vehicle id="v1" pos="58.15" speed="4.12"/>
            </lane>
        </edge>
    </timestep>
    <timestep time="105.00">
        <edge id="gneE1">
            <lane id="gneE1_0">
                <vehicle id="v1" pos="62.28" speed="4.12"/>
            </lane>
        </edge>
    </timestep>
    <timestep time="106.00">
        <edge id="gneE1">
            <lane id="gneE1_0">
                <vehicle id="v1" pos="66.40" speed="4.12"/>
            </lane>
        </edge>
    </timestep>
    <timestep time="107.00">
        <edge id="gneE1">
            <lane id="gneE1_0">
                <vehicle id="v1" pos="70.52" speed="4.12"/>
            </lane>
        </edge>
    </timestep>
    <timestep time="108.00">
        <edge id="gneE1">
            <lane id="gneE1_0">
                <vehicle id="v1" pos="74.65" speed="4.12"/>
            </lane>
        </edge>
    </timestep>
    <timestep time="109.00">
        <edge id="gneE1">
            <lane id="gneE1_0">
                <vehicle id="v1" pos="78.77" speed="4.12"/>
            </lane>
        </edge>
    </timestep>
    <timestep time="110.00">
        <edge id="gneE1">
            <lane id="gneE1_0">
                <vehicle id="v1" pos="82.90" speed="4.12"/>
            </lane>
        </edge>
    </timestep>
    <timestep time="111.00">
        <edge id="gneE1">
            <lane id="gneE1_0">
                <vehicle id="v1" pos="87.02" speed="4.12"/>
            </lane>
        </edge>
    </timestep>
    <timestep time="112.00">
        <edge id="gneE1">
            <lane id="gneE1_0">
                <vehicle id="v1" pos="91.14" speed="4.12"/>
            </lane>
        </edge>
    </timestep>
    <timestep time="113.00">
        <edge id="gneE1">
            <lane id="gneE1_0">
                <vehicle id="v1" pos="95.27" speed="4.12"/>
            </lane>
        </edge>
    </timestep>
    <timestep time="114.00">
        <edge id="gneE1">
            <lane id="gneE1_0">
                <vehicle id="v1" pos="99.39" speed="4.12"/>
            </lane>
        </edge>
    </timestep>
    <timestep time="115.00">
        <edge id="gneE1">
            <lane id="gneE1_0">
                <vehicle id="v1" pos="103.51" speed="4.12"/>
            </lane>
        </edge>
    </timestep>
    <timestep time="116.00">
        <edge id="gneE1">
            <lane id="gneE1_0">
                <vehicle id="v1" pos="107.56" speed="4.04"/>
            </lane>
        </edge>
    </timestep>
    <timestep time="117.00">
        <edge id="gneE1">
            <lane id="gneE1_0">
                <vehicle id="v1" pos="111.45" speed="3.89"/>
            </lane>
        </edge>
    </timestep>
    <timestep time="118.00">
        <edge id="gneE1">
            <lane id="gneE1_0">
                <vehicle id="v1" pos="115.19" speed="3.74"/>
            </lane>
        </edge>
    </timestep>
    <timestep time="119.00">
        <edge id="gneE1">
            <lane id="gneE1_0">
                <vehicle id="v1" pos="118.78" speed="3.59"/>
            </lane>
        </edge>
    </timestep>
    <timestep time="120.00">
        <edge id="gneE1">
            <lane id="gneE1_0">
                <vehicle id="v1" pos="122.22" speed="3.44"/>
            </lane>
        </edge>
    </timestep>
    <timestep time="121.00">
        <edge id="gneE1">
            <lane id="gneE1_0">
                <vehicle id="v1" pos="125.52" speed="3.29"/>
            </lane>
        </edge>
    </timestep>
    <timestep time="122.00">
        <edge id="gneE1">
            <lane id="gneE1_0">
                <vehicle id="v1" pos="128.66" speed="3.14"/>
            </lane>
        </edge>
    </timestep>
    <timestep time="123.00">
        <edge id="gneE1">
            <lane id="gneE1_0">
                <vehicle id="v1" pos="131.65" speed="2.99"/>
            </lane>
        </edge>
    </timestep>
    <timestep time="124.00">
        <edge id="gneE1">
            <lane id="gneE1_0">
                <vehicle id="v1" pos="134.49" speed="2.84"/>
            </lane>
        </edge>
    </timestep>
    <timestep time="125.00">
        <edge id="gneE1">
            <lane id="gneE1_0">
                <vehicle id="v1" pos="137.19" speed="2.69"/>
            </lane>
        </edge>
    </timestep>
    <timestep time="126.00">
        <edge id="gneE1">
            <lane id="gneE1_0">
                <vehicle id="v1" pos="139.73" speed="2.54"/>
            </lane>
        </edge>
    </timestep>
    <timestep time="127.00">
        <edge id="gneE1">
            <lane id="gneE1_0">
                <vehicle id="v1" pos="142.12" speed="2.39"/>
            </lane>
        </edge>
    </timestep>
    <timestep time="128.00">
        <edge id="gneE1">
            <lane id="gneE1_0">
                <vehicle id="v1" pos="144.36" speed="2.24"/>
            </lane>
        </edge>
    </timestep>
    <timestep time="129.00">
        <edge id="gneE1">
            <lane id="gneE1_0">
                <vehicle id="v1" pos="146.45" speed="2.09"/>
            </lane>
        </edge>
    </timestep>
    <timestep time="130.00">
        <edge id="gneE1">
            <lane id="gneE1_0">
                <vehicle id="v1" pos="148.40" speed="1.94"/>
            </lane>
        </edge>
    </timestep>
    <timestep time="131.00">
        <edge id="gneE1">
            <lane id="gneE1_0">
                <vehicle id="v1" pos="150.19" speed="1.79"/>
            </lane>
        </edge>
    </timestep>
    <timestep time="132.00">
        <edge id="gneE1">
            <lane id="gneE1_0">
                <vehicle id="v1" pos="151.83" speed="1.64"/>
            </lane>
        </edge>
    </timestep>
    <timestep time="133.00">
        <edge id="gneE1">
            <lane id="gneE1_0">
                <vehicle id="v1" pos="153.32" speed="1.49"/>
            </lane>
        </edge>
    </timestep>
    <timestep time="134.00">
        <edge id="gneE1">
            <lane id="gneE1_0">
                <vehicle id="v1" pos="154.66" speed="1.34"/>
            </lane>
        </edge>
    </timestep>
    <timestep time="135.00">
        <edge id="gneE1">
            <lane id="gneE1_0">
                <vehicle id="v1" pos="155.86" speed="1.19"/>
            </lane>
        </edge>
    </timestep>
    <timestep time="136.00">
        <edge id="gneE1">
            <lane id="gneE1_0">
                <vehicle id="v1" pos="156.90" speed="1.04"/>
            </lane>
        </edge>
    </timestep>
    <timestep time="137.00">
        <edge id="gneE1">
            <lane id="gneE1_0">
                <vehicle id="v1" pos="157.79" speed="0.89"/>
            </lane>
        </edge>
    </timestep>
    <timestep time="138.00">
        <edge id="gneE1">
            <lane id="gneE1_0">
                <vehicle id="v1" pos="158.53" speed="0.74"/>
            </lane>
        </edge>
    </timestep>
    <timestep time="139.00">
        <edge id="gneE1">
            <lane id="gneE1_0">
                <vehicle id="v1" pos="159.12" speed="0.59"/>
            </lane>
        </edge>
    </timestep>
    <timestep time="140.00">
        <edge id="gneE1">
            <lane id="gneE1_0">
                <vehicle id="v1" pos="159.57" speed="0.44"/>
            </lane>
        </edge>
    </timestep>
    <timestep time="141.00">
        <edge id="gneE1">
            <lane id="gneE1_0">
                <vehicle id="v1" pos="159.86" speed="0.29"/>
            </lane>
        </edge>
    </timestep>
    <timestep time="142.00">
        <edge id="gneE1">
            <lane id="gneE1_0">
                <vehicle id="v1" pos="160.00" speed="0.14"/>
            </lane>
        </edge>
    </timestep>
    <timestep time="143.00">
        <edge id="gneE1">
            <lane id="gneE1_0">
                <vehicle id="v1" pos="160.00" speed="0.00"/>
            </lane>
        </edge>
    </timestep>
    <timestep time="144.00">
        <edge id="gneE1">
            <lane id="gneE1_0">
                <vehicle id="v1" pos="160.00" speed="0.00"/>
            </lane>
        </edge>
    </timestep>
    <timestep time="145.00">
        <edge id="gneE1">
            <lane id="gneE1_0">
                <vehicle id="v1" pos="160.00" speed="0.00"/>
            </lane>
        </edge>
    </timestep>
    <timestep time="146.00">