<?xml version="1.0" encoding="UTF-8"?>

<!-- generated on 2026-04-10T16:37:00.096583+01:00 by Eclipse SUMO sumo v1_26_0+1074-0d0ca2f0495
<sumoConfiguration xmlns:xsi="http://www.w3.org/2001/XMLSchema-instance" xsi:noNamespaceSchemaLocation="http://sumo.dlr.de/xsd/sumoConfiguration.xsd">

    <input>
        <net-file value="004/../input_net.net.xml"/>
        <route-files value="004/input_routes_004.rou.xml.gz"/>
        <additional-files value="004/../edgedata.add.xml"/>
    </input>

    <output>
        <output-prefix value="004/"/>
        <summary-output value="004/../summary_004.xml"/>
        <tripinfo-output value="004/../tripinfo_004.xml"/>
    </output>

    <time>
        <begin value="0"/>
    </time>

    <processing>
        <route-steps value="200"/>
        <no-internal-links value="False"/>
        <time-to-teleport value="300"/>
        <time-to-teleport.highways value="0"/>
        <eager-insert value="False"/>
    </processing>

    <report>
        <verbose value="true"/>
        <no-warnings value="False"/>
        <log value="004/../iteration_004.sumo.log"/>
        <no-step-log value="true"/>
    </report>

    <random_number>
        <random value="False"/>
    </random_number>

</sumoConfiguration>
-->

<tripinfos xmlns:xsi="http://www.w3.org/2001/XMLSchema-instance" xsi:noNamespaceSchemaLocation="http://sumo.dlr.de/xsd/tripinfo_file.xsd">
    <tripinfo id="0" depart="0.00" departLane="beg_1" departPos="5.10" departSpeed="27.80" departDelay="0.00" arrival="122.00" arrivalLane="rend_1" arrivalPos="500.00" arrivalSpeed="28.49" duration="122.00" routeLength="3507.26" waitingTime="0.00" waitingCount="0" stopTime="0.00" timeLoss="2.81" rerouteNo="0" devices="tripinfo_0" vType="DEFAULT_VEHTYPE" speedFactor="1.06" vaporized=""/>
    <tripinfo id="1" depart="10.00" departLane="beg_1" departPos="5.10" departSpeed="26.08" departDelay="0.00" arrival="148.00" arrivalLane="rend_0" arrivalPos="500.00" arrivalSpeed="25.23" duration="138.00" routeLength="3507.26" waitingTime="0.00" waitingCount="0" stopTime="0.00" timeLoss="3.26" rerouteNo="0" devices="tripinfo_1" vType="DEFAULT_VEHTYPE" speedFactor="0.94" vaporized=""/>
    <tripinfo id="3" depart="30.00" departLane="beg_1" departPos="5.10" departSpeed="27.80" departDelay="0.00" arrival="150.00" arrivalLane="rend_1" arrivalPos="500.00" arrivalSpeed="30.05" duration="120.00" routeLength="3507.26" waitingTime="0.00" waitingCount="0" stopTime="0.00" timeLoss="2.78" rerouteNo="0" devices="tripinfo_3" vType="DEFAULT_VEHTYPE" speedFactor="1.08" vaporized=""/>
    <tripinfo id="2" depart="20.00" departLane="beg_0" departPos="5.10" departSpeed="27.80" departDelay="0.00" arrival="152.00" arrivalLane="rend_0" arrivalPos="500.00" arrivalSpeed="27.78" duration="132.00" routeLength="2494.90" waitingTime="0.00" waitingCount="0" stopTime="0.00" timeLoss="7.59" rerouteNo="0" devices="tripinfo_2" vType="DEFAULT_VEHTYPE" speedFactor="1.01" vaporized=""/>
    <tripinfo id="4" depart="40.00" departLane="beg_1" departPos="5.10" departSpeed="28.64" departDelay="0.00" arrival="166.00" arrivalLane="rend_1" arrivalPos="500.00" arrivalSpeed="28.15" duration="126.00" routeLength="3507.26" waitingTime="0.00" waitingCount="0" stopTime="0.00" timeLoss="3.03" rerouteNo="0" devices="tripinfo_4" vType="DEFAULT_VEHTYPE" speedFactor="1.03" vaporized=""/>
    <tripinfo id="6" depart="60.00" departLane="beg_1" departPos="5.10" departSpeed="27.80" departDelay="0.00" arrival="184.00" arrivalLane="rend_1" arrivalPos="500.00" arrivalSpeed="28.84" duration="124.00" routeLength="3507.26" waitingTime="0.00" waitingCount="0" stopTime="0.00" timeLoss="3.01" rerouteNo="0" devices="tripinfo_6" vType="DEFAULT_VEHTYPE" speedFactor="1.05" vaporized=""/>
    <tripinfo id="5" depart="50.00" departLane="beg_0" departPos="5.10" departSpeed="23.10" departDelay="0.00" arrival="211.00" arrivalLane="rend_0" arrivalPos="500.00" arrivalSpeed="22.81" duration="161.00" routeLength="2494.90" waitingTime="0.00" waitingCount="0" stopTime="0.00" timeLoss="9.46" rerouteNo="0" devices="tripinfo_5" vType="DEFAULT_VEHTYPE" speedFactor="0.83" vaporized=""/>
    <tripinfo id="8" depart="80.00" departLane="beg_1" departPos="5.10" departSpeed="26.07" departDelay="0.00" arrival="219.00" arrivalLane="rend_0" arrivalPos="500.00" arrivalSpeed="24.83" duration="139.00" routeLength="3507.26" waitingTime="0.00" waitingCount="0" stopTime="0.00" timeLoss="3.67" rerouteNo="0" devices="tripinfo_8" vType="DEFAULT_VEHTYPE" speedFactor="0.94" vaporized=""/>
    <tripinfo id="7" depart="70.00" departLane="beg_0" departPos="5.10" departSpeed="22.94" departDelay="0.00" arrival="221.00" arrivalLane="rend_0" arrivalPos="500.00" arrivalSpeed="24.08" duration="151.00" routeLength="2494.90" waitingTime="0.00" waitingCount="0" stopTime="0.00" timeLoss="9.00" rerouteNo="0" devices="tripinfo_7" vType="DEFAULT_VEHTYPE" speedFactor="0.89" vaporized=""/>
    <tripinfo id="9" depart="90.00" departLane="beg_1" departPos="5.10" departSpeed="23.82" departDelay="0.00" arrival="242.00" arrivalLane="rend_0" arrivalPos="500.00" arrivalSpeed="23.04" duration="152.00" routeLength="3507.26" waitingTime="0.00" waitingCount="0" stopTime="0.00" timeLoss="3.86" rerouteNo="0" devices="tripinfo_9" vType="DEFAULT_VEHTYPE" speedFactor="0.86" vaporized=""/>
</tripinfos>
