<?xml version="1.0" encoding="UTF-8"?>

<!-- generated on 2022-03-22 08:11:59 by Eclipse SUMO sumo Version v1_12_0+1571-1966e08
This data file and the accompanying materials
are made available under the terms of the Eclipse Public License v2.0
which accompanies this distribution, and is available at
http://www.eclipse.org/legal/epl-v20.html
This file may also be made available under the following Secondary
Licenses when the conditions for such availability set forth in the Eclipse
Public License 2.0 are satisfied: GNU General Public License, version 2
or later which is available at
https://www.gnu.org/licenses/old-licenses/gpl-2.0-standalone.html
SPDX-License-Identifier: EPL-2.0 OR GPL-2.0-or-later
<configuration xmlns:xsi="http://www.w3.org/2001/XMLSchema-instance" xsi:noNamespaceSchemaLocation="http://sumo.dlr.de/xsd/sumoConfiguration.xsd">

    <input>
        <net-file value="net.net.xml"/>
        <route-files value="input_routes.rou.xml"/>
    </input>

    <output>
        <write-license value="true"/>
        <fcd-output value="fcd.xml"/>
        <tripinfo-output value="tripinfos.xml"/>
        <vehroute-output value="vehroutes.xml"/>
    </output>

    <processing>
        <default.speeddev value="0"/>
    </processing>

    <report>
        <xml-validation value="never"/>
        <xml-validation.routes value="never"/>
        <no-step-log value="true"/>
    </report>

</configuration>
-->

<fcd-export xmlns:xsi="http://www.w3.org/2001/XMLSchema-instance" xsi:noNamespaceSchemaLocation="http://sumo.dlr.de/xsd/fcd_file.xsd">
    <timestep time="0.00">
        <vehicle id="ego" x="0.00" y="-1.60" angle="90.00" type="DEFAULT_VEHTYPE" speed="0.00" pos="0.00" lane="a_0" slope="0.00"/>
        <vehicle id="oncoming1" x="200.00" y="1.60" angle="270.00" type="DEFAULT_VEHTYPE" speed="13.89" pos="0.00" lane="-a_0" slope="0.00"/>
    </timestep>
    <timestep time="1.00">
        <vehicle id="ego" x="2.60" y="-1.60" angle="90.00" type="DEFAULT_VEHTYPE" speed="2.60" pos="2.60" lane="a_0" slope="0.00"/>
        <vehicle id="oncoming1" x="186.11" y="1.60" angle="270.00" type="DEFAULT_VEHTYPE" speed="13.89" pos="13.89" lane="-a_0" slope="0.00"/>
    </timestep>
    <timestep time="2.00">
        <vehicle id="ego" x="7.80" y="-1.60" angle="90.00" type="DEFAULT_VEHTYPE" speed="5.20" pos="7.80" lane="a_0" slope="0.00"/>
        <vehicle id="oncoming1" x="172.22" y="1.60" angle="270.00" type="DEFAULT_VEHTYPE" speed="13.89" pos="27.78" lane="-a_0" slope="0.00"/>
        <vehicle id="oncoming2" x="200.00" y="1.60" angle="270.00" type="DEFAULT_VEHTYPE" speed="13.89" pos="0.00" lane="-a_0" slope="0.00"/>
    </timestep>
    <timestep time="3.00">
        <vehicle id="ego" x="15.60" y="-1.60" angle="90.00" type="DEFAULT_VEHTYPE" speed="7.80" pos="15.60" lane="a_0" slope="0.00"/>
        <vehicle id="oncoming1" x="158.33" y="1.60" angle="270.00" type="DEFAULT_VEHTYPE" speed="13.89" pos="41.67" lane="-a_0" slope="0.00"/>
        <vehicle id="oncoming2" x="186.11" y="1.60" angle="270.00" type="DEFAULT_VEHTYPE" speed="13.89" pos="13.89" lane="-a_0" slope="0.00"/>
    </timestep>
    <timestep time="4.00">
        <vehicle id="ego" x="26.00" y="-1.60" angle="90.00" type="DEFAULT_VEHTYPE" speed="10.40" pos="26.00" lane="a_0" slope="0.00"/>
        <vehicle id="oncoming1" x="144.44" y="1.60" angle="270.00" type="DEFAULT_VEHTYPE" speed="13.89" pos="55.56" lane="-a_0" slope="0.00"/>
        <vehicle id="oncoming2" x="172.22" y="1.60" angle="270.00" type="DEFAULT_VEHTYPE" speed="13.89" pos="27.78" lane="-a_0" slope="0.00"/>
    </timestep>
    <timestep time="5.00">
        <vehicle id="ego" x="39.00" y="-1.60" angle="90.00" type="DEFAULT_VEHTYPE" speed="13.00" pos="39.00" lane="a_0" slope="0.00"/>
        <vehicle id="oncoming1" x="130.55" y="1.60" angle="270.00" type="DEFAULT_VEHTYPE" speed="13.89" pos="69.45" lane="-a_0" slope="0.00"/>
        <vehicle id="oncoming2" x="158.33" y="1.60" angle="270.00" type="DEFAULT_VEHTYPE" speed="13.89" pos="41.67" lane="-a_0" slope="0.00"/>
    </timestep>
    <timestep time="6.00">
        <vehicle id="ego" x="52.89" y="-1.60" angle="90.00" type="DEFAULT_VEHTYPE" speed="13.89" pos="52.89" lane="a_0" slope="0.00"/>
        <vehicle id="oncoming1" x="116.66" y="1.60" angle="270.00" type="DEFAULT_VEHTYPE" speed="13.89" pos="83.34" lane="-a_0" slope="0.00"/>
        <vehicle id="oncoming2" x="144.44" y="1.60" angle="270.00" type="DEFAULT_VEHTYPE" speed="13.89" pos="55.56" lane="-a_0" slope="0.00"/>
    </timestep>
    <timestep time="7.00">
        <vehicle id="ego" x="66.42" y="-1.60" angle="90.00" type="DEFAULT_VEHTYPE" speed="13.53" pos="66.42" lane="a_0" slope="0.00"/>
        <vehicle id="oncoming1" x="102.77" y="1.60" angle="270.00" type="DEFAULT_VEHTYPE" speed="13.89" pos="97.23" lane="-a_0" slope="0.00"/>
        <vehicle id="oncoming2" x="130.55" y="1.60" angle="270.00" type="DEFAULT_VEHTYPE" speed="13.89" pos="69.45" lane="-a_0" slope="0.00"/>
    </timestep>
    <timestep time="8.00">
        <vehicle id="ego" x="75.45" y="-1.60" angle="90.00" type="DEFAULT_VEHTYPE" speed="9.03" pos="75.45" lane="a_0" slope="0.00"/>
        <vehicle id="oncoming1" x="88.88" y="1.60" angle="270.00" type="DEFAULT_VEHTYPE" speed="13.89" pos="111.12" lane="-a_0" slope="0.00"/>
        <vehicle id="oncoming2" x="116.66" y="1.60" angle="270.00" type="DEFAULT_VEHTYPE" speed="13.89" pos="83.34" lane="-a_0" slope="0.00"/>
    </timestep>
    <timestep time="9.00">
        <vehicle id="ego" x="79.97" y="-1.60" angle="90.00" type="DEFAULT_VEHTYPE" speed="4.53" pos="79.97" lane="a_0" slope="0.00"/>
        <vehicle id="oncoming1" x="74.99" y="1.60" angle="270.00" type="DEFAULT_VEHTYPE" speed="13.89" pos="125.01" lane="-a_0" slope="0.00"/>
        <vehicle id="oncoming2" x="102.77" y="1.60" angle="270.00" type="DEFAULT_VEHTYPE" speed="13.89" pos="97.23" lane="-a_0" slope="0.00"/>
    </timestep>
    <timestep time="10.00">
        <vehicle id="ego" x="80.00" y="1.60" angle="90.00" type="DEFAULT_VEHTYPE" speed="0.03" pos="120.00" lane="-a_0" slope="0.00"/>
        <vehicle id="oncoming1" x="61.10" y="1.60" angle="270.00" type="DEFAULT_VEHTYPE" speed="13.89" pos="138.90" lane="-a_0" slope="0.00"/>
        <vehicle id="oncoming2" x="88.88" y="1.60" angle="270.00" type="DEFAULT_VEHTYPE" speed="13.89" pos="111.12" lane="-a_0" slope="0.00"/>
    </timestep>
    <timestep time="11.00">
        <vehicle id="ego" x="80.00" y="4.80" angle="90.00" type="DEFAULT_VEHTYPE" speed="0.00" pos="120.00" lane="-a_0" slope="0.00"/>
        <vehicle id="oncoming1" x="47.21" y="1.60" angle="270.00" type="DEFAULT_VEHTYPE" speed="13.89" pos="152.79" lane="-a_0" slope="0.00"/>
        <vehicle id="oncoming2" x="83.99" y="1.60" angle="270.00" type="DEFAULT_VEHTYPE" speed="4.89" pos="116.01" lane="-a_0" slope="0.00"/>
    </timestep>
    <timestep time="12.00">
        <vehicle id="ego" x="80.00" y="4.80" angle="90.00" type="DEFAULT_VEHTYPE" speed="0.00" pos="120.00" lane="-a_0" slope="0.00"/>
        <vehicle id="oncoming1" x="33.32" y="1.60" angle="270.00" type="DEFAULT_VEHTYPE" speed="13.89" pos="166.68" lane="-a_0" slope="0.00"/>
        <vehicle id="oncoming2" x="76.50" y="1.60" angle="270.00" type="DEFAULT_VEHTYPE" speed="7.49" pos="123.50" lane="-a_0" slope="0.00"/>
        <vehicle id="oncoming3" x="200.00" y="1.60" angle="270.00" type="DEFAULT_VEHTYPE" speed="13.89" pos="0.00" lane="-a_0" slope="0.00"/>
    </timestep>
    <timestep time="13.00">
        <vehicle id="ego" x="80.00" y="4.80" angle="90.00" type="DEFAULT_VEHTYPE" speed="0.00" pos="120.00" lane="-a_0" slope="0.00"/>
        <vehicle id="oncoming1" x="19.43" y="1.60" angle="270.00" type="DEFAULT_VEHTYPE" speed="13.89" pos="180.57" lane="-a_0" slope="0.00"/>
        <vehicle id="oncoming2" x="66.41" y="1.60" angle="270.00" type="DEFAULT_VEHTYPE" speed="10.09" pos="133.59" lane="-a_0" slope="0.00"/>
        <vehicle id="oncoming3" x="186.11" y="1.60" angle="270.00" type="DEFAULT_VEHTYPE" speed="13.89" pos="13.89" lane="-a_0" slope="0.00"/>
    </timestep>
    <timestep time="14.00">
        <vehicle id="ego" x="80.00" y="4.80" angle="90.00" type="DEFAULT_VEHTYPE" speed="0.00" pos="120.00" lane="-a_0" slope="0.00"/>
        <vehicle id="oncoming1" x="5.54" y="1.60" angle="270.00" type="DEFAULT_VEHTYPE" speed="13.89" pos="194.46" lane="-a_0" slope="0.00"/>
        <vehicle id="oncoming2" x="53.72" y="1.60" angle="270.00" type="DEFAULT_VEHTYPE" speed="12.69" pos="146.28" lane="-a_0" slope="0.00"/>
        <vehicle id="oncoming3" x="172.22" y="1.60" angle="270.00" type="DEFAULT_VEHTYPE" speed="13.89" pos="27.78" lane="-a_0" slope="0.00"/>
    </timestep>
    <timestep time="15.00">
        <vehicle id="ego" x="80.00" y="4.80" angle="90.00" type="DEFAULT_VEHTYPE" speed="0.00" pos="120.00" lane="-a_0" slope="0.00"/>
        <vehicle id="oncoming2" x="39.83" y="1.60" angle="270.00" type="DEFAULT_VEHTYPE" speed="13.89" pos="160.17" lane="-a_0" slope="0.00"/>
        <vehicle id="oncoming3" x="158.33" y="1.60" angle="270.00" type="DEFAULT_VEHTYPE" speed="13.89" pos="41.67" lane="-a_0" slope="0.00"/>
    </timestep>
    <timestep time="16.00">
        <vehicle id="ego" x="80.00" y="4.80" angle="90.00" type="DEFAULT_VEHTYPE" speed="0.00" pos="120.00" lane="-a_0" slope="0.00"/>
        <vehicle id="oncoming2" x="25.94" y="1.60" angle="270.00" type="DEFAULT_VEHTYPE" speed="13.89" pos="174.06" lane="-a_0" slope="0.00"/>
        <vehicle id="oncoming3" x="144.44" y="1.60" angle="270.00" type="DEFAULT_VEHTYPE" speed="13.89" pos="55.56" lane="-a_0" slope="0.00"/>
    </timestep>
    <timestep time="17.00">
        <vehicle id="ego" x="80.00" y="4.80" angle="90.00" type="DEFAULT_VEHTYPE" speed="0.00" pos="120.00" lane="-a_0" slope="0.00"/>
        <vehicle id="oncoming2" x="12.05" y="1.60" angle="270.00" type="DEFAULT_VEHTYPE" speed="13.89" pos="187.95" lane="-a_0" slope="0.00"/>
        <vehicle id="oncoming3" x="130.55" y="1.60" angle="270.00" type="DEFAULT_VEHTYPE" speed="13.89" pos="69.45" lane="-a_0" slope="0.00"/>
    </timestep>
    <timestep time="18.00">
        <vehicle id="ego" x="80.00" y="4.80" angle="90.00" type="DEFAULT_VEHTYPE" speed="0.00" pos="120.00" lane="-a_0" slope="0.00"/>
        <vehicle id="oncoming3" x="116.66" y="1.60" angle="270.00" type="DEFAULT_VEHTYPE" speed="13.89" pos="83.34" lane="-a_0" slope="0.00"/>
    </timestep>
    <timestep time="19.00">
        <vehicle id="ego" x="80.00" y="4.80" angle="90.00" type="DEFAULT_VEHTYPE" speed="0.00" pos="120.00" lane="-a_0" slope="0.00"/>
        <vehicle id="oncoming3" x="102.77" y="1.60" angle="270.00" type="DEFAULT_VEHTYPE" speed="13.89" pos="97.23" lane="-a_0" slope="0.00"/>
    </timestep>
    <timestep time="20.00">
        <vehicle id="ego" x="80.00" y="4.80" angle="90.00" type="DEFAULT_VEHTYPE" speed="0.00" pos="120.00" lane="-a_0" slope="0.00"/>
        <vehicle id="oncoming3" x="88.88" y="1.60" angle="270.00" type="DEFAULT_VEHTYPE" speed="13.89" pos="111.12" lane="-a_0" slope="0.00"/>
    </timestep>
    <timestep time="21.00">
        <vehicle id="ego" x="80.00" y="4.80" angle="90.00" type="DEFAULT_VEHTYPE" speed="0.00" pos="120.00" lane="-a_0" slope="0.00"/>
        <vehicle id="oncoming3" x="74.99" y="1.60" angle="270.00" type="DEFAULT_VEHTYPE" speed="13.89" pos="125.01" lane="-a_0" slope="0.00"/>
    </timestep>
    <timestep time="22.00">
        <vehicle id="ego" x="80.00" y="4.80" angle="90.00" type="DEFAULT_VEHTYPE" speed="0.00" pos="120.00" lane="-a_0" slope="0.00"/>
        <vehicle id="oncoming3" x="61.10" y="1.60" angle="270.00" type="DEFAULT_VEHTYPE" speed="13.89" pos="138.90" lane="-a_0" slope="0.00"/>
    </timestep>
    <timestep time="23.00">
        <vehicle id="ego" x="82.60" y="-1.60" angle="90.00" type="DEFAULT_VEHTYPE" speed="2.60" pos="82.60" lane="a_0" slope="0.00"/>
        <vehicle id="oncoming3" x="47.21" y="1.60" angle="270.00" type="DEFAULT_VEHTYPE" speed="13.89" pos="152.79" lane="-a_0" slope="0.00"/>
    </timestep>
    <timestep time="24.00">
        <vehicle id="ego" x="87.80" y="-1.60" angle="90.00" type="DEFAULT_VEHTYPE" speed="5.20" pos="87.80" lane="a_0" slope="0.00"/>
        <vehicle id="oncoming3" x="33.32" y="1.60" angle="270.00" type="DEFAULT_VEHTYPE" speed="13.89" pos="166.68" lane="-a_0" slope="0.00"/>
    </timestep>
    <timestep time="25.00">
        <vehicle id="ego" x="95.60" y="-1.60" angle="90.00" type="DEFAULT_VEHTYPE" speed="7.80" pos="95.60" lane="a_0" slope="0.00"/>
        <vehicle id="oncoming3" x="19.43" y="1.60" angle="270.00" type="DEFAULT_VEHTYPE" speed="13.89" pos="180.57" lane="-a_0" slope="0.00"/>
    </timestep>
    <timestep time="26.00">
        <vehicle id="ego" x="106.00" y="-1.60" angle="90.00" type="DEFAULT_VEHTYPE" speed="10.40" pos="106.00" lane="a_0" slope="0.00"/>
        <vehicle id="oncoming3" x="5.54" y="1.60" angle="270.00" type="DEFAULT_VEHTYPE" speed="13.89" pos="194.46" lane="-a_0" slope="0.00"/>
    </timestep>
    <timestep time="27.00">
        <vehicle id="ego" x="119.00" y="-1.60" angle="90.00" type="DEFAULT_VEHTYPE" speed="13.00" pos="119.00" lane="a_0" slope="0.00"/>
    </timestep>
    <timestep time="28.00">
        <vehicle id="ego" x="132.89" y="-1.60" angle="90.00" type="DEFAULT_VEHTYPE" speed="13.89" pos="132.89" lane="a_0" slope="0.00"/>
    </timestep>
    <timestep time="29.00">
        <vehicle id="ego" x="146.78" y="-1.60" angle="90.00" type="DEFAULT_VEHTYPE" speed="13.89" pos="146.78" lane="a_0" slope="0.00"/>
    </timestep>
    <timestep time="30.00">
        <vehicle id="ego" x="160.67" y="-1.60" angle="90.00" type="DEFAULT_VEHTYPE" speed="13.89" pos="160.67" lane="a_0" slope="0.00"/>
    </timestep>
    <timestep time="31.00">
        <vehicle id="ego" x="174.56" y="-1.60" angle="90.00" type="DEFAULT_VEHTYPE" speed="13.89" pos="174.56" lane="a_0" slope="0.00"/>
    </timestep>
    <timestep time="32.00">
        <vehicle id="ego" x="188.45" y="-1.60" angle="90.00" type="DEFAULT_VEHTYPE" speed="13.89" pos="188.45" lane="a_0" slope="0.00"/>
    </timestep>
    <timestep time="33.00"/>
</fcd-export>
