<?xml version="1.0" encoding="UTF-8"?>

<!-- generated on 2024-08-29 11:03:19 by Eclipse SUMO sumo Version v1_20_0+1774-ab2e9e1c5a0
This data file and the accompanying materials
are made available under the terms of the Eclipse Public License v2.0
which accompanies this distribution, and is available at
http://www.eclipse.org/legal/epl-v20.html
This file may also be made available under the following Secondary
Licenses when the conditions for such availability set forth in the Eclipse
Public License 2.0 are satisfied: GNU General Public License, version 2
or later which is available at
https://www.gnu.org/licenses/old-licenses/gpl-2.0-standalone.html
SPDX-License-Identifier: EPL-2.0 OR GPL-2.0-or-later
<sumoConfiguration xmlns:xsi="http://www.w3.org/2001/XMLSchema-instance" xsi:noNamespaceSchemaLocation="http://sumo.dlr.de/xsd/sumoConfiguration.xsd">

    <input>
        <net-file value="net.net.xml"/>
        <route-files value="input_routes.rou.xml"/>
    </input>

    <output>
        <write-license value="true"/>
        <tripinfo-output value="tripinfos.xml"/>
        <tripinfo-output.write-unfinished value="true"/>
    </output>

    <processing>
        <default.speeddev value="0"/>
    </processing>

    <report>
        <xml-validation value="never"/>
        <duration-log.disable value="true"/>
        <no-step-log value="true"/>
    </report>

    <taxi_device>
        <device.taxi.dispatch-algorithm value="routeExtension"/>
        <device.taxi.dispatch-algorithm.output value="dispatchinfos.xml"/>
    </taxi_device>

</sumoConfiguration>
-->

<tripinfos xmlns:xsi="http://www.w3.org/2001/XMLSchema-instance" xsi:noNamespaceSchemaLocation="http://sumo.dlr.de/xsd/tripinfo_file.xsd">
    <personinfo id="p1" depart="0.00" type="DEFAULT_PEDTYPE" speedFactor="1.00" duration="416.00" waitingTime="279.00" timeLoss="14.82" traveltime="137.00">
        <ride waitingTime="279.00" vehicle="trip_0" depart="279.00" arrival="416.00" arrivalPos="285.60" duration="137.00" routeLength="877.63" timeLoss="14.82"/>
    </personinfo>
    <personinfo id="p0" depart="0.00" type="DEFAULT_PEDTYPE" speedFactor="1.00" duration="418.00" waitingTime="247.00" timeLoss="24.11" traveltime="171.00">
        <ride waitingTime="247.00" vehicle="trip_0" depart="247.00" arrival="418.00" arrivalPos="285.60" duration="171.00" routeLength="1177.63" timeLoss="24.11"/>
    </personinfo>
    <tripinfo id="trip_0" depart="0.00" departLane="A0B0_1" departPos="8.10" departSpeed="0.00" departDelay="0.00" arrival="418.00" arrivalLane="D1E1_1" arrivalPos="285.60" arrivalSpeed="1.59" duration="418.00" routeLength="1859.82" waitingTime="3.00" waitingCount="1" stopTime="244.00" timeLoss="37.91" rerouteNo="6" devices="tripinfo_trip_0 routing_trip_0 taxi_trip_0 person_trip_0" vType="taxi_large" speedFactor="1.00" vaporized="">
        <taxi customers="1" occupiedDistance="1179.21" occupiedTime="112.00"/>
    </tripinfo>
    <personinfo id="p2" depart="300.00" type="DEFAULT_PEDTYPE" speedFactor="1.00" duration="-1" waitingTime="121.00" timeLoss="-1" traveltime="-1">
        <ride waitingTime="121.00" vehicle="NULL" depart="-1" arrival="-1" arrivalPos="-1" duration="-1" routeLength="-1" timeLoss="-1"/>
    </personinfo>
    <personinfo id="p3" depart="300.00" type="DEFAULT_PEDTYPE" speedFactor="1.00" duration="-1" waitingTime="121.00" timeLoss="-1" traveltime="-1">
        <ride waitingTime="121.00" vehicle="NULL" depart="-1" arrival="-1" arrivalPos="-1" duration="-1" routeLength="-1" timeLoss="-1"/>
    </personinfo>
</tripinfos>
