<?xml version="1.0" encoding="UTF-8"?>

<!-- generated on 2026-01-22T16:25:27.757140+01:00 by Eclipse SUMO sumo v1_25_0+1143-5cfd67bbee0
This data file and the accompanying materials
are made available under the terms of the Eclipse Public License v2.0
which accompanies this distribution, and is available at
http://www.eclipse.org/legal/epl-v20.html
This file may also be made available under the following Secondary
Licenses when the conditions for such availability set forth in the Eclipse
Public License 2.0 are satisfied: GNU General Public License, version 2
or later which is available at
https://www.gnu.org/licenses/old-licenses/gpl-2.0-standalone.html
SPDX-License-Identifier: EPL-2.0 OR GPL-2.0-or-later
<sumoConfiguration xmlns:xsi="http://www.w3.org/2001/XMLSchema-instance" xsi:noNamespaceSchemaLocation="http://sumo.dlr.de/xsd/sumoConfiguration.xsd">

    <input>
        <net-file value="net.net.xml"/>
        <route-files value="input_routes.rou.xml"/>
    </input>

    <output>
        <write-license value="true"/>
        <tripinfo-output value="tripinfos.xml"/>
    </output>

    <processing>
        <lateral-resolution value="0.8"/>
        <time-to-teleport value="100"/>
        <default.speeddev value="0"/>
    </processing>

    <report>
        <xml-validation value="never"/>
        <no-step-log value="true"/>
    </report>

</sumoConfiguration>
-->

<tripinfos xmlns:xsi="http://www.w3.org/2001/XMLSchema-instance" xsi:noNamespaceSchemaLocation="http://sumo.dlr.de/xsd/tripinfo_file.xsd">
    <tripinfo id="overtaking" depart="1.00" departLane="1_0" departPos="0.00" departPosLat="0.00" departSpeed="0.00" departDelay="1.00" arrival="25.00" arrivalLane="2_0" arrivalPos="171.96" arrivalPosLat="0.00" arrivalSpeed="13.89" duration="24.00" routeLength="199.33" waitingTime="3.00" waitingCount="1" stopTime="0.00" timeLoss="9.62" rerouteNo="0" devices="tripinfo_overtaking" vType="DEFAULT_VEHTYPE" speedFactor="1.00" vaporized=""/>
    <tripinfo id="oncoming1" depart="0.00" departLane="-2_0" departPos="100.00" departPosLat="0.00" departSpeed="0.00" departDelay="0.00" arrival="413.00" arrivalLane="-1_0" arrivalPos="26.50" arrivalPosLat="0.00" arrivalSpeed="10.40" duration="413.00" routeLength="99.33" waitingTime="0.00" waitingCount="0" stopTime="400.00" timeLoss="0.00" rerouteNo="0" devices="tripinfo_oncoming1" vType="DEFAULT_VEHTYPE" speedFactor="1.00" vaporized=""/>
    <tripinfo id="stopped" depart="0.00" departLane="1_0" departPos="5.10" departPosLat="0.00" departSpeed="0.00" departDelay="0.00" arrival="420.00" arrivalLane="2_0" arrivalPos="171.96" arrivalPosLat="0.00" arrivalSpeed="13.89" duration="420.00" routeLength="194.23" waitingTime="0.00" waitingCount="0" stopTime="400.00" timeLoss="0.00" rerouteNo="0" devices="tripinfo_stopped" vType="DEFAULT_VEHTYPE" speedFactor="1.00" vaporized=""/>
</tripinfos>
