<?xml version="1.0"?>

<!-- generated on 11/03/08 14:18:00 by SUMO sumo Version dev-SVN-r6273
<configuration>

   <input>
      <net-file>net.net.xml</net-file>
      <route-files>input_routes.rou.xml</route-files>
   </input>

   <output>
      <vehroute-output>vehroutes.xml</vehroute-output>
   </output>

   <time>
      <begin>0</begin>
   </time>

   <processing>
      <incremental-dua-step>2</incremental-dua-step>
      <no-duration-log>true</no-duration-log>
      <no-step-log>true</no-step-log>
   </processing>

</configuration>
-->

<routes>
   <vehicle id="horizontal01" depart="100" arrival="324">
      <route>2fi 2si 1o 1fi 1si 2o 2fi</route>
   </vehicle>

   <vehicle id="horizontal02" depart="102" arrival="326">
      <route>2fi 2si 1o 1fi 1si 2o 2fi</route>
   </vehicle>

</routes>
