<?xml version="1.0"?>

<!-- generated on 01/30/08 12:55:57 by SUMO sumo Version 0.9.7
<configuration>

   <input>
      <net-file>net.net.xml</net-file>
      <additional-files>input_routes.rou.xml,input_additional.add.xml,input_additional2.add.xml</additional-files>
   </input>

   <time>
      <begin>0</begin>
      <end>1000</end>
   </time>

   <processing>
      <no-duration-log>true</no-duration-log>
      <no-step-log>true</no-step-log>
   </processing>

</configuration>
-->

<detector>
   <interval begin="0" end="9" id="3/1to2/1"  nSamples="0"  meanSpeed="-1.00"  meanOccupancy="0.00"  maxOccupancy="0.00"  meanMaxJamLengthInVehicles="0.00"  meanMaxJamLengthInMeters="0.00"  maxJamLengthInVehicles="0"  maxJamLengthInMeters="0.00"  jamLengthInVehiclesSum="0"  jamLengthInMetersSum="0.00"  meanHaltingDuration="0.00"  maxHaltingDuration="0"  haltingDurationSum="0"  meanIntervalHaltingDuration="0.00"  maxIntervalHaltingDuration="0"  intervalHaltingDurationSum="0"  startedHalts="0.00"  meanVehicleNumber="0.00"  maxVehicleNumber="0" />
   <interval begin="0" end="9" id="4/1to3/1"  nSamples="10"  meanSpeed="10.00"  meanOccupancy="2.25"  maxOccupancy="2.50"  meanMaxJamLengthInVehicles="0.00"  meanMaxJamLengthInMeters="0.00"  maxJamLengthInVehicles="0"  maxJamLengthInMeters="0.00"  jamLengthInVehiclesSum="0"  jamLengthInMetersSum="0.00"  meanHaltingDuration="0.00"  maxHaltingDuration="0"  haltingDurationSum="0"  meanIntervalHaltingDuration="0.00"  maxIntervalHaltingDuration="0"  intervalHaltingDurationSum="0"  startedHalts="0.00"  meanVehicleNumber="1.00"  maxVehicleNumber="1" />
   <interval begin="10" end="19" id="3/1to2/1"  nSamples="0"  meanSpeed="-1.00"  meanOccupancy="0.00"  maxOccupancy="0.00"  meanMaxJamLengthInVehicles="0.00"  meanMaxJamLengthInMeters="0.00"  maxJamLengthInVehicles="0"  maxJamLengthInMeters="0.00"  jamLengthInVehiclesSum="0"  jamLengthInMetersSum="0.00"  meanHaltingDuration="0.00"  maxHaltingDuration="0"  haltingDurationSum="0"  meanIntervalHaltingDuration="0.00"  maxIntervalHaltingDuration="0"  intervalHaltingDurationSum="0"  startedHalts="0.00"  meanVehicleNumber="0.00"  maxVehicleNumber="0" />
   <interval begin="10" end="19" id="4/1to3/1"  nSamples="10"  meanSpeed="10.00"  meanOccupancy="2.50"  maxOccupancy="2.50"  meanMaxJamLengthInVehicles="0.00"  meanMaxJamLengthInMeters="0.00"  maxJamLengthInVehicles="0"  maxJamLengthInMeters="0.00"  jamLengthInVehiclesSum="0"  jamLengthInMetersSum="0.00"  meanHaltingDuration="0.00"  maxHaltingDuration="0"  haltingDurationSum="0"  meanIntervalHaltingDuration="0.00"  maxIntervalHaltingDuration="0"  intervalHaltingDurationSum="0"  startedHalts="0.00"  meanVehicleNumber="1.00"  maxVehicleNumber="1" />
   <interval begin="20" end="29" id="3/1to2/1"  nSamples="0"  meanSpeed="-1.00"  meanOccupancy="0.00"  maxOccupancy="0.00"  meanMaxJamLengthInVehicles="0.00"  meanMaxJamLengthInMeters="0.00"  maxJamLengthInVehicles="0"  maxJamLengthInMeters="0.00"  jamLengthInVehiclesSum="0"  jamLengthInMetersSum="0.00"  meanHaltingDuration="0.00"  maxHaltingDuration="0"  haltingDurationSum="0"  meanIntervalHaltingDuration="0.00"  maxIntervalHaltingDuration="0"  intervalHaltingDurationSum="0"  startedHalts="0.00"  meanVehicleNumber="0.00"  maxVehicleNumber="0" />
   <interval begin="20" end="29" id="4/1to3/1"  nSamples="1"  meanSpeed="10.00"  meanOccupancy="0.25"  maxOccupancy="2.50"  meanMaxJamLengthInVehicles="0.00"  meanMaxJamLengthInMeters="0.00"  maxJamLengthInVehicles="0"  maxJamLengthInMeters="0.00"  jamLengthInVehiclesSum="0"  jamLengthInMetersSum="0.00"  meanHaltingDuration="0.00"  maxHaltingDuration="0"  haltingDurationSum="0"  meanIntervalHaltingDuration="0.00"  maxIntervalHaltingDuration="0"  intervalHaltingDurationSum="0"  startedHalts="0.00"  meanVehicleNumber="0.10"  maxVehicleNumber="1" />
   <interval begin="30" end="39" id="3/1to2/1"  nSamples="0"  meanSpeed="-1.00"  meanOccupancy="0.00"  maxOccupancy="0.00"  meanMaxJamLengthInVehicles="0.00"  meanMaxJamLengthInMeters="0.00"  maxJamLengthInVehicles="0"  maxJamLengthInMeters="0.00"  jamLengthInVehiclesSum="0"  jamLengthInMetersSum="0.00"  meanHaltingDuration="0.00"  maxHaltingDuration="0"  haltingDurationSum="0"  meanIntervalHaltingDuration="0.00"  maxIntervalHaltingDuration="0"  intervalHaltingDurationSum="0"  startedHalts="0.00"  meanVehicleNumber="0.00"  maxVehicleNumber="0" />
   <interval begin="30" end="39" id="4/1to3/1"  nSamples="0"  meanSpeed="-1.00"  meanOccupancy="0.00"  maxOccupancy="0.00"  meanMaxJamLengthInVehicles="0.00"  meanMaxJamLengthInMeters="0.00"  maxJamLengthInVehicles="0"  maxJamLengthInMeters="0.00"  jamLengthInVehiclesSum="0"  jamLengthInMetersSum="0.00"  meanHaltingDuration="0.00"  maxHaltingDuration="0"  haltingDurationSum="0"  meanIntervalHaltingDuration="0.00"  maxIntervalHaltingDuration="0"  intervalHaltingDurationSum="0"  startedHalts="0.00"  meanVehicleNumber="0.00"  maxVehicleNumber="0" />
   <interval begin="40" end="49" id="3/1to2/1"  nSamples="10"  meanSpeed="10.00"  meanOccupancy="2.50"  maxOccupancy="2.50"  meanMaxJamLengthInVehicles="0.00"  meanMaxJamLengthInMeters="0.00"  maxJamLengthInVehicles="0"  maxJamLengthInMeters="0.00"  jamLengthInVehiclesSum="0"  jamLengthInMetersSum="0.00"  meanHaltingDuration="0.00"  maxHaltingDuration="0"  haltingDurationSum="0"  meanIntervalHaltingDuration="0.00"  maxIntervalHaltingDuration="0"  intervalHaltingDurationSum="0"  startedHalts="0.00"  meanVehicleNumber="1.00"  maxVehicleNumber="1" />
   <interval begin="40" end="49" id="4/1to3/1"  nSamples="0"  meanSpeed="-1.00"  meanOccupancy="0.00"  maxOccupancy="0.00"  meanMaxJamLengthInVehicles="0.00"  meanMaxJamLengthInMeters="0.00"  maxJamLengthInVehicles="0"  maxJamLengthInMeters="0.00"  jamLengthInVehiclesSum="0"  jamLengthInMetersSum="0.00"  meanHaltingDuration="0.00"  maxHaltingDuration="0"  haltingDurationSum="0"  meanIntervalHaltingDuration="0.00"  maxIntervalHaltingDuration="0"  intervalHaltingDurationSum="0"  startedHalts="0.00"  meanVehicleNumber="0.00"  maxVehicleNumber="0" />
   <interval begin="50" end="59" id="3/1to2/1"  nSamples="10"  meanSpeed="10.00"  meanOccupancy="2.50"  maxOccupancy="2.50"  meanMaxJamLengthInVehicles="0.00"  meanMaxJamLengthInMeters="0.00"  maxJamLengthInVehicles="0"  maxJamLengthInMeters="0.00"  jamLengthInVehiclesSum="0"  jamLengthInMetersSum="0.00"  meanHaltingDuration="0.00"  maxHaltingDuration="0"  haltingDurationSum="0"  meanIntervalHaltingDuration="0.00"  maxIntervalHaltingDuration="0"  intervalHaltingDurationSum="0"  startedHalts="0.00"  meanVehicleNumber="1.00"  maxVehicleNumber="1" />
   <interval begin="50" end="59" id="4/1to3/1"  nSamples="0"  meanSpeed="-1.00"  meanOccupancy="0.00"  maxOccupancy="0.00"  meanMaxJamLengthInVehicles="0.00"  meanMaxJamLengthInMeters="0.00"  maxJamLengthInVehicles="0"  maxJamLengthInMeters="0.00"  jamLengthInVehiclesSum="0"  jamLengthInMetersSum="0.00"  meanHaltingDuration="0.00"  maxHaltingDuration="0"  haltingDurationSum="0"  meanIntervalHaltingDuration="0.00"  maxIntervalHaltingDuration="0"  intervalHaltingDurationSum="0"  startedHalts="0.00"  meanVehicleNumber="0.00"  maxVehicleNumber="0" />
   <interval begin="60" end="69" id="3/1to2/1"  nSamples="0"  meanSpeed="-1.00"  meanOccupancy="0.00"  maxOccupancy="0.00"  meanMaxJamLengthInVehicles="0.00"  meanMaxJamLengthInMeters="0.00"  maxJamLengthInVehicles="0"  maxJamLengthInMeters="0.00"  jamLengthInVehiclesSum="0"  jamLengthInMetersSum="0.00"  meanHaltingDuration="0.00"  maxHaltingDuration="0"  haltingDurationSum="0"  meanIntervalHaltingDuration="0.00"  maxIntervalHaltingDuration="0"  intervalHaltingDurationSum="0"  startedHalts="0.00"  meanVehicleNumber="0.00"  maxVehicleNumber="0" />
   <interval begin="60" end="69" id="4/1to3/1"  nSamples="0"  meanSpeed="-1.00"  meanOccupancy="0.00"  maxOccupancy="0.00"  meanMaxJamLengthInVehicles="0.00"  meanMaxJamLengthInMeters="0.00"  maxJamLengthInVehicles="0"  maxJamLengthInMeters="0.00"  jamLengthInVehiclesSum="0"  jamLengthInMetersSum="0.00"  meanHaltingDuration="0.00"  maxHaltingDuration="0"  haltingDurationSum="0"  meanIntervalHaltingDuration="0.00"  maxIntervalHaltingDuration="0"  intervalHaltingDurationSum="0"  startedHalts="0.00"  meanVehicleNumber="0.00"  maxVehicleNumber="0" />
   <interval begin="70" end="79" id="3/1to2/1"  nSamples="0"  meanSpeed="-1.00"  meanOccupancy="0.00"  maxOccupancy="0.00"  meanMaxJamLengthInVehicles="0.00"  meanMaxJamLengthInMeters="0.00"  maxJamLengthInVehicles="0"  maxJamLengthInMeters="0.00"  jamLengthInVehiclesSum="0"  jamLengthInMetersSum="0.00"  meanHaltingDuration="0.00"  maxHaltingDuration="0"  haltingDurationSum="0"  meanIntervalHaltingDuration="0.00"  maxIntervalHaltingDuration="0"  intervalHaltingDurationSum="0"  startedHalts="0.00"  meanVehicleNumber="0.00"  maxVehicleNumber="0" />
   <interval begin="70" end="79" id="4/1to3/1"  nSamples="0"  meanSpeed="-1.00"  meanOccupancy="0.00"  maxOccupancy="0.00"  meanMaxJamLengthInVehicles="0.00"  meanMaxJamLengthInMeters="0.00"  maxJamLengthInVehicles="0"  maxJamLengthInMeters="0.00"  jamLengthInVehiclesSum="0"  jamLengthInMetersSum="0.00"  meanHaltingDuration="0.00"  maxHaltingDuration="0"  haltingDurationSum="0"  meanIntervalHaltingDuration="0.00"  maxIntervalHaltingDuration="0"  intervalHaltingDurationSum="0"  startedHalts="0.00"  meanVehicleNumber="0.00"  maxVehicleNumber="0" />
   <interval begin="80" end="89" id="3/1to2/1"  nSamples="0"  meanSpeed="-1.00"  meanOccupancy="0.00"  maxOccupancy="0.00"  meanMaxJamLengthInVehicles="0.00"  meanMaxJamLengthInMeters="0.00"  maxJamLengthInVehicles="0"  maxJamLengthInMeters="0.00"  jamLengthInVehiclesSum="0"  jamLengthInMetersSum="0.00"  meanHaltingDuration="0.00"  maxHaltingDuration="0"  haltingDurationSum="0"  meanIntervalHaltingDuration="0.00"  maxIntervalHaltingDuration="0"  intervalHaltingDurationSum="0"  startedHalts="0.00"  meanVehicleNumber="0.00"  maxVehicleNumber="0" />
   <interval begin="80" end="89" id="4/1to3/1"  nSamples="0"  meanSpeed="-1.00"  meanOccupancy="0.00"  maxOccupancy="0.00"  meanMaxJamLengthInVehicles="0.00"  meanMaxJamLengthInMeters="0.00"  maxJamLengthInVehicles="0"  maxJamLengthInMeters="0.00"  jamLengthInVehiclesSum="0"  jamLengthInMetersSum="0.00"  meanHaltingDuration="0.00"  maxHaltingDuration="0"  haltingDurationSum="0"  meanIntervalHaltingDuration="0.00"  maxIntervalHaltingDuration="0"  intervalHaltingDurationSum="0"  startedHalts="0.00"  meanVehicleNumber="0.00"  maxVehicleNumber="0" />
   <interval begin="90" end="99" id="3/1to2/1"  nSamples="0"  meanSpeed="-1.00"  meanOccupancy="0.00"  maxOccupancy="0.00"  meanMaxJamLengthInVehicles="0.00"  meanMaxJamLengthInMeters="0.00"  maxJamLengthInVehicles="0"  maxJamLengthInMeters="0.00"  jamLengthInVehiclesSum="0"  jamLengthInMetersSum="0.00"  meanHaltingDuration="0.00"  maxHaltingDuration="0"  haltingDurationSum="0"  meanIntervalHaltingDuration="0.00"  maxIntervalHaltingDuration="0"  intervalHaltingDurationSum="0"  startedHalts="0.00"  meanVehicleNumber="0.00"  maxVehicleNumber="0" />
   <interval begin="90" end="99" id="4/1to3/1"  nSamples="0"  meanSpeed="-1.00"  meanOccupancy="0.00"  maxOccupancy="0.00"  meanMaxJamLengthInVehicles="0.00"  meanMaxJamLengthInMeters="0.00"  maxJamLengthInVehicles="0"  maxJamLengthInMeters="0.00"  jamLengthInVehiclesSum="0"  jamLengthInMetersSum="0.00"  meanHaltingDuration="0.00"  maxHaltingDuration="0"  haltingDurationSum="0"  meanIntervalHaltingDuration="0.00"  maxIntervalHaltingDuration="0"  intervalHaltingDurationSum="0"  startedHalts="0.00"  meanVehicleNumber="0.00"  maxVehicleNumber="0" />
   <interval begin="100" end="108" id="3/1to2/1"  nSamples="0"  meanSpeed="-1.00"  meanOccupancy="0.00"  maxOccupancy="0.00"  meanMaxJamLengthInVehicles="0.00"  meanMaxJamLengthInMeters="0.00"  maxJamLengthInVehicles="0"  maxJamLengthInMeters="0.00"  jamLengthInVehiclesSum="0"  jamLengthInMetersSum="0.00"  meanHaltingDuration="0.00"  maxHaltingDuration="0"  haltingDurationSum="0"  meanIntervalHaltingDuration="0.00"  maxIntervalHaltingDuration="0"  intervalHaltingDurationSum="0"  startedHalts="0.00"  meanVehicleNumber="0.00"  maxVehicleNumber="0" />
   <interval begin="100" end="108" id="4/1to3/1"  nSamples="0"  meanSpeed="-1.00"  meanOccupancy="0.00"  maxOccupancy="0.00"  meanMaxJamLengthInVehicles="0.00"  meanMaxJamLengthInMeters="0.00"  maxJamLengthInVehicles="0"  maxJamLengthInMeters="0.00"  jamLengthInVehiclesSum="0"  jamLengthInMetersSum="0.00"  meanHaltingDuration="0.00"  maxHaltingDuration="0"  haltingDurationSum="0"  meanIntervalHaltingDuration="0.00"  maxIntervalHaltingDuration="0"  intervalHaltingDurationSum="0"  startedHalts="0.00"  meanVehicleNumber="0.00"  maxVehicleNumber="0" />
</detector>
