<?xml version="1.0" encoding="UTF-8"?>

<!-- generated on Tue Mar 31 12:21:24 2020 by Eclipse SUMO Version v1_5_0+1025-83bc0d0af0
This data file and the accompanying materials
are made available under the terms of the Eclipse Public License v2.0
which accompanies this distribution, and is available at
http://www.eclipse.org/legal/epl-v20.html
SPDX-License-Identifier: EPL-2.0
<configuration xmlns:xsi="http://www.w3.org/2001/XMLSchema-instance" xsi:noNamespaceSchemaLocation="http://sumo.dlr.de/xsd/sumoConfiguration.xsd">

    <input>
        <net-file value="net.net.xml"/>
        <route-files value="input_routes.rou.xml,input_routes2.rou.xml"/>
        <additional-files value="input_additional.add.xml"/>
    </input>

    <output>
        <write-license value="true"/>
    </output>

    <processing>
        <default.speeddev value="0"/>
        <pedestrian.model value="nonInteracting"/>
    </processing>

    <report>
        <xml-validation value="never"/>
        <duration-log.disable value="true"/>
        <no-step-log value="true"/>
    </report>

    <mesoscopic>
        <mesosim value="true"/>
        <meso-junction-control value="true"/>
    </mesoscopic>

</configuration>
-->

<meandata xmlns:xsi="http://www.w3.org/2001/XMLSchema-instance" xsi:noNamespaceSchemaLocation="http://sumo.dlr.de/xsd/meandata_file.xsd">
    <interval begin="0.00" end="1000.00" id="ed_default">
        <edge id="1" sampledSeconds="35.71" traveltime="0.07" overlapTraveltime="0.43" density="35.71" laneDensity="35.71" occupancy="17.86" waitingTime="0.00" speed="13.89" departed="0" arrived="0" entered="496" left="496" laneChangedFrom="0" laneChangedTo="0"/>
        <edge id="2a" sampledSeconds="71.42" traveltime="0.14" overlapTraveltime="0.50" density="35.71" laneDensity="35.71" occupancy="17.86" waitingTime="0.00" speed="13.89" departed="0" arrived="0" entered="496" left="496" laneChangedFrom="0" laneChangedTo="0"/>
        <edge id="2b" sampledSeconds="71.42" traveltime="0.14" overlapTraveltime="0.50" density="35.71" laneDensity="35.71" occupancy="17.86" waitingTime="0.00" speed="13.89" departed="0" arrived="0" entered="496" left="496" laneChangedFrom="0" laneChangedTo="0"/>
        <edge id="4a" sampledSeconds="143.01" traveltime="0.29" overlapTraveltime="0.65" density="35.75" laneDensity="35.75" occupancy="17.88" waitingTime="0.00" speed="13.89" departed="0" arrived="0" entered="497" left="496" laneChangedFrom="0" laneChangedTo="0"/>
        <edge id="4b" sampledSeconds="142.85" traveltime="0.29" overlapTraveltime="0.65" density="35.71" laneDensity="35.71" occupancy="17.86" waitingTime="0.00" speed="13.89" departed="0" arrived="0" entered="496" left="496" laneChangedFrom="0" laneChangedTo="0"/>
        <edge id="8a" sampledSeconds="286.27" traveltime="0.58" overlapTraveltime="0.94" density="35.78" laneDensity="35.78" occupancy="17.89" waitingTime="0.00" speed="13.89" departed="0" arrived="0" entered="497" left="497" laneChangedFrom="0" laneChangedTo="0"/>
        <edge id="8b" sampledSeconds="285.70" traveltime="0.58" overlapTraveltime="0.94" density="35.71" laneDensity="35.71" occupancy="17.86" waitingTime="0.00" speed="13.89" departed="0" arrived="0" entered="496" left="496" laneChangedFrom="0" laneChangedTo="0"/>
        <edge id="beg" sampledSeconds="3121.71" traveltime="6.26" overlapTraveltime="6.62" density="35.88" laneDensity="35.88" occupancy="17.94" waitingTime="0.00" speed="13.89" departed="500" arrived="0" entered="0" left="497" laneChangedFrom="0" laneChangedTo="0"/>
        <edge id="end" sampledSeconds="2989.61" traveltime="6.05" overlapTraveltime="6.41" density="35.59" laneDensity="35.59" occupancy="17.80" waitingTime="0.00" speed="13.89" departed="0" arrived="493" entered="496" left="0" laneChangedFrom="0" laneChangedTo="0"/>
        <edge id="ref" sampledSeconds="7147.21" traveltime="14.40" overlapTraveltime="14.76" density="35.74" laneDensity="35.74" occupancy="17.87" waitingTime="0.00" speed="13.89" departed="500" arrived="493" entered="0" left="0" laneChangedFrom="0" laneChangedTo="0"/>
    </interval>
    <interval begin="10000.00" end="11000.00" id="ed_L10">
        <edge id="1" sampledSeconds="20.45" traveltime="0.07" overlapTraveltime="0.79" density="20.45" laneDensity="20.45" occupancy="20.45" waitingTime="0.00" speed="13.89" departed="0" arrived="0" entered="284" left="284" laneChangedFrom="0" laneChangedTo="0"/>
        <edge id="2a" sampledSeconds="40.90" traveltime="0.14" overlapTraveltime="0.86" density="20.45" laneDensity="20.45" occupancy="20.45" waitingTime="0.00" speed="13.89" departed="0" arrived="0" entered="284" left="284" laneChangedFrom="0" laneChangedTo="0"/>
        <edge id="2b" sampledSeconds="40.90" traveltime="0.14" overlapTraveltime="0.86" density="20.45" laneDensity="20.45" occupancy="20.45" waitingTime="0.00" speed="13.89" departed="0" arrived="0" entered="284" left="284" laneChangedFrom="0" laneChangedTo="0"/>
        <edge id="4a" sampledSeconds="81.79" traveltime="0.29" overlapTraveltime="1.01" density="20.45" laneDensity="20.45" occupancy="20.45" waitingTime="0.00" speed="13.89" departed="0" arrived="0" entered="284" left="284" laneChangedFrom="0" laneChangedTo="0"/>
        <edge id="4b" sampledSeconds="81.79" traveltime="0.29" overlapTraveltime="1.01" density="20.45" laneDensity="20.45" occupancy="20.45" waitingTime="0.00" speed="13.89" departed="0" arrived="0" entered="284" left="284" laneChangedFrom="0" laneChangedTo="0"/>
        <edge id="8a" sampledSeconds="163.58" traveltime="0.58" overlapTraveltime="1.30" density="20.45" laneDensity="20.45" occupancy="20.45" waitingTime="0.00" speed="13.89" departed="0" arrived="0" entered="284" left="284" laneChangedFrom="0" laneChangedTo="0"/>
        <edge id="8b" sampledSeconds="163.58" traveltime="0.58" overlapTraveltime="1.30" density="20.45" laneDensity="20.45" occupancy="20.45" waitingTime="0.00" speed="13.89" departed="0" arrived="0" entered="284" left="284" laneChangedFrom="0" laneChangedTo="0"/>
        <edge id="beg" sampledSeconds="1790.81" traveltime="6.28" overlapTraveltime="7.00" density="20.58" laneDensity="20.58" occupancy="20.58" waitingTime="0.00" speed="13.86" departed="286" arrived="0" entered="0" left="284" laneChangedFrom="0" laneChangedTo="0"/>
        <edge id="end" sampledSeconds="1710.81" traveltime="6.05" overlapTraveltime="6.77" density="20.37" laneDensity="20.37" occupancy="20.37" waitingTime="0.00" speed="13.89" departed="0" arrived="282" entered="284" left="0" laneChangedFrom="0" laneChangedTo="0"/>
        <edge id="ref" sampledSeconds="5376.96" traveltime="14.43" overlapTraveltime="15.15" density="26.88" laneDensity="26.88" occupancy="26.88" waitingTime="0.00" speed="13.86" departed="375" arrived="370" entered="0" left="0" laneChangedFrom="0" laneChangedTo="0"/>
    </interval>
    <interval begin="20000.00" end="21000.00" id="ed_L15">
        <edge id="1" sampledSeconds="10.22" traveltime="0.07" overlapTraveltime="1.15" density="10.22" laneDensity="10.22" occupancy="15.34" waitingTime="0.00" speed="13.89" departed="0" arrived="0" entered="142" left="142" laneChangedFrom="0" laneChangedTo="0"/>
        <edge id="2a" sampledSeconds="20.45" traveltime="0.14" overlapTraveltime="1.22" density="10.22" laneDensity="10.22" occupancy="15.34" waitingTime="0.00" speed="13.89" departed="0" arrived="0" entered="142" left="142" laneChangedFrom="0" laneChangedTo="0"/>
        <edge id="2b" sampledSeconds="20.45" traveltime="0.14" overlapTraveltime="1.22" density="10.22" laneDensity="10.22" occupancy="15.34" waitingTime="0.00" speed="13.89" departed="0" arrived="0" entered="142" left="142" laneChangedFrom="0" laneChangedTo="0"/>
        <edge id="4a" sampledSeconds="40.90" traveltime="0.29" overlapTraveltime="1.37" density="10.22" laneDensity="10.22" occupancy="15.34" waitingTime="0.00" speed="13.89" departed="0" arrived="0" entered="142" left="142" laneChangedFrom="0" laneChangedTo="0"/>
        <edge id="4b" sampledSeconds="40.90" traveltime="0.29" overlapTraveltime="1.37" density="10.22" laneDensity="10.22" occupancy="15.34" waitingTime="0.00" speed="13.89" departed="0" arrived="0" entered="142" left="142" laneChangedFrom="0" laneChangedTo="0"/>
        <edge id="8a" sampledSeconds="81.79" traveltime="0.58" overlapTraveltime="1.66" density="10.22" laneDensity="10.22" occupancy="15.34" waitingTime="0.00" speed="13.89" departed="0" arrived="0" entered="142" left="142" laneChangedFrom="0" laneChangedTo="0"/>
        <edge id="8b" sampledSeconds="81.79" traveltime="0.58" overlapTraveltime="1.66" density="10.22" laneDensity="10.22" occupancy="15.34" waitingTime="0.00" speed="13.89" departed="0" arrived="0" entered="142" left="142" laneChangedFrom="0" laneChangedTo="0"/>
        <edge id="beg" sampledSeconds="894.35" traveltime="6.26" overlapTraveltime="7.34" density="10.28" laneDensity="10.28" occupancy="15.42" waitingTime="0.00" speed="13.89" departed="143" arrived="0" entered="0" left="142" laneChangedFrom="0" laneChangedTo="0"/>
        <edge id="end" sampledSeconds="856.42" traveltime="6.05" overlapTraveltime="7.13" density="10.20" laneDensity="10.20" occupancy="15.29" waitingTime="0.00" speed="13.89" departed="0" arrived="141" entered="142" left="0" laneChangedFrom="0" laneChangedTo="0"/>
        <edge id="ref" sampledSeconds="3629.15" traveltime="14.59" overlapTraveltime="15.69" density="18.15" laneDensity="18.15" occupancy="27.22" waitingTime="0.00" speed="13.71" departed="250" arrived="247" entered="0" left="0" laneChangedFrom="0" laneChangedTo="0"/>
    </interval>
    <interval begin="30000.00" end="30976.00" id="ed_L110">
        <edge id="1" sampledSeconds="1.22" traveltime="0.07" overlapTraveltime="7.99" density="1.25" laneDensity="1.25" occupancy="13.80" waitingTime="0.00" speed="13.89" departed="0" arrived="0" entered="17" left="17" laneChangedFrom="0" laneChangedTo="0"/>
        <edge id="2a" sampledSeconds="2.45" traveltime="0.14" overlapTraveltime="8.06" density="1.25" laneDensity="1.25" occupancy="13.80" waitingTime="0.00" speed="13.89" departed="0" arrived="0" entered="17" left="17" laneChangedFrom="0" laneChangedTo="0"/>
        <edge id="2b" sampledSeconds="2.45" traveltime="0.14" overlapTraveltime="8.06" density="1.25" laneDensity="1.25" occupancy="13.80" waitingTime="0.00" speed="13.89" departed="0" arrived="0" entered="17" left="17" laneChangedFrom="0" laneChangedTo="0"/>
        <edge id="4a" sampledSeconds="4.90" traveltime="0.29" overlapTraveltime="8.21" density="1.25" laneDensity="1.25" occupancy="13.80" waitingTime="0.00" speed="13.89" departed="0" arrived="0" entered="17" left="17" laneChangedFrom="0" laneChangedTo="0"/>
        <edge id="4b" sampledSeconds="4.90" traveltime="0.29" overlapTraveltime="8.21" density="1.25" laneDensity="1.25" occupancy="13.80" waitingTime="0.00" speed="13.89" departed="0" arrived="0" entered="17" left="17" laneChangedFrom="0" laneChangedTo="0"/>
        <edge id="8a" sampledSeconds="9.79" traveltime="0.58" overlapTraveltime="8.50" density="1.25" laneDensity="1.25" occupancy="13.80" waitingTime="0.00" speed="13.89" departed="0" arrived="0" entered="17" left="17" laneChangedFrom="0" laneChangedTo="0"/>
        <edge id="8b" sampledSeconds="9.79" traveltime="0.58" overlapTraveltime="8.50" density="1.25" laneDensity="1.25" occupancy="13.80" waitingTime="0.00" speed="13.89" departed="0" arrived="0" entered="17" left="17" laneChangedFrom="0" laneChangedTo="0"/>
        <edge id="beg" sampledSeconds="106.47" traveltime="6.26" overlapTraveltime="14.18" density="1.25" laneDensity="1.25" occupancy="13.79" waitingTime="0.00" speed="13.89" departed="17" arrived="0" entered="0" left="17" laneChangedFrom="0" laneChangedTo="0"/>
        <edge id="end" sampledSeconds="102.82" traveltime="6.05" overlapTraveltime="13.97" density="1.25" laneDensity="1.25" occupancy="13.80" waitingTime="0.00" speed="13.89" departed="0" arrived="17" entered="17" left="0" laneChangedFrom="0" laneChangedTo="0"/>
        <edge id="ref" sampledSeconds="244.77" traveltime="14.40" overlapTraveltime="22.32" density="1.25" laneDensity="1.25" occupancy="13.79" waitingTime="0.00" speed="13.89" departed="17" arrived="17" entered="0" left="0" laneChangedFrom="0" laneChangedTo="0"/>
    </interval>
</meandata>
