<?xml version="1.0" encoding="UTF-8"?>

<!-- generated on Fri Dec 13 16:34:40 2013 by SUMO sumo Version dev-SVN-r15322
<?xml version="1.0" encoding="UTF-8"?>

<configuration xmlns:xsi="http://www.w3.org/2001/XMLSchema-instance" xsi:noNamespaceSchemaLocation="http://sumo-sim.org/xsd/sumoConfiguration.xsd">

    <input>
        <net-file value="input_net.net.xml"/>
        <route-files value="input_routes.rou.xml"/>
    </input>

    <output>
        <vehroute-output value="vehroutes.xml"/>
        <save-state.times value="50"/>
        <save-state.files value="state.xml"/>
    </output>

    <report>
        <no-duration-log value="true"/>
        <no-step-log value="true"/>
    </report>

</configuration>
-->

<snapshot version="dev-SVN-r15322" time="50000">
    <route id="r1" state="1" edges="4/1to3/1 3/1to2/1 2/1to1/1 1/1to0/1"/>
    <delay number="2" end="0" depart="0.00" time="0.00"/>
    <vType id="DEFAULT_VEHTYPE" length="3.00" minGap="2.00" maxSpeed="10.00">
        <carFollowing-Krauss accel="0.80" decel="4.50" sigma="0.00"/>
    </vType>
    <vehicle id="0" depart="0" route="r1" type="DEFAULT_VEHTYPE" state="0 1" pos="199.50" speed="10.00"/>
    <vehicle id="1" depart="5000" route="r1" type="DEFAULT_VEHTYPE" state="5000 0" pos="389.50" speed="0.00"/>
    <lane>
        <vehicles value=""/>
    </lane>
    <lane>
        <vehicles value=""/>
    </lane>
    <lane>
        <vehicles value=""/>
    </lane>
    <lane>
        <vehicles value=""/>
    </lane>
    <lane>
        <vehicles value=""/>
    </lane>
    <lane>
        <vehicles value=""/>
    </lane>
    <lane>
        <vehicles value=""/>
    </lane>
    <lane>
        <vehicles value=""/>
    </lane>
    <lane>
        <vehicles value=""/>
    </lane>
    <lane>
        <vehicles value=""/>
    </lane>
    <lane>
        <vehicles value=""/>
    </lane>
    <lane>
        <vehicles value=""/>
    </lane>
    <lane>
        <vehicles value=""/>
    </lane>
    <lane>
        <vehicles value=""/>
    </lane>
    <lane>
        <vehicles value=""/>
    </lane>
    <lane>
        <vehicles value=""/>
    </lane>
    <lane>
        <vehicles value=""/>
    </lane>
    <lane>
        <vehicles value=""/>
    </lane>
    <lane>
        <vehicles value=""/>
    </lane>
    <lane>
        <vehicles value=""/>
    </lane>
    <lane>
        <vehicles value=""/>
    </lane>
    <lane>
        <vehicles value=""/>
    </lane>
    <lane>
        <vehicles value=""/>
    </lane>
    <lane>
        <vehicles value=""/>
    </lane>
    <lane>
        <vehicles value=""/>
    </lane>
    <lane>
        <vehicles value=""/>
    </lane>
    <lane>
        <vehicles value=""/>
    </lane>
    <lane>
        <vehicles value=""/>
    </lane>
    <lane>
        <vehicles value=""/>
    </lane>
    <lane>
        <vehicles value=""/>
    </lane>
    <lane>
        <vehicles value="0"/>
    </lane>
    <lane>
        <vehicles value=""/>
    </lane>
    <lane>
        <vehicles value=""/>
    </lane>
    <lane>
        <vehicles value=""/>
    </lane>
    <lane>
        <vehicles value=""/>
    </lane>
    <lane>
        <vehicles value=""/>
    </lane>
    <lane>
        <vehicles value=""/>
    </lane>
    <lane>
        <vehicles value=""/>
    </lane>
    <lane>
        <vehicles value=""/>
    </lane>
    <lane>
        <vehicles value="1"/>
    </lane>
    <lane>
        <vehicles value=""/>
    </lane>
    <lane>
        <vehicles value=""/>
    </lane>
    <lane>
        <vehicles value=""/>
    </lane>
    <lane>
        <vehicles value=""/>
    </lane>
</snapshot>
