<?xml version="1.0" encoding="UTF-8"?>

<!-- generated on Wed Mar 11 22:24:09 2020 by Eclipse SUMO Version v1_5_0+0662-a598ecae47
This data file and the accompanying materials
are made available under the terms of the Eclipse Public License v2.0
which accompanies this distribution, and is available at
http://www.eclipse.org/legal/epl-v20.html
SPDX-License-Identifier: EPL-2.0
<configuration xmlns:xsi="http://www.w3.org/2001/XMLSchema-instance" xsi:noNamespaceSchemaLocation="http://sumo.dlr.de/xsd/sumoConfiguration.xsd">

    <input>
        <net-file value="net2.net.xml"/>
        <route-files value="input_routes.rou.xml"/>
        <additional-files value="input_additional.add.xml,input_additional2.add.xml"/>
    </input>

    <output>
        <write-license value="true"/>
        <tripinfo-output value="tripinfos.xml"/>
        <vehroute-output.skip-ptlines value="true"/>
    </output>

    <processing>
        <default.speeddev value="0"/>
    </processing>

    <report>
        <xml-validation value="never"/>
        <no-step-log value="true"/>
    </report>

</configuration>
-->

<tripinfos xmlns:xsi="http://www.w3.org/2001/XMLSchema-instance" xsi:noNamespaceSchemaLocation="http://sumo.dlr.de/xsd/tripinfo_file.xsd">
    <tripinfo id="trainAB.0" depart="315.00" departLane="railSN_0" departPos="135.10" departSpeed="0.00" departDelay="0.00" arrival="545.00" arrivalLane="railSN_0" arrivalPos="1200.00" arrivalSpeed="11.25" duration="230.00" routeLength="1064.90" waitingTime="0.00" waitingCount="0" stopTime="62.00" timeLoss="90.70" rerouteNo="0" devices="tripinfo_trainAB.0" vType="train" speedFactor="1.00" vaporized=""/>
    <tripinfo id="busABCD.0" depart="5.00" departLane="A1A0_1" departPos="12.10" departSpeed="0.00" departDelay="0.00" arrival="546.00" arrivalLane="B0B1_1" arrivalPos="487.60" arrivalSpeed="4.10" duration="541.00" routeLength="4975.02" waitingTime="0.00" waitingCount="0" stopTime="128.00" timeLoss="54.64" rerouteNo="0" devices="tripinfo_busABCD.0" vType="bus" speedFactor="1.00" vaporized=""/>
    <tripinfo id="trainBA.0" depart="362.00" departLane="railNS_0" departPos="135.10" departSpeed="0.00" departDelay="0.00" arrival="591.00" arrivalLane="railNS_0" arrivalPos="1200.00" arrivalSpeed="13.25" duration="229.00" routeLength="1064.90" waitingTime="0.00" waitingCount="0" stopTime="62.00" timeLoss="89.78" rerouteNo="0" devices="tripinfo_trainBA.0" vType="train" speedFactor="1.00" vaporized=""/>
    <personinfo id="p0" depart="400.00" type="DEFAULT_PEDTYPE">
        <stop duration="1.00" arrival="401.00" arrivalPos="300.00" actType="waiting"/>
        <ride waitingTime="127.00" vehicle="trainAC.0" depart="528.00" arrival="640.00" arrivalPos="1450.00" duration="112.00" routeLength="1100.00"/>
    </personinfo>
    <tripinfo id="trainAC.0" depart="451.00" departLane="railWE_0" departPos="135.10" departSpeed="0.00" departDelay="0.00" arrival="715.00" arrivalLane="railWE_0" arrivalPos="1700.00" arrivalSpeed="11.25" duration="264.00" routeLength="1564.90" waitingTime="0.00" waitingCount="0" stopTime="62.00" timeLoss="88.71" rerouteNo="0" devices="tripinfo_trainAC.0 person_trainAC.0" vType="train" speedFactor="1.00" vaporized=""/>
    <tripinfo id="trainCA.0" depart="522.00" departLane="railEW_0" departPos="135.10" departSpeed="0.00" departDelay="0.00" arrival="786.00" arrivalLane="railEW_0" arrivalPos="1700.00" arrivalSpeed="11.25" duration="264.00" routeLength="1564.90" waitingTime="0.00" waitingCount="0" stopTime="62.00" timeLoss="88.71" rerouteNo="0" devices="tripinfo_trainCA.0" vType="train" speedFactor="1.00" vaporized=""/>
    <tripinfo id="trainAB.1" depart="915.00" departLane="railSN_0" departPos="135.10" departSpeed="0.00" departDelay="0.00" arrival="1145.00" arrivalLane="railSN_0" arrivalPos="1200.00" arrivalSpeed="11.25" duration="230.00" routeLength="1064.90" waitingTime="0.00" waitingCount="0" stopTime="62.00" timeLoss="90.70" rerouteNo="0" devices="tripinfo_trainAB.1" vType="train" speedFactor="1.00" vaporized=""/>
    <tripinfo id="trainBA.1" depart="962.00" departLane="railNS_0" departPos="135.10" departSpeed="0.00" departDelay="0.00" arrival="1191.00" arrivalLane="railNS_0" arrivalPos="1200.00" arrivalSpeed="13.25" duration="229.00" routeLength="1064.90" waitingTime="0.00" waitingCount="0" stopTime="62.00" timeLoss="89.78" rerouteNo="0" devices="tripinfo_trainBA.1" vType="train" speedFactor="1.00" vaporized=""/>
    <tripinfo id="busABCD.1" depart="1205.00" departLane="A1A0_1" departPos="12.10" departSpeed="0.00" departDelay="0.00" arrival="1744.00" arrivalLane="B0B1_1" arrivalPos="487.60" arrivalSpeed="3.40" duration="539.00" routeLength="4975.02" waitingTime="1.00" waitingCount="1" stopTime="129.00" timeLoss="51.75" rerouteNo="0" devices="tripinfo_busABCD.1" vType="bus" speedFactor="1.00" vaporized=""/>
    <tripinfo id="trainAB.2" depart="1515.00" departLane="railSN_0" departPos="135.10" departSpeed="0.00" departDelay="0.00" arrival="1745.00" arrivalLane="railSN_0" arrivalPos="1200.00" arrivalSpeed="11.25" duration="230.00" routeLength="1064.90" waitingTime="0.00" waitingCount="0" stopTime="62.00" timeLoss="90.70" rerouteNo="0" devices="tripinfo_trainAB.2" vType="train" speedFactor="1.00" vaporized=""/>
    <tripinfo id="trainBA.2" depart="1562.00" departLane="railNS_0" departPos="135.10" departSpeed="0.00" departDelay="0.00" arrival="1791.00" arrivalLane="railNS_0" arrivalPos="1200.00" arrivalSpeed="13.25" duration="229.00" routeLength="1064.90" waitingTime="0.00" waitingCount="0" stopTime="62.00" timeLoss="89.78" rerouteNo="0" devices="tripinfo_trainBA.2" vType="train" speedFactor="1.00" vaporized=""/>
    <tripinfo id="trainAB.3" depart="2115.00" departLane="railSN_0" departPos="135.10" departSpeed="0.00" departDelay="0.00" arrival="2345.00" arrivalLane="railSN_0" arrivalPos="1200.00" arrivalSpeed="11.25" duration="230.00" routeLength="1064.90" waitingTime="0.00" waitingCount="0" stopTime="62.00" timeLoss="90.70" rerouteNo="0" devices="tripinfo_trainAB.3" vType="train" speedFactor="1.00" vaporized=""/>
    <tripinfo id="trainBA.3" depart="2162.00" departLane="railNS_0" departPos="135.10" departSpeed="0.00" departDelay="0.00" arrival="2391.00" arrivalLane="railNS_0" arrivalPos="1200.00" arrivalSpeed="13.25" duration="229.00" routeLength="1064.90" waitingTime="0.00" waitingCount="0" stopTime="62.00" timeLoss="89.78" rerouteNo="0" devices="tripinfo_trainBA.3" vType="train" speedFactor="1.00" vaporized=""/>
    <tripinfo id="trainAC.1" depart="2251.00" departLane="railWE_0" departPos="135.10" departSpeed="0.00" departDelay="0.00" arrival="2515.00" arrivalLane="railWE_0" arrivalPos="1700.00" arrivalSpeed="11.25" duration="264.00" routeLength="1564.90" waitingTime="0.00" waitingCount="0" stopTime="62.00" timeLoss="88.71" rerouteNo="0" devices="tripinfo_trainAC.1" vType="train" speedFactor="1.00" vaporized=""/>
    <tripinfo id="trainCA.1" depart="2322.00" departLane="railEW_0" departPos="135.10" departSpeed="0.00" departDelay="0.00" arrival="2586.00" arrivalLane="railEW_0" arrivalPos="1700.00" arrivalSpeed="11.25" duration="264.00" routeLength="1564.90" waitingTime="0.00" waitingCount="0" stopTime="62.00" timeLoss="88.71" rerouteNo="0" devices="tripinfo_trainCA.1" vType="train" speedFactor="1.00" vaporized=""/>
    <tripinfo id="busABCD.2" depart="2405.00" departLane="A1A0_1" departPos="12.10" departSpeed="0.00" departDelay="0.00" arrival="2945.00" arrivalLane="B0B1_1" arrivalPos="487.60" arrivalSpeed="3.66" duration="540.00" routeLength="4975.02" waitingTime="0.00" waitingCount="0" stopTime="125.00" timeLoss="56.71" rerouteNo="0" devices="tripinfo_busABCD.2" vType="bus" speedFactor="1.00" vaporized=""/>
    <tripinfo id="trainAB.4" depart="2715.00" departLane="railSN_0" departPos="135.10" departSpeed="0.00" departDelay="0.00" arrival="2945.00" arrivalLane="railSN_0" arrivalPos="1200.00" arrivalSpeed="11.25" duration="230.00" routeLength="1064.90" waitingTime="0.00" waitingCount="0" stopTime="62.00" timeLoss="90.70" rerouteNo="0" devices="tripinfo_trainAB.4" vType="train" speedFactor="1.00" vaporized=""/>
    <tripinfo id="trainBA.4" depart="2762.00" departLane="railNS_0" departPos="135.10" departSpeed="0.00" departDelay="0.00" arrival="2991.00" arrivalLane="railNS_0" arrivalPos="1200.00" arrivalSpeed="13.25" duration="229.00" routeLength="1064.90" waitingTime="0.00" waitingCount="0" stopTime="62.00" timeLoss="89.78" rerouteNo="0" devices="tripinfo_trainBA.4" vType="train" speedFactor="1.00" vaporized=""/>
    <tripinfo id="trainAB.5" depart="3315.00" departLane="railSN_0" departPos="135.10" departSpeed="0.00" departDelay="0.00" arrival="3545.00" arrivalLane="railSN_0" arrivalPos="1200.00" arrivalSpeed="11.25" duration="230.00" routeLength="1064.90" waitingTime="0.00" waitingCount="0" stopTime="62.00" timeLoss="90.70" rerouteNo="0" devices="tripinfo_trainAB.5" vType="train" speedFactor="1.00" vaporized=""/>
    <tripinfo id="trainBA.5" depart="3362.00" departLane="railNS_0" departPos="135.10" departSpeed="0.00" departDelay="0.00" arrival="3591.00" arrivalLane="railNS_0" arrivalPos="1200.00" arrivalSpeed="13.25" duration="229.00" routeLength="1064.90" waitingTime="0.00" waitingCount="0" stopTime="62.00" timeLoss="89.78" rerouteNo="0" devices="tripinfo_trainBA.5" vType="train" speedFactor="1.00" vaporized=""/>
    <tripinfo id="busABCD.3" depart="3605.00" departLane="A1A0_1" departPos="12.10" departSpeed="0.00" departDelay="0.00" arrival="4144.00" arrivalLane="B0B1_1" arrivalPos="487.60" arrivalSpeed="3.90" duration="539.00" routeLength="4975.02" waitingTime="1.00" waitingCount="1" stopTime="124.00" timeLoss="56.67" rerouteNo="0" devices="tripinfo_busABCD.3" vType="bus" speedFactor="1.00" vaporized=""/>
    <tripinfo id="trainAB.6" depart="3915.00" departLane="railSN_0" departPos="135.10" departSpeed="0.00" departDelay="0.00" arrival="4145.00" arrivalLane="railSN_0" arrivalPos="1200.00" arrivalSpeed="11.25" duration="230.00" routeLength="1064.90" waitingTime="0.00" waitingCount="0" stopTime="62.00" timeLoss="90.70" rerouteNo="0" devices="tripinfo_trainAB.6" vType="train" speedFactor="1.00" vaporized=""/>
    <tripinfo id="trainBA.6" depart="3962.00" departLane="railNS_0" departPos="135.10" departSpeed="0.00" departDelay="0.00" arrival="4191.00" arrivalLane="railNS_0" arrivalPos="1200.00" arrivalSpeed="13.25" duration="229.00" routeLength="1064.90" waitingTime="0.00" waitingCount="0" stopTime="62.00" timeLoss="89.78" rerouteNo="0" devices="tripinfo_trainBA.6" vType="train" speedFactor="1.00" vaporized=""/>
    <tripinfo id="trainAC.2" depart="4051.00" departLane="railWE_0" departPos="135.10" departSpeed="0.00" departDelay="0.00" arrival="4315.00" arrivalLane="railWE_0" arrivalPos="1700.00" arrivalSpeed="11.25" duration="264.00" routeLength="1564.90" waitingTime="0.00" waitingCount="0" stopTime="62.00" timeLoss="88.71" rerouteNo="0" devices="tripinfo_trainAC.2" vType="train" speedFactor="1.00" vaporized=""/>
    <tripinfo id="trainCA.2" depart="4122.00" departLane="railEW_0" departPos="135.10" departSpeed="0.00" departDelay="0.00" arrival="4386.00" arrivalLane="railEW_0" arrivalPos="1700.00" arrivalSpeed="11.25" duration="264.00" routeLength="1564.90" waitingTime="0.00" waitingCount="0" stopTime="62.00" timeLoss="88.71" rerouteNo="0" devices="tripinfo_trainCA.2" vType="train" speedFactor="1.00" vaporized=""/>
    <tripinfo id="trainAB.7" depart="4515.00" departLane="railSN_0" departPos="135.10" departSpeed="0.00" departDelay="0.00" arrival="4745.00" arrivalLane="railSN_0" arrivalPos="1200.00" arrivalSpeed="11.25" duration="230.00" routeLength="1064.90" waitingTime="0.00" waitingCount="0" stopTime="62.00" timeLoss="90.70" rerouteNo="0" devices="tripinfo_trainAB.7" vType="train" speedFactor="1.00" vaporized=""/>
    <tripinfo id="trainBA.7" depart="4562.00" departLane="railNS_0" departPos="135.10" departSpeed="0.00" departDelay="0.00" arrival="4791.00" arrivalLane="railNS_0" arrivalPos="1200.00" arrivalSpeed="13.25" duration="229.00" routeLength="1064.90" waitingTime="0.00" waitingCount="0" stopTime="62.00" timeLoss="89.78" rerouteNo="0" devices="tripinfo_trainBA.7" vType="train" speedFactor="1.00" vaporized=""/>
    <tripinfo id="busABCD.4" depart="4805.00" departLane="A1A0_1" departPos="12.10" departSpeed="0.00" departDelay="0.00" arrival="5344.00" arrivalLane="B0B1_1" arrivalPos="487.60" arrivalSpeed="3.50" duration="539.00" routeLength="4975.02" waitingTime="1.00" waitingCount="1" stopTime="127.00" timeLoss="53.76" rerouteNo="0" devices="tripinfo_busABCD.4" vType="bus" speedFactor="1.00" vaporized=""/>
    <tripinfo id="trainAB.8" depart="5115.00" departLane="railSN_0" departPos="135.10" departSpeed="0.00" departDelay="0.00" arrival="5345.00" arrivalLane="railSN_0" arrivalPos="1200.00" arrivalSpeed="11.25" duration="230.00" routeLength="1064.90" waitingTime="0.00" waitingCount="0" stopTime="62.00" timeLoss="90.70" rerouteNo="0" devices="tripinfo_trainAB.8" vType="train" speedFactor="1.00" vaporized=""/>
    <tripinfo id="trainBA.8" depart="5162.00" departLane="railNS_0" departPos="135.10" departSpeed="0.00" departDelay="0.00" arrival="5391.00" arrivalLane="railNS_0" arrivalPos="1200.00" arrivalSpeed="13.25" duration="229.00" routeLength="1064.90" waitingTime="0.00" waitingCount="0" stopTime="62.00" timeLoss="89.78" rerouteNo="0" devices="tripinfo_trainBA.8" vType="train" speedFactor="1.00" vaporized=""/>
    <tripinfo id="trainAB.9" depart="5715.00" departLane="railSN_0" departPos="135.10" departSpeed="0.00" departDelay="0.00" arrival="5945.00" arrivalLane="railSN_0" arrivalPos="1200.00" arrivalSpeed="11.25" duration="230.00" routeLength="1064.90" waitingTime="0.00" waitingCount="0" stopTime="62.00" timeLoss="90.70" rerouteNo="0" devices="tripinfo_trainAB.9" vType="train" speedFactor="1.00" vaporized=""/>
    <tripinfo id="trainBA.9" depart="5762.00" departLane="railNS_0" departPos="135.10" departSpeed="0.00" departDelay="0.00" arrival="5991.00" arrivalLane="railNS_0" arrivalPos="1200.00" arrivalSpeed="13.25" duration="229.00" routeLength="1064.90" waitingTime="0.00" waitingCount="0" stopTime="62.00" timeLoss="89.78" rerouteNo="0" devices="tripinfo_trainBA.9" vType="train" speedFactor="1.00" vaporized=""/>
    <tripinfo id="trainAC.3" depart="5851.00" departLane="railWE_0" departPos="135.10" departSpeed="0.00" departDelay="0.00" arrival="6115.00" arrivalLane="railWE_0" arrivalPos="1700.00" arrivalSpeed="11.25" duration="264.00" routeLength="1564.90" waitingTime="0.00" waitingCount="0" stopTime="62.00" timeLoss="88.71" rerouteNo="0" devices="tripinfo_trainAC.3" vType="train" speedFactor="1.00" vaporized=""/>
    <tripinfo id="trainCA.3" depart="5922.00" departLane="railEW_0" departPos="135.10" departSpeed="0.00" departDelay="0.00" arrival="6186.00" arrivalLane="railEW_0" arrivalPos="1700.00" arrivalSpeed="11.25" duration="264.00" routeLength="1564.90" waitingTime="0.00" waitingCount="0" stopTime="62.00" timeLoss="88.71" rerouteNo="0" devices="tripinfo_trainCA.3" vType="train" speedFactor="1.00" vaporized=""/>
    <tripinfo id="trainAB.10" depart="6315.00" departLane="railSN_0" departPos="135.10" departSpeed="0.00" departDelay="0.00" arrival="6545.00" arrivalLane="railSN_0" arrivalPos="1200.00" arrivalSpeed="11.25" duration="230.00" routeLength="1064.90" waitingTime="0.00" waitingCount="0" stopTime="62.00" timeLoss="90.70" rerouteNo="0" devices="tripinfo_trainAB.10" vType="train" speedFactor="1.00" vaporized=""/>
    <tripinfo id="busABCD.5" depart="6005.00" departLane="A1A0_1" departPos="12.10" departSpeed="0.00" departDelay="0.00" arrival="6546.00" arrivalLane="B0B1_1" arrivalPos="487.60" arrivalSpeed="3.09" duration="541.00" routeLength="4975.02" waitingTime="2.00" waitingCount="2" stopTime="124.00" timeLoss="58.80" rerouteNo="0" devices="tripinfo_busABCD.5" vType="bus" speedFactor="1.00" vaporized=""/>
    <tripinfo id="trainBA.10" depart="6362.00" departLane="railNS_0" departPos="135.10" departSpeed="0.00" departDelay="0.00" arrival="6591.00" arrivalLane="railNS_0" arrivalPos="1200.00" arrivalSpeed="13.25" duration="229.00" routeLength="1064.90" waitingTime="0.00" waitingCount="0" stopTime="62.00" timeLoss="89.78" rerouteNo="0" devices="tripinfo_trainBA.10" vType="train" speedFactor="1.00" vaporized=""/>
    <tripinfo id="trainAB.11" depart="6915.00" departLane="railSN_0" departPos="135.10" departSpeed="0.00" departDelay="0.00" arrival="7145.00" arrivalLane="railSN_0" arrivalPos="1200.00" arrivalSpeed="11.25" duration="230.00" routeLength="1064.90" waitingTime="0.00" waitingCount="0" stopTime="62.00" timeLoss="90.70" rerouteNo="0" devices="tripinfo_trainAB.11" vType="train" speedFactor="1.00" vaporized=""/>
    <tripinfo id="trainBA.11" depart="6962.00" departLane="railNS_0" departPos="135.10" departSpeed="0.00" departDelay="0.00" arrival="7191.00" arrivalLane="railNS_0" arrivalPos="1200.00" arrivalSpeed="13.25" duration="229.00" routeLength="1064.90" waitingTime="0.00" waitingCount="0" stopTime="62.00" timeLoss="89.78" rerouteNo="0" devices="tripinfo_trainBA.11" vType="train" speedFactor="1.00" vaporized=""/>
    <tripinfo id="trainAB.12" depart="7515.00" departLane="railSN_0" departPos="135.10" departSpeed="0.00" departDelay="0.00" arrival="7745.00" arrivalLane="railSN_0" arrivalPos="1200.00" arrivalSpeed="11.25" duration="230.00" routeLength="1064.90" waitingTime="0.00" waitingCount="0" stopTime="62.00" timeLoss="90.70" rerouteNo="0" devices="tripinfo_trainAB.12" vType="train" speedFactor="1.00" vaporized=""/>
    <tripinfo id="busABCD.6" depart="7205.00" departLane="A1A0_1" departPos="12.10" departSpeed="0.00" departDelay="0.00" arrival="7747.00" arrivalLane="B0B1_1" arrivalPos="487.60" arrivalSpeed="3.68" duration="542.00" routeLength="4975.02" waitingTime="0.00" waitingCount="0" stopTime="125.00" timeLoss="58.72" rerouteNo="0" devices="tripinfo_busABCD.6" vType="bus" speedFactor="1.00" vaporized=""/>
    <tripinfo id="trainBA.12" depart="7562.00" departLane="railNS_0" departPos="135.10" departSpeed="0.00" departDelay="0.00" arrival="7791.00" arrivalLane="railNS_0" arrivalPos="1200.00" arrivalSpeed="13.25" duration="229.00" routeLength="1064.90" waitingTime="0.00" waitingCount="0" stopTime="62.00" timeLoss="89.78" rerouteNo="0" devices="tripinfo_trainBA.12" vType="train" speedFactor="1.00" vaporized=""/>
    <tripinfo id="trainAC.4" depart="7651.00" departLane="railWE_0" departPos="135.10" departSpeed="0.00" departDelay="0.00" arrival="7915.00" arrivalLane="railWE_0" arrivalPos="1700.00" arrivalSpeed="11.25" duration="264.00" routeLength="1564.90" waitingTime="0.00" waitingCount="0" stopTime="62.00" timeLoss="88.71" rerouteNo="0" devices="tripinfo_trainAC.4" vType="train" speedFactor="1.00" vaporized=""/>
    <tripinfo id="trainCA.4" depart="7722.00" departLane="railEW_0" departPos="135.10" departSpeed="0.00" departDelay="0.00" arrival="7986.00" arrivalLane="railEW_0" arrivalPos="1700.00" arrivalSpeed="11.25" duration="264.00" routeLength="1564.90" waitingTime="0.00" waitingCount="0" stopTime="62.00" timeLoss="88.71" rerouteNo="0" devices="tripinfo_trainCA.4" vType="train" speedFactor="1.00" vaporized=""/>
    <tripinfo id="trainAB.13" depart="8115.00" departLane="railSN_0" departPos="135.10" departSpeed="0.00" departDelay="0.00" arrival="8345.00" arrivalLane="railSN_0" arrivalPos="1200.00" arrivalSpeed="11.25" duration="230.00" routeLength="1064.90" waitingTime="0.00" waitingCount="0" stopTime="62.00" timeLoss="90.70" rerouteNo="0" devices="tripinfo_trainAB.13" vType="train" speedFactor="1.00" vaporized=""/>
    <tripinfo id="trainBA.13" depart="8162.00" departLane="railNS_0" departPos="135.10" departSpeed="0.00" departDelay="0.00" arrival="8391.00" arrivalLane="railNS_0" arrivalPos="1200.00" arrivalSpeed="13.25" duration="229.00" routeLength="1064.90" waitingTime="0.00" waitingCount="0" stopTime="62.00" timeLoss="89.78" rerouteNo="0" devices="tripinfo_trainBA.13" vType="train" speedFactor="1.00" vaporized=""/>
    <tripinfo id="busABCD.7" depart="8405.00" departLane="A1A0_1" departPos="12.10" departSpeed="0.00" departDelay="0.00" arrival="8944.00" arrivalLane="B0B1_1" arrivalPos="487.60" arrivalSpeed="3.76" duration="539.00" routeLength="4975.02" waitingTime="1.00" waitingCount="1" stopTime="127.00" timeLoss="53.71" rerouteNo="0" devices="tripinfo_busABCD.7" vType="bus" speedFactor="1.00" vaporized=""/>
    <tripinfo id="trainAB.14" depart="8715.00" departLane="railSN_0" departPos="135.10" departSpeed="0.00" departDelay="0.00" arrival="8945.00" arrivalLane="railSN_0" arrivalPos="1200.00" arrivalSpeed="11.25" duration="230.00" routeLength="1064.90" waitingTime="0.00" waitingCount="0" stopTime="62.00" timeLoss="90.70" rerouteNo="0" devices="tripinfo_trainAB.14" vType="train" speedFactor="1.00" vaporized=""/>
    <tripinfo id="trainBA.14" depart="8762.00" departLane="railNS_0" departPos="135.10" departSpeed="0.00" departDelay="0.00" arrival="8991.00" arrivalLane="railNS_0" arrivalPos="1200.00" arrivalSpeed="13.25" duration="229.00" routeLength="1064.90" waitingTime="0.00" waitingCount="0" stopTime="62.00" timeLoss="89.78" rerouteNo="0" devices="tripinfo_trainBA.14" vType="train" speedFactor="1.00" vaporized=""/>
    <tripinfo id="trainAB.15" depart="9315.00" departLane="railSN_0" departPos="135.10" departSpeed="0.00" departDelay="0.00" arrival="9545.00" arrivalLane="railSN_0" arrivalPos="1200.00" arrivalSpeed="11.25" duration="230.00" routeLength="1064.90" waitingTime="0.00" waitingCount="0" stopTime="62.00" timeLoss="90.70" rerouteNo="0" devices="tripinfo_trainAB.15" vType="train" speedFactor="1.00" vaporized=""/>
    <tripinfo id="trainBA.15" depart="9362.00" departLane="railNS_0" departPos="135.10" departSpeed="0.00" departDelay="0.00" arrival="9591.00" arrivalLane="railNS_0" arrivalPos="1200.00" arrivalSpeed="13.25" duration="229.00" routeLength="1064.90" waitingTime="0.00" waitingCount="0" stopTime="62.00" timeLoss="89.78" rerouteNo="0" devices="tripinfo_trainBA.15" vType="train" speedFactor="1.00" vaporized=""/>
    <tripinfo id="trainAC.5" depart="9451.00" departLane="railWE_0" departPos="135.10" departSpeed="0.00" departDelay="0.00" arrival="9715.00" arrivalLane="railWE_0" arrivalPos="1700.00" arrivalSpeed="11.25" duration="264.00" routeLength="1564.90" waitingTime="0.00" waitingCount="0" stopTime="62.00" timeLoss="88.71" rerouteNo="0" devices="tripinfo_trainAC.5" vType="train" speedFactor="1.00" vaporized=""/>
    <tripinfo id="trainCA.5" depart="9522.00" departLane="railEW_0" departPos="135.10" departSpeed="0.00" departDelay="0.00" arrival="9786.00" arrivalLane="railEW_0" arrivalPos="1700.00" arrivalSpeed="11.25" duration="264.00" routeLength="1564.90" waitingTime="0.00" waitingCount="0" stopTime="62.00" timeLoss="88.71" rerouteNo="0" devices="tripinfo_trainCA.5" vType="train" speedFactor="1.00" vaporized=""/>
    <tripinfo id="busABCD.8" depart="9605.00" departLane="A1A0_1" departPos="12.10" departSpeed="0.00" departDelay="0.00" arrival="10144.00" arrivalLane="B0B1_1" arrivalPos="487.60" arrivalSpeed="3.13" duration="539.00" routeLength="4975.02" waitingTime="1.00" waitingCount="1" stopTime="127.00" timeLoss="53.81" rerouteNo="0" devices="tripinfo_busABCD.8" vType="bus" speedFactor="1.00" vaporized=""/>
    <tripinfo id="trainAB.16" depart="9915.00" departLane="railSN_0" departPos="135.10" departSpeed="0.00" departDelay="0.00" arrival="10145.00" arrivalLane="railSN_0" arrivalPos="1200.00" arrivalSpeed="11.25" duration="230.00" routeLength="1064.90" waitingTime="0.00" waitingCount="0" stopTime="62.00" timeLoss="90.70" rerouteNo="0" devices="tripinfo_trainAB.16" vType="train" speedFactor="1.00" vaporized=""/>
    <tripinfo id="trainBA.16" depart="9962.00" departLane="railNS_0" departPos="135.10" departSpeed="0.00" departDelay="0.00" arrival="10191.00" arrivalLane="railNS_0" arrivalPos="1200.00" arrivalSpeed="13.25" duration="229.00" routeLength="1064.90" waitingTime="0.00" waitingCount="0" stopTime="62.00" timeLoss="89.78" rerouteNo="0" devices="tripinfo_trainBA.16" vType="train" speedFactor="1.00" vaporized=""/>
</tripinfos>
