<?xml version="1.0" encoding="UTF-8"?>

<!-- generated on Wed Aug 27 15:56:06 2014 by SUMO Version dev-SVN-r16942I
<?xml version="1.0" encoding="UTF-8"?>

<configuration xmlns:xsi="http://www.w3.org/2001/XMLSchema-instance" xsi:noNamespaceSchemaLocation="http://sumo-sim.org/xsd/sumoConfiguration.xsd">

    <input>
        <net-file value="motorway.net.xml"/>
        <route-files value="input_routes.rou.xml"/>
        <additional-files value="input_additional.add.xml,input_additional2.add.xml"/>
    </input>

    <processing>
        <time-to-teleport value="0"/>
        <max-depart-delay value="1"/>
    </processing>

    <report>
        <xml-validation value="never"/>
        <no-duration-log value="true"/>
        <no-step-log value="true"/>
    </report>

</configuration>
-->

<detector xmlns:xsi="http://www.w3.org/2001/XMLSchema-instance" xsi:noNamespaceSchemaLocation="http://sumo-sim.org/xsd/det_e1_file.xsd">
   <interval begin="0.00" end="12.00" id="end3_0" nVehContrib="0" flow="0.00" occupancy="0.00" speed="-1.00" length="-1.00" nVehEntered="0"/>
   <interval begin="12.00" end="24.00" id="end3_0" nVehContrib="0" flow="0.00" occupancy="0.00" speed="-1.00" length="-1.00" nVehEntered="0"/>
   <interval begin="24.00" end="36.00" id="end3_0" nVehContrib="0" flow="0.00" occupancy="0.00" speed="-1.00" length="-1.00" nVehEntered="0"/>
   <interval begin="36.00" end="48.00" id="end3_0" nVehContrib="0" flow="0.00" occupancy="0.00" speed="-1.00" length="-1.00" nVehEntered="0"/>
   <interval begin="48.00" end="60.00" id="end3_0" nVehContrib="0" flow="0.00" occupancy="0.00" speed="-1.00" length="-1.00" nVehEntered="0"/>
   <interval begin="60.00" end="72.00" id="end3_0" nVehContrib="0" flow="0.00" occupancy="0.00" speed="-1.00" length="-1.00" nVehEntered="0"/>
   <interval begin="72.00" end="84.00" id="end3_0" nVehContrib="0" flow="0.00" occupancy="0.00" speed="-1.00" length="-1.00" nVehEntered="0"/>
   <interval begin="84.00" end="96.00" id="end3_0" nVehContrib="0" flow="0.00" occupancy="0.00" speed="-1.00" length="-1.00" nVehEntered="0"/>
   <interval begin="96.00" end="108.00" id="end3_0" nVehContrib="0" flow="0.00" occupancy="0.00" speed="-1.00" length="-1.00" nVehEntered="0"/>
   <interval begin="108.00" end="120.00" id="end3_0" nVehContrib="0" flow="0.00" occupancy="0.00" speed="-1.00" length="-1.00" nVehEntered="0"/>
   <interval begin="120.00" end="132.00" id="end3_0" nVehContrib="0" flow="0.00" occupancy="0.00" speed="-1.00" length="-1.00" nVehEntered="0"/>
   <interval begin="132.00" end="144.00" id="end3_0" nVehContrib="0" flow="0.00" occupancy="0.00" speed="-1.00" length="-1.00" nVehEntered="0"/>
   <interval begin="144.00" end="156.00" id="end3_0" nVehContrib="0" flow="0.00" occupancy="0.00" speed="-1.00" length="-1.00" nVehEntered="0"/>
   <interval begin="156.00" end="168.00" id="end3_0" nVehContrib="0" flow="0.00" occupancy="0.00" speed="-1.00" length="-1.00" nVehEntered="0"/>
   <interval begin="168.00" end="180.00" id="end3_0" nVehContrib="0" flow="0.00" occupancy="0.00" speed="-1.00" length="-1.00" nVehEntered="0"/>
   <interval begin="180.00" end="192.00" id="end3_0" nVehContrib="0" flow="0.00" occupancy="0.00" speed="-1.00" length="-1.00" nVehEntered="0"/>
   <interval begin="192.00" end="204.00" id="end3_0" nVehContrib="0" flow="0.00" occupancy="0.00" speed="-1.00" length="-1.00" nVehEntered="0"/>
   <interval begin="204.00" end="216.00" id="end3_0" nVehContrib="0" flow="0.00" occupancy="0.00" speed="-1.00" length="-1.00" nVehEntered="0"/>
   <interval begin="216.00" end="228.00" id="end3_0" nVehContrib="0" flow="0.00" occupancy="0.00" speed="-1.00" length="-1.00" nVehEntered="0"/>
   <interval begin="228.00" end="240.00" id="end3_0" nVehContrib="0" flow="0.00" occupancy="0.00" speed="-1.00" length="-1.00" nVehEntered="0"/>
   <interval begin="240.00" end="252.00" id="end3_0" nVehContrib="0" flow="0.00" occupancy="0.00" speed="-1.00" length="-1.00" nVehEntered="0"/>
   <interval begin="252.00" end="264.00" id="end3_0" nVehContrib="0" flow="0.00" occupancy="0.00" speed="-1.00" length="-1.00" nVehEntered="0"/>
   <interval begin="264.00" end="276.00" id="end3_0" nVehContrib="0" flow="0.00" occupancy="0.00" speed="-1.00" length="-1.00" nVehEntered="0"/>
   <interval begin="276.00" end="288.00" id="end3_0" nVehContrib="0" flow="0.00" occupancy="0.00" speed="-1.00" length="-1.00" nVehEntered="0"/>
   <interval begin="288.00" end="300.00" id="end3_0" nVehContrib="0" flow="0.00" occupancy="0.00" speed="-1.00" length="-1.00" nVehEntered="0"/>
   <interval begin="300.00" end="312.00" id="end3_0" nVehContrib="0" flow="0.00" occupancy="0.00" speed="-1.00" length="-1.00" nVehEntered="0"/>
   <interval begin="312.00" end="324.00" id="end3_0" nVehContrib="0" flow="0.00" occupancy="0.00" speed="-1.00" length="-1.00" nVehEntered="0"/>
   <interval begin="324.00" end="336.00" id="end3_0" nVehContrib="0" flow="0.00" occupancy="0.00" speed="-1.00" length="-1.00" nVehEntered="0"/>
   <interval begin="336.00" end="348.00" id="end3_0" nVehContrib="0" flow="0.00" occupancy="0.00" speed="-1.00" length="-1.00" nVehEntered="0"/>
   <interval begin="348.00" end="360.00" id="end3_0" nVehContrib="0" flow="0.00" occupancy="0.00" speed="-1.00" length="-1.00" nVehEntered="0"/>
   <interval begin="360.00" end="372.00" id="end3_0" nVehContrib="0" flow="0.00" occupancy="0.00" speed="-1.00" length="-1.00" nVehEntered="0"/>
   <interval begin="372.00" end="384.00" id="end3_0" nVehContrib="0" flow="0.00" occupancy="0.00" speed="-1.00" length="-1.00" nVehEntered="0"/>
   <interval begin="384.00" end="396.00" id="end3_0" nVehContrib="0" flow="0.00" occupancy="0.00" speed="-1.00" length="-1.00" nVehEntered="0"/>
   <interval begin="396.00" end="408.00" id="end3_0" nVehContrib="0" flow="0.00" occupancy="0.00" speed="-1.00" length="-1.00" nVehEntered="0"/>
   <interval begin="408.00" end="420.00" id="end3_0" nVehContrib="0" flow="0.00" occupancy="0.00" speed="-1.00" length="-1.00" nVehEntered="0"/>
   <interval begin="420.00" end="432.00" id="end3_0" nVehContrib="0" flow="0.00" occupancy="0.00" speed="-1.00" length="-1.00" nVehEntered="0"/>
   <interval begin="432.00" end="444.00" id="end3_0" nVehContrib="0" flow="0.00" occupancy="0.00" speed="-1.00" length="-1.00" nVehEntered="0"/>
   <interval begin="444.00" end="456.00" id="end3_0" nVehContrib="0" flow="0.00" occupancy="0.00" speed="-1.00" length="-1.00" nVehEntered="0"/>
   <interval begin="456.00" end="468.00" id="end3_0" nVehContrib="0" flow="0.00" occupancy="0.00" speed="-1.00" length="-1.00" nVehEntered="0"/>
   <interval begin="468.00" end="480.00" id="end3_0" nVehContrib="0" flow="0.00" occupancy="0.00" speed="-1.00" length="-1.00" nVehEntered="0"/>
   <interval begin="480.00" end="492.00" id="end3_0" nVehContrib="0" flow="0.00" occupancy="0.00" speed="-1.00" length="-1.00" nVehEntered="0"/>
   <interval begin="492.00" end="504.00" id="end3_0" nVehContrib="0" flow="0.00" occupancy="0.00" speed="-1.00" length="-1.00" nVehEntered="0"/>
   <interval begin="504.00" end="516.00" id="end3_0" nVehContrib="0" flow="0.00" occupancy="0.00" speed="-1.00" length="-1.00" nVehEntered="0"/>
   <interval begin="516.00" end="528.00" id="end3_0" nVehContrib="0" flow="0.00" occupancy="0.00" speed="-1.00" length="-1.00" nVehEntered="0"/>
   <interval begin="528.00" end="540.00" id="end3_0" nVehContrib="0" flow="0.00" occupancy="0.00" speed="-1.00" length="-1.00" nVehEntered="0"/>
   <interval begin="540.00" end="552.00" id="end3_0" nVehContrib="0" flow="0.00" occupancy="0.00" speed="-1.00" length="-1.00" nVehEntered="0"/>
   <interval begin="552.00" end="564.00" id="end3_0" nVehContrib="0" flow="0.00" occupancy="0.00" speed="-1.00" length="-1.00" nVehEntered="0"/>
   <interval begin="564.00" end="576.00" id="end3_0" nVehContrib="0" flow="0.00" occupancy="0.00" speed="-1.00" length="-1.00" nVehEntered="0"/>
   <interval begin="576.00" end="588.00" id="end3_0" nVehContrib="0" flow="0.00" occupancy="0.00" speed="-1.00" length="-1.00" nVehEntered="0"/>
   <interval begin="588.00" end="600.00" id="end3_0" nVehContrib="0" flow="0.00" occupancy="0.00" speed="-1.00" length="-1.00" nVehEntered="0"/>
   <interval begin="600.00" end="612.00" id="end3_0" nVehContrib="0" flow="0.00" occupancy="0.00" speed="-1.00" length="-1.00" nVehEntered="0"/>
   <interval begin="612.00" end="624.00" id="end3_0" nVehContrib="0" flow="0.00" occupancy="0.00" speed="-1.00" length="-1.00" nVehEntered="0"/>
   <interval begin="624.00" end="636.00" id="end3_0" nVehContrib="0" flow="0.00" occupancy="0.00" speed="-1.00" length="-1.00" nVehEntered="0"/>
   <interval begin="636.00" end="648.00" id="end3_0" nVehContrib="0" flow="0.00" occupancy="0.00" speed="-1.00" length="-1.00" nVehEntered="0"/>
   <interval begin="648.00" end="660.00" id="end3_0" nVehContrib="0" flow="0.00" occupancy="0.00" speed="-1.00" length="-1.00" nVehEntered="0"/>
   <interval begin="660.00" end="672.00" id="end3_0" nVehContrib="0" flow="0.00" occupancy="0.00" speed="-1.00" length="-1.00" nVehEntered="0"/>
   <interval begin="672.00" end="684.00" id="end3_0" nVehContrib="0" flow="0.00" occupancy="0.00" speed="-1.00" length="-1.00" nVehEntered="0"/>
   <interval begin="684.00" end="696.00" id="end3_0" nVehContrib="0" flow="0.00" occupancy="0.00" speed="-1.00" length="-1.00" nVehEntered="0"/>
   <interval begin="696.00" end="708.00" id="end3_0" nVehContrib="0" flow="0.00" occupancy="0.00" speed="-1.00" length="-1.00" nVehEntered="0"/>
   <interval begin="708.00" end="720.00" id="end3_0" nVehContrib="0" flow="0.00" occupancy="0.00" speed="-1.00" length="-1.00" nVehEntered="0"/>
   <interval begin="720.00" end="732.00" id="end3_0" nVehContrib="0" flow="0.00" occupancy="0.00" speed="-1.00" length="-1.00" nVehEntered="0"/>
   <interval begin="732.00" end="744.00" id="end3_0" nVehContrib="0" flow="0.00" occupancy="0.00" speed="-1.00" length="-1.00" nVehEntered="0"/>
   <interval begin="744.00" end="756.00" id="end3_0" nVehContrib="0" flow="0.00" occupancy="0.00" speed="-1.00" length="-1.00" nVehEntered="0"/>
   <interval begin="756.00" end="768.00" id="end3_0" nVehContrib="0" flow="0.00" occupancy="0.00" speed="-1.00" length="-1.00" nVehEntered="0"/>
   <interval begin="768.00" end="780.00" id="end3_0" nVehContrib="0" flow="0.00" occupancy="0.00" speed="-1.00" length="-1.00" nVehEntered="0"/>
   <interval begin="780.00" end="792.00" id="end3_0" nVehContrib="0" flow="0.00" occupancy="0.00" speed="-1.00" length="-1.00" nVehEntered="0"/>
   <interval begin="792.00" end="804.00" id="end3_0" nVehContrib="0" flow="0.00" occupancy="0.00" speed="-1.00" length="-1.00" nVehEntered="0"/>
   <interval begin="804.00" end="816.00" id="end3_0" nVehContrib="0" flow="0.00" occupancy="0.00" speed="-1.00" length="-1.00" nVehEntered="0"/>
   <interval begin="816.00" end="828.00" id="end3_0" nVehContrib="0" flow="0.00" occupancy="0.00" speed="-1.00" length="-1.00" nVehEntered="0"/>
   <interval begin="828.00" end="840.00" id="end3_0" nVehContrib="0" flow="0.00" occupancy="0.00" speed="-1.00" length="-1.00" nVehEntered="0"/>
   <interval begin="840.00" end="852.00" id="end3_0" nVehContrib="4" flow="1200.00" occupancy="29.17" speed="7.04" length="5.00" nVehEntered="4"/>
   <interval begin="852.00" end="864.00" id="end3_0" nVehContrib="7" flow="2100.00" occupancy="17.26" speed="14.73" length="5.00" nVehEntered="7"/>
   <interval begin="864.00" end="876.00" id="end3_0" nVehContrib="6" flow="1800.00" occupancy="13.56" speed="19.18" length="5.00" nVehEntered="6"/>
   <interval begin="876.00" end="888.00" id="end3_0" nVehContrib="8" flow="2400.00" occupancy="13.73" speed="23.54" length="5.00" nVehEntered="8"/>
   <interval begin="888.00" end="900.00" id="end3_0" nVehContrib="7" flow="2100.00" occupancy="10.62" speed="27.50" length="5.00" nVehEntered="7"/>
   <interval begin="900.00" end="912.00" id="end3_0" nVehContrib="8" flow="2400.00" occupancy="10.72" speed="31.14" length="5.00" nVehEntered="8"/>
   <interval begin="912.00" end="924.00" id="end3_0" nVehContrib="7" flow="2100.00" occupancy="8.83" speed="33.05" length="5.00" nVehEntered="7"/>
   <interval begin="924.00" end="936.00" id="end3_0" nVehContrib="7" flow="2100.00" occupancy="12.54" speed="23.26" length="5.00" nVehEntered="7"/>
   <interval begin="936.00" end="948.00" id="end3_0" nVehContrib="8" flow="2400.00" occupancy="14.03" speed="23.83" length="5.00" nVehEntered="8"/>
   <interval begin="948.00" end="960.00" id="end3_0" nVehContrib="8" flow="2400.00" occupancy="12.57" speed="26.66" length="5.00" nVehEntered="8"/>
   <interval begin="960.00" end="972.00" id="end3_0" nVehContrib="8" flow="2400.00" occupancy="11.05" speed="30.18" length="5.00" nVehEntered="8"/>
   <interval begin="972.00" end="984.00" id="end3_0" nVehContrib="9" flow="2700.00" occupancy="11.66" speed="32.20" length="5.00" nVehEntered="9"/>
   <interval begin="984.00" end="996.00" id="end3_0" nVehContrib="6" flow="1800.00" occupancy="8.48" speed="29.53" length="5.00" nVehEntered="6"/>
   <interval begin="996.00" end="1008.00" id="end3_0" nVehContrib="8" flow="2400.00" occupancy="10.76" speed="30.99" length="5.00" nVehEntered="8"/>
   <interval begin="1008.00" end="1020.00" id="end3_0" nVehContrib="8" flow="2400.00" occupancy="10.56" speed="31.59" length="5.00" nVehEntered="8"/>
   <interval begin="1020.00" end="1032.00" id="end3_0" nVehContrib="7" flow="2100.00" occupancy="9.94" speed="29.39" length="5.00" nVehEntered="7"/>
   <interval begin="1032.00" end="1044.00" id="end3_0" nVehContrib="8" flow="2400.00" occupancy="11.14" speed="29.97" length="5.00" nVehEntered="8"/>
   <interval begin="1044.00" end="1056.00" id="end3_0" nVehContrib="7" flow="2100.00" occupancy="10.20" speed="28.61" length="5.00" nVehEntered="7"/>
   <interval begin="1056.00" end="1068.00" id="end3_0" nVehContrib="8" flow="2400.00" occupancy="11.47" speed="29.05" length="5.00" nVehEntered="8"/>
   <interval begin="1068.00" end="1080.00" id="end3_0" nVehContrib="9" flow="2700.00" occupancy="12.40" speed="30.24" length="5.00" nVehEntered="9"/>
   <interval begin="1080.00" end="1092.00" id="end3_0" nVehContrib="7" flow="2100.00" occupancy="10.85" speed="30.39" length="5.00" nVehEntered="7"/>
   <interval begin="1092.00" end="1104.00" id="end3_0" nVehContrib="9" flow="2700.00" occupancy="11.43" speed="29.61" length="5.00" nVehEntered="9"/>
   <interval begin="1104.00" end="1116.00" id="end3_0" nVehContrib="6" flow="1800.00" occupancy="8.90" speed="28.13" length="5.00" nVehEntered="6"/>
   <interval begin="1116.00" end="1128.00" id="end3_0" nVehContrib="8" flow="2400.00" occupancy="12.20" speed="28.45" length="5.00" nVehEntered="8"/>
   <interval begin="1128.00" end="1140.00" id="end3_0" nVehContrib="7" flow="2100.00" occupancy="10.27" speed="27.22" length="5.00" nVehEntered="7"/>
   <interval begin="1140.00" end="1152.00" id="end3_0" nVehContrib="8" flow="2400.00" occupancy="11.81" speed="28.25" length="5.00" nVehEntered="8"/>
   <interval begin="1152.00" end="1164.00" id="end3_0" nVehContrib="9" flow="2700.00" occupancy="13.35" speed="28.11" length="5.00" nVehEntered="9"/>
   <interval begin="1164.00" end="1176.00" id="end3_0" nVehContrib="8" flow="2400.00" occupancy="11.39" speed="29.28" length="5.00" nVehEntered="8"/>
   <interval begin="1176.00" end="1188.00" id="end3_0" nVehContrib="8" flow="2400.00" occupancy="11.25" speed="29.63" length="5.00" nVehEntered="8"/>
   <interval begin="1188.00" end="1200.00" id="end3_0" nVehContrib="9" flow="2700.00" occupancy="12.22" speed="30.69" length="5.00" nVehEntered="9"/>
   <interval begin="1200.00" end="1212.00" id="end3_0" nVehContrib="8" flow="2400.00" occupancy="10.26" speed="32.52" length="5.00" nVehEntered="8"/>
   <interval begin="1212.00" end="1224.00" id="end3_0" nVehContrib="9" flow="2700.00" occupancy="11.78" speed="31.85" length="5.00" nVehEntered="9"/>
   <interval begin="1224.00" end="1236.00" id="end3_0" nVehContrib="8" flow="2400.00" occupancy="10.28" speed="32.45" length="5.00" nVehEntered="8"/>
   <interval begin="1236.00" end="1248.00" id="end3_0" nVehContrib="1" flow="300.00" occupancy="1.29" speed="32.27" length="5.00" nVehEntered="1"/>
   <interval begin="1248.00" end="1260.00" id="end3_0" nVehContrib="5" flow="1500.00" occupancy="8.35" speed="24.96" length="5.00" nVehEntered="5"/>
   <interval begin="1260.00" end="1272.00" id="end3_0" nVehContrib="8" flow="2400.00" occupancy="13.13" speed="25.40" length="5.00" nVehEntered="8"/>
   <interval begin="1272.00" end="1284.00" id="end3_0" nVehContrib="8" flow="2400.00" occupancy="12.89" speed="25.89" length="5.00" nVehEntered="8"/>
   <interval begin="1284.00" end="1296.00" id="end3_0" nVehContrib="8" flow="2400.00" occupancy="12.37" speed="27.03" length="5.00" nVehEntered="8"/>
   <interval begin="1296.00" end="1308.00" id="end3_0" nVehContrib="8" flow="2400.00" occupancy="13.13" speed="25.43" length="5.00" nVehEntered="8"/>
   <interval begin="1308.00" end="1320.00" id="end3_0" nVehContrib="8" flow="2400.00" occupancy="12.87" speed="25.93" length="5.00" nVehEntered="8"/>
   <interval begin="1320.00" end="1332.00" id="end3_0" nVehContrib="8" flow="2400.00" occupancy="13.54" speed="27.24" length="5.00" nVehEntered="8"/>
   <interval begin="1332.00" end="1344.00" id="end3_0" nVehContrib="9" flow="2700.00" occupancy="11.58" speed="29.16" length="5.00" nVehEntered="9"/>
   <interval begin="1344.00" end="1356.00" id="end3_0" nVehContrib="8" flow="2400.00" occupancy="11.72" speed="28.46" length="5.00" nVehEntered="8"/>
   <interval begin="1356.00" end="1368.00" id="end3_0" nVehContrib="9" flow="2700.00" occupancy="12.97" speed="28.93" length="5.00" nVehEntered="9"/>
   <interval begin="1368.00" end="1380.00" id="end3_0" nVehContrib="8" flow="2400.00" occupancy="11.54" speed="28.89" length="5.00" nVehEntered="8"/>
   <interval begin="1380.00" end="1392.00" id="end3_0" nVehContrib="8" flow="2400.00" occupancy="12.00" speed="27.78" length="5.00" nVehEntered="8"/>
   <interval begin="1392.00" end="1404.00" id="end3_0" nVehContrib="9" flow="2700.00" occupancy="12.88" speed="29.14" length="5.00" nVehEntered="9"/>
   <interval begin="1404.00" end="1416.00" id="end3_0" nVehContrib="8" flow="2400.00" occupancy="11.36" speed="29.36" length="5.00" nVehEntered="8"/>
   <interval begin="1416.00" end="1428.00" id="end3_0" nVehContrib="8" flow="2400.00" occupancy="11.66" speed="29.58" length="5.00" nVehEntered="8"/>
   <interval begin="1428.00" end="1440.00" id="end3_0" nVehContrib="9" flow="2700.00" occupancy="12.45" speed="29.25" length="5.00" nVehEntered="9"/>
   <interval begin="1440.00" end="1448.00" id="end3_0" nVehContrib="1" flow="450.00" occupancy="2.22" speed="28.11" length="5.00" nVehEntered="1"/>
</detector>
