<?xml version="1.0" encoding="UTF-8"?>

<!-- generated on Thu Dec 15 12:29:54 2016 by SUMO Version dev-SVN-r22302
<?xml version="1.0" encoding="UTF-8"?>

<configuration xmlns:xsi="http://www.w3.org/2001/XMLSchema-instance" xsi:noNamespaceSchemaLocation="http://sumo.dlr.de/xsd/sumoConfiguration.xsd">

    <input>
        <net-file value="net.net.xml"/>
        <additional-files value="input_routes.rou.xml,input_additional.add.xml,input_additional2.add.xml"/>
    </input>

    <time>
        <begin value="0"/>
        <end value="1000"/>
    </time>

    <processing>
        <time-to-teleport value="-1"/>
    </processing>

    <report>
        <xml-validation value="never"/>
        <duration-log.disable value="true"/>
        <no-step-log value="true"/>
    </report>

    <mesoscopic>
        <mesosim value="true"/>
    </mesoscopic>

</configuration>
-->

<meandata xmlns:xsi="http://www.w3.org/2001/XMLSchema-instance" xsi:noNamespaceSchemaLocation="http://sumo.dlr.de/xsd/meandata_file.xsd">
    <interval begin="600.00" end="615.00" id="dump_15">
        <edge id="2/1to1/1" sampledSeconds="195.00" CO_abs="31933.563729" CO2_abs="510559.597708" HC_abs="157.389147" PMx_abs="12.776715" NOx_abs="234.000773" fuel_abs="219.482496" electricity_abs="0"
            CO_normed="19160.138237" CO2_normed="306335.758625" HC_normed="94.433488" PMx_normed="7.666029" NOx_normed="140.400464" fuel_normed="131.689498" electricity_normed="0"
            traveltime="8000.00" CO_perVeh="1310094.922222" CO2_perVeh="20946034.777778" HC_perVeh="6456.990667" PMx_perVeh="524.172917" NOx_perVeh="9600.031722" fuel_perVeh="9004.410108" electricity_perVeh="0"/>
        <edge id="3/1to2/1" sampledSeconds="780.00" CO_abs="127664.105597" CO2_abs="2041792.575074" HC_abs="629.223747" PMx_abs="51.075766" NOx_abs="935.696719" fuel_abs="877.738327" electricity_abs="0"
            CO_normed="76598.463358" CO2_normed="1225075.545045" HC_normed="377.534248" PMx_normed="30.645460" NOx_normed="561.418031" fuel_normed="526.642996" electricity_normed="0"
            traveltime="7348.44" CO_perVeh="1202733.855094" CO2_perVeh="19235892.842631" HC_perVeh="5927.967762" PMx_perVeh="481.188918" NOx_perVeh="8815.274401" fuel_perVeh="8269.243707" electricity_perVeh="0"/>
        <edge id="4/1to3/1" sampledSeconds="195.00" CO_abs="31898.890223" CO2_abs="510339.264695" HC_abs="157.224630" PMx_abs="12.761347" NOx_abs="233.849346" fuel_abs="219.387774" electricity_abs="0"
            CO_normed="19139.334134" CO2_normed="306203.558817" HC_normed="94.334778" PMx_normed="7.656808" NOx_normed="140.309608" fuel_normed="131.632664" electricity_normed="0"
            traveltime="6806.65" CO_perVeh="1113458.921420" CO2_perVeh="17813842.526986" HC_perVeh="5488.064492" PMx_perVeh="445.446067" NOx_perVeh="8162.717851" fuel_perVeh="7657.923914" electricity_perVeh="0"/>
    </interval>
    <interval begin="615.00" end="630.00" id="dump_15">
        <edge id="2/1to1/1" sampledSeconds="195.00" CO_abs="31933.563729" CO2_abs="510559.597708" HC_abs="157.389147" PMx_abs="12.776715" NOx_abs="234.000773" fuel_abs="219.482496" electricity_abs="0"
            CO_normed="19160.138237" CO2_normed="306335.758625" HC_normed="94.433488" PMx_normed="7.666029" NOx_normed="140.400464" fuel_normed="131.689498" electricity_normed="0"
            traveltime="8000.00" CO_perVeh="1310094.922222" CO2_perVeh="20946034.777778" HC_perVeh="6456.990667" PMx_perVeh="524.172917" NOx_perVeh="9600.031722" fuel_perVeh="9004.410108" electricity_perVeh="0"/>
        <edge id="3/1to2/1" sampledSeconds="780.00" CO_abs="127664.105597" CO2_abs="2041792.575074" HC_abs="629.223747" PMx_abs="51.075766" NOx_abs="935.696719" fuel_abs="877.738327" electricity_abs="0"
            CO_normed="76598.463358" CO2_normed="1225075.545045" HC_normed="377.534248" PMx_normed="30.645460" NOx_normed="561.418031" fuel_normed="526.642996" electricity_normed="0"
            traveltime="7348.44" CO_perVeh="1202733.855094" CO2_perVeh="19235892.842631" HC_perVeh="5927.967762" PMx_perVeh="481.188918" NOx_perVeh="8815.274401" fuel_perVeh="8269.243707" electricity_perVeh="0"/>
        <edge id="4/1to3/1" sampledSeconds="195.00" CO_abs="31898.890223" CO2_abs="510339.264695" HC_abs="157.224630" PMx_abs="12.761347" NOx_abs="233.849346" fuel_abs="219.387774" electricity_abs="0"
            CO_normed="19139.334134" CO2_normed="306203.558817" HC_normed="94.334778" PMx_normed="7.656808" NOx_normed="140.309608" fuel_normed="131.632664" electricity_normed="0"
            traveltime="6806.65" CO_perVeh="1113458.921420" CO2_perVeh="17813842.526986" HC_perVeh="5488.064492" PMx_perVeh="445.446067" NOx_perVeh="8162.717851" fuel_perVeh="7657.923914" electricity_perVeh="0"/>
    </interval>
    <interval begin="630.00" end="645.00" id="dump_15">
        <edge id="2/1to1/1" sampledSeconds="195.00" CO_abs="31933.563729" CO2_abs="510559.597708" HC_abs="157.389147" PMx_abs="12.776715" NOx_abs="234.000773" fuel_abs="219.482496" electricity_abs="0"
            CO_normed="19160.138237" CO2_normed="306335.758625" HC_normed="94.433488" PMx_normed="7.666029" NOx_normed="140.400464" fuel_normed="131.689498" electricity_normed="0"
            traveltime="8000.00" CO_perVeh="1310094.922222" CO2_perVeh="20946034.777778" HC_perVeh="6456.990667" PMx_perVeh="524.172917" NOx_perVeh="9600.031722" fuel_perVeh="9004.410108" electricity_perVeh="0"/>
        <edge id="3/1to2/1" sampledSeconds="780.00" CO_abs="127664.105597" CO2_abs="2041792.575074" HC_abs="629.223747" PMx_abs="51.075766" NOx_abs="935.696719" fuel_abs="877.738327" electricity_abs="0"
            CO_normed="76598.463358" CO2_normed="1225075.545045" HC_normed="377.534248" PMx_normed="30.645460" NOx_normed="561.418031" fuel_normed="526.642996" electricity_normed="0"
            traveltime="7348.44" CO_perVeh="1202733.855094" CO2_perVeh="19235892.842631" HC_perVeh="5927.967762" PMx_perVeh="481.188918" NOx_perVeh="8815.274401" fuel_perVeh="8269.243707" electricity_perVeh="0"/>
        <edge id="4/1to3/1" sampledSeconds="195.00" CO_abs="31898.890223" CO2_abs="510339.264695" HC_abs="157.224630" PMx_abs="12.761347" NOx_abs="233.849346" fuel_abs="219.387774" electricity_abs="0"
            CO_normed="19139.334134" CO2_normed="306203.558817" HC_normed="94.334778" PMx_normed="7.656808" NOx_normed="140.309608" fuel_normed="131.632664" electricity_normed="0"
            traveltime="6806.65" CO_perVeh="1113458.921420" CO2_perVeh="17813842.526986" HC_perVeh="5488.064492" PMx_perVeh="445.446067" NOx_perVeh="8162.717851" fuel_perVeh="7657.923914" electricity_perVeh="0"/>
    </interval>
    <interval begin="645.00" end="660.00" id="dump_15">
        <edge id="2/1to1/1" sampledSeconds="195.00" CO_abs="31933.563729" CO2_abs="510559.597708" HC_abs="157.389147" PMx_abs="12.776715" NOx_abs="234.000773" fuel_abs="219.482496" electricity_abs="0"
            CO_normed="19160.138237" CO2_normed="306335.758625" HC_normed="94.433488" PMx_normed="7.666029" NOx_normed="140.400464" fuel_normed="131.689498" electricity_normed="0"
            traveltime="8000.00" CO_perVeh="1310094.922222" CO2_perVeh="20946034.777778" HC_perVeh="6456.990667" PMx_perVeh="524.172917" NOx_perVeh="9600.031722" fuel_perVeh="9004.410108" electricity_perVeh="0"/>
        <edge id="3/1to2/1" sampledSeconds="780.00" CO_abs="127664.105597" CO2_abs="2041792.575074" HC_abs="629.223747" PMx_abs="51.075766" NOx_abs="935.696719" fuel_abs="877.738327" electricity_abs="0"
            CO_normed="76598.463358" CO2_normed="1225075.545045" HC_normed="377.534248" PMx_normed="30.645460" NOx_normed="561.418031" fuel_normed="526.642996" electricity_normed="0"
            traveltime="7348.44" CO_perVeh="1202733.855094" CO2_perVeh="19235892.842631" HC_perVeh="5927.967762" PMx_perVeh="481.188918" NOx_perVeh="8815.274401" fuel_perVeh="8269.243707" electricity_perVeh="0"/>
        <edge id="4/1to3/1" sampledSeconds="195.00" CO_abs="31898.890223" CO2_abs="510339.264695" HC_abs="157.224630" PMx_abs="12.761347" NOx_abs="233.849346" fuel_abs="219.387774" electricity_abs="0"
            CO_normed="19139.334134" CO2_normed="306203.558817" HC_normed="94.334778" PMx_normed="7.656808" NOx_normed="140.309608" fuel_normed="131.632664" electricity_normed="0"
            traveltime="6806.65" CO_perVeh="1113458.921420" CO2_perVeh="17813842.526986" HC_perVeh="5488.064492" PMx_perVeh="445.446067" NOx_perVeh="8162.717851" fuel_perVeh="7657.923914" electricity_perVeh="0"/>
    </interval>
</meandata>
