<?xml version="1.0" encoding="UTF-8"?>

<!-- generated on Wed Nov 19 15:53:53 2014 by SUMO Version dev-SVN-r17350ID
<?xml version="1.0" encoding="UTF-8"?>

<configuration xmlns:xsi="http://www.w3.org/2001/XMLSchema-instance" xsi:noNamespaceSchemaLocation="http://sumo.dlr.de/xsd/sumoConfiguration.xsd">

    <input>
        <net-file value="net.net.xml"/>
        <additional-files value="input_routes.rou.xml,input_additional.add.xml,input_additional2.add.xml"/>
    </input>

    <time>
        <begin value="0"/>
        <end value="1000"/>
    </time>

    <processing>
        <time-to-teleport value="-1"/>
    </processing>

    <report>
        <xml-validation value="never"/>
        <no-duration-log value="true"/>
        <no-step-log value="true"/>
    </report>

    <mesoscopic>
        <mesosim value="true"/>
    </mesoscopic>

</configuration>
-->

<meandata xmlns:xsi="http://www.w3.org/2001/XMLSchema-instance" xsi:noNamespaceSchemaLocation="http://sumo.dlr.de/xsd/meandata_file.xsd">
    <interval begin="600.00" end="615.00" id="dump_15">
        <edge id="2/1to1/1" sampledSeconds="195.00" CO_abs="1231.303251" CO2_abs="118546.747469" HC_abs="68.086435" PMx_abs="4.229533" NOx_abs="165.675433" fuel_abs="47.262737"
            CO_normed="738.781951" CO2_normed="71128.048482" HC_normed="40.851861" PMx_normed="2.537720" NOx_normed="99.405260" fuel_normed="28.357642"
            traveltime="8000.00" CO_perVeh="50515.005175" CO2_perVeh="4863456.306430" HC_perVeh="2793.289646" PMx_perVeh="173.519312" NOx_perVeh="6796.940837" fuel_perVeh="1938.984075"/>
        <edge id="3/1to2/1" sampledSeconds="780.00" CO_abs="4921.293052" CO2_abs="474613.130656" HC_abs="272.327872" PMx_abs="16.947385" NOx_abs="663.391957" fuel_abs="189.220843"
            CO_normed="2952.775831" CO2_normed="284767.878393" HC_normed="163.396723" PMx_normed="10.168431" NOx_normed="398.035174" fuel_normed="113.532506"
            traveltime="7354.99" CO_perVeh="46405.221299" CO2_perVeh="4475353.759413" HC_perVeh="2567.909499" PMx_perVeh="159.804985" NOx_perVeh="6255.439427" fuel_perVeh="1784.253651"/>
        <edge id="4/1to3/1" sampledSeconds="195.00" CO_abs="1229.356431" CO2_abs="118758.338451" HC_abs="68.077557" PMx_abs="4.244058" NOx_abs="166.018146" fuel_abs="47.347095"
            CO_normed="737.613858" CO2_normed="71255.003071" HC_normed="40.846534" PMx_normed="2.546435" NOx_normed="99.610887" fuel_normed="28.408257"
            traveltime="6813.19" CO_perVeh="42953.044890" CO2_perVeh="4149351.737790" HC_perVeh="2378.592801" PMx_perVeh="148.285062" NOx_perVeh="5800.583690" fuel_perVeh="1654.281737"/>
    </interval>
    <interval begin="615.00" end="630.00" id="dump_15">
        <edge id="2/1to1/1" sampledSeconds="195.00" CO_abs="1231.303251" CO2_abs="118546.747469" HC_abs="68.086435" PMx_abs="4.229533" NOx_abs="165.675433" fuel_abs="47.262737"
            CO_normed="738.781951" CO2_normed="71128.048482" HC_normed="40.851861" PMx_normed="2.537720" NOx_normed="99.405260" fuel_normed="28.357642"
            traveltime="8000.00" CO_perVeh="50515.005175" CO2_perVeh="4863456.306430" HC_perVeh="2793.289646" PMx_perVeh="173.519312" NOx_perVeh="6796.940837" fuel_perVeh="1938.984075"/>
        <edge id="3/1to2/1" sampledSeconds="780.00" CO_abs="4921.293052" CO2_abs="474613.130656" HC_abs="272.327872" PMx_abs="16.947385" NOx_abs="663.391957" fuel_abs="189.220843"
            CO_normed="2952.775831" CO2_normed="284767.878393" HC_normed="163.396723" PMx_normed="10.168431" NOx_normed="398.035174" fuel_normed="113.532506"
            traveltime="7354.99" CO_perVeh="46405.221299" CO2_perVeh="4475353.759413" HC_perVeh="2567.909499" PMx_perVeh="159.804985" NOx_perVeh="6255.439427" fuel_perVeh="1784.253651"/>
        <edge id="4/1to3/1" sampledSeconds="195.00" CO_abs="1229.356431" CO2_abs="118758.338451" HC_abs="68.077557" PMx_abs="4.244058" NOx_abs="166.018146" fuel_abs="47.347095"
            CO_normed="737.613858" CO2_normed="71255.003071" HC_normed="40.846534" PMx_normed="2.546435" NOx_normed="99.610887" fuel_normed="28.408257"
            traveltime="6813.19" CO_perVeh="42953.044890" CO2_perVeh="4149351.737790" HC_perVeh="2378.592801" PMx_perVeh="148.285062" NOx_perVeh="5800.583690" fuel_perVeh="1654.281737"/>
    </interval>
    <interval begin="630.00" end="645.00" id="dump_15">
        <edge id="2/1to1/1" sampledSeconds="195.00" CO_abs="1231.303251" CO2_abs="118546.747469" HC_abs="68.086435" PMx_abs="4.229533" NOx_abs="165.675433" fuel_abs="47.262737"
            CO_normed="738.781951" CO2_normed="71128.048482" HC_normed="40.851861" PMx_normed="2.537720" NOx_normed="99.405260" fuel_normed="28.357642"
            traveltime="8000.00" CO_perVeh="50515.005175" CO2_perVeh="4863456.306430" HC_perVeh="2793.289646" PMx_perVeh="173.519312" NOx_perVeh="6796.940837" fuel_perVeh="1938.984075"/>
        <edge id="3/1to2/1" sampledSeconds="780.00" CO_abs="4921.293052" CO2_abs="474613.130656" HC_abs="272.327872" PMx_abs="16.947385" NOx_abs="663.391957" fuel_abs="189.220843"
            CO_normed="2952.775831" CO2_normed="284767.878393" HC_normed="163.396723" PMx_normed="10.168431" NOx_normed="398.035174" fuel_normed="113.532506"
            traveltime="7354.99" CO_perVeh="46405.221299" CO2_perVeh="4475353.759413" HC_perVeh="2567.909499" PMx_perVeh="159.804985" NOx_perVeh="6255.439427" fuel_perVeh="1784.253651"/>
        <edge id="4/1to3/1" sampledSeconds="195.00" CO_abs="1229.356431" CO2_abs="118758.338451" HC_abs="68.077557" PMx_abs="4.244058" NOx_abs="166.018146" fuel_abs="47.347095"
            CO_normed="737.613858" CO2_normed="71255.003071" HC_normed="40.846534" PMx_normed="2.546435" NOx_normed="99.610887" fuel_normed="28.408257"
            traveltime="6813.19" CO_perVeh="42953.044890" CO2_perVeh="4149351.737790" HC_perVeh="2378.592801" PMx_perVeh="148.285062" NOx_perVeh="5800.583690" fuel_perVeh="1654.281737"/>
    </interval>
    <interval begin="645.00" end="660.00" id="dump_15">
        <edge id="2/1to1/1" sampledSeconds="195.00" CO_abs="1231.303251" CO2_abs="118546.747469" HC_abs="68.086435" PMx_abs="4.229533" NOx_abs="165.675433" fuel_abs="47.262737"
            CO_normed="738.781951" CO2_normed="71128.048482" HC_normed="40.851861" PMx_normed="2.537720" NOx_normed="99.405260" fuel_normed="28.357642"
            traveltime="8000.00" CO_perVeh="50515.005175" CO2_perVeh="4863456.306430" HC_perVeh="2793.289646" PMx_perVeh="173.519312" NOx_perVeh="6796.940837" fuel_perVeh="1938.984075"/>
        <edge id="3/1to2/1" sampledSeconds="780.00" CO_abs="4921.293052" CO2_abs="474613.130656" HC_abs="272.327872" PMx_abs="16.947385" NOx_abs="663.391957" fuel_abs="189.220843"
            CO_normed="2952.775831" CO2_normed="284767.878393" HC_normed="163.396723" PMx_normed="10.168431" NOx_normed="398.035174" fuel_normed="113.532506"
            traveltime="7354.99" CO_perVeh="46405.221299" CO2_perVeh="4475353.759413" HC_perVeh="2567.909499" PMx_perVeh="159.804985" NOx_perVeh="6255.439427" fuel_perVeh="1784.253651"/>
        <edge id="4/1to3/1" sampledSeconds="195.00" CO_abs="1229.356431" CO2_abs="118758.338451" HC_abs="68.077557" PMx_abs="4.244058" NOx_abs="166.018146" fuel_abs="47.347095"
            CO_normed="737.613858" CO2_normed="71255.003071" HC_normed="40.846534" PMx_normed="2.546435" NOx_normed="99.610887" fuel_normed="28.408257"
            traveltime="6813.19" CO_perVeh="42953.044890" CO2_perVeh="4149351.737790" HC_perVeh="2378.592801" PMx_perVeh="148.285062" NOx_perVeh="5800.583690" fuel_perVeh="1654.281737"/>
    </interval>
</meandata>
