<?xml version="1.0" encoding="UTF-8"?>

<!-- generated on 2025-07-16 08:59:28 by Eclipse SUMO sumo Version v1_23_1+1098-b5f7c6a5135
<sumoConfiguration xmlns:xsi="http://www.w3.org/2001/XMLSchema-instance" xsi:noNamespaceSchemaLocation="http://sumo.dlr.de/xsd/sumoConfiguration.xsd">

    <input>
        <net-file value="net.net.xml"/>
        <route-files value="input_routes.rou.xml"/>
        <load-state value="state.xml"/>
    </input>

    <output>
        <fcd-output value="fcd2.xml"/>
        <fcd-output.acceleration value="true"/>
    </output>

    <processing>
        <default.speeddev value="0"/>
    </processing>

    <report>
        <verbose value="true"/>
        <duration-log.disable value="true"/>
        <no-step-log value="true"/>
    </report>

    <mesoscopic>
        <mesosim value="true"/>
    </mesoscopic>

</sumoConfiguration>
-->

<fcd-export xmlns:xsi="http://www.w3.org/2001/XMLSchema-instance" xsi:noNamespaceSchemaLocation="http://sumo.dlr.de/xsd/fcd_file.xsd">
    <timestep time="10.00">
        <vehicle id="flowFromTo.0" x="-7.00" y="-1.65" angle="90.00" type="t0" speed="0.81" pos="0.00" edge="beg" slope="0.00"/>
        <vehicle id="flowNumber.0" x="0.00" y="-1.65" angle="90.00" type="t0" speed="13.89" pos="0.00" edge="middle" slope="0.00"/>
    </timestep>
    <timestep time="11.00">
        <vehicle id="flowFromTo.0" x="-7.00" y="-1.65" angle="90.00" type="t0" speed="0.81" pos="0.00" edge="beg" slope="0.00"/>
        <vehicle id="flowNumber.0" x="0.00" y="-1.65" angle="90.00" type="t0" speed="13.89" pos="0.00" edge="middle" slope="0.00"/>
    </timestep>
    <timestep time="12.00">
        <vehicle id="flowFromTo.0" x="-7.00" y="-1.65" angle="90.00" type="t0" speed="0.81" pos="0.00" edge="beg" slope="0.00"/>
        <vehicle id="flowNumber.0" x="0.00" y="-1.65" angle="90.00" type="t0" speed="13.89" pos="0.00" edge="middle" slope="0.00"/>
    </timestep>
    <timestep time="13.00">
        <vehicle id="flowFromTo.0" x="-7.00" y="-1.65" angle="90.00" type="t0" speed="0.81" pos="0.00" edge="beg" slope="0.00"/>
        <vehicle id="flowNumber.0" x="0.00" y="-1.65" angle="90.00" type="t0" speed="13.89" pos="0.00" edge="middle" slope="0.00"/>
    </timestep>
    <timestep time="14.00">
        <vehicle id="flowFromTo.0" x="-7.00" y="-1.65" angle="90.00" type="t0" speed="0.81" pos="0.00" edge="beg" slope="0.00"/>
        <vehicle id="flowNumber.0" x="0.00" y="-1.65" angle="90.00" type="t0" speed="13.89" pos="0.00" edge="middle" slope="0.00"/>
    </timestep>
    <timestep time="15.00">
        <vehicle id="flowFromTo.0" x="-7.00" y="-1.65" angle="90.00" type="t0" speed="0.81" pos="0.00" edge="beg" slope="0.00"/>
        <vehicle id="flowNumber.0" x="100.00" y="-1.65" angle="90.00" type="t0" speed="13.89" pos="100.00" edge="middle" slope="0.00"/>
    </timestep>
    <timestep time="16.00">
        <vehicle id="flowFromTo.0" x="0.00" y="-1.65" angle="90.00" type="t0" speed="13.89" pos="0.00" edge="middle" slope="0.00"/>
        <vehicle id="flowNumber.0" x="100.00" y="-1.65" angle="90.00" type="t0" speed="13.89" pos="100.00" edge="middle" slope="0.00"/>
        <vehicle id="flowPeriod.0" x="-7.00" y="-1.65" angle="90.00" type="t0" speed="0.85" pos="0.00" edge="beg" slope="0.00"/>
    </timestep>
    <timestep time="17.00">
        <vehicle id="flowFromTo.0" x="0.00" y="-1.65" angle="90.00" type="t0" speed="13.89" pos="0.00" edge="middle" slope="0.00"/>
        <vehicle id="flowNumber.0" x="100.00" y="-1.65" angle="90.00" type="t0" speed="13.89" pos="100.00" edge="middle" slope="0.00"/>
        <vehicle id="flowPeriod.0" x="-7.00" y="-1.65" angle="90.00" type="t0" speed="0.85" pos="0.00" edge="beg" slope="0.00"/>
    </timestep>
    <timestep time="18.00">
        <vehicle id="flowFromTo.0" x="0.00" y="-1.65" angle="90.00" type="t0" speed="13.89" pos="0.00" edge="middle" slope="0.00"/>
        <vehicle id="flowNumber.0" x="100.00" y="-1.65" angle="90.00" type="t0" speed="13.89" pos="100.00" edge="middle" slope="0.00"/>
        <vehicle id="flowPeriod.0" x="-7.00" y="-1.65" angle="90.00" type="t0" speed="0.85" pos="0.00" edge="beg" slope="0.00"/>
    </timestep>
    <timestep time="19.00">
        <vehicle id="flowFromTo.0" x="0.00" y="-1.65" angle="90.00" type="t0" speed="13.89" pos="0.00" edge="middle" slope="0.00"/>
        <vehicle id="flowNumber.0" x="100.00" y="-1.65" angle="90.00" type="t0" speed="13.89" pos="100.00" edge="middle" slope="0.00"/>
        <vehicle id="flowPeriod.0" x="-7.00" y="-1.65" angle="90.00" type="t0" speed="0.85" pos="0.00" edge="beg" slope="0.00"/>
    </timestep>
    <timestep time="20.00">
        <vehicle id="flowFromTo.0" x="0.00" y="-1.65" angle="90.00" type="t0" speed="13.89" pos="0.00" edge="middle" slope="0.00"/>
        <vehicle id="flowNumber.0" x="100.00" y="-1.65" angle="90.00" type="t0" speed="13.89" pos="100.00" edge="middle" slope="0.00"/>
        <vehicle id="flowPeriod.0" x="-7.00" y="-1.65" angle="90.00" type="t0" speed="0.85" pos="0.00" edge="beg" slope="0.00"/>
    </timestep>
    <timestep time="21.00">
        <vehicle id="flowFromTo.0" x="0.00" y="-1.65" angle="90.00" type="t0" speed="13.89" pos="0.00" edge="middle" slope="0.00"/>
        <vehicle id="flowNumber.0" x="100.00" y="-1.65" angle="90.00" type="t0" speed="13.89" pos="100.00" edge="middle" slope="0.00"/>
        <vehicle id="flowPeriod.0" x="-7.00" y="-1.65" angle="90.00" type="t0" speed="0.85" pos="0.00" edge="beg" slope="0.00"/>
    </timestep>
    <timestep time="22.00">
        <vehicle id="flowFromTo.0" x="0.00" y="-1.65" angle="90.00" type="t0" speed="13.89" pos="0.00" edge="middle" slope="0.00"/>
        <vehicle id="flowNumber.0" x="200.00" y="-1.65" angle="90.00" type="t0" speed="13.89" pos="0.00" edge="end" slope="0.00"/>
        <vehicle id="flowPeriod.0" x="-7.00" y="-1.65" angle="90.00" type="t0" speed="0.85" pos="0.00" edge="beg" slope="0.00"/>
    </timestep>
    <timestep time="23.00">
        <vehicle id="flowFromTo.0" x="100.00" y="-1.65" angle="90.00" type="t0" speed="13.89" pos="100.00" edge="middle" slope="0.00"/>
        <vehicle id="flowNumber.0" x="200.00" y="-1.65" angle="90.00" type="t0" speed="13.89" pos="0.00" edge="end" slope="0.00"/>
        <vehicle id="flowPeriod.0" x="-7.00" y="-1.65" angle="90.00" type="t0" speed="0.85" pos="0.00" edge="beg" slope="0.00"/>
    </timestep>
    <timestep time="24.00">
        <vehicle id="flowFromTo.0" x="100.00" y="-1.65" angle="90.00" type="t0" speed="13.89" pos="100.00" edge="middle" slope="0.00"/>
        <vehicle id="flowNumber.0" x="200.00" y="-1.65" angle="90.00" type="t0" speed="13.89" pos="0.00" edge="end" slope="0.00"/>
        <vehicle id="flowPeriod.0" x="-7.00" y="-1.65" angle="90.00" type="t0" speed="0.85" pos="0.00" edge="beg" slope="0.00"/>
    </timestep>
    <timestep time="25.00">
        <vehicle id="flowFromTo.0" x="100.00" y="-1.65" angle="90.00" type="t0" speed="13.89" pos="100.00" edge="middle" slope="0.00"/>
        <vehicle id="flowNumber.0" x="200.00" y="-1.65" angle="90.00" type="t0" speed="13.89" pos="0.00" edge="end" slope="0.00"/>
        <vehicle id="flowNumber.1" x="-7.00" y="-1.65" angle="90.00" type="t0" speed="0.89" pos="0.00" edge="beg" slope="0.00"/>
        <vehicle id="flowPeriod.0" x="0.00" y="-1.65" angle="90.00" type="t0" speed="13.89" pos="0.00" edge="middle" slope="0.00"/>
    </timestep>
    <timestep time="26.00">
        <vehicle id="flowFromTo.0" x="100.00" y="-1.65" angle="90.00" type="t0" speed="13.89" pos="100.00" edge="middle" slope="0.00"/>
        <vehicle id="flowNumber.0" x="200.00" y="-1.65" angle="90.00" type="t0" speed="13.89" pos="0.00" edge="end" slope="0.00"/>
        <vehicle id="flowNumber.1" x="-7.00" y="-1.65" angle="90.00" type="t0" speed="0.89" pos="0.00" edge="beg" slope="0.00"/>
        <vehicle id="flowPeriod.0" x="0.00" y="-1.65" angle="90.00" type="t0" speed="13.89" pos="0.00" edge="middle" slope="0.00"/>
    </timestep>
    <timestep time="27.00">
        <vehicle id="flowFromTo.0" x="100.00" y="-1.65" angle="90.00" type="t0" speed="13.89" pos="100.00" edge="middle" slope="0.00"/>
        <vehicle id="flowNumber.0" x="200.00" y="-1.65" angle="90.00" type="t0" speed="13.89" pos="0.00" edge="end" slope="0.00"/>
        <vehicle id="flowNumber.1" x="-7.00" y="-1.65" angle="90.00" type="t0" speed="0.89" pos="0.00" edge="beg" slope="0.00"/>
        <vehicle id="flowPeriod.0" x="0.00" y="-1.65" angle="90.00" type="t0" speed="13.89" pos="0.00" edge="middle" slope="0.00"/>
    </timestep>
    <timestep time="28.00">
        <vehicle id="flowFromTo.0" x="100.00" y="-1.65" angle="90.00" type="t0" speed="13.89" pos="100.00" edge="middle" slope="0.00"/>
        <vehicle id="flowNumber.0" x="200.00" y="-1.65" angle="90.00" type="t0" speed="13.89" pos="0.00" edge="end" slope="0.00"/>
        <vehicle id="flowNumber.1" x="-7.00" y="-1.65" angle="90.00" type="t0" speed="0.89" pos="0.00" edge="beg" slope="0.00"/>
        <vehicle id="flowPeriod.0" x="0.00" y="-1.65" angle="90.00" type="t0" speed="13.89" pos="0.00" edge="middle" slope="0.00"/>
    </timestep>
    <timestep time="29.00">
        <vehicle id="flowFromTo.0" x="100.00" y="-1.65" angle="90.00" type="t0" speed="13.89" pos="100.00" edge="middle" slope="0.00"/>
        <vehicle id="flowNumber.1" x="-7.00" y="-1.65" angle="90.00" type="t0" speed="0.89" pos="0.00" edge="beg" slope="0.00"/>
        <vehicle id="flowPeriod.0" x="0.00" y="-1.65" angle="90.00" type="t0" speed="13.89" pos="0.00" edge="middle" slope="0.00"/>
    </timestep>
    <timestep time="30.00">
        <vehicle id="flowFromTo.0" x="100.00" y="-1.65" angle="90.00" type="t0" speed="13.89" pos="100.00" edge="middle" slope="0.00"/>
        <vehicle id="flowNumber.1" x="-7.00" y="-1.65" angle="90.00" type="t0" speed="0.89" pos="0.00" edge="beg" slope="0.00"/>
        <vehicle id="flowPeriod.0" x="0.00" y="-1.65" angle="90.00" type="t0" speed="13.89" pos="0.00" edge="middle" slope="0.00"/>
    </timestep>
    <timestep time="31.00">
        <vehicle id="flowFromTo.0" x="200.00" y="-1.65" angle="90.00" type="t0" speed="13.89" pos="0.00" edge="end" slope="0.00"/>
        <vehicle id="flowNumber.1" x="-7.00" y="-1.65" angle="90.00" type="t0" speed="0.89" pos="0.00" edge="beg" slope="0.00"/>
        <vehicle id="flowPeriod.0" x="0.00" y="-1.65" angle="90.00" type="t0" speed="13.89" pos="0.00" edge="middle" slope="0.00"/>
    </timestep>
    <timestep time="32.00">
        <vehicle id="flowFromTo.0" x="200.00" y="-1.65" angle="90.00" type="t0" speed="13.89" pos="0.00" edge="end" slope="0.00"/>
        <vehicle id="flowNumber.1" x="-7.00" y="-1.65" angle="90.00" type="t0" speed="0.89" pos="0.00" edge="beg" slope="0.00"/>
        <vehicle id="flowPeriod.0" x="100.00" y="-1.65" angle="90.00" type="t0" speed="13.89" pos="100.00" edge="middle" slope="0.00"/>
    </timestep>
    <timestep time="33.00">
        <vehicle id="flowFromTo.0" x="200.00" y="-1.65" angle="90.00" type="t0" speed="13.89" pos="0.00" edge="end" slope="0.00"/>
        <vehicle id="flowFromTo.1" x="-7.00" y="-1.65" angle="90.00" type="t0" speed="0.82" pos="0.00" edge="beg" slope="0.00"/>
        <vehicle id="flowNumber.1" x="0.00" y="-1.65" angle="90.00" type="t0" speed="13.89" pos="0.00" edge="middle" slope="0.00"/>
        <vehicle id="flowPeriod.0" x="100.00" y="-1.65" angle="90.00" type="t0" speed="13.89" pos="100.00" edge="middle" slope="0.00"/>
    </timestep>
    <timestep time="34.00">
        <vehicle id="flowFromTo.0" x="200.00" y="-1.65" angle="90.00" type="t0" speed="13.89" pos="0.00" edge="end" slope="0.00"/>
        <vehicle id="flowFromTo.1" x="-7.00" y="-1.65" angle="90.00" type="t0" speed="0.82" pos="0.00" edge="beg" slope="0.00"/>
        <vehicle id="flowNumber.1" x="0.00" y="-1.65" angle="90.00" type="t0" speed="13.89" pos="0.00" edge="middle" slope="0.00"/>
        <vehicle id="flowPeriod.0" x="100.00" y="-1.65" angle="90.00" type="t0" speed="13.89" pos="100.00" edge="middle" slope="0.00"/>
    </timestep>
    <timestep time="35.00">
        <vehicle id="flowFromTo.0" x="200.00" y="-1.65" angle="90.00" type="t0" speed="13.89" pos="0.00" edge="end" slope="0.00"/>
        <vehicle id="flowFromTo.1" x="-7.00" y="-1.65" angle="90.00" type="t0" speed="0.82" pos="0.00" edge="beg" slope="0.00"/>
        <vehicle id="flowNumber.1" x="0.00" y="-1.65" angle="90.00" type="t0" speed="13.89" pos="0.00" edge="middle" slope="0.00"/>
        <vehicle id="flowPeriod.0" x="100.00" y="-1.65" angle="90.00" type="t0" speed="13.89" pos="100.00" edge="middle" slope="0.00"/>
    </timestep>
    <timestep time="36.00">
        <vehicle id="flowFromTo.0" x="200.00" y="-1.65" angle="90.00" type="t0" speed="13.89" pos="0.00" edge="end" slope="0.00"/>
        <vehicle id="flowFromTo.1" x="-7.00" y="-1.65" angle="90.00" type="t0" speed="0.82" pos="0.00" edge="beg" slope="0.00"/>
        <vehicle id="flowNumber.1" x="0.00" y="-1.65" angle="90.00" type="t0" speed="13.89" pos="0.00" edge="middle" slope="0.00"/>
        <vehicle id="flowPeriod.0" x="100.00" y="-1.65" angle="90.00" type="t0" speed="13.89" pos="100.00" edge="middle" slope="0.00"/>
    </timestep>
    <timestep time="37.00">
        <vehicle id="flowFromTo.0" x="200.00" y="-1.65" angle="90.00" type="t0" speed="13.89" pos="0.00" edge="end" slope="0.00"/>
        <vehicle id="flowFromTo.1" x="-7.00" y="-1.65" angle="90.00" type="t0" speed="0.82" pos="0.00" edge="beg" slope="0.00"/>
        <vehicle id="flowNumber.1" x="0.00" y="-1.65" angle="90.00" type="t0" speed="13.89" pos="0.00" edge="middle" slope="0.00"/>
        <vehicle id="flowPeriod.0" x="100.00" y="-1.65" angle="90.00" type="t0" speed="13.89" pos="100.00" edge="middle" slope="0.00"/>
    </timestep>
    <timestep time="38.00">
        <vehicle id="flowFromTo.1" x="-7.00" y="-1.65" angle="90.00" type="t0" speed="0.82" pos="0.00" edge="beg" slope="0.00"/>
        <vehicle id="flowNumber.1" x="0.00" y="-1.65" angle="90.00" type="t0" speed="13.89" pos="0.00" edge="middle" slope="0.00"/>
        <vehicle id="flowPeriod.0" x="100.00" y="-1.65" angle="90.00" type="t0" speed="13.89" pos="100.00" edge="middle" slope="0.00"/>
    </timestep>
    <timestep time="39.00">
        <vehicle id="flowFromTo.1" x="-7.00" y="-1.65" angle="90.00" type="t0" speed="0.82" pos="0.00" edge="beg" slope="0.00"/>
        <vehicle id="flowNumber.1" x="0.00" y="-1.65" angle="90.00" type="t0" speed="13.89" pos="0.00" edge="middle" slope="0.00"/>
        <vehicle id="flowPeriod.0" x="200.00" y="-1.65" angle="90.00" type="t0" speed="13.89" pos="0.00" edge="end" slope="0.00"/>
    </timestep>
    <timestep time="40.00">
        <vehicle id="flowFromTo.1" x="-7.00" y="-1.65" angle="90.00" type="t0" speed="0.82" pos="0.00" edge="beg" slope="0.00"/>
        <vehicle id="flowNumber.1" x="0.00" y="-1.65" angle="90.00" type="t0" speed="13.89" pos="0.00" edge="middle" slope="0.00"/>
        <vehicle id="flowPeriod.0" x="200.00" y="-1.65" angle="90.00" type="t0" speed="13.89" pos="0.00" edge="end" slope="0.00"/>
    </timestep>
    <timestep time="41.00">
        <vehicle id="flowFromTo.1" x="-7.00" y="-1.65" angle="90.00" type="t0" speed="0.82" pos="0.00" edge="beg" slope="0.00"/>
        <vehicle id="flowNumber.1" x="100.00" y="-1.65" angle="90.00" type="t0" speed="13.89" pos="100.00" edge="middle" slope="0.00"/>
        <vehicle id="flowPeriod.0" x="200.00" y="-1.65" angle="90.00" type="t0" speed="13.89" pos="0.00" edge="end" slope="0.00"/>
    </timestep>
    <timestep time="42.00">
        <vehicle id="flowFromTo.1" x="0.00" y="-1.65" angle="90.00" type="t0" speed="13.89" pos="0.00" edge="middle" slope="0.00"/>
        <vehicle id="flowNumber.1" x="100.00" y="-1.65" angle="90.00" type="t0" speed="13.89" pos="100.00" edge="middle" slope="0.00"/>
        <vehicle id="flowPeriod.0" x="200.00" y="-1.65" angle="90.00" type="t0" speed="13.89" pos="0.00" edge="end" slope="0.00"/>
        <vehicle id="flowPeriod.1" x="-7.00" y="-1.65" angle="90.00" type="t0" speed="0.86" pos="0.00" edge="beg" slope="0.00"/>
    </timestep>
    <timestep time="43.00">
        <vehicle id="flowFromTo.1" x="0.00" y="-1.65" angle="90.00" type="t0" speed="13.89" pos="0.00" edge="middle" slope="0.00"/>
        <vehicle id="flowNumber.1" x="100.00" y="-1.65" angle="90.00" type="t0" speed="13.89" pos="100.00" edge="middle" slope="0.00"/>
        <vehicle id="flowPeriod.0" x="200.00" y="-1.65" angle="90.00" type="t0" speed="13.89" pos="0.00" edge="end" slope="0.00"/>
        <vehicle id="flowPeriod.1" x="-7.00" y="-1.65" angle="90.00" type="t0" speed="0.86" pos="0.00" edge="beg" slope="0.00"/>
    </timestep>
    <timestep time="44.00">
        <vehicle id="flowFromTo.1" x="0.00" y="-1.65" angle="90.00" type="t0" speed="13.89" pos="0.00" edge="middle" slope="0.00"/>
        <vehicle id="flowNumber.1" x="100.00" y="-1.65" angle="90.00" type="t0" speed="13.89" pos="100.00" edge="middle" slope="0.00"/>
        <vehicle id="flowPeriod.0" x="200.00" y="-1.65" angle="90.00" type="t0" speed="13.89" pos="0.00" edge="end" slope="0.00"/>
        <vehicle id="flowPeriod.1" x="-7.00" y="-1.65" angle="90.00" type="t0" speed="0.86" pos="0.00" edge="beg" slope="0.00"/>
    </timestep>
    <timestep time="45.00">
        <vehicle id="flowFromTo.1" x="0.00" y="-1.65" angle="90.00" type="t0" speed="13.89" pos="0.00" edge="middle" slope="0.00"/>
        <vehicle id="flowNumber.1" x="100.00" y="-1.65" angle="90.00" type="t0" speed="13.89" pos="100.00" edge="middle" slope="0.00"/>
        <vehicle id="flowPeriod.0" x="200.00" y="-1.65" angle="90.00" type="t0" speed="13.89" pos="0.00" edge="end" slope="0.00"/>
        <vehicle id="flowPeriod.1" x="-7.00" y="-1.65" angle="90.00" type="t0" speed="0.86" pos="0.00" edge="beg" slope="0.00"/>
    </timestep>
    <timestep time="46.00">
        <vehicle id="flowFromTo.1" x="0.00" y="-1.65" angle="90.00" type="t0" speed="13.89" pos="0.00" edge="middle" slope="0.00"/>
        <vehicle id="flowNumber.1" x="100.00" y="-1.65" angle="90.00" type="t0" speed="13.89" pos="100.00" edge="middle" slope="0.00"/>
        <vehicle id="flowPeriod.1" x="-7.00" y="-1.65" angle="90.00" type="t0" speed="0.86" pos="0.00" edge="beg" slope="0.00"/>
    </timestep>
    <timestep time="47.00">
        <vehicle id="flowFromTo.1" x="0.00" y="-1.65" angle="90.00" type="t0" speed="13.89" pos="0.00" edge="middle" slope="0.00"/>
        <vehicle id="flowNumber.1" x="100.00" y="-1.65" angle="90.00" type="t0" speed="13.89" pos="100.00" edge="middle" slope="0.00"/>
        <vehicle id="flowPeriod.1" x="-7.00" y="-1.65" angle="90.00" type="t0" speed="0.86" pos="0.00" edge="beg" slope="0.00"/>
    </timestep>
    <timestep time="48.00">
        <vehicle id="flowFromTo.1" x="0.00" y="-1.65" angle="90.00" type="t0" speed="13.89" pos="0.00" edge="middle" slope="0.00"/>
        <vehicle id="flowNumber.1" x="200.00" y="-1.65" angle="90.00" type="t0" speed="13.89" pos="0.00" edge="end" slope="0.00"/>
        <vehicle id="flowPeriod.1" x="-7.00" y="-1.65" angle="90.00" type="t0" speed="0.86" pos="0.00" edge="beg" slope="0.00"/>
    </timestep>
    <timestep time="49.00">
        <vehicle id="flowFromTo.1" x="100.00" y="-1.65" angle="90.00" type="t0" speed="13.89" pos="100.00" edge="middle" slope="0.00"/>
        <vehicle id="flowNumber.1" x="200.00" y="-1.65" angle="90.00" type="t0" speed="13.89" pos="0.00" edge="end" slope="0.00"/>
        <vehicle id="flowPeriod.1" x="-7.00" y="-1.65" angle="90.00" type="t0" speed="0.86" pos="0.00" edge="beg" slope="0.00"/>
    </timestep>
    <timestep time="50.00">
        <vehicle id="flowFromTo.1" x="100.00" y="-1.65" angle="90.00" type="t0" speed="13.89" pos="100.00" edge="middle" slope="0.00"/>
        <vehicle id="flowNumber.1" x="200.00" y="-1.65" angle="90.00" type="t0" speed="13.89" pos="0.00" edge="end" slope="0.00"/>
        <vehicle id="flowPeriod.1" x="-7.00" y="-1.65" angle="90.00" type="t0" speed="0.86" pos="0.00" edge="beg" slope="0.00"/>
    </timestep>
    <timestep time="51.00">
        <vehicle id="flowFromTo.1" x="100.00" y="-1.65" angle="90.00" type="t0" speed="13.89" pos="100.00" edge="middle" slope="0.00"/>
        <vehicle id="flowNumber.1" x="200.00" y="-1.65" angle="90.00" type="t0" speed="13.89" pos="0.00" edge="end" slope="0.00"/>
        <vehicle id="flowPeriod.1" x="0.00" y="-1.65" angle="90.00" type="t0" speed="13.89" pos="0.00" edge="middle" slope="0.00"/>
        <vehicle id="flowPeriod.2" x="-7.00" y="-1.65" angle="90.00" type="t0" speed="0.90" pos="0.00" edge="beg" slope="0.00"/>
    </timestep>
    <timestep time="52.00">
        <vehicle id="flowFromTo.1" x="100.00" y="-1.65" angle="90.00" type="t0" speed="13.89" pos="100.00" edge="middle" slope="0.00"/>
        <vehicle id="flowNumber.1" x="200.00" y="-1.65" angle="90.00" type="t0" speed="13.89" pos="0.00" edge="end" slope="0.00"/>
        <vehicle id="flowPeriod.1" x="0.00" y="-1.65" angle="90.00" type="t0" speed="13.89" pos="0.00" edge="middle" slope="0.00"/>
        <vehicle id="flowPeriod.2" x="-7.00" y="-1.65" angle="90.00" type="t0" speed="0.90" pos="0.00" edge="beg" slope="0.00"/>
    </timestep>
    <timestep time="53.00">
        <vehicle id="flowFromTo.1" x="100.00" y="-1.65" angle="90.00" type="t0" speed="13.89" pos="100.00" edge="middle" slope="0.00"/>
        <vehicle id="flowNumber.1" x="200.00" y="-1.65" angle="90.00" type="t0" speed="13.89" pos="0.00" edge="end" slope="0.00"/>
        <vehicle id="flowPeriod.1" x="0.00" y="-1.65" angle="90.00" type="t0" speed="13.89" pos="0.00" edge="middle" slope="0.00"/>
        <vehicle id="flowPeriod.2" x="-7.00" y="-1.65" angle="90.00" type="t0" speed="0.90" pos="0.00" edge="beg" slope="0.00"/>
    </timestep>
    <timestep time="54.00">
        <vehicle id="flowFromTo.1" x="100.00" y="-1.65" angle="90.00" type="t0" speed="13.89" pos="100.00" edge="middle" slope="0.00"/>
        <vehicle id="flowNumber.1" x="200.00" y="-1.65" angle="90.00" type="t0" speed="13.89" pos="0.00" edge="end" slope="0.00"/>
        <vehicle id="flowPeriod.1" x="0.00" y="-1.65" angle="90.00" type="t0" speed="13.89" pos="0.00" edge="middle" slope="0.00"/>
        <vehicle id="flowPeriod.2" x="-7.00" y="-1.65" angle="90.00" type="t0" speed="0.90" pos="0.00" edge="beg" slope="0.00"/>
    </timestep>
    <timestep time="55.00">
        <vehicle id="flowFromTo.1" x="100.00" y="-1.65" angle="90.00" type="t0" speed="13.89" pos="100.00" edge="middle" slope="0.00"/>
        <vehicle id="flowPeriod.1" x="0.00" y="-1.65" angle="90.00" type="t0" speed="13.89" pos="0.00" edge="middle" slope="0.00"/>
        <vehicle id="flowPeriod.2" x="-7.00" y="-1.65" angle="90.00" type="t0" speed="0.90" pos="0.00" edge="beg" slope="0.00"/>
    </timestep>
    <timestep time="56.00">
        <vehicle id="flowFromTo.1" x="200.00" y="-1.65" angle="90.00" type="t0" speed="13.89" pos="0.00" edge="end" slope="0.00"/>
        <vehicle id="flowPeriod.1" x="0.00" y="-1.65" angle="90.00" type="t0" speed="13.89" pos="0.00" edge="middle" slope="0.00"/>
        <vehicle id="flowPeriod.2" x="-7.00" y="-1.65" angle="90.00" type="t0" speed="0.90" pos="0.00" edge="beg" slope="0.00"/>
    </timestep>
    <timestep time="57.00">
        <vehicle id="flowFromTo.1" x="200.00" y="-1.65" angle="90.00" type="t0" speed="13.89" pos="0.00" edge="end" slope="0.00"/>
        <vehicle id="flowPeriod.1" x="0.00" y="-1.65" angle="90.00" type="t0" speed="13.89" pos="0.00" edge="middle" slope="0.00"/>
        <vehicle id="flowPeriod.2" x="-7.00" y="-1.65" angle="90.00" type="t0" speed="0.90" pos="0.00" edge="beg" slope="0.00"/>
    </timestep>
    <timestep time="58.00">
        <vehicle id="flowFromTo.1" x="200.00" y="-1.65" angle="90.00" type="t0" speed="13.89" pos="0.00" edge="end" slope="0.00"/>
        <vehicle id="flowPeriod.1" x="100.00" y="-1.65" angle="90.00" type="t0" speed="13.89" pos="100.00" edge="middle" slope="0.00"/>
        <vehicle id="flowPeriod.2" x="-7.00" y="-1.65" angle="90.00" type="t0" speed="0.90" pos="0.00" edge="beg" slope="0.00"/>
    </timestep>
    <timestep time="59.00">
        <vehicle id="flowFromTo.1" x="200.00" y="-1.65" angle="90.00" type="t0" speed="13.89" pos="0.00" edge="end" slope="0.00"/>
        <vehicle id="flowNumber.2" x="-7.00" y="-1.65" angle="90.00" type="t0" speed="0.83" pos="0.00" edge="beg" slope="0.00"/>
        <vehicle id="flowPeriod.1" x="100.00" y="-1.65" angle="90.00" type="t0" speed="13.89" pos="100.00" edge="middle" slope="0.00"/>
        <vehicle id="flowPeriod.2" x="0.00" y="-1.65" angle="90.00" type="t0" speed="13.89" pos="0.00" edge="middle" slope="0.00"/>
    </timestep>
    <timestep time="60.00">
        <vehicle id="flowFromTo.1" x="200.00" y="-1.65" angle="90.00" type="t0" speed="13.89" pos="0.00" edge="end" slope="0.00"/>
        <vehicle id="flowNumber.2" x="-7.00" y="-1.65" angle="90.00" type="t0" speed="0.83" pos="0.00" edge="beg" slope="0.00"/>
        <vehicle id="flowPeriod.1" x="100.00" y="-1.65" angle="90.00" type="t0" speed="13.89" pos="100.00" edge="middle" slope="0.00"/>
        <vehicle id="flowPeriod.2" x="0.00" y="-1.65" angle="90.00" type="t0" speed="13.89" pos="0.00" edge="middle" slope="0.00"/>
    </timestep>
    <timestep time="61.00">
        <vehicle id="flowFromTo.1" x="200.00" y="-1.65" angle="90.00" type="t0" speed="13.89" pos="0.00" edge="end" slope="0.00"/>
        <vehicle id="flowNumber.2" x="-7.00" y="-1.65" angle="90.00" type="t0" speed="0.83" pos="0.00" edge="beg" slope="0.00"/>
        <vehicle id="flowPeriod.1" x="100.00" y="-1.65" angle="90.00" type="t0" speed="13.89" pos="100.00" edge="middle" slope="0.00"/>
        <vehicle id="flowPeriod.2" x="0.00" y="-1.65" angle="90.00" type="t0" speed="13.89" pos="0.00" edge="middle" slope="0.00"/>
    </timestep>
    <timestep time="62.00">
        <vehicle id="flowFromTo.1" x="200.00" y="-1.65" angle="90.00" type="t0" speed="13.89" pos="0.00" edge="end" slope="0.00"/>
        <vehicle id="flowNumber.2" x="-7.00" y="-1.65" angle="90.00" type="t0" speed="0.83" pos="0.00" edge="beg" slope="0.00"/>
        <vehicle id="flowPeriod.1" x="100.00" y="-1.65" angle="90.00" type="t0" speed="13.89" pos="100.00" edge="middle" slope="0.00"/>
        <vehicle id="flowPeriod.2" x="0.00" y="-1.65" angle="90.00" type="t0" speed="13.89" pos="0.00" edge="middle" slope="0.00"/>
    </timestep>
    <timestep time="63.00">
        <vehicle id="flowFromTo.1" x="200.00" y="-1.65" angle="90.00" type="t0" speed="13.89" pos="0.00" edge="end" slope="0.00"/>
        <vehicle id="flowNumber.2" x="-7.00" y="-1.65" angle="90.00" type="t0" speed="0.83" pos="0.00" edge="beg" slope="0.00"/>
        <vehicle id="flowPeriod.1" x="100.00" y="-1.65" angle="90.00" type="t0" speed="13.89" pos="100.00" edge="middle" slope="0.00"/>
        <vehicle id="flowPeriod.2" x="0.00" y="-1.65" angle="90.00" type="t0" speed="13.89" pos="0.00" edge="middle" slope="0.00"/>
    </timestep>
    <timestep time="64.00">
        <vehicle id="flowNumber.2" x="-7.00" y="-1.65" angle="90.00" type="t0" speed="0.83" pos="0.00" edge="beg" slope="0.00"/>
        <vehicle id="flowPeriod.1" x="100.00" y="-1.65" angle="90.00" type="t0" speed="13.89" pos="100.00" edge="middle" slope="0.00"/>
        <vehicle id="flowPeriod.2" x="0.00" y="-1.65" angle="90.00" type="t0" speed="13.89" pos="0.00" edge="middle" slope="0.00"/>
    </timestep>
    <timestep time="65.00">
        <vehicle id="flowNumber.2" x="-7.00" y="-1.65" angle="90.00" type="t0" speed="0.83" pos="0.00" edge="beg" slope="0.00"/>
        <vehicle id="flowPeriod.1" x="200.00" y="-1.65" angle="90.00" type="t0" speed="13.89" pos="0.00" edge="end" slope="0.00"/>
        <vehicle id="flowPeriod.2" x="0.00" y="-1.65" angle="90.00" type="t0" speed="13.89" pos="0.00" edge="middle" slope="0.00"/>
    </timestep>
    <timestep time="66.00">
        <vehicle id="flowNumber.2" x="-7.00" y="-1.65" angle="90.00" type="t0" speed="0.83" pos="0.00" edge="beg" slope="0.00"/>
        <vehicle id="flowPeriod.1" x="200.00" y="-1.65" angle="90.00" type="t0" speed="13.89" pos="0.00" edge="end" slope="0.00"/>
        <vehicle id="flowPeriod.2" x="100.00" y="-1.65" angle="90.00" type="t0" speed="13.89" pos="100.00" edge="middle" slope="0.00"/>
    </timestep>
    <timestep time="67.00">
        <vehicle id="flowNumber.2" x="-7.00" y="-1.65" angle="90.00" type="t0" speed="0.83" pos="0.00" edge="beg" slope="0.00"/>
        <vehicle id="flowPeriod.1" x="200.00" y="-1.65" angle="90.00" type="t0" speed="13.89" pos="0.00" edge="end" slope="0.00"/>
        <vehicle id="flowPeriod.2" x="100.00" y="-1.65" angle="90.00" type="t0" speed="13.89" pos="100.00" edge="middle" slope="0.00"/>
    </timestep>
    <timestep time="68.00">
        <vehicle id="flowNumber.2" x="0.00" y="-1.65" angle="90.00" type="t0" speed="13.89" pos="0.00" edge="middle" slope="0.00"/>
        <vehicle id="flowPeriod.1" x="200.00" y="-1.65" angle="90.00" type="t0" speed="13.89" pos="0.00" edge="end" slope="0.00"/>
        <vehicle id="flowPeriod.2" x="100.00" y="-1.65" angle="90.00" type="t0" speed="13.89" pos="100.00" edge="middle" slope="0.00"/>
        <vehicle id="flowPeriod.3" x="-7.00" y="-1.65" angle="90.00" type="t0" speed="0.87" pos="0.00" edge="beg" slope="0.00"/>
    </timestep>
    <timestep time="69.00">
        <vehicle id="flowNumber.2" x="0.00" y="-1.65" angle="90.00" type="t0" speed="13.89" pos="0.00" edge="middle" slope="0.00"/>
        <vehicle id="flowPeriod.1" x="200.00" y="-1.65" angle="90.00" type="t0" speed="13.89" pos="0.00" edge="end" slope="0.00"/>
        <vehicle id="flowPeriod.2" x="100.00" y="-1.65" angle="90.00" type="t0" speed="13.89" pos="100.00" edge="middle" slope="0.00"/>
        <vehicle id="flowPeriod.3" x="-7.00" y="-1.65" angle="90.00" type="t0" speed="0.87" pos="0.00" edge="beg" slope="0.00"/>
    </timestep>
    <timestep time="70.00">
        <vehicle id="flowNumber.2" x="0.00" y="-1.65" angle="90.00" type="t0" speed="13.89" pos="0.00" edge="middle" slope="0.00"/>