<?xml version="1.0" encoding="UTF-8"?>

<!-- generated on 05/02/13 15:09:47 by SUMO sumo Version 0.17.0
<?xml version="1.0" encoding="UTF-8"?>

<configuration xmlns:xsi="http://www.w3.org/2001/XMLSchema-instance" xsi:noNamespaceSchemaLocation="http://sumo.dlr.de/xsd/sumoConfiguration.xsd">

    <input>
        <net-file value="net.net.xml"/>
        <additional-files value="input_routes.rou.xml,input_additional.add.xml"/>
    </input>

    <output>
        <netstate-dump value="rawdump.xml"/>
    </output>

    <time>
        <begin value="0"/>
        <end value="1"/>
    </time>

    <report>
        <no-duration-log value="true"/>
        <no-step-log value="true"/>
    </report>

    <mesoscopic>
        <mesosim value="true"/>
    </mesoscopic>

</configuration>
-->

<netstate xmlns:xsi="http://www.w3.org/2001/XMLSchema-instance" xsi:noNamespaceSchemaLocation="http://sumo.dlr.de/xsd/netstate_file.xsd">
</netstate>
