<?xml version="1.0" encoding="UTF-8"?>

<!-- generated on Mon Aug  4 13:45:26 2014 by SUMO sumo Version dev-SVN-r16824
<?xml version="1.0" encoding="UTF-8"?>

<configuration xmlns:xsi="http://www.w3.org/2001/XMLSchema-instance" xsi:noNamespaceSchemaLocation="http://sumo.dlr.de/xsd/sumoConfiguration.xsd">

    <input>
        <net-file value="net.net.xml"/>
        <additional-files value="input_routes.rou.xml,input_additional.add.xml"/>
    </input>

    <output>
        <tripinfo-output value="tripinfos.xml"/>
    </output>

    <report>
        <verbose value="true"/>
        <xml-validation value="never"/>
        <no-step-log value="true"/>
    </report>

</configuration>
-->

<tripinfos xmlns:xsi="http://www.w3.org/2001/XMLSchema-instance" xsi:noNamespaceSchemaLocation="http://sumo.dlr.de/xsd/tripinfo_file.xsd">
    <tripinfo id="f1.0" depart="102.00" departLane="beg_0" departPos="5.10" departSpeed="0.00" departDelay="2.00" arrival="143.00" arrivalLane="end_0" arrivalPos="500.00" arrivalSpeed="27.80" duration="41.00" routeLength="994.90" waitSteps="0" timeLoss="4.85" rerouteNo="0" devices="tripinfo_f1.0" vType="DEFAULT_VEHTYPE" vaporized=""/>
    <tripinfo id="f1.1" depart="106.00" departLane="beg_0" departPos="5.10" departSpeed="0.00" departDelay="6.00" arrival="147.00" arrivalLane="end_0" arrivalPos="500.00" arrivalSpeed="27.80" duration="41.00" routeLength="994.90" waitSteps="0" timeLoss="4.85" rerouteNo="0" devices="tripinfo_f1.1" vType="DEFAULT_VEHTYPE" vaporized=""/>
    <tripinfo id="f1.2" depart="108.00" departLane="beg_0" departPos="5.10" departSpeed="0.00" departDelay="8.00" arrival="150.00" arrivalLane="end_0" arrivalPos="500.00" arrivalSpeed="27.80" duration="42.00" routeLength="994.90" waitSteps="0" timeLoss="5.46" rerouteNo="0" devices="tripinfo_f1.2" vType="DEFAULT_VEHTYPE" vaporized=""/>
    <tripinfo id="f1.3" depart="111.00" departLane="beg_0" departPos="5.10" departSpeed="0.00" departDelay="11.00" arrival="152.00" arrivalLane="end_0" arrivalPos="500.00" arrivalSpeed="27.80" duration="41.00" routeLength="994.90" waitSteps="0" timeLoss="4.85" rerouteNo="0" devices="tripinfo_f1.3" vType="DEFAULT_VEHTYPE" vaporized=""/>
    <tripinfo id="f1.4" depart="115.00" departLane="beg_0" departPos="5.10" departSpeed="0.00" departDelay="15.00" arrival="156.00" arrivalLane="end_0" arrivalPos="500.00" arrivalSpeed="27.80" duration="41.00" routeLength="994.90" waitSteps="0" timeLoss="4.85" rerouteNo="0" devices="tripinfo_f1.4" vType="DEFAULT_VEHTYPE" vaporized=""/>
    <tripinfo id="f1.5" depart="119.00" departLane="beg_0" departPos="5.10" departSpeed="0.00" departDelay="19.00" arrival="160.00" arrivalLane="end_0" arrivalPos="500.00" arrivalSpeed="27.80" duration="41.00" routeLength="994.90" waitSteps="0" timeLoss="4.85" rerouteNo="0" devices="tripinfo_f1.5" vType="DEFAULT_VEHTYPE" vaporized=""/>
    <tripinfo id="f1.6" depart="126.00" departLane="beg_0" departPos="5.10" departSpeed="0.00" departDelay="26.01" arrival="167.00" arrivalLane="end_0" arrivalPos="500.00" arrivalSpeed="27.80" duration="41.00" routeLength="994.90" waitSteps="0" timeLoss="4.85" rerouteNo="0" devices="tripinfo_f1.6" vType="DEFAULT_VEHTYPE" vaporized=""/>
    <tripinfo id="f1.7" depart="130.00" departLane="beg_0" departPos="5.10" departSpeed="0.00" departDelay="30.01" arrival="171.00" arrivalLane="end_0" arrivalPos="500.00" arrivalSpeed="27.80" duration="41.00" routeLength="994.90" waitSteps="0" timeLoss="4.85" rerouteNo="0" devices="tripinfo_f1.7" vType="DEFAULT_VEHTYPE" vaporized=""/>
    <tripinfo id="f1.8" depart="140.00" departLane="beg_0" departPos="5.10" departSpeed="0.00" departDelay="40.01" arrival="181.00" arrivalLane="end_0" arrivalPos="500.00" arrivalSpeed="27.80" duration="41.00" routeLength="994.90" waitSteps="0" timeLoss="4.85" rerouteNo="0" devices="tripinfo_f1.8" vType="DEFAULT_VEHTYPE" vaporized=""/>
    <tripinfo id="f1.9" depart="195.00" departLane="beg_0" departPos="5.10" departSpeed="0.00" departDelay="95.01" arrival="236.00" arrivalLane="end_0" arrivalPos="500.00" arrivalSpeed="27.80" duration="41.00" routeLength="994.90" waitSteps="0" timeLoss="4.85" rerouteNo="0" devices="tripinfo_f1.9" vType="DEFAULT_VEHTYPE" vaporized=""/>
    <tripinfo id="f1.10" depart="199.00" departLane="beg_0" departPos="5.10" departSpeed="0.00" departDelay="99.01" arrival="240.00" arrivalLane="end_0" arrivalPos="500.00" arrivalSpeed="27.80" duration="41.00" routeLength="994.90" waitSteps="0" timeLoss="4.85" rerouteNo="0" devices="tripinfo_f1.10" vType="DEFAULT_VEHTYPE" vaporized=""/>
    <tripinfo id="f1.11" depart="206.00" departLane="beg_0" departPos="5.10" departSpeed="0.00" departDelay="106.01" arrival="247.00" arrivalLane="end_0" arrivalPos="500.00" arrivalSpeed="27.80" duration="41.00" routeLength="994.90" waitSteps="0" timeLoss="4.85" rerouteNo="0" devices="tripinfo_f1.11" vType="DEFAULT_VEHTYPE" vaporized=""/>
    <tripinfo id="f1.12" depart="210.00" departLane="beg_0" departPos="5.10" departSpeed="0.00" departDelay="110.01" arrival="251.00" arrivalLane="end_0" arrivalPos="500.00" arrivalSpeed="27.80" duration="41.00" routeLength="994.90" waitSteps="0" timeLoss="4.85" rerouteNo="0" devices="tripinfo_f1.12" vType="DEFAULT_VEHTYPE" vaporized=""/>
    <tripinfo id="f1.13" depart="227.00" departLane="beg_0" departPos="5.10" departSpeed="0.00" departDelay="127.01" arrival="268.00" arrivalLane="end_0" arrivalPos="500.00" arrivalSpeed="27.80" duration="41.00" routeLength="994.90" waitSteps="0" timeLoss="4.85" rerouteNo="0" devices="tripinfo_f1.13" vType="DEFAULT_VEHTYPE" vaporized=""/>
    <tripinfo id="f1.14" depart="230.00" departLane="beg_0" departPos="5.10" departSpeed="0.00" departDelay="130.01" arrival="271.00" arrivalLane="end_0" arrivalPos="500.00" arrivalSpeed="27.80" duration="41.00" routeLength="994.90" waitSteps="0" timeLoss="4.85" rerouteNo="0" devices="tripinfo_f1.14" vType="DEFAULT_VEHTYPE" vaporized=""/>
    <tripinfo id="f1.15" depart="236.00" departLane="beg_0" departPos="5.10" departSpeed="0.00" departDelay="136.01" arrival="277.00" arrivalLane="end_0" arrivalPos="500.00" arrivalSpeed="27.80" duration="41.00" routeLength="994.90" waitSteps="0" timeLoss="4.85" rerouteNo="0" devices="tripinfo_f1.15" vType="DEFAULT_VEHTYPE" vaporized=""/>
    <tripinfo id="f1.16" depart="246.00" departLane="beg_0" departPos="5.10" departSpeed="0.00" departDelay="146.02" arrival="287.00" arrivalLane="end_0" arrivalPos="500.00" arrivalSpeed="27.80" duration="41.00" routeLength="994.90" waitSteps="0" timeLoss="4.85" rerouteNo="0" devices="tripinfo_f1.16" vType="DEFAULT_VEHTYPE" vaporized=""/>
    <tripinfo id="f1.17" depart="248.00" departLane="beg_0" departPos="5.10" departSpeed="0.00" departDelay="148.02" arrival="290.00" arrivalLane="end_0" arrivalPos="500.00" arrivalSpeed="27.80" duration="42.00" routeLength="994.90" waitSteps="0" timeLoss="5.46" rerouteNo="0" devices="tripinfo_f1.17" vType="DEFAULT_VEHTYPE" vaporized=""/>
    <tripinfo id="f1.18" depart="286.00" departLane="beg_0" departPos="5.10" departSpeed="0.00" departDelay="186.02" arrival="327.00" arrivalLane="end_0" arrivalPos="500.00" arrivalSpeed="27.80" duration="41.00" routeLength="994.90" waitSteps="0" timeLoss="4.85" rerouteNo="0" devices="tripinfo_f1.18" vType="DEFAULT_VEHTYPE" vaporized=""/>
    <tripinfo id="f1.19" depart="310.00" departLane="beg_0" departPos="5.10" departSpeed="0.00" departDelay="210.02" arrival="351.00" arrivalLane="end_0" arrivalPos="500.00" arrivalSpeed="27.80" duration="41.00" routeLength="994.90" waitSteps="0" timeLoss="4.85" rerouteNo="0" devices="tripinfo_f1.19" vType="DEFAULT_VEHTYPE" vaporized=""/>
    <tripinfo id="f1.20" depart="312.00" departLane="beg_0" departPos="5.10" departSpeed="0.00" departDelay="212.02" arrival="354.00" arrivalLane="end_0" arrivalPos="500.00" arrivalSpeed="27.80" duration="42.00" routeLength="994.90" waitSteps="0" timeLoss="5.46" rerouteNo="0" devices="tripinfo_f1.20" vType="DEFAULT_VEHTYPE" vaporized=""/>
    <tripinfo id="f1.21" depart="327.00" departLane="beg_0" departPos="5.10" departSpeed="0.00" departDelay="227.02" arrival="368.00" arrivalLane="end_0" arrivalPos="500.00" arrivalSpeed="27.80" duration="41.00" routeLength="994.90" waitSteps="0" timeLoss="4.85" rerouteNo="0" devices="tripinfo_f1.21" vType="DEFAULT_VEHTYPE" vaporized=""/>
    <tripinfo id="f1.22" depart="335.00" departLane="beg_0" departPos="5.10" departSpeed="0.00" departDelay="235.02" arrival="376.00" arrivalLane="end_0" arrivalPos="500.00" arrivalSpeed="27.80" duration="41.00" routeLength="994.90" waitSteps="0" timeLoss="4.85" rerouteNo="0" devices="tripinfo_f1.22" vType="DEFAULT_VEHTYPE" vaporized=""/>
    <tripinfo id="f1.23" depart="338.00" departLane="beg_0" departPos="5.10" departSpeed="0.00" departDelay="238.02" arrival="379.00" arrivalLane="end_0" arrivalPos="500.00" arrivalSpeed="27.80" duration="41.00" routeLength="994.90" waitSteps="0" timeLoss="4.85" rerouteNo="0" devices="tripinfo_f1.23" vType="DEFAULT_VEHTYPE" vaporized=""/>
    <tripinfo id="f1.24" depart="346.00" departLane="beg_0" departPos="5.10" departSpeed="0.00" departDelay="246.02" arrival="387.00" arrivalLane="end_0" arrivalPos="500.00" arrivalSpeed="27.80" duration="41.00" routeLength="994.90" waitSteps="0" timeLoss="4.85" rerouteNo="0" devices="tripinfo_f1.24" vType="DEFAULT_VEHTYPE" vaporized=""/>
    <tripinfo id="f1.25" depart="394.00" departLane="beg_0" departPos="5.10" departSpeed="0.00" departDelay="294.02" arrival="435.00" arrivalLane="end_0" arrivalPos="500.00" arrivalSpeed="27.80" duration="41.00" routeLength="994.90" waitSteps="0" timeLoss="4.85" rerouteNo="0" devices="tripinfo_f1.25" vType="DEFAULT_VEHTYPE" vaporized=""/>
    <tripinfo id="f1.26" depart="396.00" departLane="beg_0" departPos="5.10" departSpeed="0.00" departDelay="296.03" arrival="438.00" arrivalLane="end_0" arrivalPos="500.00" arrivalSpeed="27.80" duration="42.00" routeLength="994.90" waitSteps="0" timeLoss="5.46" rerouteNo="0" devices="tripinfo_f1.26" vType="DEFAULT_VEHTYPE" vaporized=""/>
    <tripinfo id="f1.27" depart="415.00" departLane="beg_0" departPos="5.10" departSpeed="0.00" departDelay="315.03" arrival="456.00" arrivalLane="end_0" arrivalPos="500.00" arrivalSpeed="27.80" duration="41.00" routeLength="994.90" waitSteps="0" timeLoss="4.85" rerouteNo="0" devices="tripinfo_f1.27" vType="DEFAULT_VEHTYPE" vaporized=""/>
    <tripinfo id="f1.28" depart="417.00" departLane="beg_0" departPos="5.10" departSpeed="0.00" departDelay="317.03" arrival="459.00" arrivalLane="end_0" arrivalPos="500.00" arrivalSpeed="27.80" duration="42.00" routeLength="994.90" waitSteps="0" timeLoss="5.46" rerouteNo="0" devices="tripinfo_f1.28" vType="DEFAULT_VEHTYPE" vaporized=""/>
    <tripinfo id="f1.29" depart="420.00" departLane="beg_0" departPos="5.10" departSpeed="0.00" departDelay="320.03" arrival="461.00" arrivalLane="end_0" arrivalPos="500.00" arrivalSpeed="27.80" duration="41.00" routeLength="994.90" waitSteps="0" timeLoss="4.85" rerouteNo="0" devices="tripinfo_f1.29" vType="DEFAULT_VEHTYPE" vaporized=""/>
    <tripinfo id="f1.30" depart="431.00" departLane="beg_0" departPos="5.10" departSpeed="0.00" departDelay="331.03" arrival="472.00" arrivalLane="end_0" arrivalPos="500.00" arrivalSpeed="27.80" duration="41.00" routeLength="994.90" waitSteps="0" timeLoss="4.85" rerouteNo="0" devices="tripinfo_f1.30" vType="DEFAULT_VEHTYPE" vaporized=""/>
    <tripinfo id="f1.31" depart="434.00" departLane="beg_0" departPos="5.10" departSpeed="0.00" departDelay="334.03" arrival="475.00" arrivalLane="end_0" arrivalPos="500.00" arrivalSpeed="27.80" duration="41.00" routeLength="994.90" waitSteps="0" timeLoss="4.85" rerouteNo="0" devices="tripinfo_f1.31" vType="DEFAULT_VEHTYPE" vaporized=""/>
    <tripinfo id="f1.32" depart="438.00" departLane="beg_0" departPos="5.10" departSpeed="0.00" departDelay="338.03" arrival="479.00" arrivalLane="end_0" arrivalPos="500.00" arrivalSpeed="27.80" duration="41.00" routeLength="994.90" waitSteps="0" timeLoss="4.85" rerouteNo="0" devices="tripinfo_f1.32" vType="DEFAULT_VEHTYPE" vaporized=""/>
    <tripinfo id="f1.33" depart="440.00" departLane="beg_0" departPos="5.10" departSpeed="0.00" departDelay="340.03" arrival="482.00" arrivalLane="end_0" arrivalPos="500.00" arrivalSpeed="27.80" duration="42.00" routeLength="994.90" waitSteps="0" timeLoss="5.46" rerouteNo="0" devices="tripinfo_f1.33" vType="DEFAULT_VEHTYPE" vaporized=""/>
    <tripinfo id="f1.34" depart="464.00" departLane="beg_0" departPos="5.10" departSpeed="0.00" departDelay="364.03" arrival="505.00" arrivalLane="end_0" arrivalPos="500.00" arrivalSpeed="27.80" duration="41.00" routeLength="994.90" waitSteps="0" timeLoss="4.85" rerouteNo="0" devices="tripinfo_f1.34" vType="DEFAULT_VEHTYPE" vaporized=""/>
    <tripinfo id="f1.35" depart="476.00" departLane="beg_0" departPos="5.10" departSpeed="0.00" departDelay="376.04" arrival="517.00" arrivalLane="end_0" arrivalPos="500.00" arrivalSpeed="27.80" duration="41.00" routeLength="994.90" waitSteps="0" timeLoss="4.85" rerouteNo="0" devices="tripinfo_f1.35" vType="DEFAULT_VEHTYPE" vaporized=""/>
    <tripinfo id="f1.36" depart="486.00" departLane="beg_0" departPos="5.10" departSpeed="0.00" departDelay="386.04" arrival="527.00" arrivalLane="end_0" arrivalPos="500.00" arrivalSpeed="27.80" duration="41.00" routeLength="994.90" waitSteps="0" timeLoss="4.85" rerouteNo="0" devices="tripinfo_f1.36" vType="DEFAULT_VEHTYPE" vaporized=""/>
    <tripinfo id="f1.37" depart="488.00" departLane="beg_0" departPos="5.10" departSpeed="0.00" departDelay="388.04" arrival="530.00" arrivalLane="end_0" arrivalPos="500.00" arrivalSpeed="27.80" duration="42.00" routeLength="994.90" waitSteps="0" timeLoss="5.46" rerouteNo="0" devices="tripinfo_f1.37" vType="DEFAULT_VEHTYPE" vaporized=""/>
    <tripinfo id="f1.38" depart="497.00" departLane="beg_0" departPos="5.10" departSpeed="0.00" departDelay="397.04" arrival="538.00" arrivalLane="end_0" arrivalPos="500.00" arrivalSpeed="27.80" duration="41.00" routeLength="994.90" waitSteps="0" timeLoss="4.85" rerouteNo="0" devices="tripinfo_f1.38" vType="DEFAULT_VEHTYPE" vaporized=""/>
    <tripinfo id="f1.39" depart="501.00" departLane="beg_0" departPos="5.10" departSpeed="0.00" departDelay="401.04" arrival="542.00" arrivalLane="end_0" arrivalPos="500.00" arrivalSpeed="27.80" duration="41.00" routeLength="994.90" waitSteps="0" timeLoss="4.85" rerouteNo="0" devices="tripinfo_f1.39" vType="DEFAULT_VEHTYPE" vaporized=""/>
    <tripinfo id="f1.40" depart="505.00" departLane="beg_0" departPos="5.10" departSpeed="0.00" departDelay="405.04" arrival="546.00" arrivalLane="end_0" arrivalPos="500.00" arrivalSpeed="27.80" duration="41.00" routeLength="994.90" waitSteps="0" timeLoss="4.85" rerouteNo="0" devices="tripinfo_f1.40" vType="DEFAULT_VEHTYPE" vaporized=""/>
    <tripinfo id="f1.41" depart="507.00" departLane="beg_0" departPos="5.10" departSpeed="0.00" departDelay="407.04" arrival="549.00" arrivalLane="end_0" arrivalPos="500.00" arrivalSpeed="27.80" duration="42.00" routeLength="994.90" waitSteps="0" timeLoss="5.46" rerouteNo="0" devices="tripinfo_f1.41" vType="DEFAULT_VEHTYPE" vaporized=""/>
    <tripinfo id="f1.42" depart="511.00" departLane="beg_0" departPos="5.10" departSpeed="0.00" departDelay="411.04" arrival="552.00" arrivalLane="end_0" arrivalPos="500.00" arrivalSpeed="27.80" duration="41.00" routeLength="994.90" waitSteps="0" timeLoss="4.85" rerouteNo="0" devices="tripinfo_f1.42" vType="DEFAULT_VEHTYPE" vaporized=""/>
    <tripinfo id="f1.43" depart="514.00" departLane="beg_0" departPos="5.10" departSpeed="0.00" departDelay="414.04" arrival="555.00" arrivalLane="end_0" arrivalPos="500.00" arrivalSpeed="27.80" duration="41.00" routeLength="994.90" waitSteps="0" timeLoss="4.85" rerouteNo="0" devices="tripinfo_f1.43" vType="DEFAULT_VEHTYPE" vaporized=""/>
    <tripinfo id="f1.44" depart="519.00" departLane="beg_0" departPos="5.10" departSpeed="0.00" departDelay="419.04" arrival="560.00" arrivalLane="end_0" arrivalPos="500.00" arrivalSpeed="27.80" duration="41.00" routeLength="994.90" waitSteps="0" timeLoss="4.85" rerouteNo="0" devices="tripinfo_f1.44" vType="DEFAULT_VEHTYPE" vaporized=""/>
    <tripinfo id="f1.45" depart="530.00" departLane="beg_0" departPos="5.10" departSpeed="0.00" departDelay="430.05" arrival="571.00" arrivalLane="end_0" arrivalPos="500.00" arrivalSpeed="27.80" duration="41.00" routeLength="994.90" waitSteps="0" timeLoss="4.85" rerouteNo="0" devices="tripinfo_f1.45" vType="DEFAULT_VEHTYPE" vaporized=""/>
    <tripinfo id="f1.46" depart="532.00" departLane="beg_0" departPos="5.10" departSpeed="0.00" departDelay="432.05" arrival="574.00" arrivalLane="end_0" arrivalPos="500.00" arrivalSpeed="27.80" duration="42.00" routeLength="994.90" waitSteps="0" timeLoss="5.46" rerouteNo="0" devices="tripinfo_f1.46" vType="DEFAULT_VEHTYPE" vaporized=""/>
    <tripinfo id="f1.47" depart="537.00" departLane="beg_0" departPos="5.10" departSpeed="0.00" departDelay="437.05" arrival="578.00" arrivalLane="end_0" arrivalPos="500.00" arrivalSpeed="27.80" duration="41.00" routeLength="994.90" waitSteps="0" timeLoss="4.85" rerouteNo="0" devices="tripinfo_f1.47" vType="DEFAULT_VEHTYPE" vaporized=""/>
    <tripinfo id="f1.48" depart="564.00" departLane="beg_0" departPos="5.10" departSpeed="0.00" departDelay="464.05" arrival="605.00" arrivalLane="end_0" arrivalPos="500.00" arrivalSpeed="27.80" duration="41.00" routeLength="994.90" waitSteps="0" timeLoss="4.85" rerouteNo="0" devices="tripinfo_f1.48" vType="DEFAULT_VEHTYPE" vaporized=""/>
    <tripinfo id="f1.49" depart="566.00" departLane="beg_0" departPos="5.10" departSpeed="0.00" departDelay="466.05" arrival="608.00" arrivalLane="end_0" arrivalPos="500.00" arrivalSpeed="27.80" duration="42.00" routeLength="994.90" waitSteps="0" timeLoss="5.46" rerouteNo="0" devices="tripinfo_f1.49" vType="DEFAULT_VEHTYPE" vaporized=""/>
    <tripinfo id="f1.50" depart="586.00" departLane="beg_0" departPos="5.10" departSpeed="0.00" departDelay="486.05" arrival="627.00" arrivalLane="end_0" arrivalPos="500.00" arrivalSpeed="27.80" duration="41.00" routeLength="994.90" waitSteps="0" timeLoss="4.85" rerouteNo="0" devices="tripinfo_f1.50" vType="DEFAULT_VEHTYPE" vaporized=""/>
    <tripinfo id="f1.51" depart="629.00" departLane="beg_0" departPos="5.10" departSpeed="0.00" departDelay="529.05" arrival="670.00" arrivalLane="end_0" arrivalPos="500.00" arrivalSpeed="27.80" duration="41.00" routeLength="994.90" waitSteps="0" timeLoss="4.85" rerouteNo="0" devices="tripinfo_f1.51" vType="DEFAULT_VEHTYPE" vaporized=""/>
    <tripinfo id="f1.52" depart="647.00" departLane="beg_0" departPos="5.10" departSpeed="0.00" departDelay="547.05" arrival="688.00" arrivalLane="end_0" arrivalPos="500.00" arrivalSpeed="27.80" duration="41.00" routeLength="994.90" waitSteps="0" timeLoss="4.85" rerouteNo="0" devices="tripinfo_f1.52" vType="DEFAULT_VEHTYPE" vaporized=""/>
    <tripinfo id="f1.53" depart="669.00" departLane="beg_0" departPos="5.10" departSpeed="0.00" departDelay="569.05" arrival="710.00" arrivalLane="end_0" arrivalPos="500.00" arrivalSpeed="27.80" duration="41.00" routeLength="994.90" waitSteps="0" timeLoss="4.85" rerouteNo="0" devices="tripinfo_f1.53" vType="DEFAULT_VEHTYPE" vaporized=""/>
    <tripinfo id="f1.54" depart="687.00" departLane="beg_0" departPos="5.10" departSpeed="0.00" departDelay="587.05" arrival="728.00" arrivalLane="end_0" arrivalPos="500.00" arrivalSpeed="27.80" duration="41.00" routeLength="994.90" waitSteps="0" timeLoss="4.85" rerouteNo="0" devices="tripinfo_f1.54" vType="DEFAULT_VEHTYPE" vaporized=""/>
    <tripinfo id="f1.55" depart="702.00" departLane="beg_0" departPos="5.10" departSpeed="0.00" departDelay="602.05" arrival="743.00" arrivalLane="end_0" arrivalPos="500.00" arrivalSpeed="27.80" duration="41.00" routeLength="994.90" waitSteps="0" timeLoss="4.85" rerouteNo="0" devices="tripinfo_f1.55" vType="DEFAULT_VEHTYPE" vaporized=""/>
    <tripinfo id="f1.56" depart="704.00" departLane="beg_0" departPos="5.10" departSpeed="0.00" departDelay="604.06" arrival="746.00" arrivalLane="end_0" arrivalPos="500.00" arrivalSpeed="27.80" duration="42.00" routeLength="994.90" waitSteps="0" timeLoss="5.46" rerouteNo="0" devices="tripinfo_f1.56" vType="DEFAULT_VEHTYPE" vaporized=""/>
    <tripinfo id="f1.57" depart="707.00" departLane="beg_0" departPos="5.10" departSpeed="0.00" departDelay="607.06" arrival="748.00" arrivalLane="end_0" arrivalPos="500.00" arrivalSpeed="27.80" duration="41.00" routeLength="994.90" waitSteps="0" timeLoss="4.85" rerouteNo="0" devices="tripinfo_f1.57" vType="DEFAULT_VEHTYPE" vaporized=""/>
    <tripinfo id="f1.58" depart="714.00" departLane="beg_0" departPos="5.10" departSpeed="0.00" departDelay="614.06" arrival="755.00" arrivalLane="end_0" arrivalPos="500.00" arrivalSpeed="27.80" duration="41.00" routeLength="994.90" waitSteps="0" timeLoss="4.85" rerouteNo="0" devices="tripinfo_f1.58" vType="DEFAULT_VEHTYPE" vaporized=""/>
    <tripinfo id="f1.59" depart="727.00" departLane="beg_0" departPos="5.10" departSpeed="0.00" departDelay="627.06" arrival="768.00" arrivalLane="end_0" arrivalPos="500.00" arrivalSpeed="27.80" duration="41.00" routeLength="994.90" waitSteps="0" timeLoss="4.85" rerouteNo="0" devices="tripinfo_f1.59" vType="DEFAULT_VEHTYPE" vaporized=""/>
    <tripinfo id="f1.60" depart="730.00" departLane="beg_0" departPos="5.10" departSpeed="0.00" departDelay="630.06" arrival="771.00" arrivalLane="end_0" arrivalPos="500.00" arrivalSpeed="27.80" duration="41.00" routeLength="994.90" waitSteps="0" timeLoss="4.85" rerouteNo="0" devices="tripinfo_f1.60" vType="DEFAULT_VEHTYPE" vaporized=""/>
    <tripinfo id="f1.61" depart="739.00" departLane="beg_0" departPos="5.10" departSpeed="0.00" departDelay="639.06" arrival="780.00" arrivalLane="end_0" arrivalPos="500.00" arrivalSpeed="27.80" duration="41.00" routeLength="994.90" waitSteps="0" timeLoss="4.85" rerouteNo="0" devices="tripinfo_f1.61" vType="DEFAULT_VEHTYPE" vaporized=""/>
    <tripinfo id="f1.62" depart="746.00" departLane="beg_0" departPos="5.10" departSpeed="0.00" departDelay="646.06" arrival="787.00" arrivalLane="end_0" arrivalPos="500.00" arrivalSpeed="27.80" duration="41.00" routeLength="994.90" waitSteps="0" timeLoss="4.85" rerouteNo="0" devices="tripinfo_f1.62" vType="DEFAULT_VEHTYPE" vaporized=""/>
    <tripinfo id="f1.63" depart="749.00" departLane="beg_0" departPos="5.10" departSpeed="0.00" departDelay="649.06" arrival="790.00" arrivalLane="end_0" arrivalPos="500.00" arrivalSpeed="27.80" duration="41.00" routeLength="994.90" waitSteps="0" timeLoss="4.85" rerouteNo="0" devices="tripinfo_f1.63" vType="DEFAULT_VEHTYPE" vaporized=""/>
    <tripinfo id="f1.64" depart="751.00" departLane="beg_0" departPos="5.10" departSpeed="0.00" departDelay="651.06" arrival="793.00" arrivalLane="end_0" arrivalPos="500.00" arrivalSpeed="27.80" duration="42.00" routeLength="994.90" waitSteps="0" timeLoss="5.46" rerouteNo="0" devices="tripinfo_f1.64" vType="DEFAULT_VEHTYPE" vaporized=""/>
    <tripinfo id="f1.65" depart="759.00" departLane="beg_0" departPos="5.10" departSpeed="0.00" departDelay="659.07" arrival="800.00" arrivalLane="end_0" arrivalPos="500.00" arrivalSpeed="27.80" duration="41.00" routeLength="994.90" waitSteps="0" timeLoss="4.85" rerouteNo="0" devices="tripinfo_f1.65" vType="DEFAULT_VEHTYPE" vaporized=""/>
    <tripinfo id="f1.66" depart="768.00" departLane="beg_0" departPos="5.10" departSpeed="0.00" departDelay="668.07" arrival="809.00" arrivalLane="end_0" arrivalPos="500.00" arrivalSpeed="27.80" duration="41.00" routeLength="994.90" waitSteps="0" timeLoss="4.85" rerouteNo="0" devices="tripinfo_f1.66" vType="DEFAULT_VEHTYPE" vaporized=""/>
    <tripinfo id="f1.67" depart="812.00" departLane="beg_0" departPos="5.10" departSpeed="0.00" departDelay="712.07" arrival="853.00" arrivalLane="end_0" arrivalPos="500.00" arrivalSpeed="27.80" duration="41.00" routeLength="994.90" waitSteps="0" timeLoss="4.85" rerouteNo="0" devices="tripinfo_f1.67" vType="DEFAULT_VEHTYPE" vaporized=""/>
    <tripinfo id="f1.68" depart="823.00" departLane="beg_0" departPos="5.10" departSpeed="0.00" departDelay="723.07" arrival="864.00" arrivalLane="end_0" arrivalPos="500.00" arrivalSpeed="27.80" duration="41.00" routeLength="994.90" waitSteps="0" timeLoss="4.85" rerouteNo="0" devices="tripinfo_f1.68" vType="DEFAULT_VEHTYPE" vaporized=""/>
    <tripinfo id="f1.69" depart="831.00" departLane="beg_0" departPos="5.10" departSpeed="0.00" departDelay="731.07" arrival="872.00" arrivalLane="end_0" arrivalPos="500.00" arrivalSpeed="27.80" duration="41.00" routeLength="994.90" waitSteps="0" timeLoss="4.85" rerouteNo="0" devices="tripinfo_f1.69" vType="DEFAULT_VEHTYPE" vaporized=""/>
    <tripinfo id="f1.70" depart="850.00" departLane="beg_0" departPos="5.10" departSpeed="0.00" departDelay="750.07" arrival="891.00" arrivalLane="end_0" arrivalPos="500.00" arrivalSpeed="27.80" duration="41.00" routeLength="994.90" waitSteps="0" timeLoss="4.85" rerouteNo="0" devices="tripinfo_f1.70" vType="DEFAULT_VEHTYPE" vaporized=""/>
    <tripinfo id="f1.71" depart="856.00" departLane="beg_0" departPos="5.10" departSpeed="0.00" departDelay="756.07" arrival="897.00" arrivalLane="end_0" arrivalPos="500.00" arrivalSpeed="27.80" duration="41.00" routeLength="994.90" waitSteps="0" timeLoss="4.85" rerouteNo="0" devices="tripinfo_f1.71" vType="DEFAULT_VEHTYPE" vaporized=""/>
    <tripinfo id="f1.72" depart="864.00" departLane="beg_0" departPos="5.10" departSpeed="0.00" departDelay="764.07" arrival="905.00" arrivalLane="end_0" arrivalPos="500.00" arrivalSpeed="27.80" duration="41.00" routeLength="994.90" waitSteps="0" timeLoss="4.85" rerouteNo="0" devices="tripinfo_f1.72" vType="DEFAULT_VEHTYPE" vaporized=""/>
    <tripinfo id="f1.73" depart="869.00" departLane="beg_0" departPos="5.10" departSpeed="0.00" departDelay="769.07" arrival="910.00" arrivalLane="end_0" arrivalPos="500.00" arrivalSpeed="27.80" duration="41.00" routeLength="994.90" waitSteps="0" timeLoss="4.85" rerouteNo="0" devices="tripinfo_f1.73" vType="DEFAULT_VEHTYPE" vaporized=""/>
    <tripinfo id="f1.74" depart="908.00" departLane="beg_0" departPos="5.10" departSpeed="0.00" departDelay="808.07" arrival="949.00" arrivalLane="end_0" arrivalPos="500.00" arrivalSpeed="27.80" duration="41.00" routeLength="994.90" waitSteps="0" timeLoss="4.85" rerouteNo="0" devices="tripinfo_f1.74" vType="DEFAULT_VEHTYPE" vaporized=""/>
    <tripinfo id="f1.75" depart="911.00" departLane="beg_0" departPos="5.10" departSpeed="0.00" departDelay="811.08" arrival="952.00" arrivalLane="end_0" arrivalPos="500.00" arrivalSpeed="27.80" duration="41.00" routeLength="994.90" waitSteps="0" timeLoss="4.85" rerouteNo="0" devices="tripinfo_f1.75" vType="DEFAULT_VEHTYPE" vaporized=""/>
    <tripinfo id="f1.76" depart="916.00" departLane="beg_0" departPos="5.10" departSpeed="0.00" departDelay="816.08" arrival="957.00" arrivalLane="end_0" arrivalPos="500.00" arrivalSpeed="27.80" duration="41.00" routeLength="994.90" waitSteps="0" timeLoss="4.85" rerouteNo="0" devices="tripinfo_f1.76" vType="DEFAULT_VEHTYPE" vaporized=""/>
    <tripinfo id="f1.77" depart="926.00" departLane="beg_0" departPos="5.10" departSpeed="0.00" departDelay="826.08" arrival="967.00" arrivalLane="end_0" arrivalPos="500.00" arrivalSpeed="27.80" duration="41.00" routeLength="994.90" waitSteps="0" timeLoss="4.85" rerouteNo="0" devices="tripinfo_f1.77" vType="DEFAULT_VEHTYPE" vaporized=""/>
    <tripinfo id="f1.78" depart="928.00" departLane="beg_0" departPos="5.10" departSpeed="0.00" departDelay="828.08" arrival="970.00" arrivalLane="end_0" arrivalPos="500.00" arrivalSpeed="27.80" duration="42.00" routeLength="994.90" waitSteps="0" timeLoss="5.46" rerouteNo="0" devices="tripinfo_f1.78" vType="DEFAULT_VEHTYPE" vaporized=""/>
    <tripinfo id="f1.79" depart="931.00" departLane="beg_0" departPos="5.10" departSpeed="0.00" departDelay="831.08" arrival="972.00" arrivalLane="end_0" arrivalPos="500.00" arrivalSpeed="27.80" duration="41.00" routeLength="994.90" waitSteps="0" timeLoss="4.85" rerouteNo="0" devices="tripinfo_f1.79" vType="DEFAULT_VEHTYPE" vaporized=""/>
    <tripinfo id="f1.80" depart="933.00" departLane="beg_0" departPos="5.10" departSpeed="0.00" departDelay="833.08" arrival="975.00" arrivalLane="end_0" arrivalPos="500.00" arrivalSpeed="27.80" duration="42.00" routeLength="994.90" waitSteps="0" timeLoss="5.46" rerouteNo="0" devices="tripinfo_f1.80" vType="DEFAULT_VEHTYPE" vaporized=""/>
    <tripinfo id="f1.81" depart="941.00" departLane="beg_0" departPos="5.10" departSpeed="0.00" departDelay="841.08" arrival="982.00" arrivalLane="end_0" arrivalPos="500.00" arrivalSpeed="27.80" duration="41.00" routeLength="994.90" waitSteps="0" timeLoss="4.85" rerouteNo="0" devices="tripinfo_f1.81" vType="DEFAULT_VEHTYPE" vaporized=""/>
    <tripinfo id="f1.82" depart="972.00" departLane="beg_0" departPos="5.10" departSpeed="0.00" departDelay="872.08" arrival="1013.00" arrivalLane="end_0" arrivalPos="500.00" arrivalSpeed="27.80" duration="41.00" routeLength="994.90" waitSteps="0" timeLoss="4.85" rerouteNo="0" devices="tripinfo_f1.82" vType="DEFAULT_VEHTYPE" vaporized=""/>
    <tripinfo id="f1.83" depart="977.00" departLane="beg_0" departPos="5.10" departSpeed="0.00" departDelay="877.08" arrival="1018.00" arrivalLane="end_0" arrivalPos="500.00" arrivalSpeed="27.80" duration="41.00" routeLength="994.90" waitSteps="0" timeLoss="4.85" rerouteNo="0" devices="tripinfo_f1.83" vType="DEFAULT_VEHTYPE" vaporized=""/>
    <tripinfo id="f1.84" depart="982.00" departLane="beg_0" departPos="5.10" departSpeed="0.00" departDelay="882.08" arrival="1023.00" arrivalLane="end_0" arrivalPos="500.00" arrivalSpeed="27.80" duration="41.00" routeLength="994.90" waitSteps="0" timeLoss="4.85" rerouteNo="0" devices="tripinfo_f1.84" vType="DEFAULT_VEHTYPE" vaporized=""/>