<?xml version="1.0" encoding="UTF-8"?>

<!-- generated on 05/02/13 14:16:03 by SUMO sumo Version 0.17.0
<?xml version="1.0" encoding="UTF-8"?>

<configuration xmlns:xsi="http://www.w3.org/2001/XMLSchema-instance" xsi:noNamespaceSchemaLocation="http://sumo.sf.net/xsd/sumoConfiguration.xsd">

    <input>
        <net-file value="net.net.xml"/>
        <route-files value="input_routes.rou.xml"/>
    </input>

    <output>
        <vehroute-output value="vehroutes.xml"/>
        <vehroute-output.exit-times value="true"/>
        <vehroute-output.sorted value="true"/>
    </output>

    <report>
        <no-duration-log value="true"/>
        <no-step-log value="true"/>
    </report>

</configuration>
-->

<routes xmlns:xsi="http://www.w3.org/2001/XMLSchema-instance" xsi:noNamespaceSchemaLocation="http://sumo.sf.net/xsd/routes_file.xsd">
    <vehicle id="stopped" depart="1.00" arrival="227.00">
        <route edges="1fi 1si 1o 1fi 1si" exitTimes="28.00 137.00 185.00 209.00 227.00"/>
    </vehicle>

    <vehicle id="stop_as_well" depart="10.00" arrival="249.00">
        <route edges="1fi 1si 1o 1fi 1si" exitTimes="84.00 159.00 206.00 231.00 249.00"/>
    </vehicle>

</routes>
