<?xml version="1.0" encoding="UTF-8"?>

<!-- generated on Fr 27 Okt 2017 16:40:15 CEST by SUMO gui Version svn
<?xml version="1.0" encoding="UTF-8"?>

<configuration xmlns:xsi="http://www.w3.org/2001/XMLSchema-instance" xsi:noNamespaceSchemaLocation="http://sumo.dlr.de/xsd/sumoConfiguration.xsd">

    <input>
        <net-file value="net.net.xml"/>
        <load-state value="input_state.xml"/>
    </input>

    <output>
        <vehroute-output value="vehroutes.xml"/>
        <save-state.times value="10"/>
        <save-state.files value="state2.xml"/>
    </output>

    <processing>
        <default.action-step-length value="4"/>
    </processing>

    <report>
        <verbose value="true"/>
        <xml-validation value="never"/>
        <message-log value="stdout"/>
        <error-log value="stderr"/>
        <duration-log.disable value="true"/>
        <no-step-log value="true"/>
    </report>

    <gui_only>
        <quit-on-end value="true"/>
    </gui_only>

</configuration>
-->

<routes xmlns:xsi="http://www.w3.org/2001/XMLSchema-instance" xsi:noNamespaceSchemaLocation="http://sumo.dlr.de/xsd/routes_file.xsd">
    <vehicle id="v0" type="type1" depart="0.00" line="line1" arrival="43.00">
        <route edges="beg middle end"/>
        <stop lane="middle_0" startPos="199.80" endPos="200.00" duration="0.00"/>
        <param key="has.rerouting.device" value="false"/>
    </vehicle>

    <vehicle id="v1" type="type2" depart="6.00" arrival="44.00">
        <route edges="beg middle end"/>
    </vehicle>

</routes>
