<?xml version="1.0" encoding="UTF-8"?>

<!-- generated on 2026-04-17T12:30:43.613844+01:00 by Eclipse SUMO sumo v1_26_0+1249-8eecaa95d15
<sumoConfiguration xmlns:xsi="http://www.w3.org/2001/XMLSchema-instance" xsi:noNamespaceSchemaLocation="http://sumo.dlr.de/xsd/sumoConfiguration.xsd">

    <input>
        <net-file value="input_net.net.xml"/>
        <additional-files value="input_additional.add.xml"/>
        <load-state value="state.xml"/>
    </input>

    <output>
        <vehroute-output value="vehroutes.xml"/>
    </output>

    <processing>
        <default.departspeed value="0"/>
        <default.departlane value="first"/>
    </processing>

    <report>
        <duration-log.disable value="true"/>
        <no-step-log value="true"/>
    </report>

</sumoConfiguration>
-->

<routes xmlns:xsi="http://www.w3.org/2001/XMLSchema-instance" xsi:noNamespaceSchemaLocation="http://sumo.dlr.de/xsd/routes_file.xsd">
    <person id="persontrip_car" depart="2.00" departPos="10.00" arrival="174.00">
        <ride from="3/1to2/1" to="1/1to0/1" arrivalPos="400.00" lines="v0"/>
    </person>

    <vehicle id="v0" depart="0.00" arrival="174.00">
        <route edges="3/1to2/1 2/1to1/1 1/1to0/1"/>
        <stop edge="3/1to2/1" startPos="0.00" endPos="20.00" duration="9.00"/>
    </vehicle>

</routes>
