<?xml version="1.0" encoding="UTF-8"?>

<!-- generated on 2026-05-20T09:21:50.356970+01:00 by Eclipse SUMO sumo v1_26_0+1678-6b9b3d63f0c
<sumoConfiguration xmlns:xsi="http://www.w3.org/2001/XMLSchema-instance" xsi:noNamespaceSchemaLocation="http://sumo.dlr.de/xsd/sumoConfiguration.xsd">

    <input>
        <net-file value="input_net.net.xml"/>
        <additional-files value="input_additional.add.xml"/>
        <load-state value="state.xml"/>
    </input>

    <output>
        <vehroute-output value="vehroutes2.xml"/>
    </output>

    <processing>
        <default.departspeed value="0"/>
        <default.departlane value="first"/>
    </processing>

    <report>
        <duration-log.disable value="true"/>
        <no-step-log value="true"/>
    </report>

    <mesoscopic>
        <mesosim value="true"/>
    </mesoscopic>

</sumoConfiguration>
-->

<routes xmlns:xsi="http://www.w3.org/2001/XMLSchema-instance" xsi:noNamespaceSchemaLocation="http://sumo.dlr.de/xsd/routes_file.xsd">
    <person id="persontrip_car" depart="2.00" departPos="10.00" arrival="230.00">
        <ride from="3/1to2/1" to="1/1to0/1" arrivalPos="400.00" lines="v0"/>
        <stop lane="1/1to0/1_0" endPos="400.00" duration="100.00"/>
    </person>

</routes>
