<?xml version="1.0" encoding="UTF-8"?>

<!-- generated on 2023-07-05 09:24:20 by Eclipse SUMO sumo Version v1_18_0+0084-35bb20c
This data file and the accompanying materials
are made available under the terms of the Eclipse Public License v2.0
which accompanies this distribution, and is available at
http://www.eclipse.org/legal/epl-v20.html
This file may also be made available under the following Secondary
Licenses when the conditions for such availability set forth in the Eclipse
Public License 2.0 are satisfied: GNU General Public License, version 2
or later which is available at
https://www.gnu.org/licenses/old-licenses/gpl-2.0-standalone.html
SPDX-License-Identifier: EPL-2.0 OR GPL-2.0-or-later
<configuration xmlns:xsi="http://www.w3.org/2001/XMLSchema-instance" xsi:noNamespaceSchemaLocation="http://sumo.dlr.de/xsd/sumoConfiguration.xsd">

    <input>
        <net-file value="net.net.xml"/>
        <route-files value="input_routes.rou.xml"/>
    </input>

    <output>
        <write-license value="true"/>
        <tripinfo-output value="tripinfos.xml"/>
    </output>

    <processing>
        <collision.action value="warn"/>
        <collision.check-junctions value="true"/>
        <default.speeddev value="0"/>
    </processing>

    <report>
        <verbose value="true"/>
        <xml-validation value="never"/>
        <no-step-log value="true"/>
    </report>

</configuration>
-->

<tripinfos xmlns:xsi="http://www.w3.org/2001/XMLSchema-instance" xsi:noNamespaceSchemaLocation="http://sumo.dlr.de/xsd/tripinfo_file.xsd">
    <tripinfo id="side.0" depart="0.00" departLane="-E4_0" departPos="41.10" departSpeed="3.10" departDelay="0.00" arrival="65.00" arrivalLane="-E0_0" arrivalPos="142.80" arrivalSpeed="2.61" duration="65.00" routeLength="154.63" waitingTime="0.00" waitingCount="0" stopTime="0.00" timeLoss="14.56" rerouteNo="0" devices="tripinfo_side.0" vType="t0" speedFactor="1.00" vaporized=""/>
    <tripinfo id="main.0" depart="3.00" departLane="E0_0" departPos="20.00" departSpeed="13.89" departDelay="0.00" arrival="349.00" arrivalLane="E4_0" arrivalPos="41.20" arrivalSpeed="13.02" duration="346.00" routeLength="164.00" waitingTime="331.00" waitingCount="2" stopTime="0.00" timeLoss="334.25" rerouteNo="0" devices="tripinfo_main.0" vType="DEFAULT_VEHTYPE" speedFactor="1.00" vaporized=""/>
    <tripinfo id="main.1" depart="6.00" departLane="E0_0" departPos="20.00" departSpeed="13.89" departDelay="0.00" arrival="352.00" arrivalLane="E4_0" arrivalPos="41.20" arrivalSpeed="13.56" duration="346.00" routeLength="164.00" waitingTime="328.00" waitingCount="2" stopTime="0.00" timeLoss="334.31" rerouteNo="0" devices="tripinfo_main.1" vType="DEFAULT_VEHTYPE" speedFactor="1.00" vaporized=""/>
    <tripinfo id="side.1" depart="4.00" departLane="-E4_0" departPos="41.10" departSpeed="1.87" departDelay="1.00" arrival="406.00" arrivalLane="-E0_0" arrivalPos="142.80" arrivalSpeed="2.87" duration="402.00" routeLength="154.63" waitingTime="332.00" waitingCount="3" stopTime="0.00" timeLoss="351.65" rerouteNo="0" devices="tripinfo_side.1" vType="t0" speedFactor="1.00" vaporized=""/>
    <tripinfo id="main.2" depart="9.00" departLane="E0_0" departPos="20.00" departSpeed="13.89" departDelay="0.00" arrival="655.00" arrivalLane="E4_0" arrivalPos="41.20" arrivalSpeed="12.78" duration="646.00" routeLength="164.00" waitingTime="623.00" waitingCount="4" stopTime="0.00" timeLoss="634.35" rerouteNo="0" devices="tripinfo_main.2" vType="DEFAULT_VEHTYPE" speedFactor="1.00" vaporized=""/>
    <tripinfo id="main.3" depart="12.00" departLane="E0_0" departPos="20.00" departSpeed="13.89" departDelay="0.00" arrival="689.00" arrivalLane="E4_0" arrivalPos="41.20" arrivalSpeed="12.86" duration="677.00" routeLength="178.20" waitingTime="647.00" waitingCount="5" stopTime="0.00" timeLoss="663.28" rerouteNo="0" devices="tripinfo_main.3" vType="DEFAULT_VEHTYPE" speedFactor="1.00" vaporized=""/>
    <tripinfo id="side.2" depart="21.00" departLane="-E4_0" departPos="41.10" departSpeed="0.02" departDelay="15.00" arrival="708.00" arrivalLane="-E0_0" arrivalPos="142.80" arrivalSpeed="2.52" duration="687.00" routeLength="154.63" waitingTime="624.00" waitingCount="5" stopTime="0.00" timeLoss="639.50" rerouteNo="0" devices="tripinfo_side.2" vType="t0" speedFactor="1.00" vaporized=""/>
    <tripinfo id="side.3" depart="349.00" departLane="-E4_0" departPos="41.10" departSpeed="0.10" departDelay="340.00" arrival="736.00" arrivalLane="-E0_0" arrivalPos="142.80" arrivalSpeed="2.02" duration="387.00" routeLength="154.63" waitingTime="317.00" waitingCount="3" stopTime="0.00" timeLoss="336.63" rerouteNo="0" devices="tripinfo_side.3" vType="t0" speedFactor="1.00" vaporized=""/>
</tripinfos>
