<configuration xmlns:xsi="http://www.w3.org/2001/XMLSchema-instance" xsi:noNamespaceSchemaLocation="http://sumo.dlr.de/xsd/sumoConfiguration.xsd">

    <input>
        <net-file value="input_net2.net.xml"/>
        <additional-files value="input_additional.add.xml"/>
    </input>

    <processing>
        <time-to-teleport value="-1"/>
        <default.speeddev value="0"/>
        <device.rerouting.with-taz value="true"/>
    </processing>

    <report>
        <duration-log.disable value="true"/>
        <no-step-log value="true"/>
    </report>

    <output>
        <vehroute-output value="vehroutes.xml"/>
    </output>

</configuration>
