<?xml version="1.0"?>

<!-- generated on Fri Oct 30 22:44:44 2009 by SUMO sumo Version dev-SVN-r7917
<configuration>

    <input>
        <net-file value="net.net.xml"/>
        <route-files value="input_routes.rou.xml"/>
    </input>

    <output>
        <vehroute-output value="vehroutes.xml"/>
    </output>

    <report>
        <no-duration-log value="true"/>
        <no-step-log value="true"/>
    </report>

    <mesoscopic>
        <mesosim value="true"/>
    </mesoscopic>

</configuration>
-->

<routes>
    <vehicle id="0" depart="0" arrival="108">
        <route edges="beg middle end rend"/>
   </vehicle>

    <vehicle id="1" depart="1" arrival="109">
        <route edges="beg middle end rend"/>
   </vehicle>

    <vehicle id="2" depart="2" arrival="110">
        <route edges="beg middle end rend"/>
   </vehicle>

    <vehicle id="3" depart="3" arrival="112">
        <route edges="beg middle end rend"/>
   </vehicle>

    <vehicle id="4" depart="4" arrival="113">
        <route edges="beg middle end rend"/>
   </vehicle>

    <vehicle id="5" depart="5" arrival="115">
        <route edges="beg middle end rend"/>
   </vehicle>

    <vehicle id="6" depart="6" arrival="116">
        <route edges="beg middle end rend"/>
   </vehicle>

    <vehicle id="7" depart="7" arrival="117">
        <route edges="beg middle end rend"/>
   </vehicle>

    <vehicle id="8" depart="8" arrival="119">
        <route edges="beg middle end rend"/>
   </vehicle>

    <vehicle id="9" depart="9" arrival="120">
        <route edges="beg middle end rend"/>
   </vehicle>

</routes>
