<?xml version="1.0"?>

<!-- generated on 04/29/10 11:21:59 by SUMO sumo Version dev-SVN-r8657
<configuration>

    <input>
        <net-file value="net.net.xml"/>
        <route-files value="input_routes.rou.xml"/>
    </input>

    <output>
        <vehroute-output value="vehroutes.xml"/>
    </output>

    <report>
        <no-duration-log value="true"/>
        <no-step-log value="true"/>
    </report>

    <mesoscopic>
        <mesosim value="true"/>
    </mesoscopic>

</configuration>
-->

<routes>
    <vehicle id="0" depart="0.00" arrival="108.00">
        <route edges="beg middle end rend"/>
    </vehicle>

    <vehicle id="1" depart="1.00" arrival="109.00">
        <route edges="beg middle end rend"/>
    </vehicle>

    <vehicle id="2" depart="2.00" arrival="110.00">
        <route edges="beg middle end rend"/>
    </vehicle>

    <vehicle id="3" depart="3.00" arrival="112.00">
        <route edges="beg middle end rend"/>
    </vehicle>

    <vehicle id="4" depart="4.00" arrival="113.00">
        <route edges="beg middle end rend"/>
    </vehicle>

    <vehicle id="5" depart="5.00" arrival="115.00">
        <route edges="beg middle end rend"/>
    </vehicle>

    <vehicle id="6" depart="6.00" arrival="116.00">
        <route edges="beg middle end rend"/>
    </vehicle>

    <vehicle id="7" depart="7.00" arrival="117.00">
        <route edges="beg middle end rend"/>
    </vehicle>

    <vehicle id="8" depart="8.00" arrival="119.00">
        <route edges="beg middle end rend"/>
    </vehicle>

    <vehicle id="9" depart="9.00" arrival="120.00">
        <route edges="beg middle end rend"/>
    </vehicle>

</routes>
