<?xml version="1.0" encoding="UTF-8"?>

<!-- generated on 2025-11-02T19:25:03.808429+01:00 by Eclipse SUMO sumo v1_24_0+1713-b6716327859
This data file and the accompanying materials
are made available under the terms of the Eclipse Public License v2.0
which accompanies this distribution, and is available at
http://www.eclipse.org/legal/epl-v20.html
This file may also be made available under the following Secondary
Licenses when the conditions for such availability set forth in the Eclipse
Public License 2.0 are satisfied: GNU General Public License, version 2
or later which is available at
https://www.gnu.org/licenses/old-licenses/gpl-2.0-standalone.html
SPDX-License-Identifier: EPL-2.0 OR GPL-2.0-or-later
<sumoConfiguration xmlns:xsi="http://www.w3.org/2001/XMLSchema-instance" xsi:noNamespaceSchemaLocation="http://sumo.dlr.de/xsd/sumoConfiguration.xsd">

    <input>
        <net-file value="net.net.xml"/>
        <route-files value="input_routes.rou.xml"/>
        <additional-files value="input_additional.add.xml,input_additional2.add.xml"/>
    </input>

    <output>
        <write-license value="true"/>
        <tripinfo-output.write-unfinished value="true"/>
    </output>

    <time>
        <begin value="0"/>
        <end value="300"/>
        <step-length value="0.1"/>
    </time>

    <processing>
        <default.speeddev value="0"/>
    </processing>

    <report>
        <xml-validation value="never"/>
        <duration-log.statistics value="true"/>
        <no-step-log value="true"/>
    </report>

</sumoConfiguration>
-->

<meandata xmlns:xsi="http://www.w3.org/2001/XMLSchema-instance" xsi:noNamespaceSchemaLocation="http://sumo.dlr.de/xsd/meandata_file.xsd">
    <interval begin="0.00" end="6.00" id="dump_6">
        <edge id="1/1to2/1" sampledSeconds="15.88" traveltime="61.46" overlapTraveltime="52.21" density="23.00" overlapDensity="27.53" laneDensity="23.00" occupancy="12.87" waitingTime="3.40" timeLoss="14.31" speed="1.94" speedRelative="0.10" departed="6" arrived="0" entered="0" left="2" laneChangedFrom="0" laneChangedTo="0"/>
        <edge id="2/1to3/1" sampledSeconds="5.24" traveltime="11.04" overlapTraveltime="11.62" density="9.08" overlapDensity="9.08" laneDensity="9.08" occupancy="3.79" waitingTime="0.00" timeLoss="2.91" speed="8.71" speedRelative="0.44" departed="0" arrived="0" entered="2" left="0" laneChangedFrom="0" laneChangedTo="0"/>
    </interval>
    <interval begin="6.00" end="12.00" id="dump_6">
        <edge id="1/1to2/1" sampledSeconds="36.14" traveltime="31.24" overlapTraveltime="30.17" density="59.82" overlapDensity="62.67" laneDensity="59.82" occupancy="30.64" waitingTime="5.60" timeLoss="29.96" speed="3.35" speedRelative="0.17" departed="6" arrived="0" entered="0" left="3" laneChangedFrom="0" laneChangedTo="0"/>
        <edge id="2/1to3/1" sampledSeconds="18.86" traveltime="6.85" overlapTraveltime="7.15" density="31.90" overlapDensity="32.69" laneDensity="31.90" occupancy="15.50" waitingTime="0.00" timeLoss="5.24" speed="14.15" speedRelative="0.72" departed="0" arrived="0" entered="3" left="2" laneChangedFrom="0" laneChangedTo="0"/>
        <edge id="3/1to4/1" sampledSeconds="2.14" traveltime="5.09" overlapTraveltime="5.36" density="3.71" overlapDensity="3.71" laneDensity="3.71" occupancy="1.72" waitingTime="0.00" timeLoss="0.08" speed="18.88" speedRelative="0.96" departed="0" arrived="0" entered="2" left="0" laneChangedFrom="0" laneChangedTo="0"/>
    </interval>
    <interval begin="12.00" end="18.00" id="dump_6">
        <edge id="1/1to2/1" sampledSeconds="45.05" traveltime="19.23" overlapTraveltime="19.46" density="75.97" overlapDensity="78.10" laneDensity="75.97" occupancy="37.48" waitingTime="3.50" timeLoss="33.11" speed="5.20" speedRelative="0.27" departed="3" arrived="0" entered="0" left="3" laneChangedFrom="0" laneChangedTo="0"/>
        <edge id="2/1to3/1" sampledSeconds="21.05" traveltime="6.08" overlapTraveltime="6.35" density="34.95" overlapDensity="36.50" laneDensity="34.95" occupancy="17.32" waitingTime="0.00" timeLoss="3.95" speed="15.92" speedRelative="0.81" departed="0" arrived="0" entered="3" left="3" laneChangedFrom="0" laneChangedTo="0"/>
        <edge id="3/1to4/1" sampledSeconds="15.26" traveltime="5.01" overlapTraveltime="5.27" density="25.57" overlapDensity="26.46" laneDensity="25.57" occupancy="12.56" waitingTime="0.00" timeLoss="0.33" speed="19.18" speedRelative="0.98" departed="0" arrived="0" entered="3" left="2" laneChangedFrom="0" laneChangedTo="0"/>
        <edge id="4/1to5/1" sampledSeconds="3.81" traveltime="4.92" overlapTraveltime="5.17" density="6.60" overlapDensity="6.60" laneDensity="6.60" occupancy="3.08" waitingTime="0.00" timeLoss="0.01" speed="19.56" speedRelative="1.00" departed="0" arrived="0" entered="2" left="0" laneChangedFrom="0" laneChangedTo="0"/>
    </interval>
    <interval begin="18.00" end="24.00" id="dump_6">
        <edge id="1/1to2/1" sampledSeconds="35.71" traveltime="11.45" overlapTraveltime="11.72" density="59.50" overlapDensity="61.91" laneDensity="59.50" occupancy="27.41" waitingTime="0.40" timeLoss="19.99" speed="8.63" speedRelative="0.44" departed="2" arrived="0" entered="0" left="4" laneChangedFrom="0" laneChangedTo="0"/>
        <edge id="2/1to3/1" sampledSeconds="21.12" traveltime="5.66" overlapTraveltime="5.93" density="35.24" overlapDensity="36.62" laneDensity="35.24" occupancy="17.37" waitingTime="0.00" timeLoss="2.75" speed="17.05" speedRelative="0.87" departed="0" arrived="0" entered="4" left="3" laneChangedFrom="0" laneChangedTo="0"/>
        <edge id="3/1to4/1" sampledSeconds="18.11" traveltime="4.98" overlapTraveltime="5.24" density="30.07" overlapDensity="31.40" laneDensity="30.07" occupancy="15.02" waitingTime="0.00" timeLoss="0.27" speed="19.31" speedRelative="0.99" departed="0" arrived="0" entered="3" left="3" laneChangedFrom="0" laneChangedTo="0"/>
        <edge id="4/1to5/1" sampledSeconds="15.93" traveltime="4.91" overlapTraveltime="5.17" density="26.69" overlapDensity="27.62" laneDensity="26.69" occupancy="13.25" waitingTime="0.00" timeLoss="0.02" speed="19.58" speedRelative="1.00" departed="0" arrived="0" entered="3" left="3" laneChangedFrom="0" laneChangedTo="0"/>
        <edge id="5/1to6/1" sampledSeconds="5.67" traveltime="4.91" overlapTraveltime="5.16" density="9.84" overlapDensity="9.84" laneDensity="9.84" occupancy="4.70" waitingTime="0.00" timeLoss="0.00" speed="19.60" speedRelative="1.00" departed="0" arrived="0" entered="2" left="0" laneChangedFrom="0" laneChangedTo="0"/>
    </interval>
    <interval begin="24.00" end="30.00" id="dump_6">
        <edge id="1/1to2/1" sampledSeconds="27.31" traveltime="9.30" overlapTraveltime="9.60" density="45.72" overlapDensity="47.35" laneDensity="45.72" occupancy="20.62" waitingTime="0.40" timeLoss="12.64" speed="10.53" speedRelative="0.54" departed="2" arrived="0" entered="0" left="3" laneChangedFrom="0" laneChangedTo="0"/>
        <edge id="2/1to3/1" sampledSeconds="20.75" traveltime="5.40" overlapTraveltime="5.66" density="34.17" overlapDensity="35.98" laneDensity="34.17" occupancy="17.13" waitingTime="0.00" timeLoss="1.82" speed="17.88" speedRelative="0.91" departed="0" arrived="0" entered="3" left="4" laneChangedFrom="0" laneChangedTo="0"/>
        <edge id="3/1to4/1" sampledSeconds="19.07" traveltime="4.96" overlapTraveltime="5.21" density="31.30" overlapDensity="33.07" laneDensity="31.30" occupancy="15.64" waitingTime="0.00" timeLoss="0.19" speed="19.40" speedRelative="0.99" departed="0" arrived="0" entered="4" left="4" laneChangedFrom="0" laneChangedTo="0"/>
        <edge id="4/1to5/1" sampledSeconds="18.06" traveltime="4.91" overlapTraveltime="5.16" density="29.59" overlapDensity="31.31" laneDensity="29.59" occupancy="14.77" waitingTime="0.00" timeLoss="0.02" speed="19.58" speedRelative="1.00" departed="0" arrived="0" entered="4" left="3" laneChangedFrom="0" laneChangedTo="0"/>
        <edge id="5/1to6/1" sampledSeconds="16.70" traveltime="4.90" overlapTraveltime="5.16" density="27.63" overlapDensity="28.96" laneDensity="27.63" occupancy="13.71" waitingTime="0.00" timeLoss="0.00" speed="19.60" speedRelative="1.00" departed="0" arrived="0" entered="4" left="3" laneChangedFrom="0" laneChangedTo="0"/>
        <edge id="6/1to7/1" sampledSeconds="8.36" traveltime="4.90" overlapTraveltime="5.16" density="14.50" overlapDensity="14.50" laneDensity="14.50" occupancy="6.92" waitingTime="0.00" timeLoss="0.00" speed="19.60" speedRelative="1.00" departed="0" arrived="0" entered="3" left="0" laneChangedFrom="0" laneChangedTo="0"/>
    </interval>
    <interval begin="30.00" end="36.00" id="dump_6">
        <edge id="1/1to2/1" sampledSeconds="22.01" traveltime="9.33" overlapTraveltime="9.55" density="36.71" overlapDensity="38.17" laneDensity="36.71" occupancy="16.09" waitingTime="0.40" timeLoss="10.12" speed="10.59" speedRelative="0.54" departed="3" arrived="0" entered="0" left="3" laneChangedFrom="0" laneChangedTo="0"/>
        <edge id="2/1to3/1" sampledSeconds="17.29" traveltime="5.13" overlapTraveltime="5.38" density="28.17" overlapDensity="29.97" laneDensity="28.17" occupancy="14.17" waitingTime="0.00" timeLoss="0.72" speed="18.79" speedRelative="0.96" departed="0" arrived="0" entered="3" left="4" laneChangedFrom="0" laneChangedTo="0"/>
        <edge id="3/1to4/1" sampledSeconds="19.62" traveltime="4.94" overlapTraveltime="5.19" density="32.24" overlapDensity="34.01" laneDensity="32.24" occupancy="16.11" waitingTime="0.00" timeLoss="0.12" speed="19.48" speedRelative="0.99" departed="0" arrived="0" entered="4" left="4" laneChangedFrom="0" laneChangedTo="0"/>
        <edge id="4/1to5/1" sampledSeconds="18.90" traveltime="4.91" overlapTraveltime="5.16" density="31.33" overlapDensity="32.77" laneDensity="31.33" occupancy="15.62" waitingTime="0.00" timeLoss="0.01" speed="19.59" speedRelative="1.00" departed="0" arrived="0" entered="4" left="4" laneChangedFrom="0" laneChangedTo="0"/>
        <edge id="5/1to6/1" sampledSeconds="18.19" traveltime="4.90" overlapTraveltime="5.16" density="30.21" overlapDensity="31.54" laneDensity="30.21" occupancy="15.11" waitingTime="0.00" timeLoss="0.00" speed="19.60" speedRelative="1.00" departed="0" arrived="0" entered="3" left="3" laneChangedFrom="0" laneChangedTo="0"/>
        <edge id="6/1to7/1" sampledSeconds="16.83" traveltime="4.90" overlapTraveltime="5.16" density="27.71" overlapDensity="29.18" laneDensity="27.71" occupancy="13.92" waitingTime="0.00" timeLoss="0.00" speed="19.60" speedRelative="1.00" departed="0" arrived="0" entered="3" left="4" laneChangedFrom="0" laneChangedTo="0"/>
        <edge id="7/1to8/1" sampledSeconds="10.58" traveltime="4.90" overlapTraveltime="5.16" density="17.89" overlapDensity="18.34" laneDensity="17.89" occupancy="8.73" waitingTime="0.00" timeLoss="0.00" speed="19.60" speedRelative="1.00" departed="0" arrived="0" entered="3" left="1" laneChangedFrom="0" laneChangedTo="0"/>
        <edge id="8/1to9/1" sampledSeconds="0.71" traveltime="4.90" overlapTraveltime="5.16" density="1.22" overlapDensity="1.22" laneDensity="1.22" occupancy="0.50" waitingTime="0.00" timeLoss="0.00" speed="19.60" speedRelative="1.00" departed="0" arrived="0" entered="1" left="0" laneChangedFrom="0" laneChangedTo="0"/>
    </interval>
    <interval begin="36.00" end="42.00" id="dump_6">
        <edge id="1/1to2/1" sampledSeconds="22.28" traveltime="9.49" overlapTraveltime="9.79" density="37.68" overlapDensity="38.63" laneDensity="37.68" occupancy="16.04" waitingTime="0.60" timeLoss="10.54" speed="10.33" speedRelative="0.53" departed="2" arrived="0" entered="0" left="2" laneChangedFrom="0" laneChangedTo="0"/>
        <edge id="2/1to3/1" sampledSeconds="12.18" traveltime="5.03" overlapTraveltime="5.28" density="20.22" overlapDensity="21.11" laneDensity="20.22" occupancy="10.10" waitingTime="0.00" timeLoss="0.28" speed="19.14" speedRelative="0.98" departed="0" arrived="0" entered="2" left="2" laneChangedFrom="0" laneChangedTo="0"/>
        <edge id="3/1to4/1" sampledSeconds="15.52" traveltime="4.92" overlapTraveltime="5.17" density="25.58" overlapDensity="26.90" laneDensity="25.58" occupancy="12.90" waitingTime="0.00" timeLoss="0.04" speed="19.55" speedRelative="1.00" departed="0" arrived="0" entered="2" left="3" laneChangedFrom="0" laneChangedTo="0"/>
        <edge id="4/1to5/1" sampledSeconds="19.37" traveltime="4.91" overlapTraveltime="5.16" density="31.93" overlapDensity="33.59" laneDensity="31.93" occupancy="16.01" waitingTime="0.00" timeLoss="0.01" speed="19.59" speedRelative="1.00" departed="0" arrived="0" entered="3" left="3" laneChangedFrom="0" laneChangedTo="0"/>
        <edge id="5/1to6/1" sampledSeconds="19.08" traveltime="4.90" overlapTraveltime="5.16" density="31.32" overlapDensity="33.08" laneDensity="31.32" occupancy="15.66" waitingTime="0.00" timeLoss="0.00" speed="19.60" speedRelative="1.00" departed="0" arrived="0" entered="4" left="4" laneChangedFrom="0" laneChangedTo="0"/>
        <edge id="6/1to7/1" sampledSeconds="18.39" traveltime="4.90" overlapTraveltime="5.16" density="30.26" overlapDensity="31.89" laneDensity="30.26" occupancy="15.07" waitingTime="0.00" timeLoss="0.00" speed="19.60" speedRelative="1.00" departed="0" arrived="0" entered="4" left="3" laneChangedFrom="0" laneChangedTo="0"/>
        <edge id="7/1to8/1" sampledSeconds="17.42" traveltime="4.90" overlapTraveltime="5.16" density="28.87" overlapDensity="30.20" laneDensity="28.87" occupancy="14.33" waitingTime="0.00" timeLoss="0.00" speed="19.60" speedRelative="1.00" departed="0" arrived="0" entered="4" left="3" laneChangedFrom="0" laneChangedTo="0"/>
        <edge id="8/1to9/1" sampledSeconds="12.62" traveltime="4.90" overlapTraveltime="5.16" density="21.43" overlapDensity="21.87" laneDensity="21.43" occupancy="10.49" waitingTime="0.00" timeLoss="0.00" speed="19.60" speedRelative="1.00" departed="0" arrived="0" entered="3" left="1" laneChangedFrom="0" laneChangedTo="0"/>
        <edge id="9/1to10/1" sampledSeconds="1.64" traveltime="4.90" overlapTraveltime="5.16" density="2.85" overlapDensity="2.85" laneDensity="2.85" occupancy="1.32" waitingTime="0.00" timeLoss="0.00" speed="19.60" speedRelative="1.00" departed="0" arrived="0" entered="1" left="0" laneChangedFrom="0" laneChangedTo="0"/>
    </interval>
    <interval begin="42.00" end="48.00" id="dump_6">
        <edge id="1/1to2/1" sampledSeconds="22.27" traveltime="9.32" overlapTraveltime="9.61" density="37.59" overlapDensity="38.61" laneDensity="37.59" occupancy="16.04" waitingTime="0.40" timeLoss="10.31" speed="10.52" speedRelative="0.54" departed="2" arrived="0" entered="0" left="3" laneChangedFrom="0" laneChangedTo="0"/>
        <edge id="10/1to1/1" sampledSeconds="3.07" traveltime="4.99" overlapTraveltime="5.25" density="5.32" overlapDensity="5.32" laneDensity="5.32" occupancy="2.44" waitingTime="0.00" timeLoss="0.05" speed="19.27" speedRelative="0.98" departed="0" arrived="0" entered="2" left="0" laneChangedFrom="0" laneChangedTo="0"/>
        <edge id="2/1to3/1" sampledSeconds="12.08" traveltime="5.02" overlapTraveltime="5.28" density="19.84" overlapDensity="20.94" laneDensity="19.84" occupancy="9.99" waitingTime="0.00" timeLoss="0.27" speed="19.16" speedRelative="0.98" departed="0" arrived="0" entered="2" left="3" laneChangedFrom="0" laneChangedTo="0"/>
        <edge id="3/1to4/1" sampledSeconds="11.93" traveltime="4.91" overlapTraveltime="5.17" density="19.35" overlapDensity="20.68" laneDensity="19.35" occupancy="9.79" waitingTime="0.00" timeLoss="0.02" speed="19.57" speedRelative="1.00" departed="0" arrived="0" entered="2" left="3" laneChangedFrom="0" laneChangedTo="0"/>
        <edge id="4/1to5/1" sampledSeconds="14.56" traveltime="4.91" overlapTraveltime="5.16" density="23.47" overlapDensity="25.24" laneDensity="23.47" occupancy="11.88" waitingTime="0.00" timeLoss="0.00" speed="19.60" speedRelative="1.00" departed="0" arrived="0" entered="3" left="4" laneChangedFrom="0" laneChangedTo="0"/>
        <edge id="5/1to6/1" sampledSeconds="19.07" traveltime="4.90" overlapTraveltime="5.16" density="31.29" overlapDensity="33.06" laneDensity="31.29" occupancy="15.65" waitingTime="0.00" timeLoss="0.00" speed="19.60" speedRelative="1.00" departed="0" arrived="0" entered="4" left="4" laneChangedFrom="0" laneChangedTo="0"/>
        <edge id="6/1to7/1" sampledSeconds="19.25" traveltime="4.90" overlapTraveltime="5.16" density="31.61" overlapDensity="33.38" laneDensity="31.61" occupancy="15.80" waitingTime="0.00" timeLoss="0.00" speed="19.60" speedRelative="1.00" departed="0" arrived="0" entered="4" left="4" laneChangedFrom="0" laneChangedTo="0"/>
        <edge id="7/1to8/1" sampledSeconds="18.58" traveltime="4.90" overlapTraveltime="5.16" density="30.59" overlapDensity="32.21" laneDensity="30.59" occupancy="15.29" waitingTime="0.00" timeLoss="0.00" speed="19.60" speedRelative="1.00" departed="0" arrived="0" entered="4" left="4" laneChangedFrom="0" laneChangedTo="0"/>
        <edge id="8/1to9/1" sampledSeconds="17.51" traveltime="4.90" overlapTraveltime="5.16" density="28.68" overlapDensity="30.35" laneDensity="28.68" occupancy="14.43" waitingTime="0.00" timeLoss="0.00" speed="19.60" speedRelative="1.00" departed="0" arrived="0" entered="4" left="4" laneChangedFrom="0" laneChangedTo="0"/>
        <edge id="9/1to10/1" sampledSeconds="14.16" traveltime="4.90" overlapTraveltime="5.16" density="23.66" overlapDensity="24.54" laneDensity="23.66" occupancy="11.68" waitingTime="0.00" timeLoss="0.00" speed="19.60" speedRelative="1.00" departed="0" arrived="0" entered="4" left="2" laneChangedFrom="0" laneChangedTo="0"/>
    </interval>
    <interval begin="48.00" end="54.00" id="dump_6">
        <edge id="1/1to2/1" sampledSeconds="18.45" traveltime="7.11" overlapTraveltime="7.37" density="30.63" overlapDensity="31.99" laneDensity="30.63" occupancy="15.19" waitingTime="0.00" timeLoss="5.54" speed="13.72" speedRelative="0.70" departed="0" arrived="0" entered="2" left="2" laneChangedFrom="0" laneChangedTo="0"/>
        <edge id="10/1to1/1" sampledSeconds="16.66" traveltime="5.22" overlapTraveltime="5.54" density="27.71" overlapDensity="28.88" laneDensity="27.71" occupancy="13.81" waitingTime="0.00" timeLoss="1.13" speed="18.27" speedRelative="0.93" departed="0" arrived="0" entered="3" left="2" laneChangedFrom="0" laneChangedTo="0"/>
        <edge id="2/1to3/1" sampledSeconds="12.11" traveltime="5.03" overlapTraveltime="5.29" density="19.88" overlapDensity="21.00" laneDensity="19.88" occupancy="9.84" waitingTime="0.00" timeLoss="0.30" speed="19.12" speedRelative="0.98" departed="0" arrived="0" entered="3" left="2" laneChangedFrom="0" laneChangedTo="0"/>
        <edge id="3/1to4/1" sampledSeconds="11.76" traveltime="4.91" overlapTraveltime="5.17" density="19.50" overlapDensity="20.38" laneDensity="19.50" occupancy="9.64" waitingTime="0.00" timeLoss="0.02" speed="19.57" speedRelative="1.00" departed="0" arrived="0" entered="3" left="2" laneChangedFrom="0" laneChangedTo="0"/>
        <edge id="4/1to5/1" sampledSeconds="11.88" traveltime="4.91" overlapTraveltime="5.16" density="19.72" overlapDensity="20.60" laneDensity="19.72" occupancy="9.83" waitingTime="0.00" timeLoss="0.00" speed="19.60" speedRelative="1.00" departed="0" arrived="0" entered="2" left="2" laneChangedFrom="0" laneChangedTo="0"/>
        <edge id="5/1to6/1" sampledSeconds="13.72" traveltime="4.90" overlapTraveltime="5.16" density="22.47" overlapDensity="23.79" laneDensity="22.47" occupancy="11.34" waitingTime="0.00" timeLoss="0.00" speed="19.60" speedRelative="1.00" departed="0" arrived="0" entered="2" left="3" laneChangedFrom="0" laneChangedTo="0"/>
        <edge id="6/1to7/1" sampledSeconds="18.70" traveltime="4.90" overlapTraveltime="5.16" density="31.09" overlapDensity="32.42" laneDensity="31.09" occupancy="15.54" waitingTime="0.00" timeLoss="0.00" speed="19.60" speedRelative="1.00" departed="0" arrived="0" entered="3" left="3" laneChangedFrom="0" laneChangedTo="0"/>
        <edge id="7/1to8/1" sampledSeconds="19.08" traveltime="4.90" overlapTraveltime="5.16" density="31.61" overlapDensity="33.09" laneDensity="31.61" occupancy="15.81" waitingTime="0.00" timeLoss="0.00" speed="19.60" speedRelative="1.00" departed="0" arrived="0" entered="3" left="3" laneChangedFrom="0" laneChangedTo="0"/>
        <edge id="8/1to9/1" sampledSeconds="18.65" traveltime="4.90" overlapTraveltime="5.16" density="30.91" overlapDensity="32.33" laneDensity="30.91" occupancy="15.36" waitingTime="0.00" timeLoss="0.00" speed="19.60" speedRelative="1.00" departed="0" arrived="0" entered="3" left="3" laneChangedFrom="0" laneChangedTo="0"/>
        <edge id="9/1to10/1" sampledSeconds="17.90" traveltime="4.90" overlapTraveltime="5.16" density="29.71" overlapDensity="31.04" laneDensity="29.71" occupancy="14.78" waitingTime="0.00" timeLoss="0.00" speed="19.60" speedRelative="1.00" departed="0" arrived="0" entered="3" left="3" laneChangedFrom="0" laneChangedTo="0"/>
    </interval>
    <interval begin="54.00" end="60.00" id="dump_6">
        <edge id="1/1to2/1" sampledSeconds="21.99" traveltime="5.56" overlapTraveltime="5.84" density="36.69" overlapDensity="38.12" laneDensity="36.69" occupancy="18.25" waitingTime="0.00" timeLoss="2.55" speed="17.33" speedRelative="0.88" departed="0" arrived="0" entered="4" left="3" laneChangedFrom="0" laneChangedTo="0"/>
        <edge id="10/1to1/1" sampledSeconds="18.24" traveltime="4.93" overlapTraveltime="5.19" density="29.78" overlapDensity="31.62" laneDensity="29.78" occupancy="14.91" waitingTime="0.00" timeLoss="0.12" speed="19.47" speedRelative="0.99" departed="0" arrived="0" entered="4" left="4" laneChangedFrom="0" laneChangedTo="0"/>
        <edge id="2/1to3/1" sampledSeconds="14.14" traveltime="5.05" overlapTraveltime="5.31" density="23.62" overlapDensity="24.51" laneDensity="23.62" occupancy="11.68" waitingTime="0.00" timeLoss="0.40" speed="19.05" speedRelative="0.97" departed="0" arrived="0" entered="3" left="2" laneChangedFrom="0" laneChangedTo="0"/>
        <edge id="3/1to4/1" sampledSeconds="11.88" traveltime="4.91" overlapTraveltime="5.17" density="19.71" overlapDensity="20.59" laneDensity="19.71" occupancy="9.85" waitingTime="0.00" timeLoss="0.02" speed="19.57" speedRelative="1.00" departed="0" arrived="0" entered="2" left="2" laneChangedFrom="0" laneChangedTo="0"/>
        <edge id="4/1to5/1" sampledSeconds="11.77" traveltime="4.91" overlapTraveltime="5.16" density="19.53" overlapDensity="20.41" laneDensity="19.53" occupancy="9.76" waitingTime="0.00" timeLoss="0.00" speed="19.60" speedRelative="1.00" departed="0" arrived="0" entered="2" left="2" laneChangedFrom="0" laneChangedTo="0"/>
        <edge id="5/1to6/1" sampledSeconds="11.88" traveltime="4.90" overlapTraveltime="5.16" density="19.72" overlapDensity="20.60" laneDensity="19.72" occupancy="9.86" waitingTime="0.00" timeLoss="0.00" speed="19.60" speedRelative="1.00" departed="0" arrived="0" entered="2" left="2" laneChangedFrom="0" laneChangedTo="0"/>
        <edge id="6/1to7/1" sampledSeconds="12.78" traveltime="4.90" overlapTraveltime="5.16" density="20.84" overlapDensity="22.16" laneDensity="20.84" occupancy="10.53" waitingTime="0.00" timeLoss="0.00" speed="19.60" speedRelative="1.00" departed="0" arrived="0" entered="2" left="3" laneChangedFrom="0" laneChangedTo="0"/>
        <edge id="7/1to8/1" sampledSeconds="18.05" traveltime="4.90" overlapTraveltime="5.16" density="29.53" overlapDensity="31.30" laneDensity="29.53" occupancy="14.87" waitingTime="0.00" timeLoss="0.00" speed="19.60" speedRelative="1.00" departed="0" arrived="0" entered="3" left="4" laneChangedFrom="0" laneChangedTo="0"/>
        <edge id="8/1to9/1" sampledSeconds="19.41" traveltime="4.90" overlapTraveltime="5.16" density="31.87" overlapDensity="33.64" laneDensity="31.87" occupancy="15.94" waitingTime="0.00" timeLoss="0.00" speed="19.60" speedRelative="1.00" departed="0" arrived="0" entered="4" left="4" laneChangedFrom="0" laneChangedTo="0"/>
        <edge id="9/1to10/1" sampledSeconds="18.89" traveltime="4.90" overlapTraveltime="5.16" density="30.98" overlapDensity="32.75" laneDensity="30.98" occupancy="15.49" waitingTime="0.00" timeLoss="0.00" speed="19.60" speedRelative="1.00" departed="0" arrived="0" entered="4" left="4" laneChangedFrom="0" laneChangedTo="0"/>
    </interval>
    <interval begin="60.00" end="66.00" id="dump_6">
        <edge id="1/1to2/1" sampledSeconds="19.35" traveltime="4.98" overlapTraveltime="5.25" density="31.69" overlapDensity="33.54" laneDensity="31.69" occupancy="15.97" waitingTime="0.00" timeLoss="0.32" speed="19.27" speedRelative="0.98" departed="0" arrived="0" entered="3" left="4" laneChangedFrom="0" laneChangedTo="0"/>
        <edge id="10/1to1/1" sampledSeconds="18.75" traveltime="4.90" overlapTraveltime="5.16" density="31.18" overlapDensity="32.50" laneDensity="31.18" occupancy="15.59" waitingTime="0.00" timeLoss="0.00" speed="19.60" speedRelative="1.00" departed="0" arrived="0" entered="3" left="3" laneChangedFrom="0" laneChangedTo="0"/>
        <edge id="2/1to3/1" sampledSeconds="21.79" traveltime="5.04" overlapTraveltime="5.30" density="36.00" overlapDensity="37.79" laneDensity="36.00" occupancy="17.98" waitingTime="0.00" timeLoss="0.56" speed="19.10" speedRelative="0.97" departed="0" arrived="0" entered="4" left="4" laneChangedFrom="0" laneChangedTo="0"/>
        <edge id="3/1to4/1" sampledSeconds="15.00" traveltime="4.91" overlapTraveltime="5.17" density="25.12" overlapDensity="26.00" laneDensity="25.12" occupancy="12.34" waitingTime="0.00" timeLoss="0.03" speed="19.56" speedRelative="1.00" departed="0" arrived="0" entered="4" left="2" laneChangedFrom="0" laneChangedTo="0"/>
        <edge id="4/1to5/1" sampledSeconds="11.86" traveltime="4.91" overlapTraveltime="5.16" density="19.51" overlapDensity="20.57" laneDensity="19.51" occupancy="9.82" waitingTime="0.00" timeLoss="0.00" speed="19.60" speedRelative="1.00" departed="0" arrived="0" entered="2" left="3" laneChangedFrom="0" laneChangedTo="0"/>
        <edge id="5/1to6/1" sampledSeconds="11.75" traveltime="4.90" overlapTraveltime="5.16" density="19.05" overlapDensity="20.37" laneDensity="19.05" occupancy="9.63" waitingTime="0.00" timeLoss="0.00" speed="19.60" speedRelative="1.00" departed="0" arrived="0" entered="2" left="3" laneChangedFrom="0" laneChangedTo="0"/>
        <edge id="6/1to7/1" sampledSeconds="11.77" traveltime="4.90" overlapTraveltime="5.16" density="19.09" overlapDensity="20.41" laneDensity="19.09" occupancy="9.57" waitingTime="0.00" timeLoss="0.00" speed="19.60" speedRelative="1.00" departed="0" arrived="0" entered="3" left="3" laneChangedFrom="0" laneChangedTo="0"/>
        <edge id="7/1to8/1" sampledSeconds="12.43" traveltime="4.90" overlapTraveltime="5.16" density="20.23" overlapDensity="21.55" laneDensity="20.23" occupancy="10.11" waitingTime="0.00" timeLoss="0.00" speed="19.60" speedRelative="1.00" departed="0" arrived="0" entered="3" left="3" laneChangedFrom="0" laneChangedTo="0"/>
        <edge id="8/1to9/1" sampledSeconds="17.19" traveltime="4.90" overlapTraveltime="5.16" density="28.06" overlapDensity="29.81" laneDensity="28.06" occupancy="14.14" waitingTime="0.00" timeLoss="0.00" speed="19.60" speedRelative="1.00" departed="0" arrived="0" entered="3" left="4" laneChangedFrom="0" laneChangedTo="0"/>
        <edge id="9/1to10/1" sampledSeconds="19.19" traveltime="4.90" overlapTraveltime="5.16" density="31.95" overlapDensity="33.28" laneDensity="31.95" occupancy="15.91" waitingTime="0.00" timeLoss="0.00" speed="19.60" speedRelative="1.00" departed="0" arrived="0" entered="4" left="3" laneChangedFrom="0" laneChangedTo="0"/>
    </interval>
    <interval begin="66.00" end="72.00" id="dump_6">
        <edge id="1/1to2/1" sampledSeconds="19.08" traveltime="4.90" overlapTraveltime="5.16" density="31.31" overlapDensity="33.08" laneDensity="31.31" occupancy="15.66" waitingTime="0.00" timeLoss="0.00" speed="19.60" speedRelative="1.00" departed="0" arrived="0" entered="4" left="4" laneChangedFrom="0" laneChangedTo="0"/>
        <edge id="10/1to1/1" sampledSeconds="19.51" traveltime="4.90" overlapTraveltime="5.16" density="32.06" overlapDensity="33.83" laneDensity="32.06" occupancy="16.03" waitingTime="0.00" timeLoss="0.00" speed="19.60" speedRelative="1.00" departed="0" arrived="0" entered="4" left="4" laneChangedFrom="0" laneChangedTo="0"/>
        <edge id="2/1to3/1" sampledSeconds="19.30" traveltime="4.92" overlapTraveltime="5.17" density="31.68" overlapDensity="33.46" laneDensity="31.68" occupancy="15.84" waitingTime="0.00" timeLoss="0.05" speed="19.55" speedRelative="1.00" departed="0" arrived="0" entered="4" left="4" laneChangedFrom="0" laneChangedTo="0"/>
        <edge id="3/1to4/1" sampledSeconds="21.41" traveltime="4.92" overlapTraveltime="5.17" density="35.34" overlapDensity="37.12" laneDensity="35.34" occupancy="17.67" waitingTime="0.00" timeLoss="0.05" speed="19.56" speedRelative="1.00" departed="0" arrived="0" entered="4" left="5" laneChangedFrom="0" laneChangedTo="0"/>
        <edge id="4/1to5/1" sampledSeconds="16.26" traveltime="4.91" overlapTraveltime="5.16" density="27.03" overlapDensity="28.18" laneDensity="27.03" occupancy="13.34" waitingTime="0.00" timeLoss="0.00" speed="19.60" speedRelative="1.00" departed="0" arrived="0" entered="4" left="2" laneChangedFrom="0" laneChangedTo="0"/>
        <edge id="5/1to6/1" sampledSeconds="11.78" traveltime="4.90" overlapTraveltime="5.16" density="19.53" overlapDensity="20.42" laneDensity="19.53" occupancy="9.65" waitingTime="0.00" timeLoss="0.00" speed="19.60" speedRelative="1.00" departed="0" arrived="0" entered="3" left="2" laneChangedFrom="0" laneChangedTo="0"/>
        <edge id="6/1to7/1" sampledSeconds="11.80" traveltime="4.90" overlapTraveltime="5.16" density="19.58" overlapDensity="20.47" laneDensity="19.58" occupancy="9.76" waitingTime="0.00" timeLoss="0.00" speed="19.60" speedRelative="1.00" departed="0" arrived="0" entered="2" left="2" laneChangedFrom="0" laneChangedTo="0"/>