<?xml version="1.0" encoding="UTF-8"?>

<!-- generated on 2025-10-16T15:15:43.246878+01:00 by Eclipse SUMO sumo v1_24_0+1462-92869d8c101
<sumoConfiguration xmlns:xsi="http://www.w3.org/2001/XMLSchema-instance" xsi:noNamespaceSchemaLocation="http://sumo.dlr.de/xsd/sumoConfiguration.xsd">

    <input>
        <net-file value="input_net4.net.xml"/>
        <route-files value="input_routes.rou.xml"/>
    </input>

    <output>
        <tripinfo-output value="tripinfo.xml"/>
    </output>

    <report>
        <no-step-log value="true"/>
    </report>

    <traci_server>
        <remote-port value="58963"/>
    </traci_server>

    <mesoscopic>
        <mesosim value="true"/>
        <meso-junction-control value="true"/>
    </mesoscopic>

</sumoConfiguration>
-->

<tripinfos xmlns:xsi="http://www.w3.org/2001/XMLSchema-instance" xsi:noNamespaceSchemaLocation="http://sumo.dlr.de/xsd/tripinfo_file.xsd">
    <tripinfo id="v.0" depart="0.00" departLane="A0A1_0" departPos="0.00" departSpeed="13.89" departDelay="0.00" arrival="20.00" arrivalLane="A2A3_0" arrivalPos="92.10" arrivalSpeed="13.89" duration="20.00" routeLength="274.80" waitingTime="0.00" waitingCount="0" stopTime="0.00" timeLoss="0.00" rerouteNo="0" devices="tripinfo_v.0" vType="DEFAULT_VEHTYPE" speedFactor="1.00" vaporized=""/>
    <tripinfo id="v.1" depart="10.00" departLane="A0A1_0" departPos="0.00" departSpeed="13.89" departDelay="0.00" arrival="30.00" arrivalLane="A2A3_0" arrivalPos="92.10" arrivalSpeed="13.89" duration="20.00" routeLength="274.80" waitingTime="0.00" waitingCount="0" stopTime="0.00" timeLoss="0.00" rerouteNo="0" devices="tripinfo_v.1" vType="DEFAULT_VEHTYPE" speedFactor="1.00" vaporized=""/>
    <tripinfo id="v.2" depart="20.00" departLane="A0A1_0" departPos="0.00" departSpeed="13.89" departDelay="0.00" arrival="40.00" arrivalLane="A2A3_0" arrivalPos="92.10" arrivalSpeed="13.89" duration="20.00" routeLength="274.80" waitingTime="0.00" waitingCount="0" stopTime="0.00" timeLoss="0.00" rerouteNo="0" devices="tripinfo_v.2" vType="DEFAULT_VEHTYPE" speedFactor="1.00" vaporized=""/>
    <tripinfo id="v.3" depart="30.00" departLane="A0A1_0" departPos="0.00" departSpeed="13.89" departDelay="0.00" arrival="50.00" arrivalLane="A2A3_0" arrivalPos="92.10" arrivalSpeed="13.89" duration="20.00" routeLength="274.80" waitingTime="0.00" waitingCount="0" stopTime="0.00" timeLoss="0.00" rerouteNo="0" devices="tripinfo_v.3" vType="DEFAULT_VEHTYPE" speedFactor="1.00" vaporized=""/>
    <tripinfo id="v.4" depart="40.00" departLane="A0A1_0" departPos="0.00" departSpeed="13.89" departDelay="0.00" arrival="163.00" arrivalLane="A2A3_0" arrivalPos="92.10" arrivalSpeed="13.89" duration="123.00" routeLength="274.80" waitingTime="0.00" waitingCount="0" stopTime="0.00" timeLoss="103.00" rerouteNo="0" devices="tripinfo_v.4" vType="DEFAULT_VEHTYPE" speedFactor="1.00" vaporized=""/>
    <tripinfo id="v.5" depart="50.00" departLane="A0A1_0" departPos="0.00" departSpeed="13.89" departDelay="0.00" arrival="166.00" arrivalLane="A2A3_0" arrivalPos="92.10" arrivalSpeed="13.89" duration="116.00" routeLength="274.80" waitingTime="0.00" waitingCount="0" stopTime="0.00" timeLoss="95.27" rerouteNo="0" devices="tripinfo_v.5" vType="DEFAULT_VEHTYPE" speedFactor="1.00" vaporized=""/>
    <tripinfo id="v.6" depart="60.00" departLane="A0A1_0" departPos="0.00" departSpeed="13.89" departDelay="0.00" arrival="168.00" arrivalLane="A2A3_0" arrivalPos="92.10" arrivalSpeed="13.89" duration="108.00" routeLength="274.80" waitingTime="0.00" waitingCount="0" stopTime="0.00" timeLoss="87.54" rerouteNo="0" devices="tripinfo_v.6" vType="DEFAULT_VEHTYPE" speedFactor="1.00" vaporized=""/>
    <tripinfo id="v.7" depart="70.00" departLane="A0A1_0" departPos="0.00" departSpeed="13.89" departDelay="0.00" arrival="170.00" arrivalLane="A2A3_0" arrivalPos="92.10" arrivalSpeed="13.89" duration="100.00" routeLength="274.80" waitingTime="0.00" waitingCount="0" stopTime="0.00" timeLoss="79.80" rerouteNo="0" devices="tripinfo_v.7" vType="DEFAULT_VEHTYPE" speedFactor="1.00" vaporized=""/>
    <tripinfo id="v.8" depart="80.00" departLane="A0A1_0" departPos="0.00" departSpeed="13.89" departDelay="0.00" arrival="172.00" arrivalLane="A2A3_0" arrivalPos="92.10" arrivalSpeed="13.89" duration="92.00" routeLength="274.80" waitingTime="0.00" waitingCount="0" stopTime="0.00" timeLoss="72.07" rerouteNo="0" devices="tripinfo_v.8" vType="DEFAULT_VEHTYPE" speedFactor="1.00" vaporized=""/>
    <tripinfo id="v.9" depart="90.00" departLane="A0A1_0" departPos="0.00" departSpeed="13.89" departDelay="0.00" arrival="175.00" arrivalLane="A2A3_0" arrivalPos="92.10" arrivalSpeed="13.89" duration="85.00" routeLength="274.80" waitingTime="0.00" waitingCount="0" stopTime="0.00" timeLoss="64.34" rerouteNo="0" devices="tripinfo_v.9" vType="DEFAULT_VEHTYPE" speedFactor="1.00" vaporized=""/>
    <tripinfo id="v.10" depart="100.00" departLane="A0A1_0" departPos="0.00" departSpeed="13.89" departDelay="0.00" arrival="177.00" arrivalLane="A2A3_0" arrivalPos="92.10" arrivalSpeed="13.89" duration="77.00" routeLength="274.80" waitingTime="0.00" waitingCount="0" stopTime="0.00" timeLoss="56.61" rerouteNo="0" devices="tripinfo_v.10" vType="DEFAULT_VEHTYPE" speedFactor="1.00" vaporized=""/>
    <tripinfo id="v.11" depart="110.00" departLane="A0A1_0" departPos="0.00" departSpeed="13.89" departDelay="0.00" arrival="179.00" arrivalLane="A2A3_0" arrivalPos="92.10" arrivalSpeed="13.89" duration="69.00" routeLength="274.80" waitingTime="0.00" waitingCount="0" stopTime="0.00" timeLoss="48.88" rerouteNo="0" devices="tripinfo_v.11" vType="DEFAULT_VEHTYPE" speedFactor="1.00" vaporized=""/>
    <tripinfo id="v.12" depart="120.00" departLane="A0A1_0" departPos="0.00" departSpeed="13.89" departDelay="0.00" arrival="181.00" arrivalLane="A2A3_0" arrivalPos="92.10" arrivalSpeed="13.89" duration="61.00" routeLength="274.80" waitingTime="0.00" waitingCount="0" stopTime="0.00" timeLoss="41.15" rerouteNo="0" devices="tripinfo_v.12" vType="DEFAULT_VEHTYPE" speedFactor="1.00" vaporized=""/>
    <tripinfo id="v.13" depart="130.00" departLane="A0A1_0" departPos="0.00" departSpeed="13.89" departDelay="0.00" arrival="183.00" arrivalLane="A2A3_0" arrivalPos="92.10" arrivalSpeed="13.89" duration="53.00" routeLength="274.80" waitingTime="0.00" waitingCount="0" stopTime="0.00" timeLoss="32.82" rerouteNo="0" devices="tripinfo_v.13" vType="DEFAULT_VEHTYPE" speedFactor="1.00" vaporized=""/>
    <tripinfo id="v.14" depart="140.00" departLane="A0A1_0" departPos="0.00" departSpeed="13.89" departDelay="0.00" arrival="185.00" arrivalLane="A2A3_0" arrivalPos="92.10" arrivalSpeed="13.89" duration="45.00" routeLength="274.80" waitingTime="0.00" waitingCount="0" stopTime="0.00" timeLoss="24.49" rerouteNo="0" devices="tripinfo_v.14" vType="DEFAULT_VEHTYPE" speedFactor="1.00" vaporized=""/>
    <tripinfo id="v.15" depart="150.00" departLane="A0A1_0" departPos="0.00" departSpeed="13.89" departDelay="0.00" arrival="186.00" arrivalLane="A2A3_0" arrivalPos="92.10" arrivalSpeed="13.89" duration="36.00" routeLength="274.80" waitingTime="0.00" waitingCount="0" stopTime="0.00" timeLoss="16.16" rerouteNo="0" devices="tripinfo_v.15" vType="DEFAULT_VEHTYPE" speedFactor="1.00" vaporized=""/>
    <tripinfo id="v.16" depart="160.00" departLane="A0A1_0" departPos="0.00" departSpeed="13.89" departDelay="0.00" arrival="188.00" arrivalLane="A2A3_0" arrivalPos="92.10" arrivalSpeed="13.89" duration="28.00" routeLength="274.80" waitingTime="0.00" waitingCount="0" stopTime="0.00" timeLoss="7.83" rerouteNo="0" devices="tripinfo_v.16" vType="DEFAULT_VEHTYPE" speedFactor="1.00" vaporized=""/>
    <tripinfo id="v.17" depart="170.00" departLane="A0A1_0" departPos="0.00" departSpeed="13.89" departDelay="0.00" arrival="190.00" arrivalLane="A2A3_0" arrivalPos="92.10" arrivalSpeed="13.89" duration="20.00" routeLength="274.80" waitingTime="0.00" waitingCount="0" stopTime="0.00" timeLoss="0.00" rerouteNo="0" devices="tripinfo_v.17" vType="DEFAULT_VEHTYPE" speedFactor="1.00" vaporized=""/>
    <tripinfo id="v.18" depart="180.00" departLane="A0A1_0" departPos="0.00" departSpeed="13.89" departDelay="0.00" arrival="200.00" arrivalLane="A2A3_0" arrivalPos="92.10" arrivalSpeed="13.89" duration="20.00" routeLength="274.80" waitingTime="0.00" waitingCount="0" stopTime="0.00" timeLoss="0.00" rerouteNo="0" devices="tripinfo_v.18" vType="DEFAULT_VEHTYPE" speedFactor="1.00" vaporized=""/>
    <tripinfo id="v.19" depart="190.00" departLane="A0A1_0" departPos="0.00" departSpeed="13.89" departDelay="0.00" arrival="210.00" arrivalLane="A2A3_0" arrivalPos="92.10" arrivalSpeed="13.89" duration="20.00" routeLength="274.80" waitingTime="0.00" waitingCount="0" stopTime="0.00" timeLoss="0.00" rerouteNo="0" devices="tripinfo_v.19" vType="DEFAULT_VEHTYPE" speedFactor="1.00" vaporized=""/>
</tripinfos>
