<?xml version="1.0" encoding="UTF-8"?>

<!-- generated on Wed Jan 21 12:09:08 2015 by SUMO Version dev-SVN-r17650I
<?xml version="1.0" encoding="UTF-8"?>

<configuration xmlns:xsi="http://www.w3.org/2001/XMLSchema-instance" xsi:noNamespaceSchemaLocation="http://sumo.dlr.de/xsd/sumoConfiguration.xsd">

    <input>
        <net-file value="net.net.xml"/>
        <route-files value="input_routes.rou.xml"/>
        <additional-files value="input_additional.add.xml"/>
    </input>

    <time>
        <begin value="0"/>
        <end value="1000"/>
    </time>

    <report>
        <xml-validation value="never"/>
        <no-duration-log value="true"/>
        <no-step-log value="true"/>
    </report>

</configuration>
-->

<meandata xmlns:xsi="http://www.w3.org/2001/XMLSchema-instance" xsi:noNamespaceSchemaLocation="http://sumo.dlr.de/xsd/meandata_file.xsd">
    <interval begin="0.00" end="900.00" id="dump_900">
        <edge id="1fi">
            <lane id="1fi_0" sampledSeconds="5116.05" traveltime="24.67" density="22.88" occupancy="11.44" waitingTime="0.00" speed="10.07" departed="79" arrived="17" entered="131" left="183" laneChangedFrom="0" laneChangedTo="0"/>
        </edge>
        <edge id="1o">
            <lane id="1o_0" sampledSeconds="6475.69" traveltime="47.06" density="14.72" occupancy="7.36" waitingTime="0.00" speed="10.38" departed="0" arrived="0" entered="139" left="131" laneChangedFrom="0" laneChangedTo="0"/>
        </edge>
        <edge id="1si">
            <lane id="1si_0" sampledSeconds="2115.49" traveltime="57.29" density="9.91" occupancy="4.96" waitingTime="1200.00" speed="4.14" departed="0" arrived="0" entered="41" left="33" laneChangedFrom="0" laneChangedTo="0"/>
            <lane id="1si_1" sampledSeconds="1474.16" traveltime="21.88" density="6.91" occupancy="3.45" waitingTime="230.00" speed="10.84" departed="0" arrived="0" entered="66" left="65" laneChangedFrom="0" laneChangedTo="0"/>
            <lane id="1si_2" sampledSeconds="6907.48" traveltime="93.93" density="32.36" occupancy="16.18" waitingTime="3691.00" speed="2.52" departed="0" arrived="0" entered="76" left="63" laneChangedFrom="0" laneChangedTo="0"/>
        </edge>
        <edge id="2fi">
            <lane id="2fi_0" sampledSeconds="5927.67" traveltime="24.62" density="26.50" occupancy="13.25" waitingTime="0.00" speed="10.09" departed="80" arrived="56" entered="163" left="177" laneChangedFrom="0" laneChangedTo="0"/>
        </edge>
        <edge id="2o">
            <lane id="2o_0" sampledSeconds="8091.84" traveltime="47.11" density="18.40" occupancy="9.20" waitingTime="0.00" speed="10.37" departed="0" arrived="0" entered="173" left="164" laneChangedFrom="0" laneChangedTo="0"/>
        </edge>
        <edge id="2si">
            <lane id="2si_0" sampledSeconds="3507.77" traveltime="57.32" density="16.43" occupancy="8.22" waitingTime="1970.00" speed="4.14" departed="0" arrived="0" entered="62" left="57" laneChangedFrom="0" laneChangedTo="0"/>
            <lane id="2si_1" sampledSeconds="2749.01" traveltime="35.39" density="12.88" occupancy="6.44" waitingTime="1043.00" speed="6.70" departed="0" arrived="0" entered="77" left="74" laneChangedFrom="0" laneChangedTo="0"/>
            <lane id="2si_2" sampledSeconds="2081.63" traveltime="55.18" density="9.75" occupancy="4.88" waitingTime="907.00" speed="4.30" departed="0" arrived="0" entered="38" left="35" laneChangedFrom="0" laneChangedTo="0"/>
        </edge>
        <edge id="3fi">
            <lane id="3fi_0" sampledSeconds="6332.16" traveltime="25.17" density="28.31" occupancy="14.16" waitingTime="0.00" speed="9.87" departed="147" arrived="80" entered="108" left="166" laneChangedFrom="0" laneChangedTo="0"/>
        </edge>
        <edge id="3o">
            <lane id="3o_0" sampledSeconds="5505.12" traveltime="47.05" density="12.52" occupancy="6.26" waitingTime="0.00" speed="10.39" departed="0" arrived="0" entered="124" left="108" laneChangedFrom="0" laneChangedTo="0"/>
        </edge>
        <edge id="3si">
            <lane id="3si_0" sampledSeconds="3011.91" traveltime="42.42" density="14.11" occupancy="7.06" waitingTime="1417.00" speed="5.59" departed="0" arrived="0" entered="70" left="65" laneChangedFrom="0" laneChangedTo="0"/>
            <lane id="3si_1" sampledSeconds="3208.51" traveltime="46.71" density="15.03" occupancy="7.52" waitingTime="1643.00" speed="5.08" departed="0" arrived="0" entered="68" left="62" laneChangedFrom="0" laneChangedTo="0"/>
            <lane id="3si_2" sampledSeconds="1451.24" traveltime="51.90" density="6.80" occupancy="3.40" waitingTime="651.00" speed="4.57" departed="0" arrived="0" entered="28" left="22" laneChangedFrom="0" laneChangedTo="0"/>
        </edge>
        <edge id="4fi">
            <lane id="4fi_0" sampledSeconds="4061.81" traveltime="23.84" density="18.16" occupancy="9.08" waitingTime="0.00" speed="10.42" departed="0" arrived="0" entered="167" left="167" laneChangedFrom="0" laneChangedTo="0"/>
        </edge>
        <edge id="4o">
            <lane id="4o_0" sampledSeconds="8271.22" traveltime="47.01" density="18.81" occupancy="9.40" waitingTime="0.00" speed="10.39" departed="0" arrived="0" entered="182" left="167" laneChangedFrom="0" laneChangedTo="0"/>
        </edge>
        <edge id="4si">
            <lane id="4si_0" sampledSeconds="3097.18" traveltime="60.74" density="14.51" occupancy="7.26" waitingTime="1817.00" speed="3.90" departed="0" arrived="0" entered="51" left="43" laneChangedFrom="0" laneChangedTo="0"/>
            <lane id="4si_1" sampledSeconds="1152.67" traveltime="19.14" density="5.40" occupancy="2.70" waitingTime="57.00" speed="12.39" departed="0" arrived="0" entered="62" left="56" laneChangedFrom="0" laneChangedTo="0"/>
            <lane id="4si_2" sampledSeconds="5348.89" traveltime="100.69" density="25.06" occupancy="12.53" waitingTime="3064.00" speed="2.36" departed="0" arrived="0" entered="54" left="43" laneChangedFrom="0" laneChangedTo="0"/>
        </edge>
    </interval>
    <interval begin="900.00" end="1000.00" id="dump_900">
        <edge id="1fi">
            <lane id="1fi_0" sampledSeconds="876.37" traveltime="24.52" density="35.27" occupancy="17.63" waitingTime="0.00" speed="10.14" departed="11" arrived="9" entered="24" left="27" laneChangedFrom="0" laneChangedTo="0"/>
        </edge>
        <edge id="1o">
            <lane id="1o_0" sampledSeconds="1198.96" traveltime="47.07" density="24.54" occupancy="12.27" waitingTime="0.00" speed="10.38" departed="0" arrived="0" entered="28" left="24" laneChangedFrom="0" laneChangedTo="0"/>
        </edge>
        <edge id="1si">
            <lane id="1si_0" sampledSeconds="701.01" traveltime="51.18" density="29.56" occupancy="14.78" waitingTime="359.00" speed="4.63" departed="0" arrived="0" entered="10" left="10" laneChangedFrom="0" laneChangedTo="0"/>
            <lane id="1si_1" sampledSeconds="218.10" traveltime="26.70" density="9.20" occupancy="4.60" waitingTime="65.00" speed="8.88" departed="0" arrived="0" entered="8" left="8" laneChangedFrom="0" laneChangedTo="0"/>
            <lane id="1si_2" sampledSeconds="1650.86" traveltime="178.86" density="69.61" occupancy="34.81" waitingTime="954.00" speed="1.33" departed="0" arrived="0" entered="9" left="7" laneChangedFrom="0" laneChangedTo="0"/>
        </edge>
        <edge id="2fi">
            <lane id="2fi_0" sampledSeconds="827.03" traveltime="24.41" density="33.28" occupancy="16.64" waitingTime="0.00" speed="10.18" departed="9" arrived="9" entered="24" left="26" laneChangedFrom="0" laneChangedTo="0"/>
        </edge>
        <edge id="2o">
            <lane id="2o_0" sampledSeconds="1065.27" traveltime="47.16" density="21.80" occupancy="10.90" waitingTime="0.00" speed="10.36" departed="0" arrived="0" entered="24" left="23" laneChangedFrom="0" laneChangedTo="0"/>
        </edge>
        <edge id="2si">
            <lane id="2si_0" sampledSeconds="507.53" traveltime="51.74" density="21.40" occupancy="10.70" waitingTime="264.00" speed="4.58" departed="0" arrived="0" entered="8" left="8" laneChangedFrom="0" laneChangedTo="0"/>
            <lane id="2si_1" sampledSeconds="427.88" traveltime="41.45" density="18.04" occupancy="9.02" waitingTime="200.00" speed="5.72" departed="0" arrived="0" entered="11" left="10" laneChangedFrom="0" laneChangedTo="0"/>
            <lane id="2si_2" sampledSeconds="540.24" traveltime="73.59" density="22.78" occupancy="11.39" waitingTime="301.00" speed="3.22" departed="0" arrived="0" entered="7" left="8" laneChangedFrom="0" laneChangedTo="0"/>
        </edge>
        <edge id="3fi">
            <lane id="3fi_0" sampledSeconds="1021.70" traveltime="24.96" density="41.11" occupancy="20.56" waitingTime="0.00" speed="9.96" departed="16" arrived="15" entered="24" left="26" laneChangedFrom="0" laneChangedTo="0"/>
        </edge>
        <edge id="3o">
            <lane id="3o_0" sampledSeconds="1263.53" traveltime="47.71" density="25.86" occupancy="12.93" waitingTime="0.00" speed="10.24" departed="0" arrived="0" entered="26" left="25" laneChangedFrom="0" laneChangedTo="0"/>
        </edge>
        <edge id="3si">
            <lane id="3si_0" sampledSeconds="490.78" traveltime="74.15" density="20.69" occupancy="10.35" waitingTime="314.00" speed="3.20" departed="0" arrived="0" entered="8" left="9" laneChangedFrom="0" laneChangedTo="0"/>
            <lane id="3si_1" sampledSeconds="305.17" traveltime="28.30" density="12.87" occupancy="6.43" waitingTime="61.00" speed="8.38" departed="0" arrived="0" entered="11" left="15" laneChangedFrom="0" laneChangedTo="0"/>
            <lane id="3si_2" sampledSeconds="380.40" traveltime="53.08" density="16.04" occupancy="8.02" waitingTime="154.00" speed="4.47" departed="0" arrived="0" entered="7" left="8" laneChangedFrom="0" laneChangedTo="0"/>
        </edge>
        <edge id="4fi">
            <lane id="4fi_0" sampledSeconds="616.98" traveltime="23.93" density="24.83" occupancy="12.41" waitingTime="0.00" speed="10.38" departed="0" arrived="0" entered="28" left="24" laneChangedFrom="0" laneChangedTo="0"/>
        </edge>
        <edge id="4o">
            <lane id="4o_0" sampledSeconds="1358.49" traveltime="47.11" density="27.80" occupancy="13.90" waitingTime="0.00" speed="10.37" departed="0" arrived="0" entered="28" left="28" laneChangedFrom="0" laneChangedTo="0"/>
        </edge>
        <edge id="4si">
            <lane id="4si_0" sampledSeconds="449.11" traveltime="63.54" density="18.94" occupancy="9.47" waitingTime="253.00" speed="3.73" departed="0" arrived="0" entered="6" left="12" laneChangedFrom="0" laneChangedTo="0"/>
            <lane id="4si_1" sampledSeconds="167.57" traveltime="18.13" density="7.07" occupancy="3.53" waitingTime="0.00" speed="13.08" departed="0" arrived="0" entered="9" left="9" laneChangedFrom="0" laneChangedTo="0"/>
            <lane id="4si_2" sampledSeconds="953.00" traveltime="110.15" density="40.19" occupancy="20.09" waitingTime="540.00" speed="2.15" departed="0" arrived="0" entered="9" left="9" laneChangedFrom="0" laneChangedTo="0"/>
        </edge>
    </interval>
</meandata>
