<?xml version="1.0" encoding="UTF-8"?>

<!-- generated on Thu Jan  5 15:50:43 2017 by SUMO Version dev-SVN-r22466
<?xml version="1.0" encoding="UTF-8"?>

<configuration xmlns:xsi="http://www.w3.org/2001/XMLSchema-instance" xsi:noNamespaceSchemaLocation="http://sumo.dlr.de/xsd/sumoConfiguration.xsd">

    <input>
        <net-file value="net.net.xml"/>
        <route-files value="input_routes.rou.xml"/>
        <additional-files value="input_additional.add.xml"/>
    </input>

    <time>
        <begin value="0"/>
        <end value="1000"/>
    </time>

    <report>
        <xml-validation value="never"/>
        <duration-log.disable value="true"/>
        <no-step-log value="true"/>
    </report>

    <mesoscopic>
        <mesosim value="true"/>
    </mesoscopic>

</configuration>
-->

<meandata xmlns:xsi="http://www.w3.org/2001/XMLSchema-instance" xsi:noNamespaceSchemaLocation="http://sumo.dlr.de/xsd/meandata_file.xsd">
    <interval begin="0.00" end="60.00" id="dump_60">
        <edge id="1fi" sampledSeconds="0.00" departed="0" arrived="0" entered="0" left="0" laneChangedFrom="0" laneChangedTo="0"/>
        <edge id="1o" sampledSeconds="0.00" departed="0" arrived="0" entered="0" left="0" laneChangedFrom="0" laneChangedTo="0"/>
        <edge id="1si" sampledSeconds="0.00" departed="0" arrived="0" entered="0" left="0" laneChangedFrom="0" laneChangedTo="0"/>
        <edge id="2fi" sampledSeconds="0.00" departed="0" arrived="0" entered="0" left="0" laneChangedFrom="0" laneChangedTo="0"/>
        <edge id="2o" sampledSeconds="0.00" departed="0" arrived="0" entered="0" left="0" laneChangedFrom="0" laneChangedTo="0"/>
        <edge id="2si" sampledSeconds="0.00" departed="0" arrived="0" entered="0" left="0" laneChangedFrom="0" laneChangedTo="0"/>
        <edge id="3fi" sampledSeconds="0.00" departed="0" arrived="0" entered="0" left="0" laneChangedFrom="0" laneChangedTo="0"/>
        <edge id="3o" sampledSeconds="0.00" departed="0" arrived="0" entered="0" left="0" laneChangedFrom="0" laneChangedTo="0"/>
        <edge id="3si" sampledSeconds="0.00" departed="0" arrived="0" entered="0" left="0" laneChangedFrom="0" laneChangedTo="0"/>
        <edge id="4fi" sampledSeconds="0.00" departed="0" arrived="0" entered="0" left="0" laneChangedFrom="0" laneChangedTo="0"/>
        <edge id="4o" sampledSeconds="0.00" departed="0" arrived="0" entered="0" left="0" laneChangedFrom="0" laneChangedTo="0"/>
        <edge id="4si" sampledSeconds="0.00" departed="0" arrived="0" entered="0" left="0" laneChangedFrom="0" laneChangedTo="0"/>
    </interval>
    <interval begin="60.00" end="120.00" id="dump_60">
        <edge id="1fi" sampledSeconds="28.00" traveltime="22.37" overlapTraveltime="22.82" density="1.88" occupancy="0.94" waitingTime="0.00" speed="11.11" departed="2" arrived="0" entered="0" left="0" laneChangedFrom="0" laneChangedTo="0"/>
        <edge id="1o" sampledSeconds="0.00" departed="0" arrived="0" entered="0" left="0" laneChangedFrom="0" laneChangedTo="0"/>
        <edge id="1si" sampledSeconds="0.00" departed="0" arrived="0" entered="0" left="0" laneChangedFrom="0" laneChangedTo="0"/>
        <edge id="2fi" sampledSeconds="28.00" traveltime="22.37" overlapTraveltime="22.82" density="1.88" occupancy="0.94" waitingTime="0.00" speed="11.11" departed="2" arrived="0" entered="0" left="0" laneChangedFrom="0" laneChangedTo="0"/>
        <edge id="2o" sampledSeconds="0.00" departed="0" arrived="0" entered="0" left="0" laneChangedFrom="0" laneChangedTo="0"/>
        <edge id="2si" sampledSeconds="0.00" departed="0" arrived="0" entered="0" left="0" laneChangedFrom="0" laneChangedTo="0"/>
        <edge id="3fi" sampledSeconds="56.00" traveltime="23.88" overlapTraveltime="24.36" density="3.76" occupancy="1.88" waitingTime="0.00" speed="10.40" departed="4" arrived="0" entered="0" left="0" laneChangedFrom="0" laneChangedTo="0"/>
        <edge id="3o" sampledSeconds="0.00" departed="0" arrived="0" entered="0" left="0" laneChangedFrom="0" laneChangedTo="0"/>
        <edge id="3si" sampledSeconds="0.00" departed="0" arrived="0" entered="0" left="0" laneChangedFrom="0" laneChangedTo="0"/>
        <edge id="4fi" sampledSeconds="0.00" departed="0" arrived="0" entered="0" left="0" laneChangedFrom="0" laneChangedTo="0"/>
        <edge id="4o" sampledSeconds="0.00" departed="0" arrived="0" entered="0" left="0" laneChangedFrom="0" laneChangedTo="0"/>
        <edge id="4si" sampledSeconds="0.00" departed="0" arrived="0" entered="0" left="0" laneChangedFrom="0" laneChangedTo="0"/>
    </interval>
    <interval begin="120.00" end="180.00" id="dump_60">
        <edge id="1fi" sampledSeconds="134.19" traveltime="22.36" overlapTraveltime="22.81" density="9.00" occupancy="4.50" waitingTime="0.00" speed="11.11" departed="6" arrived="0" entered="0" left="6" laneChangedFrom="0" laneChangedTo="0"/>
        <edge id="1o" sampledSeconds="98.25" traveltime="43.98" overlapTraveltime="44.43" density="3.35" occupancy="1.68" waitingTime="0.00" speed="11.11" departed="0" arrived="0" entered="4" left="0" laneChangedFrom="0" laneChangedTo="0"/>
        <edge id="1si" sampledSeconds="91.56" traveltime="17.07" overlapTraveltime="17.43" density="6.43" occupancy="1.07" waitingTime="0.00" speed="13.89" departed="0" arrived="0" entered="6" left="4" laneChangedFrom="0" laneChangedTo="0"/>
        <edge id="2fi" sampledSeconds="134.19" traveltime="22.36" overlapTraveltime="22.81" density="9.00" occupancy="4.50" waitingTime="0.00" speed="11.11" departed="6" arrived="0" entered="0" left="6" laneChangedFrom="0" laneChangedTo="0"/>
        <edge id="2o" sampledSeconds="98.25" traveltime="43.98" overlapTraveltime="44.43" density="3.35" occupancy="1.68" waitingTime="0.00" speed="11.11" departed="0" arrived="0" entered="4" left="0" laneChangedFrom="0" laneChangedTo="0"/>
        <edge id="2si" sampledSeconds="91.56" traveltime="17.07" overlapTraveltime="17.43" density="6.43" occupancy="1.07" waitingTime="0.00" speed="13.89" departed="0" arrived="0" entered="6" left="4" laneChangedFrom="0" laneChangedTo="0"/>
        <edge id="3fi" sampledSeconds="279.21" traveltime="23.27" overlapTraveltime="23.74" density="18.73" occupancy="9.36" waitingTime="0.00" speed="10.68" departed="12" arrived="0" entered="0" left="12" laneChangedFrom="0" laneChangedTo="0"/>
        <edge id="3o" sampledSeconds="0.00" departed="0" arrived="0" entered="0" left="0" laneChangedFrom="0" laneChangedTo="0"/>
        <edge id="3si" sampledSeconds="179.51" traveltime="17.07" overlapTraveltime="17.43" density="12.62" occupancy="2.10" waitingTime="0.00" speed="13.89" departed="0" arrived="0" entered="12" left="8" laneChangedFrom="0" laneChangedTo="0"/>
        <edge id="4fi" sampledSeconds="0.00" departed="0" arrived="0" entered="0" left="0" laneChangedFrom="0" laneChangedTo="0"/>
        <edge id="4o" sampledSeconds="189.28" traveltime="43.98" overlapTraveltime="44.43" density="6.46" occupancy="3.23" waitingTime="0.00" speed="11.11" departed="0" arrived="0" entered="8" left="0" laneChangedFrom="0" laneChangedTo="0"/>
        <edge id="4si" sampledSeconds="0.00" departed="0" arrived="0" entered="0" left="0" laneChangedFrom="0" laneChangedTo="0"/>
    </interval>
    <interval begin="180.00" end="240.00" id="dump_60">
        <edge id="1fi" sampledSeconds="244.82" traveltime="22.37" overlapTraveltime="22.82" density="16.42" occupancy="8.21" waitingTime="0.00" speed="11.11" departed="6" arrived="0" entered="6" left="10" laneChangedFrom="0" laneChangedTo="0"/>
        <edge id="1o" sampledSeconds="263.88" traveltime="43.98" overlapTraveltime="44.43" density="9.00" occupancy="4.50" waitingTime="0.00" speed="11.11" departed="0" arrived="0" entered="6" left="6" laneChangedFrom="0" laneChangedTo="0"/>
        <edge id="1si" sampledSeconds="156.62" traveltime="17.47" overlapTraveltime="17.84" density="11.01" occupancy="1.83" waitingTime="0.00" speed="13.57" departed="0" arrived="0" entered="10" left="8" laneChangedFrom="0" laneChangedTo="0"/>
        <edge id="2fi" sampledSeconds="244.82" traveltime="22.37" overlapTraveltime="22.82" density="16.42" occupancy="8.21" waitingTime="0.00" speed="11.11" departed="6" arrived="0" entered="6" left="10" laneChangedFrom="0" laneChangedTo="0"/>
        <edge id="2o" sampledSeconds="304.86" traveltime="43.98" overlapTraveltime="44.43" density="10.40" occupancy="5.20" waitingTime="0.00" speed="11.11" departed="0" arrived="0" entered="10" left="6" laneChangedFrom="0" laneChangedTo="0"/>
        <edge id="2si" sampledSeconds="153.40" traveltime="17.11" overlapTraveltime="17.48" density="10.78" occupancy="1.80" waitingTime="0.00" speed="13.86" departed="0" arrived="0" entered="10" left="8" laneChangedFrom="0" laneChangedTo="0"/>
        <edge id="3fi" sampledSeconds="279.21" traveltime="23.27" overlapTraveltime="23.74" density="18.73" occupancy="9.36" waitingTime="0.00" speed="10.68" departed="12" arrived="0" entered="0" left="12" laneChangedFrom="0" laneChangedTo="0"/>
        <edge id="3o" sampledSeconds="18.68" traveltime="43.98" overlapTraveltime="44.43" density="0.64" occupancy="0.32" waitingTime="0.00" speed="11.11" departed="0" arrived="0" entered="2" left="0" laneChangedFrom="0" laneChangedTo="0"/>
        <edge id="3si" sampledSeconds="204.86" traveltime="17.07" overlapTraveltime="17.43" density="14.40" occupancy="2.40" waitingTime="0.00" speed="13.89" departed="0" arrived="0" entered="12" left="12" laneChangedFrom="0" laneChangedTo="0"/>
        <edge id="4fi" sampledSeconds="217.64" traveltime="22.37" overlapTraveltime="22.82" density="14.60" occupancy="7.30" waitingTime="0.00" speed="11.11" departed="0" arrived="0" entered="12" left="8" laneChangedFrom="0" laneChangedTo="0"/>
        <edge id="4o" sampledSeconds="549.67" traveltime="43.98" overlapTraveltime="44.43" density="18.75" occupancy="9.37" waitingTime="0.00" speed="11.11" departed="0" arrived="0" entered="14" left="12" laneChangedFrom="0" laneChangedTo="0"/>
        <edge id="4si" sampledSeconds="97.55" traveltime="17.07" overlapTraveltime="17.43" density="6.86" occupancy="1.14" waitingTime="0.00" speed="13.89" departed="0" arrived="0" entered="8" left="4" laneChangedFrom="0" laneChangedTo="0"/>
    </interval>
    <interval begin="240.00" end="300.00" id="dump_60">
        <edge id="1fi" sampledSeconds="268.38" traveltime="22.37" overlapTraveltime="22.82" density="18.00" occupancy="9.00" waitingTime="0.00" speed="11.11" departed="6" arrived="0" entered="6" left="12" laneChangedFrom="0" laneChangedTo="0"/>
        <edge id="1o" sampledSeconds="263.88" traveltime="43.98" overlapTraveltime="44.43" density="9.00" occupancy="4.50" waitingTime="0.00" speed="11.11" departed="0" arrived="0" entered="6" left="6" laneChangedFrom="0" laneChangedTo="0"/>
        <edge id="1si" sampledSeconds="215.69" traveltime="17.97" overlapTraveltime="18.35" density="15.16" occupancy="2.53" waitingTime="0.00" speed="13.19" departed="0" arrived="0" entered="12" left="12" laneChangedFrom="0" laneChangedTo="0"/>
        <edge id="2fi" sampledSeconds="381.14" traveltime="22.44" overlapTraveltime="22.90" density="25.56" occupancy="12.78" waitingTime="0.00" speed="11.07" departed="6" arrived="1" entered="14" left="13" laneChangedFrom="0" laneChangedTo="0"/>
        <edge id="2o" sampledSeconds="736.70" traveltime="43.98" overlapTraveltime="44.43" density="25.13" occupancy="12.56" waitingTime="0.00" speed="11.11" departed="0" arrived="0" entered="18" left="14" laneChangedFrom="0" laneChangedTo="0"/>
        <edge id="2si" sampledSeconds="215.37" traveltime="17.16" overlapTraveltime="17.53" density="15.14" occupancy="2.52" waitingTime="0.00" speed="13.82" departed="0" arrived="0" entered="13" left="12" laneChangedFrom="0" laneChangedTo="0"/>
        <edge id="3fi" sampledSeconds="333.55" traveltime="23.30" overlapTraveltime="23.77" density="22.37" occupancy="11.19" waitingTime="0.00" speed="10.67" departed="12" arrived="1" entered="4" left="12" laneChangedFrom="0" laneChangedTo="0"/>
        <edge id="3o" sampledSeconds="234.60" traveltime="43.98" overlapTraveltime="44.43" density="8.00" occupancy="4.00" waitingTime="0.00" speed="11.11" departed="0" arrived="0" entered="6" left="4" laneChangedFrom="0" laneChangedTo="0"/>
        <edge id="3si" sampledSeconds="203.98" traveltime="17.07" overlapTraveltime="17.43" density="14.34" occupancy="2.39" waitingTime="0.00" speed="13.89" departed="0" arrived="0" entered="12" left="12" laneChangedFrom="0" laneChangedTo="0"/>
        <edge id="4fi" sampledSeconds="326.66" traveltime="22.37" overlapTraveltime="22.81" density="21.91" occupancy="10.95" waitingTime="0.00" speed="11.11" departed="0" arrived="0" entered="16" left="13" laneChangedFrom="0" laneChangedTo="0"/>
        <edge id="4o" sampledSeconds="765.59" traveltime="43.98" overlapTraveltime="44.43" density="26.11" occupancy="13.06" waitingTime="0.00" speed="11.11" departed="0" arrived="0" entered="18" left="16" laneChangedFrom="0" laneChangedTo="0"/>
        <edge id="4si" sampledSeconds="214.47" traveltime="17.07" overlapTraveltime="17.43" density="15.07" occupancy="2.51" waitingTime="0.00" speed="13.89" departed="0" arrived="0" entered="13" left="12" laneChangedFrom="0" laneChangedTo="0"/>
    </interval>
    <interval begin="300.00" end="360.00" id="dump_60">
        <edge id="1fi" sampledSeconds="276.49" traveltime="22.47" overlapTraveltime="22.92" density="18.54" occupancy="9.27" waitingTime="0.00" speed="11.06" departed="6" arrived="0" entered="7" left="12" laneChangedFrom="0" laneChangedTo="0"/>
        <edge id="1o" sampledSeconds="418.76" traveltime="43.98" overlapTraveltime="44.43" density="14.28" occupancy="7.14" waitingTime="0.00" speed="11.11" departed="0" arrived="0" entered="12" left="7" laneChangedFrom="0" laneChangedTo="0"/>
        <edge id="1si" sampledSeconds="215.69" traveltime="17.97" overlapTraveltime="18.35" density="15.16" occupancy="2.53" waitingTime="0.00" speed="13.19" departed="0" arrived="0" entered="12" left="12" laneChangedFrom="0" laneChangedTo="0"/>
        <edge id="2fi" sampledSeconds="538.98" traveltime="22.48" overlapTraveltime="22.93" density="36.15" occupancy="18.07" waitingTime="0.00" speed="11.06" departed="6" arrived="6" entered="18" left="18" laneChangedFrom="0" laneChangedTo="0"/>
        <edge id="2o" sampledSeconds="789.87" traveltime="43.98" overlapTraveltime="44.43" density="26.94" occupancy="13.47" waitingTime="0.00" speed="11.11" departed="0" arrived="0" entered="18" left="18" laneChangedFrom="0" laneChangedTo="0"/>
        <edge id="2si" sampledSeconds="311.38" traveltime="17.32" overlapTraveltime="17.69" density="21.88" occupancy="3.65" waitingTime="0.00" speed="13.69" departed="0" arrived="0" entered="18" left="18" laneChangedFrom="0" laneChangedTo="0"/>
        <edge id="3fi" sampledSeconds="427.28" traveltime="23.40" overlapTraveltime="23.87" density="28.66" occupancy="14.33" waitingTime="0.00" speed="10.62" departed="12" arrived="6" entered="7" left="12" laneChangedFrom="0" laneChangedTo="0"/>
        <edge id="3o" sampledSeconds="420.55" traveltime="43.98" overlapTraveltime="44.43" density="14.34" occupancy="7.17" waitingTime="0.00" speed="11.11" departed="0" arrived="0" entered="12" left="7" laneChangedFrom="0" laneChangedTo="0"/>
        <edge id="3si" sampledSeconds="203.98" traveltime="17.07" overlapTraveltime="17.43" density="14.34" occupancy="2.39" waitingTime="0.00" speed="13.89" departed="0" arrived="0" entered="12" left="12" laneChangedFrom="0" laneChangedTo="0"/>
        <edge id="4fi" sampledSeconds="401.68" traveltime="22.36" overlapTraveltime="22.81" density="26.94" occupancy="13.47" waitingTime="0.00" speed="11.11" departed="0" arrived="0" entered="18" left="18" laneChangedFrom="0" laneChangedTo="0"/>
        <edge id="4o" sampledSeconds="788.09" traveltime="43.98" overlapTraveltime="44.43" density="26.88" occupancy="13.44" waitingTime="0.00" speed="11.11" departed="0" arrived="0" entered="18" left="18" laneChangedFrom="0" laneChangedTo="0"/>
        <edge id="4si" sampledSeconds="307.30" traveltime="17.07" overlapTraveltime="17.43" density="21.60" occupancy="3.60" waitingTime="0.00" speed="13.89" departed="0" arrived="0" entered="18" left="18" laneChangedFrom="0" laneChangedTo="0"/>
    </interval>
    <interval begin="360.00" end="420.00" id="dump_60">
        <edge id="1fi" sampledSeconds="405.12" traveltime="22.83" overlapTraveltime="23.28" density="27.17" occupancy="13.59" waitingTime="0.00" speed="10.89" departed="6" arrived="0" entered="12" left="17" laneChangedFrom="0" laneChangedTo="0"/>
        <edge id="1o" sampledSeconds="572.95" traveltime="43.98" overlapTraveltime="44.43" density="19.54" occupancy="9.77" waitingTime="0.00" speed="11.11" departed="0" arrived="0" entered="15" left="12" laneChangedFrom="0" laneChangedTo="0"/>
        <edge id="1si" sampledSeconds="284.34" traveltime="17.66" overlapTraveltime="18.03" density="19.98" occupancy="3.33" waitingTime="0.00" speed="13.43" departed="0" arrived="0" entered="17" left="15" laneChangedFrom="0" laneChangedTo="0"/>
        <edge id="2fi" sampledSeconds="538.98" traveltime="22.48" overlapTraveltime="22.93" density="36.15" occupancy="18.07" waitingTime="0.00" speed="11.06" departed="6" arrived="6" entered="18" left="18" laneChangedFrom="0" laneChangedTo="0"/>
        <edge id="2o" sampledSeconds="791.65" traveltime="43.98" overlapTraveltime="44.43" density="27.00" occupancy="13.50" waitingTime="0.00" speed="11.11" departed="0" arrived="0" entered="18" left="18" laneChangedFrom="0" laneChangedTo="0"/>
        <edge id="2si" sampledSeconds="311.38" traveltime="17.35" overlapTraveltime="17.71" density="21.88" occupancy="3.65" waitingTime="0.00" speed="13.67" departed="0" arrived="0" entered="18" left="18" laneChangedFrom="0" laneChangedTo="0"/>
        <edge id="3fi" sampledSeconds="567.16" traveltime="23.96" overlapTraveltime="24.44" density="38.04" occupancy="19.02" waitingTime="0.00" speed="10.37" departed="12" arrived="6" entered="12" left="17" laneChangedFrom="0" laneChangedTo="0"/>
        <edge id="3o" sampledSeconds="578.38" traveltime="43.98" overlapTraveltime="44.43" density="19.73" occupancy="9.86" waitingTime="0.00" speed="11.11" departed="0" arrived="0" entered="15" left="12" laneChangedFrom="0" laneChangedTo="0"/>
        <edge id="3si" sampledSeconds="271.24" traveltime="17.07" overlapTraveltime="17.43" density="19.06" occupancy="3.18" waitingTime="0.00" speed="13.89" departed="0" arrived="0" entered="17" left="15" laneChangedFrom="0" laneChangedTo="0"/>
        <edge id="4fi" sampledSeconds="401.24" traveltime="22.36" overlapTraveltime="22.81" density="26.91" occupancy="13.46" waitingTime="0.00" speed="11.11" departed="0" arrived="0" entered="18" left="18" laneChangedFrom="0" laneChangedTo="0"/>
        <edge id="4o" sampledSeconds="791.65" traveltime="43.98" overlapTraveltime="44.43" density="27.00" occupancy="13.50" waitingTime="0.00" speed="11.11" departed="0" arrived="0" entered="18" left="18" laneChangedFrom="0" laneChangedTo="0"/>
        <edge id="4si" sampledSeconds="305.96" traveltime="17.07" overlapTraveltime="17.43" density="21.50" occupancy="3.58" waitingTime="0.00" speed="13.89" departed="0" arrived="0" entered="18" left="18" laneChangedFrom="0" laneChangedTo="0"/>
    </interval>
    <interval begin="420.00" end="480.00" id="dump_60">
        <edge id="1fi" sampledSeconds="488.28" traveltime="22.66" overlapTraveltime="23.12" density="32.75" occupancy="16.37" waitingTime="0.00" speed="10.97" departed="6" arrived="2" entered="17" left="18" laneChangedFrom="0" laneChangedTo="0"/>
        <edge id="1o" sampledSeconds="782.28" traveltime="43.98" overlapTraveltime="44.43" density="26.68" occupancy="13.34" waitingTime="0.00" speed="11.11" departed="0" arrived="0" entered="18" left="17" laneChangedFrom="0" laneChangedTo="0"/>
        <edge id="1si" sampledSeconds="315.46" traveltime="17.53" overlapTraveltime="17.89" density="22.17" occupancy="3.69" waitingTime="0.00" speed="13.53" departed="0" arrived="0" entered="18" left="18" laneChangedFrom="0" laneChangedTo="0"/>
        <edge id="2fi" sampledSeconds="539.42" traveltime="22.48" overlapTraveltime="22.93" density="36.18" occupancy="18.09" waitingTime="0.00" speed="11.06" departed="6" arrived="6" entered="18" left="18" laneChangedFrom="0" laneChangedTo="0"/>
        <edge id="2o" sampledSeconds="791.65" traveltime="43.98" overlapTraveltime="44.43" density="27.00" occupancy="13.50" waitingTime="0.00" speed="11.11" departed="0" arrived="0" entered="18" left="18" laneChangedFrom="0" laneChangedTo="0"/>
        <edge id="2si" sampledSeconds="312.26" traveltime="17.35" overlapTraveltime="17.71" density="21.95" occupancy="3.66" waitingTime="0.00" speed="13.67" departed="0" arrived="0" entered="18" left="18" laneChangedFrom="0" laneChangedTo="0"/>
        <edge id="3fi" sampledSeconds="655.67" traveltime="23.81" overlapTraveltime="24.29" density="43.97" occupancy="21.99" waitingTime="0.00" speed="10.44" departed="12" arrived="9" entered="16" left="18" laneChangedFrom="0" laneChangedTo="0"/>
        <edge id="3o" sampledSeconds="784.01" traveltime="43.98" overlapTraveltime="44.43" density="26.74" occupancy="13.37" waitingTime="0.00" speed="11.11" departed="0" arrived="0" entered="18" left="16" laneChangedFrom="0" laneChangedTo="0"/>
        <edge id="3si" sampledSeconds="304.63" traveltime="17.07" overlapTraveltime="17.43" density="21.41" occupancy="3.57" waitingTime="0.00" speed="13.89" departed="0" arrived="0" entered="18" left="18" laneChangedFrom="0" laneChangedTo="0"/>
        <edge id="4fi" sampledSeconds="402.57" traveltime="22.36" overlapTraveltime="22.81" density="27.00" occupancy="13.50" waitingTime="0.00" speed="11.11" departed="0" arrived="0" entered="18" left="18" laneChangedFrom="0" laneChangedTo="0"/>
        <edge id="4o" sampledSeconds="791.65" traveltime="43.98" overlapTraveltime="44.43" density="27.00" occupancy="13.50" waitingTime="0.00" speed="11.11" departed="0" arrived="0" entered="18" left="18" laneChangedFrom="0" laneChangedTo="0"/>
        <edge id="4si" sampledSeconds="307.30" traveltime="17.07" overlapTraveltime="17.43" density="21.60" occupancy="3.60" waitingTime="0.00" speed="13.89" departed="0" arrived="0" entered="18" left="18" laneChangedFrom="0" laneChangedTo="0"/>
    </interval>
    <interval begin="480.00" end="540.00" id="dump_60">
        <edge id="1fi" sampledSeconds="543.18" traveltime="22.59" overlapTraveltime="23.05" density="36.43" occupancy="18.22" waitingTime="0.00" speed="11.00" departed="6" arrived="6" entered="18" left="18" laneChangedFrom="0" laneChangedTo="0"/>
        <edge id="1o" sampledSeconds="797.08" traveltime="43.98" overlapTraveltime="44.43" density="27.19" occupancy="13.59" waitingTime="0.00" speed="11.11" departed="0" arrived="0" entered="18" left="18" laneChangedFrom="0" laneChangedTo="0"/>
        <edge id="1si" sampledSeconds="315.46" traveltime="17.53" overlapTraveltime="17.89" density="22.17" occupancy="3.69" waitingTime="0.00" speed="13.53" departed="0" arrived="0" entered="18" left="18" laneChangedFrom="0" laneChangedTo="0"/>
        <edge id="2fi" sampledSeconds="538.54" traveltime="22.48" overlapTraveltime="22.93" density="36.12" occupancy="18.06" waitingTime="0.00" speed="11.06" departed="6" arrived="6" entered="18" left="18" laneChangedFrom="0" laneChangedTo="0"/>
        <edge id="2o" sampledSeconds="789.87" traveltime="43.98" overlapTraveltime="44.43" density="26.94" occupancy="13.47" waitingTime="0.00" speed="11.11" departed="0" arrived="0" entered="18" left="18" laneChangedFrom="0" laneChangedTo="0"/>
        <edge id="2si" sampledSeconds="311.75" traveltime="17.32" overlapTraveltime="17.68" density="21.91" occupancy="3.65" waitingTime="0.00" speed="13.69" departed="0" arrived="0" entered="18" left="18" laneChangedFrom="0" laneChangedTo="0"/>
        <edge id="3fi" sampledSeconds="708.58" traveltime="23.62" overlapTraveltime="24.09" density="47.52" occupancy="23.76" waitingTime="0.00" speed="10.52" departed="12" arrived="12" entered="18" left="18" laneChangedFrom="0" laneChangedTo="0"/>
        <edge id="3o" sampledSeconds="791.65" traveltime="43.98" overlapTraveltime="44.43" density="27.00" occupancy="13.50" waitingTime="0.00" speed="11.11" departed="0" arrived="0" entered="18" left="18" laneChangedFrom="0" laneChangedTo="0"/>
        <edge id="3si" sampledSeconds="313.13" traveltime="17.40" overlapTraveltime="17.76" density="22.01" occupancy="3.67" waitingTime="0.00" speed="13.63" departed="0" arrived="0" entered="18" left="18" laneChangedFrom="0" laneChangedTo="0"/>
        <edge id="4fi" sampledSeconds="398.54" traveltime="22.36" overlapTraveltime="22.81" density="26.73" occupancy="13.36" waitingTime="0.00" speed="11.11" departed="0" arrived="0" entered="17" left="18" laneChangedFrom="0" laneChangedTo="0"/>
        <edge id="4o" sampledSeconds="778.67" traveltime="43.98" overlapTraveltime="44.43" density="26.56" occupancy="13.28" waitingTime="0.00" speed="11.11" departed="0" arrived="0" entered="18" left="17" laneChangedFrom="0" laneChangedTo="0"/>
        <edge id="4si" sampledSeconds="307.30" traveltime="17.07" overlapTraveltime="17.43" density="21.60" occupancy="3.60" waitingTime="0.00" speed="13.89" departed="0" arrived="0" entered="18" left="18" laneChangedFrom="0" laneChangedTo="0"/>
    </interval>
    <interval begin="540.00" end="600.00" id="dump_60">
        <edge id="1fi" sampledSeconds="544.90" traveltime="22.59" overlapTraveltime="23.05" density="36.55" occupancy="18.27" waitingTime="0.00" speed="11.00" departed="6" arrived="7" entered="18" left="18" laneChangedFrom="0" laneChangedTo="0"/>
        <edge id="1o" sampledSeconds="791.78" traveltime="43.98" overlapTraveltime="44.43" density="27.01" occupancy="13.50" waitingTime="0.00" speed="11.11" departed="0" arrived="0" entered="18" left="18" laneChangedFrom="0" laneChangedTo="0"/>
        <edge id="1si" sampledSeconds="315.46" traveltime="17.53" overlapTraveltime="17.89" density="22.17" occupancy="3.69" waitingTime="0.00" speed="13.53" departed="0" arrived="0" entered="18" left="18" laneChangedFrom="0" laneChangedTo="0"/>
        <edge id="2fi" sampledSeconds="539.42" traveltime="22.48" overlapTraveltime="22.93" density="36.18" occupancy="18.09" waitingTime="0.00" speed="11.06" departed="6" arrived="6" entered="18" left="18" laneChangedFrom="0" laneChangedTo="0"/>
        <edge id="2o" sampledSeconds="791.65" traveltime="43.98" overlapTraveltime="44.43" density="27.00" occupancy="13.50" waitingTime="0.00" speed="11.11" departed="0" arrived="0" entered="18" left="18" laneChangedFrom="0" laneChangedTo="0"/>
        <edge id="2si" sampledSeconds="308.76" traveltime="17.20" overlapTraveltime="17.57" density="21.70" occupancy="3.62" waitingTime="0.00" speed="13.79" departed="0" arrived="0" entered="18" left="18" laneChangedFrom="0" laneChangedTo="0"/>
        <edge id="3fi" sampledSeconds="708.58" traveltime="23.62" overlapTraveltime="24.09" density="47.52" occupancy="23.76" waitingTime="0.00" speed="10.52" departed="12" arrived="12" entered="18" left="18" laneChangedFrom="0" laneChangedTo="0"/>
        <edge id="3o" sampledSeconds="782.42" traveltime="43.98" overlapTraveltime="44.43" density="26.69" occupancy="13.34" waitingTime="0.00" speed="11.11" departed="0" arrived="0" entered="18" left="18" laneChangedFrom="0" laneChangedTo="0"/>
        <edge id="3si" sampledSeconds="316.07" traveltime="17.56" overlapTraveltime="17.93" density="22.21" occupancy="3.70" waitingTime="0.00" speed="13.51" departed="0" arrived="0" entered="18" left="18" laneChangedFrom="0" laneChangedTo="0"/>
        <edge id="4fi" sampledSeconds="397.98" traveltime="22.36" overlapTraveltime="22.81" density="26.69" occupancy="13.35" waitingTime="0.00" speed="11.11" departed="0" arrived="0" entered="18" left="17" laneChangedFrom="0" laneChangedTo="0"/>
        <edge id="4o" sampledSeconds="788.09" traveltime="43.98" overlapTraveltime="44.43" density="26.88" occupancy="13.44" waitingTime="0.00" speed="11.11" departed="0" arrived="0" entered="18" left="18" laneChangedFrom="0" laneChangedTo="0"/>
        <edge id="4si" sampledSeconds="303.10" traveltime="17.07" overlapTraveltime="17.43" density="21.30" occupancy="3.55" waitingTime="0.00" speed="13.89" departed="0" arrived="0" entered="17" left="18" laneChangedFrom="0" laneChangedTo="0"/>
    </interval>
    <interval begin="600.00" end="660.00" id="dump_60">
        <edge id="1fi" sampledSeconds="542.59" traveltime="22.61" overlapTraveltime="23.06" density="36.39" occupancy="18.20" waitingTime="0.00" speed="10.99" departed="6" arrived="6" entered="18" left="18" laneChangedFrom="0" laneChangedTo="0"/>
        <edge id="1o" sampledSeconds="789.33" traveltime="43.98" overlapTraveltime="44.43" density="26.92" occupancy="13.46" waitingTime="0.00" speed="11.11" departed="0" arrived="0" entered="18" left="18" laneChangedFrom="0" laneChangedTo="0"/>
        <edge id="1si" sampledSeconds="315.46" traveltime="17.53" overlapTraveltime="17.89" density="22.17" occupancy="3.69" waitingTime="0.00" speed="13.53" departed="0" arrived="0" entered="18" left="18" laneChangedFrom="0" laneChangedTo="0"/>
        <edge id="2fi" sampledSeconds="539.42" traveltime="22.48" overlapTraveltime="22.93" density="36.18" occupancy="18.09" waitingTime="0.00" speed="11.06" departed="6" arrived="6" entered="18" left="18" laneChangedFrom="0" laneChangedTo="0"/>
        <edge id="2o" sampledSeconds="791.20" traveltime="43.98" overlapTraveltime="44.43" density="26.99" occupancy="13.49" waitingTime="0.00" speed="11.11" departed="0" arrived="0" entered="18" left="18" laneChangedFrom="0" laneChangedTo="0"/>
        <edge id="2si" sampledSeconds="307.93" traveltime="17.11" overlapTraveltime="17.47" density="21.64" occupancy="3.61" waitingTime="0.00" speed="13.86" departed="0" arrived="0" entered="18" left="18" laneChangedFrom="0" laneChangedTo="0"/>