<?xml version="1.0" encoding="UTF-8"?>

<!-- generated on Tue Dec  3 16:33:33 2013 by SUMO sumo Version dev-SVN-r15233
<?xml version="1.0" encoding="UTF-8"?>

<configuration xmlns:xsi="http://www.w3.org/2001/XMLSchema-instance" xsi:noNamespaceSchemaLocation="http://sumo-sim.org/xsd/sumoConfiguration.xsd">

    <input>
        <net-file value="net.net.xml"/>
        <route-files value="input_routes.rou.xml"/>
        <additional-files value="input_additional.add.xml"/>
    </input>

    <time>
        <begin value="0"/>
        <end value="1000"/>
    </time>

    <report>
        <no-duration-log value="true"/>
        <no-step-log value="true"/>
    </report>

</configuration>
-->

<meandata xmlns:xsi="http://www.w3.org/2001/XMLSchema-instance" xsi:noNamespaceSchemaLocation="http://sumo-sim.org/xsd/meandata_file.xsd">
    <interval begin="0.00" end="900.00" id="dump_900">
        <edge id="1fi">
            <lane id="1fi_0" sampledSeconds="5056.28" traveltime="24.64" density="22.61" occupancy="11.30" waitingTime="0.00" speed="10.09" departed="78" arrived="17" entered="130" left="181" laneChangedFrom="0" laneChangedTo="0"/>
        </edge>
        <edge id="1o">
            <lane id="1o_0" sampledSeconds="6365.86" traveltime="47.05" density="14.47" occupancy="7.24" waitingTime="0.00" speed="10.39" departed="0" arrived="0" entered="136" left="130" laneChangedFrom="0" laneChangedTo="0"/>
        </edge>
        <edge id="1si">
            <lane id="1si_0" sampledSeconds="2052.85" traveltime="57.13" density="9.62" occupancy="4.81" waitingTime="1135.00" speed="4.15" departed="0" arrived="0" entered="40" left="32" laneChangedFrom="0" laneChangedTo="0"/>
            <lane id="1si_1" sampledSeconds="1337.53" traveltime="20.16" density="6.27" occupancy="3.13" waitingTime="120.00" speed="11.76" departed="0" arrived="0" entered="65" left="64" laneChangedFrom="0" laneChangedTo="0"/>
            <lane id="1si_2" sampledSeconds="8188.18" traveltime="114.09" density="38.36" occupancy="19.18" waitingTime="4538.00" speed="2.08" departed="0" arrived="0" entered="76" left="61" laneChangedFrom="0" laneChangedTo="0"/>
        </edge>
        <edge id="2fi">
            <lane id="2fi_0" sampledSeconds="5953.08" traveltime="24.54" density="26.62" occupancy="13.31" waitingTime="0.00" speed="10.13" departed="80" arrived="56" entered="165" left="179" laneChangedFrom="0" laneChangedTo="0"/>
        </edge>
        <edge id="2o">
            <lane id="2o_0" sampledSeconds="8079.27" traveltime="47.01" density="18.37" occupancy="9.19" waitingTime="0.00" speed="10.39" departed="0" arrived="0" entered="173" left="165" laneChangedFrom="0" laneChangedTo="0"/>
        </edge>
        <edge id="2si">
            <lane id="2si_0" sampledSeconds="3521.56" traveltime="57.90" density="16.50" occupancy="8.25" waitingTime="1996.00" speed="4.10" departed="0" arrived="0" entered="61" left="57" laneChangedFrom="0" laneChangedTo="0"/>
            <lane id="2si_1" sampledSeconds="2923.92" traveltime="38.19" density="13.70" occupancy="6.85" waitingTime="1235.00" speed="6.21" departed="0" arrived="0" entered="76" left="71" laneChangedFrom="0" laneChangedTo="0"/>
            <lane id="2si_2" sampledSeconds="2389.91" traveltime="58.34" density="11.20" occupancy="5.60" waitingTime="1070.00" speed="4.06" departed="0" arrived="0" entered="42" left="38" laneChangedFrom="0" laneChangedTo="0"/>
        </edge>
        <edge id="3fi">
            <lane id="3fi_0" sampledSeconds="6252.25" traveltime="25.09" density="27.96" occupancy="13.98" waitingTime="1.00" speed="9.91" departed="143" arrived="79" entered="109" left="165" laneChangedFrom="0" laneChangedTo="0"/>
        </edge>
        <edge id="3o">
            <lane id="3o_0" sampledSeconds="5553.29" traveltime="46.94" density="12.63" occupancy="6.31" waitingTime="0.00" speed="10.41" departed="0" arrived="0" entered="126" left="109" laneChangedFrom="0" laneChangedTo="0"/>
        </edge>
        <edge id="3si">
            <lane id="3si_0" sampledSeconds="3223.89" traveltime="46.81" density="15.10" occupancy="7.55" waitingTime="1645.00" speed="5.07" departed="0" arrived="0" entered="68" left="63" laneChangedFrom="0" laneChangedTo="0"/>
            <lane id="3si_1" sampledSeconds="3181.38" traveltime="46.83" density="14.91" occupancy="7.45" waitingTime="1642.00" speed="5.06" departed="0" arrived="0" entered="67" left="62" laneChangedFrom="0" laneChangedTo="0"/>
            <lane id="3si_2" sampledSeconds="1468.57" traveltime="50.73" density="6.88" occupancy="3.44" waitingTime="653.00" speed="4.67" departed="0" arrived="0" entered="29" left="23" laneChangedFrom="0" laneChangedTo="0"/>
        </edge>
        <edge id="4fi">
            <lane id="4fi_0" sampledSeconds="4002.31" traveltime="23.84" density="17.90" occupancy="8.95" waitingTime="0.00" speed="10.43" departed="0" arrived="0" entered="165" left="164" laneChangedFrom="0" laneChangedTo="0"/>
        </edge>
        <edge id="4o">
            <lane id="4o_0" sampledSeconds="8169.95" traveltime="47.05" density="18.58" occupancy="9.29" waitingTime="0.00" speed="10.39" departed="0" arrived="0" entered="180" left="165" laneChangedFrom="0" laneChangedTo="0"/>
        </edge>
        <edge id="4si">
            <lane id="4si_0" sampledSeconds="3030.96" traveltime="60.72" density="14.20" occupancy="7.10" waitingTime="1776.00" speed="3.91" departed="0" arrived="0" entered="50" left="42" laneChangedFrom="0" laneChangedTo="0"/>
            <lane id="4si_1" sampledSeconds="1144.44" traveltime="19.12" density="5.36" occupancy="2.68" waitingTime="56.00" speed="12.41" departed="0" arrived="0" entered="61" left="56" laneChangedFrom="0" laneChangedTo="0"/>
            <lane id="4si_2" sampledSeconds="3348.25" traveltime="62.90" density="15.69" occupancy="7.84" waitingTime="1578.00" speed="3.77" departed="0" arrived="0" entered="53" left="46" laneChangedFrom="0" laneChangedTo="0"/>
        </edge>
    </interval>
    <interval begin="900.00" end="1000.00" id="dump_900">
        <edge id="1fi">
            <lane id="1fi_0" sampledSeconds="846.27" traveltime="24.64" density="34.05" occupancy="17.03" waitingTime="0.00" speed="10.08" departed="12" arrived="9" entered="22" left="26" laneChangedFrom="0" laneChangedTo="0"/>
        </edge>
        <edge id="1o">
            <lane id="1o_0" sampledSeconds="1240.29" traveltime="47.07" density="25.38" occupancy="12.69" waitingTime="0.00" speed="10.38" departed="0" arrived="0" entered="30" left="22" laneChangedFrom="0" laneChangedTo="0"/>
        </edge>
        <edge id="1si">
            <lane id="1si_0" sampledSeconds="700.42" traveltime="51.77" density="29.53" occupancy="14.77" waitingTime="355.00" speed="4.58" departed="0" arrived="0" entered="10" left="10" laneChangedFrom="0" laneChangedTo="0"/>
            <lane id="1si_1" sampledSeconds="160.25" traveltime="26.02" density="6.76" occupancy="3.38" waitingTime="45.00" speed="9.11" departed="0" arrived="0" entered="6" left="7" laneChangedFrom="0" laneChangedTo="0"/>
            <lane id="1si_2" sampledSeconds="1855.43" traveltime="197.67" density="78.24" occupancy="39.12" waitingTime="1180.00" speed="1.20" departed="0" arrived="0" entered="10" left="7" laneChangedFrom="0" laneChangedTo="0"/>
        </edge>
        <edge id="2fi">
            <lane id="2fi_0" sampledSeconds="817.38" traveltime="24.49" density="32.89" occupancy="16.45" waitingTime="0.00" speed="10.15" departed="9" arrived="8" entered="24" left="25" laneChangedFrom="0" laneChangedTo="0"/>
        </edge>
        <edge id="2o">
            <lane id="2o_0" sampledSeconds="1096.72" traveltime="47.10" density="22.44" occupancy="11.22" waitingTime="0.00" speed="10.37" departed="0" arrived="0" entered="25" left="24" laneChangedFrom="0" laneChangedTo="0"/>
        </edge>
        <edge id="2si">
            <lane id="2si_0" sampledSeconds="406.27" traveltime="48.63" density="17.13" occupancy="8.57" waitingTime="205.00" speed="4.88" departed="0" arrived="0" entered="8" left="6" laneChangedFrom="0" laneChangedTo="0"/>
            <lane id="2si_1" sampledSeconds="599.27" traveltime="53.87" density="25.27" occupancy="12.63" waitingTime="330.00" speed="4.40" departed="0" arrived="0" entered="12" left="12" laneChangedFrom="0" laneChangedTo="0"/>
            <lane id="2si_2" sampledSeconds="623.25" traveltime="93.07" density="26.28" occupancy="13.14" waitingTime="382.00" speed="2.55" departed="0" arrived="0" entered="5" left="6" laneChangedFrom="0" laneChangedTo="0"/>
        </edge>
        <edge id="3fi">
            <lane id="3fi_0" sampledSeconds="951.20" traveltime="24.47" density="38.28" occupancy="19.14" waitingTime="0.00" speed="10.15" departed="13" arrived="14" entered="26" left="24" laneChangedFrom="0" laneChangedTo="0"/>
        </edge>
        <edge id="3o">
            <lane id="3o_0" sampledSeconds="1243.39" traveltime="47.06" density="25.45" occupancy="12.72" waitingTime="0.00" speed="10.38" departed="0" arrived="0" entered="24" left="26" laneChangedFrom="0" laneChangedTo="0"/>
        </edge>
        <edge id="3si">
            <lane id="3si_0" sampledSeconds="287.20" traveltime="40.22" density="12.11" occupancy="6.06" waitingTime="117.00" speed="5.90" departed="0" arrived="0" entered="8" left="11" laneChangedFrom="0" laneChangedTo="0"/>
            <lane id="3si_1" sampledSeconds="333.49" traveltime="44.96" density="14.06" occupancy="7.03" waitingTime="160.00" speed="5.27" departed="0" arrived="0" entered="8" left="11" laneChangedFrom="0" laneChangedTo="0"/>
            <lane id="3si_2" sampledSeconds="502.72" traveltime="58.02" density="21.20" occupancy="10.60" waitingTime="220.00" speed="4.09" departed="0" arrived="0" entered="9" left="7" laneChangedFrom="0" laneChangedTo="0"/>
        </edge>
        <edge id="4fi">
            <lane id="4fi_0" sampledSeconds="551.39" traveltime="23.84" density="22.19" occupancy="11.09" waitingTime="0.00" speed="10.42" departed="0" arrived="0" entered="24" left="23" laneChangedFrom="0" laneChangedTo="0"/>
        </edge>
        <edge id="4o">
            <lane id="4o_0" sampledSeconds="1131.00" traveltime="46.89" density="23.15" occupancy="11.57" waitingTime="0.00" speed="10.42" departed="0" arrived="0" entered="23" left="25" laneChangedFrom="0" laneChangedTo="0"/>
        </edge>
        <edge id="4si">
            <lane id="4si_0" sampledSeconds="505.86" traveltime="63.50" density="21.33" occupancy="10.67" waitingTime="273.00" speed="3.73" departed="0" arrived="0" entered="7" left="12" laneChangedFrom="0" laneChangedTo="0"/>
            <lane id="4si_1" sampledSeconds="161.73" traveltime="18.06" density="6.82" occupancy="3.41" waitingTime="0.00" speed="13.13" departed="0" arrived="0" entered="8" left="9" laneChangedFrom="0" laneChangedTo="0"/>
            <lane id="4si_2" sampledSeconds="510.70" traveltime="62.63" density="21.53" occupancy="10.77" waitingTime="220.00" speed="3.79" departed="0" arrived="0" entered="8" left="8" laneChangedFrom="0" laneChangedTo="0"/>
        </edge>
    </interval>
</meandata>
