<?xml version="1.0" encoding="UTF-8"?>

<!-- generated on Wed Sep 11 09:14:45 2013 by SUMO sumo Version dev-SVN-r14643
<?xml version="1.0" encoding="UTF-8"?>

<configuration xmlns:xsi="http://www.w3.org/2001/XMLSchema-instance" xsi:noNamespaceSchemaLocation="http://sumo-sim.org/xsd/sumoConfiguration.xsd">

    <input>
        <net-file value="net.net.xml"/>
        <route-files value="input_routes.rou.xml"/>
        <additional-files value="input_additional.add.xml"/>
    </input>

    <time>
        <begin value="0"/>
        <end value="1000"/>
    </time>

    <report>
        <no-duration-log value="true"/>
        <no-step-log value="true"/>
    </report>

</configuration>
-->

<meandata xmlns:xsi="http://www.w3.org/2001/XMLSchema-instance" xsi:noNamespaceSchemaLocation="http://sumo-sim.org/xsd/meandata_file.xsd">
    <interval begin="0.00" end="300.00" id="dump_300">
        <edge id="1fi">
            <lane id="1fi_0" sampledSeconds="676.13" traveltime="25.46" density="9.07" occupancy="4.53" waitingTime="0.00" speed="9.76" departed="20" arrived="0" entered="11" left="21" laneChangedFrom="0" laneChangedTo="0"/>
        </edge>
        <edge id="1o">
            <lane id="1o_0" sampledSeconds="564.81" traveltime="46.93" density="3.85" occupancy="1.93" waitingTime="0.00" speed="10.41" departed="0" arrived="0" entered="12" left="11" laneChangedFrom="0" laneChangedTo="0"/>
        </edge>
        <edge id="1si">
            <lane id="1si_0" sampledSeconds="0.00" departed="0" arrived="0" entered="0" left="0" laneChangedFrom="0" laneChangedTo="0"/>
            <lane id="1si_1" sampledSeconds="98.04" traveltime="32.32" density="1.38" occupancy="0.69" waitingTime="42.00" speed="7.34" departed="0" arrived="0" entered="3" left="2" laneChangedFrom="0" laneChangedTo="0"/>
            <lane id="1si_2" sampledSeconds="758.03" traveltime="45.71" density="10.65" occupancy="5.33" waitingTime="288.00" speed="5.19" departed="0" arrived="0" entered="18" left="10" laneChangedFrom="0" laneChangedTo="0"/>
        </edge>
        <edge id="2fi">
            <lane id="2fi_0" sampledSeconds="681.14" traveltime="25.35" density="9.14" occupancy="4.57" waitingTime="0.00" speed="9.80" departed="20" arrived="0" entered="9" left="25" laneChangedFrom="0" laneChangedTo="0"/>
        </edge>
        <edge id="2o">
            <lane id="2o_0" sampledSeconds="580.74" traveltime="46.99" density="3.96" occupancy="1.98" waitingTime="0.00" speed="10.40" departed="0" arrived="0" entered="18" left="9" laneChangedFrom="0" laneChangedTo="0"/>
        </edge>
        <edge id="2si">
            <lane id="2si_0" sampledSeconds="257.57" traveltime="41.13" density="3.62" occupancy="1.81" waitingTime="105.00" speed="5.77" departed="0" arrived="0" entered="7" left="0" laneChangedFrom="0" laneChangedTo="0"/>
            <lane id="2si_1" sampledSeconds="568.00" traveltime="33.59" density="7.98" occupancy="3.99" waitingTime="191.00" speed="7.06" departed="0" arrived="0" entered="18" left="12" laneChangedFrom="0" laneChangedTo="0"/>
            <lane id="2si_2" sampledSeconds="0.00" departed="0" arrived="0" entered="0" left="0" laneChangedFrom="0" laneChangedTo="0"/>
        </edge>
        <edge id="3fi">
            <lane id="3fi_0" sampledSeconds="986.33" traveltime="26.14" density="13.23" occupancy="6.62" waitingTime="1.00" speed="9.51" departed="40" arrived="0" entered="0" left="36" laneChangedFrom="0" laneChangedTo="0"/>
        </edge>
        <edge id="3o">
            <lane id="3o_0" sampledSeconds="103.67" traveltime="46.58" density="0.71" occupancy="0.35" waitingTime="0.00" speed="10.49" departed="0" arrived="0" entered="6" left="0" laneChangedFrom="0" laneChangedTo="0"/>
        </edge>
        <edge id="3si">
            <lane id="3si_0" sampledSeconds="655.65" traveltime="38.16" density="9.22" occupancy="4.61" waitingTime="252.00" speed="6.21" departed="0" arrived="0" entered="18" left="16" laneChangedFrom="0" laneChangedTo="0"/>
            <lane id="3si_1" sampledSeconds="612.07" traveltime="36.19" density="8.60" occupancy="4.30" waitingTime="217.00" speed="6.55" departed="0" arrived="0" entered="18" left="16" laneChangedFrom="0" laneChangedTo="0"/>
            <lane id="3si_2" sampledSeconds="0.00" departed="0" arrived="0" entered="0" left="0" laneChangedFrom="0" laneChangedTo="0"/>
        </edge>
        <edge id="4fi">
            <lane id="4fi_0" sampledSeconds="272.18" traveltime="23.88" density="3.65" occupancy="1.83" waitingTime="0.00" speed="10.41" departed="0" arrived="0" entered="13" left="11" laneChangedFrom="0" laneChangedTo="0"/>
        </edge>
        <edge id="4o">
            <lane id="4o_0" sampledSeconds="904.34" traveltime="46.82" density="6.17" occupancy="3.08" waitingTime="0.00" speed="10.44" departed="0" arrived="0" entered="26" left="13" laneChangedFrom="0" laneChangedTo="0"/>
        </edge>
        <edge id="4si">
            <lane id="4si_0" sampledSeconds="0.00" departed="0" arrived="0" entered="0" left="0" laneChangedFrom="0" laneChangedTo="0"/>
            <lane id="4si_1" sampledSeconds="131.04" traveltime="18.33" density="1.84" occupancy="0.92" waitingTime="0.00" speed="12.94" departed="0" arrived="0" entered="7" left="7" laneChangedFrom="0" laneChangedTo="0"/>
            <lane id="4si_2" sampledSeconds="232.62" traveltime="59.39" density="3.27" occupancy="1.63" waitingTime="117.00" speed="3.99" departed="0" arrived="0" entered="4" left="1" laneChangedFrom="0" laneChangedTo="0"/>
        </edge>
    </interval>
    <interval begin="300.00" end="600.00" id="dump_300">
        <edge id="1fi">
            <lane id="1fi_0" sampledSeconds="1660.87" traveltime="24.79" density="22.28" occupancy="11.14" waitingTime="0.00" speed="10.03" departed="29" arrived="0" entered="37" left="70" laneChangedFrom="0" laneChangedTo="0"/>
        </edge>
        <edge id="1o">
            <lane id="1o_0" sampledSeconds="2026.58" traveltime="46.94" density="13.82" occupancy="6.91" waitingTime="0.00" speed="10.41" departed="0" arrived="0" entered="49" left="37" laneChangedFrom="0" laneChangedTo="0"/>
        </edge>
        <edge id="1si">
            <lane id="1si_0" sampledSeconds="431.82" traveltime="60.90" density="6.07" occupancy="3.03" waitingTime="233.00" speed="3.89" departed="0" arrived="0" entered="7" left="6" laneChangedFrom="0" laneChangedTo="0"/>
            <lane id="1si_1" sampledSeconds="662.00" traveltime="20.58" density="9.30" occupancy="4.65" waitingTime="72.00" speed="11.52" departed="0" arrived="0" entered="33" left="32" laneChangedFrom="0" laneChangedTo="0"/>
            <lane id="1si_2" sampledSeconds="3643.05" traveltime="141.79" density="51.21" occupancy="25.60" waitingTime="1973.00" speed="1.67" departed="0" arrived="0" entered="29" left="19" laneChangedFrom="0" laneChangedTo="0"/>
        </edge>
        <edge id="2fi">
            <lane id="2fi_0" sampledSeconds="2447.36" traveltime="24.46" density="32.83" occupancy="16.41" waitingTime="0.00" speed="10.16" departed="29" arrived="29" entered="71" left="69" laneChangedFrom="0" laneChangedTo="0"/>
        </edge>
        <edge id="2o">
            <lane id="2o_0" sampledSeconds="3559.70" traveltime="46.91" density="24.28" occupancy="12.14" waitingTime="0.00" speed="10.42" departed="0" arrived="0" entered="77" left="72" laneChangedFrom="0" laneChangedTo="0"/>
        </edge>
        <edge id="2si">
            <lane id="2si_0" sampledSeconds="1698.06" traveltime="64.67" density="23.87" occupancy="11.93" waitingTime="936.00" speed="3.67" departed="0" arrived="0" entered="25" left="31" laneChangedFrom="0" laneChangedTo="0"/>
            <lane id="2si_1" sampledSeconds="1334.52" traveltime="44.64" density="18.76" occupancy="9.38" waitingTime="585.00" speed="5.31" departed="0" arrived="0" entered="29" left="30" laneChangedFrom="0" laneChangedTo="0"/>
            <lane id="2si_2" sampledSeconds="694.08" traveltime="46.25" density="9.76" occupancy="4.88" waitingTime="188.00" speed="5.13" departed="0" arrived="0" entered="15" left="11" laneChangedFrom="0" laneChangedTo="0"/>
        </edge>
        <edge id="3fi">
            <lane id="3fi_0" sampledSeconds="2293.27" traveltime="25.10" density="30.76" occupancy="15.38" waitingTime="1.00" speed="9.90" departed="57" arrived="23" entered="36" left="66" laneChangedFrom="0" laneChangedTo="0"/>
        </edge>
        <edge id="3o">
            <lane id="3o_0" sampledSeconds="1881.48" traveltime="46.92" density="12.83" occupancy="6.42" waitingTime="0.00" speed="10.42" departed="0" arrived="0" entered="42" left="37" laneChangedFrom="0" laneChangedTo="0"/>
        </edge>
        <edge id="3si">
            <lane id="3si_0" sampledSeconds="1449.52" traveltime="48.88" density="20.37" occupancy="10.19" waitingTime="710.00" speed="4.85" departed="0" arrived="0" entered="29" left="26" laneChangedFrom="0" laneChangedTo="0"/>
            <lane id="3si_1" sampledSeconds="1476.02" traveltime="49.90" density="20.75" occupancy="10.37" waitingTime="730.00" speed="4.75" departed="0" arrived="0" entered="28" left="25" laneChangedFrom="0" laneChangedTo="0"/>
            <lane id="3si_2" sampledSeconds="259.62" traveltime="40.83" density="3.65" occupancy="1.82" waitingTime="79.00" speed="5.81" departed="0" arrived="0" entered="8" left="4" laneChangedFrom="0" laneChangedTo="0"/>
        </edge>
        <edge id="4fi">
            <lane id="4fi_0" sampledSeconds="1770.16" traveltime="23.79" density="23.74" occupancy="11.87" waitingTime="0.00" speed="10.44" departed="0" arrived="0" entered="75" left="69" laneChangedFrom="0" laneChangedTo="0"/>
        </edge>
        <edge id="4o">
            <lane id="4o_0" sampledSeconds="3503.94" traveltime="46.80" density="23.90" occupancy="11.95" waitingTime="0.00" speed="10.44" departed="0" arrived="0" entered="73" left="75" laneChangedFrom="0" laneChangedTo="0"/>
        </edge>
        <edge id="4si">
            <lane id="4si_0" sampledSeconds="1177.35" traveltime="50.57" density="16.55" occupancy="8.27" waitingTime="556.00" speed="4.69" departed="0" arrived="0" entered="24" left="16" laneChangedFrom="0" laneChangedTo="0"/>
            <lane id="4si_1" sampledSeconds="463.24" traveltime="18.15" density="6.51" occupancy="3.26" waitingTime="0.00" speed="13.07" departed="0" arrived="0" entered="25" left="25" laneChangedFrom="0" laneChangedTo="0"/>
            <lane id="4si_2" sampledSeconds="1383.53" traveltime="70.84" density="19.45" occupancy="9.72" waitingTime="618.00" speed="3.35" departed="0" arrived="0" entered="20" left="18" laneChangedFrom="0" laneChangedTo="0"/>
        </edge>
    </interval>
    <interval begin="600.00" end="900.00" id="dump_300">
        <edge id="1fi">
            <lane id="1fi_0" sampledSeconds="2634.90" traveltime="24.42" density="35.34" occupancy="17.67" waitingTime="0.00" speed="10.18" departed="30" arrived="15" entered="77" left="88" laneChangedFrom="0" laneChangedTo="0"/>
        </edge>
        <edge id="1o">
            <lane id="1o_0" sampledSeconds="3596.20" traveltime="46.86" density="24.53" occupancy="12.27" waitingTime="0.00" speed="10.43" departed="0" arrived="0" entered="73" left="77" laneChangedFrom="0" laneChangedTo="0"/>
        </edge>
        <edge id="1si">
            <lane id="1si_0" sampledSeconds="1630.59" traveltime="56.86" density="22.92" occupancy="11.46" waitingTime="846.00" speed="4.17" departed="0" arrived="0" entered="32" left="26" laneChangedFrom="0" laneChangedTo="0"/>
            <lane id="1si_1" sampledSeconds="560.55" traveltime="18.61" density="7.88" occupancy="3.94" waitingTime="12.00" speed="12.75" departed="0" arrived="0" entered="28" left="29" laneChangedFrom="0" laneChangedTo="0"/>
            <lane id="1si_2" sampledSeconds="5567.67" traveltime="197.82" density="78.26" occupancy="39.13" waitingTime="2661.00" speed="1.20" departed="0" arrived="0" entered="29" left="30" laneChangedFrom="0" laneChangedTo="0"/>
        </edge>
        <edge id="2fi">
            <lane id="2fi_0" sampledSeconds="2604.87" traveltime="24.46" density="34.94" occupancy="17.47" waitingTime="1.00" speed="10.16" departed="30" arrived="27" entered="76" left="77" laneChangedFrom="0" laneChangedTo="0"/>
        </edge>
        <edge id="2o">
            <lane id="2o_0" sampledSeconds="3518.65" traveltime="46.85" density="24.00" occupancy="12.00" waitingTime="0.00" speed="10.43" departed="0" arrived="0" entered="69" left="76" laneChangedFrom="0" laneChangedTo="0"/>
        </edge>
        <edge id="2si">
            <lane id="2si_0" sampledSeconds="1517.93" traveltime="55.14" density="21.34" occupancy="10.67" waitingTime="780.00" speed="4.30" departed="0" arrived="0" entered="29" left="25" laneChangedFrom="0" laneChangedTo="0"/>
            <lane id="2si_1" sampledSeconds="1276.07" traveltime="41.70" density="17.94" occupancy="8.97" waitingTime="519.00" speed="5.69" departed="0" arrived="0" entered="29" left="31" laneChangedFrom="0" laneChangedTo="0"/>
            <lane id="2si_2" sampledSeconds="1022.89" traveltime="57.26" density="14.38" occupancy="7.19" waitingTime="408.00" speed="4.14" departed="0" arrived="0" entered="19" left="21" laneChangedFrom="0" laneChangedTo="0"/>
        </edge>
        <edge id="3fi">
            <lane id="3fi_0" sampledSeconds="2761.50" traveltime="24.67" density="37.04" occupancy="18.52" waitingTime="0.00" speed="10.07" departed="44" arrived="55" entered="67" left="56" laneChangedFrom="0" laneChangedTo="0"/>
        </edge>
        <edge id="3o">
            <lane id="3o_0" sampledSeconds="3263.39" traveltime="46.86" density="22.26" occupancy="11.13" waitingTime="0.00" speed="10.43" departed="0" arrived="0" entered="71" left="66" laneChangedFrom="0" laneChangedTo="0"/>
        </edge>
        <edge id="3si">
            <lane id="3si_0" sampledSeconds="1040.77" traveltime="49.38" density="14.63" occupancy="7.31" waitingTime="516.00" speed="4.80" departed="0" arrived="0" entered="20" left="20" laneChangedFrom="0" laneChangedTo="0"/>
            <lane id="3si_1" sampledSeconds="1095.11" traveltime="53.21" density="15.39" occupancy="7.70" waitingTime="591.00" speed="4.46" departed="0" arrived="0" entered="21" left="21" laneChangedFrom="0" laneChangedTo="0"/>
            <lane id="3si_2" sampledSeconds="1044.38" traveltime="59.10" density="14.68" occupancy="7.34" waitingTime="432.00" speed="4.01" departed="0" arrived="0" entered="16" left="15" laneChangedFrom="0" laneChangedTo="0"/>
        </edge>
        <edge id="4fi">
            <lane id="4fi_0" sampledSeconds="1896.20" traveltime="23.82" density="25.44" occupancy="12.72" waitingTime="0.00" speed="10.43" departed="0" arrived="0" entered="75" left="81" laneChangedFrom="0" laneChangedTo="0"/>
        </edge>
        <edge id="4o">
            <lane id="4o_0" sampledSeconds="3632.43" traveltime="46.88" density="24.78" occupancy="12.39" waitingTime="0.00" speed="10.42" departed="0" arrived="0" entered="78" left="75" laneChangedFrom="0" laneChangedTo="0"/>
        </edge>
        <edge id="4si">
            <lane id="4si_0" sampledSeconds="1865.07" traveltime="70.03" density="26.22" occupancy="13.11" waitingTime="1090.00" speed="3.39" departed="0" arrived="0" entered="26" left="26" laneChangedFrom="0" laneChangedTo="0"/>
            <lane id="4si_1" sampledSeconds="475.38" traveltime="18.15" density="6.68" occupancy="3.34" waitingTime="0.00" speed="13.07" departed="0" arrived="0" entered="28" left="23" laneChangedFrom="0" laneChangedTo="0"/>
            <lane id="4si_2" sampledSeconds="2428.56" traveltime="92.84" density="34.14" occupancy="17.07" waitingTime="1148.00" speed="2.55" departed="0" arrived="0" entered="27" left="20" laneChangedFrom="0" laneChangedTo="0"/>
        </edge>
    </interval>
    <interval begin="900.00" end="1000.00" id="dump_300">
        <edge id="1fi">
            <lane id="1fi_0" sampledSeconds="860.37" traveltime="24.51" density="34.62" occupancy="17.31" waitingTime="0.00" speed="10.14" departed="11" arrived="5" entered="24" left="30" laneChangedFrom="0" laneChangedTo="0"/>
        </edge>
        <edge id="1o">
            <lane id="1o_0" sampledSeconds="1206.95" traveltime="47.03" density="24.70" occupancy="12.35" waitingTime="0.00" speed="10.39" departed="0" arrived="0" entered="27" left="24" laneChangedFrom="0" laneChangedTo="0"/>
        </edge>
        <edge id="1si">
            <lane id="1si_0" sampledSeconds="699.75" traveltime="51.38" density="29.51" occupancy="14.75" waitingTime="319.00" speed="4.62" departed="0" arrived="0" entered="11" left="10" laneChangedFrom="0" laneChangedTo="0"/>
            <lane id="1si_1" sampledSeconds="214.55" traveltime="23.28" density="9.05" occupancy="4.52" waitingTime="45.00" speed="10.19" departed="0" arrived="0" entered="9" left="10" laneChangedFrom="0" laneChangedTo="0"/>
            <lane id="1si_2" sampledSeconds="2174.54" traveltime="292.87" density="91.69" occupancy="45.85" waitingTime="1277.00" speed="0.81" departed="0" arrived="0" entered="10" left="4" laneChangedFrom="0" laneChangedTo="0"/>
        </edge>
        <edge id="2fi">
            <lane id="2fi_0" sampledSeconds="781.78" traveltime="24.52" density="31.46" occupancy="15.73" waitingTime="0.00" speed="10.13" departed="10" arrived="7" entered="22" left="24" laneChangedFrom="0" laneChangedTo="0"/>
        </edge>
        <edge id="2o">
            <lane id="2o_0" sampledSeconds="1072.65" traveltime="46.94" density="21.95" occupancy="10.98" waitingTime="0.00" speed="10.41" departed="0" arrived="0" entered="25" left="21" laneChangedFrom="0" laneChangedTo="0"/>
        </edge>
        <edge id="2si">
            <lane id="2si_0" sampledSeconds="417.65" traveltime="51.30" density="17.61" occupancy="8.81" waitingTime="199.00" speed="4.62" departed="0" arrived="0" entered="7" left="6" laneChangedFrom="0" laneChangedTo="0"/>
            <lane id="2si_1" sampledSeconds="468.38" traveltime="44.08" density="19.75" occupancy="9.88" waitingTime="212.00" speed="5.38" departed="0" arrived="0" entered="12" left="11" laneChangedFrom="0" laneChangedTo="0"/>
            <lane id="2si_2" sampledSeconds="488.72" traveltime="71.27" density="20.61" occupancy="10.30" waitingTime="200.00" speed="3.33" departed="0" arrived="0" entered="5" left="5" laneChangedFrom="0" laneChangedTo="0"/>
        </edge>
        <edge id="3fi">
            <lane id="3fi_0" sampledSeconds="905.97" traveltime="24.49" density="36.46" occupancy="18.23" waitingTime="0.00" speed="10.15" departed="12" arrived="15" entered="25" left="21" laneChangedFrom="0" laneChangedTo="0"/>
        </edge>
        <edge id="3o">
            <lane id="3o_0" sampledSeconds="1184.65" traveltime="46.93" density="24.24" occupancy="12.12" waitingTime="0.00" speed="10.41" departed="0" arrived="0" entered="24" left="25" laneChangedFrom="0" laneChangedTo="0"/>
        </edge>
        <edge id="3si">
            <lane id="3si_0" sampledSeconds="325.40" traveltime="51.13" density="13.72" occupancy="6.86" waitingTime="160.00" speed="4.64" departed="0" arrived="0" entered="7" left="10" laneChangedFrom="0" laneChangedTo="0"/>
            <lane id="3si_1" sampledSeconds="311.89" traveltime="45.49" density="13.15" occupancy="6.58" waitingTime="147.00" speed="5.21" departed="0" arrived="0" entered="6" left="10" laneChangedFrom="0" laneChangedTo="0"/>
            <lane id="3si_2" sampledSeconds="454.51" traveltime="59.06" density="19.17" occupancy="9.58" waitingTime="158.00" speed="4.02" departed="0" arrived="0" entered="8" left="6" laneChangedFrom="0" laneChangedTo="0"/>
        </edge>
        <edge id="4fi">
            <lane id="4fi_0" sampledSeconds="513.96" traveltime="23.86" density="20.68" occupancy="10.34" waitingTime="0.00" speed="10.42" departed="0" arrived="0" entered="22" left="22" laneChangedFrom="0" laneChangedTo="0"/>
        </edge>
        <edge id="4o">
            <lane id="4o_0" sampledSeconds="964.71" traveltime="46.85" density="19.74" occupancy="9.87" waitingTime="0.00" speed="10.43" departed="0" arrived="0" entered="19" left="22" laneChangedFrom="0" laneChangedTo="0"/>
        </edge>
        <edge id="4si">
            <lane id="4si_0" sampledSeconds="449.70" traveltime="63.81" density="18.96" occupancy="9.48" waitingTime="229.00" speed="3.72" departed="0" arrived="0" entered="6" left="12" laneChangedFrom="0" laneChangedTo="0"/>
            <lane id="4si_1" sampledSeconds="226.33" traveltime="25.04" density="9.54" occupancy="4.77" waitingTime="53.00" speed="9.47" departed="0" arrived="0" entered="8" left="10" laneChangedFrom="0" laneChangedTo="0"/>
            <lane id="4si_2" sampledSeconds="1122.66" traveltime="149.53" density="47.34" occupancy="23.67" waitingTime="638.00" speed="1.59" departed="0" arrived="0" entered="8" left="7" laneChangedFrom="0" laneChangedTo="0"/>
        </edge>
    </interval>
</meandata>
