<?xml version="1.0" encoding="UTF-8"?>

<!-- generated on Thu Oct 26 17:01:59 2017 by SUMO Version dev-SVN-r26746
<?xml version="1.0" encoding="UTF-8"?>

<configuration xmlns:xsi="http://www.w3.org/2001/XMLSchema-instance" xsi:noNamespaceSchemaLocation="http://sumo.dlr.de/xsd/sumoConfiguration.xsd">

    <input>
        <net-file value="net.net.xml"/>
        <route-files value="input_routes.rou.xml"/>
        <additional-files value="input_additional.add.xml"/>
    </input>

    <time>
        <begin value="0"/>
        <end value="1000"/>
    </time>

    <report>
        <xml-validation value="never"/>
        <duration-log.disable value="true"/>
        <no-step-log value="true"/>
    </report>

</configuration>
-->

<meandata xmlns:xsi="http://www.w3.org/2001/XMLSchema-instance" xsi:noNamespaceSchemaLocation="http://sumo.dlr.de/xsd/meandata_file.xsd">
    <interval begin="0.00" end="300.00" id="dump_300">
        <edge id="1fi">
            <lane id="1fi_0" sampledSeconds="676.57" traveltime="25.53" overlapTraveltime="26.02" density="9.08" occupancy="4.48" waitingTime="0.00" speed="9.74" departed="20" arrived="0" entered="11" left="21" laneChangedFrom="0" laneChangedTo="0"/>
        </edge>
        <edge id="1o">
            <lane id="1o_0" sampledSeconds="567.55" traveltime="47.12" overlapTraveltime="47.64" density="3.87" occupancy="1.92" waitingTime="0.00" speed="10.36" departed="0" arrived="0" entered="12" left="11" laneChangedFrom="0" laneChangedTo="0"/>
        </edge>
        <edge id="1si">
            <lane id="1si_0" sampledSeconds="0.00" departed="0" arrived="0" entered="0" left="0" laneChangedFrom="0" laneChangedTo="0"/>
            <lane id="1si_1" sampledSeconds="98.17" traveltime="32.49" overlapTraveltime="32.99" density="1.38" occupancy="0.68" waitingTime="41.00" speed="7.34" departed="0" arrived="0" entered="3" left="2" laneChangedFrom="0" laneChangedTo="0"/>
            <lane id="1si_2" sampledSeconds="657.12" traveltime="37.59" overlapTraveltime="39.62" density="9.24" occupancy="4.54" waitingTime="226.00" speed="6.11" departed="0" arrived="0" entered="18" left="12" laneChangedFrom="0" laneChangedTo="0"/>
        </edge>
        <edge id="2fi">
            <lane id="2fi_0" sampledSeconds="683.33" traveltime="25.52" overlapTraveltime="25.98" density="9.17" occupancy="4.53" waitingTime="0.00" speed="9.76" departed="20" arrived="0" entered="9" left="25" laneChangedFrom="0" laneChangedTo="0"/>
        </edge>
        <edge id="2o">
            <lane id="2o_0" sampledSeconds="592.27" traveltime="47.18" overlapTraveltime="47.72" density="4.04" occupancy="1.99" waitingTime="0.00" speed="10.35" departed="0" arrived="0" entered="19" left="9" laneChangedFrom="0" laneChangedTo="0"/>
        </edge>
        <edge id="2si">
            <lane id="2si_0" sampledSeconds="258.84" traveltime="41.05" overlapTraveltime="41.91" density="3.64" occupancy="1.81" waitingTime="123.00" speed="5.78" departed="0" arrived="0" entered="7" left="0" laneChangedFrom="0" laneChangedTo="0"/>
            <lane id="2si_1" sampledSeconds="574.57" traveltime="34.00" overlapTraveltime="34.64" density="8.08" occupancy="3.99" waitingTime="219.00" speed="6.99" departed="0" arrived="0" entered="18" left="12" laneChangedFrom="0" laneChangedTo="0"/>
            <lane id="2si_2" sampledSeconds="0.00" departed="0" arrived="0" entered="0" left="0" laneChangedFrom="0" laneChangedTo="0"/>
        </edge>
        <edge id="3fi">
            <lane id="3fi_0" sampledSeconds="986.71" traveltime="26.22" overlapTraveltime="26.69" density="13.24" occupancy="6.56" waitingTime="0.00" speed="9.50" departed="40" arrived="0" entered="0" left="36" laneChangedFrom="0" laneChangedTo="0"/>
        </edge>
        <edge id="3o">
            <lane id="3o_0" sampledSeconds="108.48" traveltime="47.13" overlapTraveltime="47.62" density="0.74" occupancy="0.37" waitingTime="0.00" speed="10.37" departed="0" arrived="0" entered="6" left="0" laneChangedFrom="0" laneChangedTo="0"/>
        </edge>
        <edge id="3si">
            <lane id="3si_0" sampledSeconds="651.52" traveltime="37.93" overlapTraveltime="38.61" density="9.16" occupancy="4.52" waitingTime="267.00" speed="6.27" departed="0" arrived="0" entered="18" left="16" laneChangedFrom="0" laneChangedTo="0"/>
            <lane id="3si_1" sampledSeconds="606.52" traveltime="36.07" overlapTraveltime="36.72" density="8.53" occupancy="4.20" waitingTime="238.00" speed="6.59" departed="0" arrived="0" entered="17" left="16" laneChangedFrom="0" laneChangedTo="0"/>
            <lane id="3si_2" sampledSeconds="0.00" departed="0" arrived="0" entered="0" left="0" laneChangedFrom="0" laneChangedTo="0"/>
        </edge>
        <edge id="4fi">
            <lane id="4fi_0" sampledSeconds="276.56" traveltime="23.74" overlapTraveltime="24.20" density="3.71" occupancy="1.82" waitingTime="0.00" speed="10.47" departed="0" arrived="0" entered="13" left="11" laneChangedFrom="0" laneChangedTo="0"/>
        </edge>
        <edge id="4o">
            <lane id="4o_0" sampledSeconds="985.96" traveltime="46.93" overlapTraveltime="47.42" density="6.73" occupancy="3.33" waitingTime="0.00" speed="10.41" departed="0" arrived="0" entered="28" left="14" laneChangedFrom="0" laneChangedTo="0"/>
        </edge>
        <edge id="4si">
            <lane id="4si_0" sampledSeconds="0.00" departed="0" arrived="0" entered="0" left="0" laneChangedFrom="0" laneChangedTo="0"/>
            <lane id="4si_1" sampledSeconds="129.29" traveltime="18.05" overlapTraveltime="18.47" density="1.82" occupancy="0.89" waitingTime="0.00" speed="13.11" departed="0" arrived="0" entered="7" left="7" laneChangedFrom="0" laneChangedTo="0"/>
            <lane id="4si_2" sampledSeconds="225.61" traveltime="51.16" overlapTraveltime="57.42" density="3.17" occupancy="1.56" waitingTime="110.00" speed="4.22" departed="0" arrived="0" entered="4" left="3" laneChangedFrom="0" laneChangedTo="0"/>
        </edge>
    </interval>
    <interval begin="300.00" end="600.00" id="dump_300">
        <edge id="1fi">
            <lane id="1fi_0" sampledSeconds="1734.10" traveltime="24.74" overlapTraveltime="25.20" density="23.26" occupancy="11.45" waitingTime="0.00" speed="10.06" departed="29" arrived="0" entered="40" left="73" laneChangedFrom="0" laneChangedTo="0"/>
        </edge>
        <edge id="1o">
            <lane id="1o_0" sampledSeconds="2162.74" traveltime="46.98" overlapTraveltime="47.47" density="14.75" occupancy="7.30" waitingTime="0.00" speed="10.40" departed="0" arrived="0" entered="53" left="40" laneChangedFrom="0" laneChangedTo="0"/>
        </edge>
        <edge id="1si">
            <lane id="1si_0" sampledSeconds="434.97" traveltime="61.47" overlapTraveltime="62.14" density="6.11" occupancy="3.03" waitingTime="255.00" speed="3.90" departed="0" arrived="0" entered="7" left="7" laneChangedFrom="0" laneChangedTo="0"/>
            <lane id="1si_1" sampledSeconds="644.57" traveltime="18.59" overlapTraveltime="19.06" density="9.06" occupancy="4.42" waitingTime="15.00" speed="12.71" departed="0" arrived="0" entered="35" left="34" laneChangedFrom="0" laneChangedTo="0"/>
            <lane id="1si_2" sampledSeconds="3177.33" traveltime="116.58" overlapTraveltime="121.02" density="44.66" occupancy="22.17" waitingTime="1922.00" speed="2.00" departed="0" arrived="0" entered="30" left="20" laneChangedFrom="0" laneChangedTo="0"/>
        </edge>
        <edge id="2fi">
            <lane id="2fi_0" sampledSeconds="2529.74" traveltime="24.53" overlapTraveltime="25.00" density="33.93" occupancy="16.70" waitingTime="0.00" speed="10.14" departed="29" arrived="30" entered="75" left="71" laneChangedFrom="0" laneChangedTo="0"/>
        </edge>
        <edge id="2o">
            <lane id="2o_0" sampledSeconds="3760.88" traveltime="47.04" overlapTraveltime="47.54" density="25.65" occupancy="12.69" waitingTime="0.00" speed="10.38" departed="0" arrived="0" entered="81" left="75" laneChangedFrom="0" laneChangedTo="0"/>
        </edge>
        <edge id="2si">
            <lane id="2si_0" sampledSeconds="1752.64" traveltime="65.00" overlapTraveltime="65.53" density="24.63" occupancy="12.21" waitingTime="1038.00" speed="3.70" departed="0" arrived="0" entered="26" left="32" laneChangedFrom="0" laneChangedTo="0"/>
            <lane id="2si_1" sampledSeconds="1093.06" traveltime="36.23" overlapTraveltime="36.84" density="15.36" occupancy="7.57" waitingTime="417.00" speed="6.57" departed="0" arrived="0" entered="29" left="33" laneChangedFrom="0" laneChangedTo="0"/>
            <lane id="2si_2" sampledSeconds="860.52" traveltime="51.46" overlapTraveltime="55.81" density="12.10" occupancy="5.96" waitingTime="384.00" speed="4.34" departed="0" arrived="0" entered="16" left="11" laneChangedFrom="0" laneChangedTo="0"/>
        </edge>
        <edge id="3fi">
            <lane id="3fi_0" sampledSeconds="2329.56" traveltime="25.37" overlapTraveltime="25.85" density="31.25" occupancy="15.42" waitingTime="0.00" speed="9.81" departed="58" arrived="24" entered="36" left="65" laneChangedFrom="0" laneChangedTo="0"/>
        </edge>
        <edge id="3o">
            <lane id="3o_0" sampledSeconds="1891.68" traveltime="47.24" overlapTraveltime="47.83" density="12.90" occupancy="6.38" waitingTime="0.00" speed="10.32" departed="0" arrived="0" entered="42" left="37" laneChangedFrom="0" laneChangedTo="0"/>
        </edge>
        <edge id="3si">
            <lane id="3si_0" sampledSeconds="1364.40" traveltime="45.56" overlapTraveltime="46.24" density="19.18" occupancy="9.49" waitingTime="665.00" speed="5.24" departed="0" arrived="0" entered="30" left="26" laneChangedFrom="0" laneChangedTo="0"/>
            <lane id="3si_1" sampledSeconds="1362.44" traveltime="45.60" overlapTraveltime="46.29" density="19.15" occupancy="9.47" waitingTime="678.00" speed="5.23" departed="0" arrived="0" entered="31" left="25" laneChangedFrom="0" laneChangedTo="0"/>
            <lane id="3si_2" sampledSeconds="248.64" traveltime="46.39" overlapTraveltime="52.88" density="3.49" occupancy="1.71" waitingTime="113.00" speed="4.58" departed="0" arrived="0" entered="5" left="4" laneChangedFrom="0" laneChangedTo="0"/>
        </edge>
        <edge id="4fi">
            <lane id="4fi_0" sampledSeconds="1850.26" traveltime="23.83" overlapTraveltime="24.30" density="24.82" occupancy="12.17" waitingTime="0.00" speed="10.43" departed="0" arrived="0" entered="79" left="72" laneChangedFrom="0" laneChangedTo="0"/>
        </edge>
        <edge id="4o">
            <lane id="4o_0" sampledSeconds="3588.62" traveltime="47.01" overlapTraveltime="47.49" density="24.48" occupancy="12.11" waitingTime="0.00" speed="10.40" departed="0" arrived="0" entered="74" left="78" laneChangedFrom="0" laneChangedTo="0"/>
        </edge>
        <edge id="4si">
            <lane id="4si_0" sampledSeconds="1190.30" traveltime="49.63" overlapTraveltime="50.42" density="16.73" occupancy="8.29" waitingTime="613.00" speed="4.80" departed="0" arrived="0" entered="25" left="16" laneChangedFrom="0" laneChangedTo="0"/>
            <lane id="4si_1" sampledSeconds="482.09" traveltime="18.12" overlapTraveltime="18.54" density="6.78" occupancy="3.31" waitingTime="0.00" speed="13.06" departed="0" arrived="0" entered="26" left="26" laneChangedFrom="0" laneChangedTo="0"/>
            <lane id="4si_2" sampledSeconds="1544.25" traveltime="71.61" overlapTraveltime="75.78" density="21.71" occupancy="10.71" waitingTime="760.00" speed="3.20" departed="0" arrived="0" entered="21" left="20" laneChangedFrom="0" laneChangedTo="0"/>
        </edge>
    </interval>
    <interval begin="600.00" end="900.00" id="dump_300">
        <edge id="1fi">
            <lane id="1fi_0" sampledSeconds="2619.01" traveltime="24.48" overlapTraveltime="24.94" density="35.13" occupancy="17.28" waitingTime="0.00" speed="10.16" departed="29" arrived="15" entered="78" left="88" laneChangedFrom="0" laneChangedTo="0"/>
        </edge>
        <edge id="1o">
            <lane id="1o_0" sampledSeconds="3651.50" traveltime="47.10" overlapTraveltime="47.59" density="24.91" occupancy="12.33" waitingTime="0.00" speed="10.37" departed="0" arrived="0" entered="72" left="78" laneChangedFrom="0" laneChangedTo="0"/>
        </edge>
        <edge id="1si">
            <lane id="1si_0" sampledSeconds="1679.29" traveltime="56.60" overlapTraveltime="57.31" density="23.60" occupancy="11.69" waitingTime="942.00" speed="4.23" departed="0" arrived="0" entered="34" left="26" laneChangedFrom="0" laneChangedTo="0"/>
            <lane id="1si_1" sampledSeconds="593.16" traveltime="20.58" overlapTraveltime="21.05" density="8.34" occupancy="4.08" waitingTime="66.00" speed="11.50" departed="0" arrived="0" entered="27" left="28" laneChangedFrom="0" laneChangedTo="0"/>
            <lane id="1si_2" sampledSeconds="5190.89" traveltime="196.11" overlapTraveltime="199.91" density="72.96" occupancy="36.31" waitingTime="3145.00" speed="1.21" departed="0" arrived="0" entered="28" left="26" laneChangedFrom="0" laneChangedTo="0"/>
        </edge>
        <edge id="2fi">
            <lane id="2fi_0" sampledSeconds="2693.77" traveltime="24.57" overlapTraveltime="25.05" density="36.13" occupancy="17.78" waitingTime="0.00" speed="10.12" departed="30" arrived="26" entered="79" left="81" laneChangedFrom="0" laneChangedTo="0"/>
        </edge>
        <edge id="2o">
            <lane id="2o_0" sampledSeconds="3690.23" traveltime="47.07" overlapTraveltime="47.59" density="25.17" occupancy="12.45" waitingTime="0.00" speed="10.37" departed="0" arrived="0" entered="72" left="80" laneChangedFrom="0" laneChangedTo="0"/>
        </edge>
        <edge id="2si">
            <lane id="2si_0" sampledSeconds="1549.18" traveltime="56.39" overlapTraveltime="57.06" density="21.78" occupancy="10.79" waitingTime="866.00" speed="4.24" departed="0" arrived="0" entered="28" left="26" laneChangedFrom="0" laneChangedTo="0"/>
            <lane id="2si_1" sampledSeconds="1226.20" traveltime="40.32" overlapTraveltime="40.96" density="17.24" occupancy="8.51" waitingTime="554.00" speed="5.91" departed="0" arrived="0" entered="30" left="28" laneChangedFrom="0" laneChangedTo="0"/>
            <lane id="2si_2" sampledSeconds="1334.68" traveltime="59.41" overlapTraveltime="63.81" density="18.76" occupancy="9.22" waitingTime="601.00" speed="3.79" departed="0" arrived="0" entered="23" left="25" laneChangedFrom="0" laneChangedTo="0"/>
        </edge>
        <edge id="3fi">
            <lane id="3fi_0" sampledSeconds="2986.97" traveltime="24.73" overlapTraveltime="25.20" density="40.07" occupancy="19.77" waitingTime="0.00" speed="10.06" departed="45" arrived="57" entered="75" left="63" laneChangedFrom="0" laneChangedTo="0"/>
        </edge>
        <edge id="3o">
            <lane id="3o_0" sampledSeconds="3653.13" traveltime="47.16" overlapTraveltime="47.67" density="24.92" occupancy="12.33" waitingTime="0.00" speed="10.36" departed="0" arrived="0" entered="78" left="74" laneChangedFrom="0" laneChangedTo="0"/>
        </edge>
        <edge id="3si">
            <lane id="3si_0" sampledSeconds="1081.43" traveltime="50.90" overlapTraveltime="51.62" density="15.20" occupancy="7.52" waitingTime="600.00" speed="4.69" departed="0" arrived="0" entered="20" left="20" laneChangedFrom="0" laneChangedTo="0"/>
            <lane id="3si_1" sampledSeconds="1184.51" traveltime="56.80" overlapTraveltime="57.46" density="16.65" occupancy="8.25" waitingTime="705.00" speed="4.21" departed="0" arrived="0" entered="19" left="21" laneChangedFrom="0" laneChangedTo="0"/>
            <lane id="3si_2" sampledSeconds="1273.07" traveltime="50.58" overlapTraveltime="54.23" density="17.89" occupancy="8.82" waitingTime="542.00" speed="4.47" departed="0" arrived="0" entered="24" left="18" laneChangedFrom="0" laneChangedTo="0"/>
        </edge>
        <edge id="4fi">
            <lane id="4fi_0" sampledSeconds="1844.78" traveltime="23.81" overlapTraveltime="24.27" density="24.75" occupancy="12.13" waitingTime="0.00" speed="10.45" departed="0" arrived="0" entered="72" left="80" laneChangedFrom="0" laneChangedTo="0"/>
        </edge>
        <edge id="4o">
            <lane id="4o_0" sampledSeconds="3539.97" traveltime="47.06" overlapTraveltime="47.54" density="24.15" occupancy="11.95" waitingTime="0.00" speed="10.38" departed="0" arrived="0" entered="76" left="72" laneChangedFrom="0" laneChangedTo="0"/>
        </edge>
        <edge id="4si">
            <lane id="4si_0" sampledSeconds="1888.80" traveltime="71.84" overlapTraveltime="72.50" density="26.55" occupancy="13.18" waitingTime="1213.00" speed="3.34" departed="0" arrived="0" entered="26" left="26" laneChangedFrom="0" laneChangedTo="0"/>
            <lane id="4si_1" sampledSeconds="485.94" traveltime="18.04" overlapTraveltime="18.46" density="6.83" occupancy="3.34" waitingTime="0.00" speed="13.11" departed="0" arrived="0" entered="28" left="24" laneChangedFrom="0" laneChangedTo="0"/>
            <lane id="4si_2" sampledSeconds="1647.83" traveltime="59.51" overlapTraveltime="62.75" density="23.16" occupancy="11.43" waitingTime="691.00" speed="3.86" departed="0" arrived="0" entered="26" left="23" laneChangedFrom="0" laneChangedTo="0"/>
        </edge>
    </interval>
    <interval begin="900.00" end="1000.00" id="dump_300">
        <edge id="1fi">
            <lane id="1fi_0" sampledSeconds="930.58" traveltime="24.62" overlapTraveltime="25.09" density="37.45" occupancy="18.43" waitingTime="0.00" speed="10.10" departed="11" arrived="9" entered="26" left="28" laneChangedFrom="0" laneChangedTo="0"/>
        </edge>
        <edge id="1o">
            <lane id="1o_0" sampledSeconds="1341.04" traveltime="47.07" overlapTraveltime="47.59" density="27.44" occupancy="13.57" waitingTime="0.00" speed="10.37" departed="0" arrived="0" entered="31" left="26" laneChangedFrom="0" laneChangedTo="0"/>
        </edge>
        <edge id="1si">
            <lane id="1si_0" sampledSeconds="648.38" traveltime="50.40" overlapTraveltime="51.15" density="27.34" occupancy="13.56" waitingTime="334.00" speed="4.73" departed="0" arrived="0" entered="10" left="9" laneChangedFrom="0" laneChangedTo="0"/>
            <lane id="1si_1" sampledSeconds="195.18" traveltime="23.75" overlapTraveltime="24.32" density="8.23" occupancy="4.03" waitingTime="45.00" speed="9.96" departed="0" arrived="0" entered="8" left="9" laneChangedFrom="0" laneChangedTo="0"/>
            <lane id="1si_2" sampledSeconds="2207.67" traveltime="273.30" overlapTraveltime="278.34" density="93.09" occupancy="46.40" waitingTime="1285.00" speed="0.87" departed="0" arrived="0" entered="10" left="6" laneChangedFrom="0" laneChangedTo="0"/>
        </edge>
        <edge id="2fi">
            <lane id="2fi_0" sampledSeconds="859.31" traveltime="24.64" overlapTraveltime="25.12" density="34.58" occupancy="17.01" waitingTime="0.00" speed="10.09" departed="11" arrived="8" entered="23" left="27" laneChangedFrom="0" laneChangedTo="0"/>
        </edge>
        <edge id="2o">
            <lane id="2o_0" sampledSeconds="1132.80" traveltime="47.33" overlapTraveltime="47.88" density="23.18" occupancy="11.46" waitingTime="0.00" speed="10.31" departed="0" arrived="0" entered="26" left="23" laneChangedFrom="0" laneChangedTo="0"/>
        </edge>
        <edge id="2si">
            <lane id="2si_0" sampledSeconds="314.21" traveltime="41.60" overlapTraveltime="42.48" density="13.25" occupancy="6.55" waitingTime="144.00" speed="5.70" departed="0" arrived="0" entered="8" left="4" laneChangedFrom="0" laneChangedTo="0"/>
            <lane id="2si_1" sampledSeconds="476.16" traveltime="46.02" overlapTraveltime="46.56" density="20.08" occupancy="9.93" waitingTime="244.00" speed="5.20" departed="0" arrived="0" entered="11" left="11" laneChangedFrom="0" laneChangedTo="0"/>
            <lane id="2si_2" sampledSeconds="706.06" traveltime="66.79" overlapTraveltime="69.87" density="29.77" occupancy="14.73" waitingTime="322.00" speed="3.47" departed="0" arrived="0" entered="8" left="7" laneChangedFrom="0" laneChangedTo="0"/>
        </edge>
        <edge id="3fi">
            <lane id="3fi_0" sampledSeconds="983.78" traveltime="25.00" overlapTraveltime="25.47" density="39.59" occupancy="19.49" waitingTime="0.00" speed="9.95" departed="16" arrived="13" entered="23" left="26" laneChangedFrom="0" laneChangedTo="0"/>
        </edge>
        <edge id="3o">
            <lane id="3o_0" sampledSeconds="1137.14" traveltime="47.21" overlapTraveltime="47.75" density="23.27" occupancy="11.51" waitingTime="0.00" speed="10.34" departed="0" arrived="0" entered="23" left="23" laneChangedFrom="0" laneChangedTo="0"/>
        </edge>
        <edge id="3si">
            <lane id="3si_0" sampledSeconds="346.44" traveltime="41.26" overlapTraveltime="41.96" density="14.61" occupancy="7.17" waitingTime="146.00" speed="5.77" departed="0" arrived="0" entered="9" left="12" laneChangedFrom="0" laneChangedTo="0"/>
            <lane id="3si_1" sampledSeconds="377.60" traveltime="44.27" overlapTraveltime="44.94" density="15.92" occupancy="7.84" waitingTime="177.00" speed="5.39" departed="0" arrived="0" entered="10" left="11" laneChangedFrom="0" laneChangedTo="0"/>
            <lane id="3si_2" sampledSeconds="453.61" traveltime="58.47" overlapTraveltime="62.74" density="19.13" occupancy="9.42" waitingTime="181.00" speed="3.86" departed="0" arrived="0" entered="7" left="9" laneChangedFrom="0" laneChangedTo="0"/>
        </edge>
        <edge id="4fi">
            <lane id="4fi_0" sampledSeconds="524.92" traveltime="23.83" overlapTraveltime="24.29" density="21.12" occupancy="10.35" waitingTime="0.00" speed="10.44" departed="0" arrived="0" entered="23" left="22" laneChangedFrom="0" laneChangedTo="0"/>
        </edge>
        <edge id="4o">
            <lane id="4o_0" sampledSeconds="975.50" traveltime="46.98" overlapTraveltime="47.47" density="19.96" occupancy="9.87" waitingTime="0.00" speed="10.40" departed="0" arrived="0" entered="20" left="24" laneChangedFrom="0" laneChangedTo="0"/>
        </edge>
        <edge id="4si">
            <lane id="4si_0" sampledSeconds="527.62" traveltime="65.92" overlapTraveltime="66.22" density="22.25" occupancy="11.00" waitingTime="290.00" speed="3.66" departed="0" arrived="0" entered="7" left="13" laneChangedFrom="0" laneChangedTo="0"/>
            <lane id="4si_1" sampledSeconds="146.33" traveltime="18.11" overlapTraveltime="18.54" density="6.17" occupancy="3.01" waitingTime="0.00" speed="13.06" departed="0" arrived="0" entered="8" left="8" laneChangedFrom="0" laneChangedTo="0"/>
            <lane id="4si_2" sampledSeconds="401.05" traveltime="53.07" overlapTraveltime="58.62" density="16.91" occupancy="8.31" waitingTime="173.00" speed="4.13" departed="0" arrived="0" entered="7" left="7" laneChangedFrom="0" laneChangedTo="0"/>
        </edge>
    </interval>
</meandata>
