<?xml version="1.0" encoding="UTF-8"?>

<!-- generated on Fri Feb 20 12:40:44 2015 by SUMO Version dev-SVN-r17931I
<?xml version="1.0" encoding="UTF-8"?>

<configuration xmlns:xsi="http://www.w3.org/2001/XMLSchema-instance" xsi:noNamespaceSchemaLocation="http://sumo.dlr.de/xsd/sumoConfiguration.xsd">

    <input>
        <net-file value="net.net.xml"/>
        <route-files value="input_routes.rou.xml"/>
        <additional-files value="input_additional.add.xml"/>
    </input>

    <time>
        <begin value="0"/>
        <end value="1000"/>
    </time>

    <report>
        <xml-validation value="never"/>
        <no-duration-log value="true"/>
        <no-step-log value="true"/>
    </report>

</configuration>
-->

<meandata xmlns:xsi="http://www.w3.org/2001/XMLSchema-instance" xsi:noNamespaceSchemaLocation="http://sumo.dlr.de/xsd/meandata_file.xsd">
    <interval begin="0.00" end="900.00" id="dump_900">
        <edge id="1fi">
            <lane id="1fi_0" sampledSeconds="5087.05" traveltime="24.72" density="22.75" occupancy="11.37" waitingTime="0.00" speed="10.05" departed="78" arrived="16" entered="130" left="183" laneChangedFrom="0" laneChangedTo="0"/>
        </edge>
        <edge id="1o">
            <lane id="1o_0" sampledSeconds="6459.10" traveltime="47.14" density="14.69" occupancy="7.34" waitingTime="0.00" speed="10.37" departed="0" arrived="0" entered="138" left="130" laneChangedFrom="0" laneChangedTo="0"/>
        </edge>
        <edge id="1si">
            <lane id="1si_0" sampledSeconds="2111.76" traveltime="57.10" density="9.89" occupancy="4.95" waitingTime="1191.00" speed="4.15" departed="0" arrived="0" entered="41" left="33" laneChangedFrom="0" laneChangedTo="0"/>
            <lane id="1si_1" sampledSeconds="1414.18" traveltime="20.99" density="6.63" occupancy="3.31" waitingTime="172.00" speed="11.30" departed="0" arrived="0" entered="66" left="65" laneChangedFrom="0" laneChangedTo="0"/>
            <lane id="1si_2" sampledSeconds="7315.11" traveltime="101.02" density="34.27" occupancy="17.14" waitingTime="3982.00" speed="2.35" departed="0" arrived="0" entered="76" left="61" laneChangedFrom="0" laneChangedTo="0"/>
        </edge>
        <edge id="2fi">
            <lane id="2fi_0" sampledSeconds="5910.15" traveltime="24.58" density="26.43" occupancy="13.21" waitingTime="0.00" speed="10.11" departed="79" arrived="57" entered="163" left="177" laneChangedFrom="0" laneChangedTo="0"/>
        </edge>
        <edge id="2o">
            <lane id="2o_0" sampledSeconds="8027.95" traveltime="47.02" density="18.25" occupancy="9.13" waitingTime="0.00" speed="10.39" departed="0" arrived="0" entered="172" left="163" laneChangedFrom="0" laneChangedTo="0"/>
        </edge>
        <edge id="2si">
            <lane id="2si_0" sampledSeconds="3528.59" traveltime="58.13" density="16.53" occupancy="8.27" waitingTime="2031.00" speed="4.08" departed="0" arrived="0" entered="61" left="57" laneChangedFrom="0" laneChangedTo="0"/>
            <lane id="2si_1" sampledSeconds="2753.05" traveltime="35.38" density="12.90" occupancy="6.45" waitingTime="1070.00" speed="6.70" departed="0" arrived="0" entered="78" left="73" laneChangedFrom="0" laneChangedTo="0"/>
            <lane id="2si_2" sampledSeconds="2161.81" traveltime="57.35" density="10.13" occupancy="5.06" waitingTime="938.00" speed="4.14" departed="0" arrived="0" entered="37" left="35" laneChangedFrom="0" laneChangedTo="0"/>
        </edge>
        <edge id="3fi">
            <lane id="3fi_0" sampledSeconds="6216.23" traveltime="25.13" density="27.79" occupancy="13.90" waitingTime="0.00" speed="9.89" departed="143" arrived="78" entered="107" left="164" laneChangedFrom="0" laneChangedTo="0"/>
        </edge>
        <edge id="3o">
            <lane id="3o_0" sampledSeconds="5484.24" traveltime="47.11" density="12.47" occupancy="6.24" waitingTime="0.00" speed="10.37" departed="0" arrived="0" entered="124" left="107" laneChangedFrom="0" laneChangedTo="0"/>
        </edge>
        <edge id="3si">
            <lane id="3si_0" sampledSeconds="3014.49" traveltime="43.68" density="14.12" occupancy="7.06" waitingTime="1441.00" speed="5.43" departed="0" arrived="0" entered="69" left="62" laneChangedFrom="0" laneChangedTo="0"/>
            <lane id="3si_1" sampledSeconds="3126.20" traveltime="45.86" density="14.65" occupancy="7.32" waitingTime="1613.00" speed="5.17" departed="0" arrived="0" entered="68" left="63" laneChangedFrom="0" laneChangedTo="0"/>
            <lane id="3si_2" sampledSeconds="1533.81" traveltime="56.54" density="7.19" occupancy="3.59" waitingTime="723.00" speed="4.19" departed="0" arrived="0" entered="27" left="22" laneChangedFrom="0" laneChangedTo="0"/>
        </edge>
        <edge id="4fi">
            <lane id="4fi_0" sampledSeconds="4049.03" traveltime="23.83" density="18.10" occupancy="9.05" waitingTime="0.00" speed="10.43" departed="0" arrived="0" entered="167" left="166" laneChangedFrom="0" laneChangedTo="0"/>
        </edge>
        <edge id="4o">
            <lane id="4o_0" sampledSeconds="8264.05" traveltime="47.07" density="18.79" occupancy="9.40" waitingTime="0.00" speed="10.38" departed="0" arrived="0" entered="181" left="167" laneChangedFrom="0" laneChangedTo="0"/>
        </edge>
        <edge id="4si">
            <lane id="4si_0" sampledSeconds="3060.77" traveltime="60.96" density="14.34" occupancy="7.17" waitingTime="1790.00" speed="3.89" departed="0" arrived="0" entered="50" left="43" laneChangedFrom="0" laneChangedTo="0"/>
            <lane id="4si_1" sampledSeconds="1207.58" traveltime="20.14" density="5.66" occupancy="2.83" waitingTime="111.00" speed="11.78" departed="0" arrived="0" entered="62" left="56" laneChangedFrom="0" laneChangedTo="0"/>
            <lane id="4si_2" sampledSeconds="4901.37" traveltime="91.15" density="22.96" occupancy="11.48" waitingTime="2657.00" speed="2.60" departed="0" arrived="0" entered="54" left="45" laneChangedFrom="0" laneChangedTo="0"/>
        </edge>
    </interval>
    <interval begin="900.00" end="1000.00" id="dump_900">
        <edge id="1fi">
            <lane id="1fi_0" sampledSeconds="861.22" traveltime="24.62" density="34.66" occupancy="17.33" waitingTime="0.00" speed="10.09" departed="12" arrived="10" entered="22" left="25" laneChangedFrom="0" laneChangedTo="0"/>
        </edge>
        <edge id="1o">
            <lane id="1o_0" sampledSeconds="1124.97" traveltime="47.03" density="23.02" occupancy="11.51" waitingTime="0.00" speed="10.39" departed="0" arrived="0" entered="27" left="22" laneChangedFrom="0" laneChangedTo="0"/>
        </edge>
        <edge id="1si">
            <lane id="1si_0" sampledSeconds="690.01" traveltime="53.03" density="29.10" occupancy="14.55" waitingTime="367.00" speed="4.47" departed="0" arrived="0" entered="9" left="10" laneChangedFrom="0" laneChangedTo="0"/>
            <lane id="1si_1" sampledSeconds="177.82" traveltime="24.79" density="7.50" occupancy="3.75" waitingTime="45.00" speed="9.57" departed="0" arrived="0" entered="7" left="8" laneChangedFrom="0" laneChangedTo="0"/>
            <lane id="1si_2" sampledSeconds="1874.65" traveltime="224.91" density="79.05" occupancy="39.52" waitingTime="1077.00" speed="1.05" departed="0" arrived="0" entered="9" left="6" laneChangedFrom="0" laneChangedTo="0"/>
        </edge>
        <edge id="2fi">
            <lane id="2fi_0" sampledSeconds="871.15" traveltime="24.51" density="35.06" occupancy="17.53" waitingTime="0.00" speed="10.14" departed="10" arrived="8" entered="26" left="25" laneChangedFrom="0" laneChangedTo="0"/>
        </edge>
        <edge id="2o">
            <lane id="2o_0" sampledSeconds="1193.81" traveltime="47.28" density="24.43" occupancy="12.22" waitingTime="0.00" speed="10.33" departed="0" arrived="0" entered="27" left="26" laneChangedFrom="0" laneChangedTo="0"/>
        </edge>
        <edge id="2si">
            <lane id="2si_0" sampledSeconds="386.60" traveltime="44.40" density="16.30" occupancy="8.15" waitingTime="186.00" speed="5.34" departed="0" arrived="0" entered="8" left="5" laneChangedFrom="0" laneChangedTo="0"/>
            <lane id="2si_1" sampledSeconds="475.97" traveltime="47.98" density="20.07" occupancy="10.04" waitingTime="249.00" speed="4.94" departed="0" arrived="0" entered="10" left="11" laneChangedFrom="0" laneChangedTo="0"/>
            <lane id="2si_2" sampledSeconds="696.43" traveltime="86.17" density="29.37" occupancy="14.68" waitingTime="393.00" speed="2.75" departed="0" arrived="0" entered="8" left="7" laneChangedFrom="0" laneChangedTo="0"/>
        </edge>
        <edge id="3fi">
            <lane id="3fi_0" sampledSeconds="993.72" traveltime="24.66" density="39.99" occupancy="19.99" waitingTime="0.00" speed="10.08" departed="14" arrived="17" entered="26" left="22" laneChangedFrom="0" laneChangedTo="0"/>
        </edge>
        <edge id="3o">
            <lane id="3o_0" sampledSeconds="1314.73" traveltime="47.11" density="26.91" occupancy="13.45" waitingTime="0.00" speed="10.37" departed="0" arrived="0" entered="26" left="27" laneChangedFrom="0" laneChangedTo="0"/>
        </edge>
        <edge id="3si">
            <lane id="3si_0" sampledSeconds="508.43" traveltime="53.48" density="21.44" occupancy="10.72" waitingTime="267.00" speed="4.43" departed="0" arrived="0" entered="9" left="11" laneChangedFrom="0" laneChangedTo="0"/>
            <lane id="3si_1" sampledSeconds="102.68" traveltime="21.98" density="4.33" occupancy="2.16" waitingTime="6.00" speed="10.79" departed="0" arrived="0" entered="5" left="8" laneChangedFrom="0" laneChangedTo="0"/>
            <lane id="3si_2" sampledSeconds="395.50" traveltime="50.97" density="16.68" occupancy="8.34" waitingTime="158.00" speed="4.65" departed="0" arrived="0" entered="8" left="7" laneChangedFrom="0" laneChangedTo="0"/>
        </edge>
        <edge id="4fi">
            <lane id="4fi_0" sampledSeconds="549.88" traveltime="23.75" density="22.13" occupancy="11.06" waitingTime="0.00" speed="10.46" departed="0" arrived="0" entered="25" left="23" laneChangedFrom="0" laneChangedTo="0"/>
        </edge>
        <edge id="4o">
            <lane id="4o_0" sampledSeconds="1061.04" traveltime="46.97" density="21.71" occupancy="10.86" waitingTime="0.00" speed="10.40" departed="0" arrived="0" entered="19" left="25" laneChangedFrom="0" laneChangedTo="0"/>
        </edge>
        <edge id="4si">
            <lane id="4si_0" sampledSeconds="491.33" traveltime="64.25" density="20.72" occupancy="10.36" waitingTime="278.00" speed="3.69" departed="0" arrived="0" entered="7" left="11" laneChangedFrom="0" laneChangedTo="0"/>
            <lane id="4si_1" sampledSeconds="171.39" traveltime="18.15" density="7.23" occupancy="3.61" waitingTime="0.00" speed="13.07" departed="0" arrived="0" entered="9" left="10" laneChangedFrom="0" laneChangedTo="0"/>
            <lane id="4si_2" sampledSeconds="620.73" traveltime="80.94" density="26.17" occupancy="13.09" waitingTime="345.00" speed="2.93" departed="0" arrived="0" entered="7" left="10" laneChangedFrom="0" laneChangedTo="0"/>
        </edge>
    </interval>
</meandata>
