<?xml version="1.0" encoding="UTF-8"?>

<!-- generated on Thu May 30 15:43:46 2013 by SUMO sumo Version dev-SVN-rUNKNOWN
<?xml version="1.0" encoding="UTF-8"?>

<configuration xmlns:xsi="http://www.w3.org/2001/XMLSchema-instance" xsi:noNamespaceSchemaLocation="http://sumo.sf.net/xsd/sumoConfiguration.xsd">

    <input>
        <net-file value="net.net.xml"/>
        <route-files value="input_routes.rou.xml"/>
        <additional-files value="input_additional.add.xml"/>
    </input>

    <time>
        <begin value="0"/>
        <end value="1000"/>
    </time>

    <report>
        <no-duration-log value="true"/>
        <no-step-log value="true"/>
    </report>

</configuration>
-->

<meandata xmlns:xsi="http://www.w3.org/2001/XMLSchema-instance" xsi:noNamespaceSchemaLocation="http://sumo.sf.net/xsd/meandata_file.xsd">
    <interval begin="0.00" end="300.00" id="dump_300">
        <edge id="1fi">
            <lane id="1fi_0" sampledSeconds="708.30" traveltime="29.74" density="9.50" occupancy="2.85" waitingTime="0.00" speed="8.36" departed="19" arrived="0" entered="11" left="19" laneChangedFrom="0" laneChangedTo="0"/>
        </edge>
        <edge id="1o">
            <lane id="1o_0" sampledSeconds="508.06" traveltime="45.91" density="3.47" occupancy="1.04" waitingTime="0.00" speed="10.64" departed="0" arrived="0" entered="11" left="11" laneChangedFrom="0" laneChangedTo="0"/>
        </edge>
        <edge id="1si">
            <lane id="1si_0" sampledSeconds="0.00" departed="0" arrived="0" entered="0" left="0" laneChangedFrom="0" laneChangedTo="0"/>
            <lane id="1si_1" sampledSeconds="36.13" traveltime="17.84" density="0.51" occupancy="0.15" waitingTime="0.00" speed="13.29" departed="0" arrived="0" entered="2" left="2" laneChangedFrom="0" laneChangedTo="0"/>
            <lane id="1si_2" sampledSeconds="849.99" traveltime="53.65" density="11.95" occupancy="3.58" waitingTime="393.00" speed="4.42" departed="0" arrived="0" entered="17" left="8" laneChangedFrom="0" laneChangedTo="0"/>
        </edge>
        <edge id="2fi">
            <lane id="2fi_0" sampledSeconds="783.45" traveltime="30.13" density="10.51" occupancy="3.15" waitingTime="0.00" speed="8.25" departed="20" arrived="0" entered="9" left="24" laneChangedFrom="0" laneChangedTo="0"/>
        </edge>
        <edge id="2o">
            <lane id="2o_0" sampledSeconds="545.09" traveltime="48.65" density="3.72" occupancy="1.12" waitingTime="0.00" speed="10.04" departed="0" arrived="0" entered="17" left="9" laneChangedFrom="0" laneChangedTo="0"/>
        </edge>
        <edge id="2si">
            <lane id="2si_0" sampledSeconds="205.28" traveltime="31.65" density="2.89" occupancy="0.87" waitingTime="54.00" speed="7.49" departed="0" arrived="0" entered="7" left="0" laneChangedFrom="0" laneChangedTo="0"/>
            <lane id="2si_1" sampledSeconds="642.14" traveltime="40.27" density="9.03" occupancy="2.71" waitingTime="261.00" speed="5.89" departed="0" arrived="0" entered="17" left="11" laneChangedFrom="0" laneChangedTo="0"/>
            <lane id="2si_2" sampledSeconds="0.00" departed="0" arrived="0" entered="0" left="0" laneChangedFrom="0" laneChangedTo="0"/>
        </edge>
        <edge id="3fi">
            <lane id="3fi_0" sampledSeconds="1171.17" traveltime="32.06" density="15.71" occupancy="4.71" waitingTime="1.00" speed="7.75" departed="40" arrived="0" entered="0" left="34" laneChangedFrom="0" laneChangedTo="0"/>
        </edge>
        <edge id="3o">
            <lane id="3o_0" sampledSeconds="89.77" traveltime="44.85" density="0.61" occupancy="0.18" waitingTime="0.00" speed="10.89" departed="0" arrived="0" entered="6" left="0" laneChangedFrom="0" laneChangedTo="0"/>
        </edge>
        <edge id="3si">
            <lane id="3si_0" sampledSeconds="611.15" traveltime="36.86" density="8.59" occupancy="2.58" waitingTime="199.00" speed="6.43" departed="0" arrived="0" entered="17" left="16" laneChangedFrom="0" laneChangedTo="0"/>
            <lane id="3si_1" sampledSeconds="626.78" traveltime="38.77" density="8.81" occupancy="2.64" waitingTime="219.00" speed="6.12" departed="0" arrived="0" entered="17" left="15" laneChangedFrom="0" laneChangedTo="0"/>
            <lane id="3si_2" sampledSeconds="0.00" departed="0" arrived="0" entered="0" left="0" laneChangedFrom="0" laneChangedTo="0"/>
        </edge>
        <edge id="4fi">
            <lane id="4fi_0" sampledSeconds="207.35" traveltime="22.76" density="2.78" occupancy="0.83" waitingTime="0.00" speed="10.92" departed="0" arrived="0" entered="9" left="9" laneChangedFrom="0" laneChangedTo="0"/>
        </edge>
        <edge id="4o">
            <lane id="4o_0" sampledSeconds="697.03" traveltime="47.08" density="4.75" occupancy="1.43" waitingTime="0.00" speed="10.38" departed="0" arrived="0" entered="23" left="9" laneChangedFrom="0" laneChangedTo="0"/>
        </edge>
        <edge id="4si">
            <lane id="4si_0" sampledSeconds="0.00" departed="0" arrived="0" entered="0" left="0" laneChangedFrom="0" laneChangedTo="0"/>
            <lane id="4si_1" sampledSeconds="108.57" traveltime="17.87" density="1.53" occupancy="0.46" waitingTime="0.00" speed="13.27" departed="0" arrived="0" entered="6" left="6" laneChangedFrom="0" laneChangedTo="0"/>
            <lane id="4si_2" sampledSeconds="174.06" traveltime="58.04" density="2.45" occupancy="0.73" waitingTime="92.00" speed="4.09" departed="0" arrived="0" entered="3" left="2" laneChangedFrom="0" laneChangedTo="0"/>
        </edge>
    </interval>
    <interval begin="300.00" end="600.00" id="dump_300">
        <edge id="1fi">
            <lane id="1fi_0" sampledSeconds="1842.82" traveltime="27.21" density="24.72" occupancy="7.42" waitingTime="0.00" speed="9.13" departed="31" arrived="0" entered="34" left="70" laneChangedFrom="0" laneChangedTo="0"/>
        </edge>
        <edge id="1o">
            <lane id="1o_0" sampledSeconds="1980.46" traveltime="47.03" density="13.51" occupancy="4.05" waitingTime="0.00" speed="10.39" departed="0" arrived="0" entered="47" left="34" laneChangedFrom="0" laneChangedTo="0"/>
        </edge>
        <edge id="1si">
            <lane id="1si_0" sampledSeconds="397.00" traveltime="57.06" density="5.58" occupancy="1.67" waitingTime="187.00" speed="4.16" departed="0" arrived="0" entered="7" left="5" laneChangedFrom="0" laneChangedTo="0"/>
            <lane id="1si_1" sampledSeconds="586.09" traveltime="17.80" density="8.24" occupancy="2.47" waitingTime="0.00" speed="13.32" departed="0" arrived="0" entered="34" left="29" laneChangedFrom="0" laneChangedTo="0"/>
            <lane id="1si_2" sampledSeconds="4640.14" traveltime="188.05" density="65.22" occupancy="19.57" waitingTime="2946.00" speed="1.26" departed="0" arrived="0" entered="28" left="17" laneChangedFrom="0" laneChangedTo="0"/>
        </edge>
        <edge id="2fi">
            <lane id="2fi_0" sampledSeconds="2579.03" traveltime="27.56" density="34.59" occupancy="10.38" waitingTime="1.00" speed="9.02" departed="30" arrived="27" entered="64" left="65" laneChangedFrom="0" laneChangedTo="0"/>
        </edge>
        <edge id="2o">
            <lane id="2o_0" sampledSeconds="3295.84" traveltime="48.07" density="22.48" occupancy="6.74" waitingTime="0.00" speed="10.17" departed="0" arrived="0" entered="68" left="64" laneChangedFrom="0" laneChangedTo="0"/>
        </edge>
        <edge id="2si">
            <lane id="2si_0" sampledSeconds="1590.66" traveltime="62.46" density="22.36" occupancy="6.71" waitingTime="768.00" speed="3.80" departed="0" arrived="0" entered="25" left="28" laneChangedFrom="0" laneChangedTo="0"/>
            <lane id="2si_1" sampledSeconds="1553.03" traveltime="54.66" density="21.83" occupancy="6.55" waitingTime="711.00" speed="4.34" departed="0" arrived="0" entered="28" left="30" laneChangedFrom="0" laneChangedTo="0"/>
            <lane id="2si_2" sampledSeconds="434.29" traveltime="36.22" density="6.10" occupancy="1.83" waitingTime="97.00" speed="6.55" departed="0" arrived="0" entered="12" left="9" laneChangedFrom="0" laneChangedTo="0"/>
        </edge>
        <edge id="3fi">
            <lane id="3fi_0" sampledSeconds="2409.90" traveltime="29.52" density="32.33" occupancy="9.70" waitingTime="1.00" speed="8.42" departed="51" arrived="23" entered="32" left="57" laneChangedFrom="0" laneChangedTo="0"/>
        </edge>
        <edge id="3o">
            <lane id="3o_0" sampledSeconds="1721.83" traveltime="47.89" density="11.75" occupancy="3.52" waitingTime="0.00" speed="10.20" departed="0" arrived="0" entered="36" left="32" laneChangedFrom="0" laneChangedTo="0"/>
        </edge>
        <edge id="3si">
            <lane id="3si_0" sampledSeconds="1294.22" traveltime="48.82" density="18.19" occupancy="5.46" waitingTime="553.00" speed="4.86" departed="0" arrived="0" entered="27" left="23" laneChangedFrom="0" laneChangedTo="0"/>
            <lane id="3si_1" sampledSeconds="1312.00" traveltime="49.53" density="18.44" occupancy="5.53" waitingTime="587.00" speed="4.79" departed="0" arrived="0" entered="26" left="24" laneChangedFrom="0" laneChangedTo="0"/>
            <lane id="3si_2" sampledSeconds="159.41" traveltime="39.57" density="2.24" occupancy="0.67" waitingTime="45.00" speed="5.99" departed="0" arrived="0" entered="4" left="3" laneChangedFrom="0" laneChangedTo="0"/>
        </edge>
        <edge id="4fi">
            <lane id="4fi_0" sampledSeconds="1546.41" traveltime="22.77" density="20.74" occupancy="6.22" waitingTime="0.00" speed="10.91" departed="0" arrived="0" entered="70" left="63" laneChangedFrom="0" laneChangedTo="0"/>
        </edge>
        <edge id="4o">
            <lane id="4o_0" sampledSeconds="3267.40" traveltime="46.61" density="22.29" occupancy="6.69" waitingTime="0.00" speed="10.48" departed="0" arrived="0" entered="66" left="71" laneChangedFrom="0" laneChangedTo="0"/>
        </edge>
        <edge id="4si">
            <lane id="4si_0" sampledSeconds="1147.06" traveltime="50.78" density="16.12" occupancy="4.84" waitingTime="521.00" speed="4.67" departed="0" arrived="0" entered="23" left="16" laneChangedFrom="0" laneChangedTo="0"/>
            <lane id="4si_1" sampledSeconds="450.61" traveltime="17.80" density="6.33" occupancy="1.90" waitingTime="0.00" speed="13.32" departed="0" arrived="0" entered="25" left="25" laneChangedFrom="0" laneChangedTo="0"/>
            <lane id="4si_2" sampledSeconds="1062.21" traveltime="70.04" density="14.93" occupancy="4.48" waitingTime="492.00" speed="3.39" departed="0" arrived="0" entered="15" left="14" laneChangedFrom="0" laneChangedTo="0"/>
        </edge>
    </interval>
    <interval begin="600.00" end="900.00" id="dump_300">
        <edge id="1fi">
            <lane id="1fi_0" sampledSeconds="2769.70" traveltime="27.30" density="37.15" occupancy="11.15" waitingTime="0.00" speed="9.10" departed="29" arrived="12" entered="73" left="87" laneChangedFrom="0" laneChangedTo="0"/>
        </edge>
        <edge id="1o">
            <lane id="1o_0" sampledSeconds="3389.01" traveltime="47.94" density="23.12" occupancy="6.94" waitingTime="0.00" speed="10.19" departed="0" arrived="0" entered="69" left="73" laneChangedFrom="0" laneChangedTo="0"/>
        </edge>
        <edge id="1si">
            <lane id="1si_0" sampledSeconds="1459.13" traveltime="55.97" density="20.51" occupancy="6.15" waitingTime="645.00" speed="4.24" departed="0" arrived="0" entered="28" left="27" laneChangedFrom="0" laneChangedTo="0"/>
            <lane id="1si_1" sampledSeconds="632.52" traveltime="21.92" density="8.89" occupancy="2.67" waitingTime="103.00" speed="10.82" departed="0" arrived="0" entered="27" left="32" laneChangedFrom="0" laneChangedTo="0"/>
            <lane id="1si_2" sampledSeconds="9148.63" traveltime="464.41" density="128.59" occupancy="38.58" waitingTime="5891.00" speed="0.51" departed="0" arrived="0" entered="32" left="14" laneChangedFrom="0" laneChangedTo="0"/>
        </edge>
        <edge id="2fi">
            <lane id="2fi_0" sampledSeconds="2597.14" traveltime="27.24" density="34.84" occupancy="10.45" waitingTime="1.00" speed="9.12" departed="30" arrived="27" entered="65" left="68" laneChangedFrom="0" laneChangedTo="0"/>
        </edge>
        <edge id="2o">
            <lane id="2o_0" sampledSeconds="3102.91" traveltime="47.40" density="21.17" occupancy="6.35" waitingTime="0.00" speed="10.31" departed="0" arrived="0" entered="63" left="65" laneChangedFrom="0" laneChangedTo="0"/>
        </edge>
        <edge id="2si">
            <lane id="2si_0" sampledSeconds="1099.02" traveltime="53.72" density="15.45" occupancy="4.63" waitingTime="491.00" speed="4.41" departed="0" arrived="0" entered="23" left="23" laneChangedFrom="0" laneChangedTo="0"/>
            <lane id="2si_1" sampledSeconds="1664.85" traveltime="50.74" density="23.40" occupancy="7.02" waitingTime="751.00" speed="4.67" departed="0" arrived="0" entered="32" left="31" laneChangedFrom="0" laneChangedTo="0"/>
            <lane id="2si_2" sampledSeconds="791.57" traveltime="59.40" density="11.13" occupancy="3.34" waitingTime="323.00" speed="3.99" departed="0" arrived="0" entered="13" left="16" laneChangedFrom="0" laneChangedTo="0"/>
        </edge>
        <edge id="3fi">
            <lane id="3fi_0" sampledSeconds="2737.56" traveltime="27.97" density="36.72" occupancy="11.02" waitingTime="3.00" speed="8.88" departed="36" arrived="50" entered="61" left="49" laneChangedFrom="0" laneChangedTo="0"/>
        </edge>
        <edge id="3o">
            <lane id="3o_0" sampledSeconds="3000.95" traveltime="48.65" density="20.47" occupancy="6.14" waitingTime="0.00" speed="10.04" departed="0" arrived="0" entered="65" left="61" laneChangedFrom="0" laneChangedTo="0"/>
        </edge>
        <edge id="3si">
            <lane id="3si_0" sampledSeconds="951.32" traveltime="54.82" density="13.37" occupancy="4.01" waitingTime="503.00" speed="4.33" departed="0" arrived="0" entered="16" left="16" laneChangedFrom="0" laneChangedTo="0"/>
            <lane id="3si_1" sampledSeconds="981.25" traveltime="55.18" density="13.79" occupancy="4.14" waitingTime="518.00" speed="4.30" departed="0" arrived="0" entered="17" left="16" laneChangedFrom="0" laneChangedTo="0"/>
            <lane id="3si_2" sampledSeconds="684.68" traveltime="44.23" density="9.62" occupancy="2.89" waitingTime="217.00" speed="5.36" departed="0" arrived="0" entered="16" left="13" laneChangedFrom="0" laneChangedTo="0"/>
        </edge>
        <edge id="4fi">
            <lane id="4fi_0" sampledSeconds="1371.17" traveltime="22.78" density="18.39" occupancy="5.52" waitingTime="0.00" speed="10.91" departed="0" arrived="0" entered="57" left="63" laneChangedFrom="0" laneChangedTo="0"/>
        </edge>
        <edge id="4o">
            <lane id="4o_0" sampledSeconds="2613.32" traveltime="47.04" density="17.83" occupancy="5.35" waitingTime="0.00" speed="10.39" departed="0" arrived="0" entered="55" left="56" laneChangedFrom="0" laneChangedTo="0"/>
        </edge>
        <edge id="4si">
            <lane id="4si_0" sampledSeconds="1647.99" traveltime="70.42" density="23.16" occupancy="6.95" waitingTime="929.00" speed="3.37" departed="0" arrived="0" entered="23" left="23" laneChangedFrom="0" laneChangedTo="0"/>
            <lane id="4si_1" sampledSeconds="374.06" traveltime="17.87" density="5.26" occupancy="1.58" waitingTime="0.00" speed="13.27" departed="0" arrived="0" entered="23" left="19" laneChangedFrom="0" laneChangedTo="0"/>
            <lane id="4si_2" sampledSeconds="1192.65" traveltime="70.31" density="16.76" occupancy="5.03" waitingTime="528.00" speed="3.37" departed="0" arrived="0" entered="17" left="14" laneChangedFrom="0" laneChangedTo="0"/>
        </edge>
    </interval>
    <interval begin="900.00" end="1000.00" id="dump_300">
        <edge id="1fi">
            <lane id="1fi_0" sampledSeconds="869.31" traveltime="27.94" density="34.98" occupancy="10.49" waitingTime="0.00" speed="8.89" departed="10" arrived="4" entered="20" left="28" laneChangedFrom="0" laneChangedTo="0"/>
        </edge>
        <edge id="1o">
            <lane id="1o_0" sampledSeconds="1111.12" traveltime="48.91" density="22.74" occupancy="6.82" waitingTime="0.00" speed="9.99" departed="0" arrived="0" entered="23" left="20" laneChangedFrom="0" laneChangedTo="0"/>
        </edge>
        <edge id="1si">
            <lane id="1si_0" sampledSeconds="448.69" traveltime="45.40" density="18.92" occupancy="5.68" waitingTime="190.00" speed="5.22" departed="0" arrived="0" entered="11" left="7" laneChangedFrom="0" laneChangedTo="0"/>
            <lane id="1si_1" sampledSeconds="162.39" traveltime="17.82" density="6.85" occupancy="2.05" waitingTime="0.00" speed="13.31" departed="0" arrived="0" entered="9" left="9" laneChangedFrom="0" laneChangedTo="0"/>
            <lane id="1si_2" sampledSeconds="4123.20" traveltime="861.64" density="173.86" occupancy="52.16" waitingTime="2625.00" speed="0.28" departed="0" arrived="0" entered="9" left="3" laneChangedFrom="0" laneChangedTo="0"/>
        </edge>
        <edge id="2fi">
            <lane id="2fi_0" sampledSeconds="838.66" traveltime="27.34" density="33.75" occupancy="10.12" waitingTime="0.00" speed="9.09" departed="10" arrived="9" entered="20" left="20" laneChangedFrom="0" laneChangedTo="0"/>
        </edge>
        <edge id="2o">
            <lane id="2o_0" sampledSeconds="943.22" traveltime="46.75" density="19.30" occupancy="5.79" waitingTime="0.00" speed="10.45" departed="0" arrived="0" entered="21" left="20" laneChangedFrom="0" laneChangedTo="0"/>
        </edge>
        <edge id="2si">
            <lane id="2si_0" sampledSeconds="270.45" traveltime="40.99" density="11.40" occupancy="3.42" waitingTime="116.00" speed="5.78" departed="0" arrived="0" entered="5" left="4" laneChangedFrom="0" laneChangedTo="0"/>
            <lane id="2si_1" sampledSeconds="585.47" traveltime="60.25" density="24.69" occupancy="7.41" waitingTime="305.00" speed="3.94" departed="0" arrived="0" entered="10" left="10" laneChangedFrom="0" laneChangedTo="0"/>
            <lane id="2si_2" sampledSeconds="298.27" traveltime="59.16" density="12.58" occupancy="3.77" waitingTime="129.00" speed="4.01" departed="0" arrived="0" entered="5" left="4" laneChangedFrom="0" laneChangedTo="0"/>
        </edge>
        <edge id="3fi">
            <lane id="3fi_0" sampledSeconds="884.67" traveltime="28.01" density="35.60" occupancy="10.68" waitingTime="0.00" speed="8.87" departed="11" arrived="13" entered="19" left="18" laneChangedFrom="0" laneChangedTo="0"/>
        </edge>
        <edge id="3o">
            <lane id="3o_0" sampledSeconds="956.32" traveltime="47.33" density="19.57" occupancy="5.87" waitingTime="0.00" speed="10.32" departed="0" arrived="0" entered="17" left="20" laneChangedFrom="0" laneChangedTo="0"/>
        </edge>
        <edge id="3si">
            <lane id="3si_0" sampledSeconds="278.30" traveltime="43.84" density="11.74" occupancy="3.52" waitingTime="105.00" speed="5.41" departed="0" arrived="0" entered="6" left="10" laneChangedFrom="0" laneChangedTo="0"/>
            <lane id="3si_1" sampledSeconds="315.03" traveltime="56.76" density="13.28" occupancy="3.99" waitingTime="148.00" speed="4.18" departed="0" arrived="0" entered="6" left="9" laneChangedFrom="0" laneChangedTo="0"/>
            <lane id="3si_2" sampledSeconds="250.10" traveltime="44.34" density="10.55" occupancy="3.16" waitingTime="70.00" speed="5.35" departed="0" arrived="0" entered="5" left="6" laneChangedFrom="0" laneChangedTo="0"/>
        </edge>
        <edge id="4fi">
            <lane id="4fi_0" sampledSeconds="355.56" traveltime="22.77" density="14.31" occupancy="4.29" waitingTime="0.00" speed="10.91" departed="0" arrived="0" entered="16" left="16" laneChangedFrom="0" laneChangedTo="0"/>
        </edge>
        <edge id="4o">
            <lane id="4o_0" sampledSeconds="750.45" traveltime="47.07" density="15.36" occupancy="4.61" waitingTime="0.00" speed="10.38" departed="0" arrived="0" entered="15" left="16" laneChangedFrom="0" laneChangedTo="0"/>
        </edge>
        <edge id="4si">
            <lane id="4si_0" sampledSeconds="386.29" traveltime="69.68" density="16.29" occupancy="4.89" waitingTime="188.00" speed="3.40" departed="0" arrived="0" entered="5" left="10" laneChangedFrom="0" laneChangedTo="0"/>
            <lane id="4si_1" sampledSeconds="140.02" traveltime="17.70" density="5.90" occupancy="1.77" waitingTime="0.00" speed="13.40" departed="0" arrived="0" entered="7" left="6" laneChangedFrom="0" laneChangedTo="0"/>
            <lane id="4si_2" sampledSeconds="402.71" traveltime="98.66" density="16.98" occupancy="5.09" waitingTime="223.00" speed="2.40" departed="0" arrived="0" entered="4" left="5" laneChangedFrom="0" laneChangedTo="0"/>
        </edge>
    </interval>
</meandata>
