<?xml version="1.0" encoding="UTF-8"?>

<!-- generated on 2025-04-11 14:03:28 by Eclipse SUMO sumo Version v1_22_0+1440-1f667540b50
This data file and the accompanying materials
are made available under the terms of the Eclipse Public License v2.0
which accompanies this distribution, and is available at
http://www.eclipse.org/legal/epl-v20.html
This file may also be made available under the following Secondary
Licenses when the conditions for such availability set forth in the Eclipse
Public License 2.0 are satisfied: GNU General Public License, version 2
or later which is available at
https://www.gnu.org/licenses/old-licenses/gpl-2.0-standalone.html
SPDX-License-Identifier: EPL-2.0 OR GPL-2.0-or-later
<sumoConfiguration xmlns:xsi="http://www.w3.org/2001/XMLSchema-instance" xsi:noNamespaceSchemaLocation="http://sumo.dlr.de/xsd/sumoConfiguration.xsd">

    <input>
        <net-file value="net2.net.xml"/>
        <route-files value="input_routes.rou.xml"/>
    </input>

    <output>
        <write-license value="true"/>
        <tripinfo-output value="tripinfos.xml"/>
    </output>

    <processing>
        <collision.check-junctions value="true"/>
        <default.speeddev value="0"/>
    </processing>

    <report>
        <xml-validation value="never"/>
        <duration-log.statistics value="true"/>
        <no-step-log value="true"/>
    </report>

    <mesoscopic>
        <mesosim value="true"/>
        <meso-junction-control value="true"/>
    </mesoscopic>

</sumoConfiguration>
-->

<tripinfos xmlns:xsi="http://www.w3.org/2001/XMLSchema-instance" xsi:noNamespaceSchemaLocation="http://sumo.dlr.de/xsd/tripinfo_file.xsd">
    <tripinfo id="SE" depart="0.00" departLane="SC_1" departPos="0.00" departSpeed="13.89" departDelay="0.00" arrival="52.00" arrivalLane="CE_1" arrivalPos="92.80" arrivalSpeed="13.89" duration="52.00" routeLength="185.60" waitingTime="38.00" waitingCount="0" stopTime="0.00" timeLoss="38.00" rerouteNo="0" devices="tripinfo_SE routing_SE" vType="car" speedFactor="1.00" vaporized=""/>
    <tripinfo id="SW.0" depart="0.00" departLane="SC_0" departPos="0.00" departSpeed="5.56" departDelay="0.00" arrival="64.00" arrivalLane="CW_0" arrivalPos="92.80" arrivalSpeed="5.56" duration="64.00" routeLength="185.60" waitingTime="0.00" waitingCount="0" stopTime="0.00" timeLoss="29.65" rerouteNo="0" devices="tripinfo_SW.0 routing_SW.0" vType="bike" speedFactor="1.00" vaporized=""/>
    <tripinfo id="SW.1" depart="1.00" departLane="SC_0" departPos="0.00" departSpeed="5.45" departDelay="0.86" arrival="65.00" arrivalLane="CW_0" arrivalPos="92.80" arrivalSpeed="5.56" duration="64.00" routeLength="185.60" waitingTime="0.00" waitingCount="0" stopTime="0.00" timeLoss="29.96" rerouteNo="0" devices="tripinfo_SW.1 routing_SW.1" vType="bike" speedFactor="1.00" vaporized=""/>
    <tripinfo id="SW.2" depart="1.00" departLane="SC_0" departPos="0.00" departSpeed="5.06" departDelay="0.72" arrival="66.00" arrivalLane="CW_0" arrivalPos="92.80" arrivalSpeed="5.56" duration="65.00" routeLength="185.60" waitingTime="0.00" waitingCount="0" stopTime="0.00" timeLoss="31.28" rerouteNo="0" devices="tripinfo_SW.2 routing_SW.2" vType="bike" speedFactor="1.00" vaporized=""/>
    <tripinfo id="SW.3" depart="1.00" departLane="SC_0" departPos="0.00" departSpeed="4.72" departDelay="0.57" arrival="68.00" arrivalLane="CW_0" arrivalPos="92.80" arrivalSpeed="5.56" duration="67.00" routeLength="185.60" waitingTime="0.00" waitingCount="0" stopTime="0.00" timeLoss="32.60" rerouteNo="0" devices="tripinfo_SW.3 routing_SW.3" vType="bike" speedFactor="1.00" vaporized=""/>
    <tripinfo id="SW.4" depart="1.00" departLane="SC_0" departPos="0.00" departSpeed="4.42" departDelay="0.43" arrival="69.00" arrivalLane="CW_0" arrivalPos="92.80" arrivalSpeed="5.56" duration="68.00" routeLength="185.60" waitingTime="0.00" waitingCount="0" stopTime="0.00" timeLoss="33.91" rerouteNo="0" devices="tripinfo_SW.4 routing_SW.4" vType="bike" speedFactor="1.00" vaporized=""/>
    <tripinfo id="SW.5" depart="1.00" departLane="SC_0" departPos="0.00" departSpeed="4.16" departDelay="0.29" arrival="70.00" arrivalLane="CW_0" arrivalPos="92.80" arrivalSpeed="5.56" duration="69.00" routeLength="185.60" waitingTime="0.00" waitingCount="0" stopTime="0.00" timeLoss="35.23" rerouteNo="0" devices="tripinfo_SW.5 routing_SW.5" vType="bike" speedFactor="1.00" vaporized=""/>
    <tripinfo id="SW.6" depart="1.00" departLane="SC_0" departPos="0.00" departSpeed="3.93" departDelay="0.15" arrival="71.00" arrivalLane="CW_0" arrivalPos="92.80" arrivalSpeed="5.56" duration="70.00" routeLength="185.60" waitingTime="0.00" waitingCount="0" stopTime="0.00" timeLoss="36.55" rerouteNo="0" devices="tripinfo_SW.6 routing_SW.6" vType="bike" speedFactor="1.00" vaporized=""/>
</tripinfos>
