<?xml version="1.0" encoding="UTF-8"?>

<!-- generated on Mon Mar  3 14:00:19 2014 by SUMO dfrouter Version dev-SVN-r15793
<?xml version="1.0" encoding="UTF-8"?>

<configuration xmlns:xsi="http://www.w3.org/2001/XMLSchema-instance" xsi:noNamespaceSchemaLocation="http://sumo-sim.org/xsd/dfrouterConfiguration.xsd">

    <input>
        <net-file value="input_tri.net.xml"/>
        <detector-files value="input_tri.det.xml"/>
        <measure-files value="input_tri_flows.txt"/>
    </input>

    <output>
        <routes-output value="routes.rou.xml"/>
        <emitters-output value="emitters.add.xml"/>
    </output>

    <processing>
        <keep-longer-routes value="true"/>
        <emissions-only value="true"/>
        <include-unused-routes value="true"/>
        <scale value="2"/>
    </processing>

    <time>
        <end value="60"/>
    </time>

    <report>
        <xml-validation value="never"/>
    </report>

</configuration>
-->

<routes>

    <route id="beg_to_end" edges="beg middle end"/>
    <route id="beg_to_end_1" edges="beg 1toR R Rto2 end"/>
    <route id="beg_to_end_2" edges="beg 1toL L Lto2 end"/>

</routes>
