<?xml version="1.0" encoding="UTF-8"?>

<!-- generated on Mon Mar  9 15:20:46 2020 by Eclipse SUMO Version v1_5_0+0581-a2889fd
This data file and the accompanying materials
are made available under the terms of the Eclipse Public License v2.0
which accompanies this distribution, and is available at
http://www.eclipse.org/legal/epl-v20.html
SPDX-License-Identifier: EPL-2.0
<configuration xmlns:xsi="http://www.w3.org/2001/XMLSchema-instance" xsi:noNamespaceSchemaLocation="http://sumo.dlr.de/xsd/sumoConfiguration.xsd">

    <input>
        <net-file value="net.net.xml"/>
        <route-files value="input_routes.rou.xml"/>
        <additional-files value="input_additional.add.xml"/>
    </input>

    <output>
        <write-license value="true"/>
        <vehroute-output value="vehroutes.xml"/>
    </output>

    <processing>
        <ignore-route-errors value="true"/>
        <default.speeddev value="0"/>
    </processing>

    <routing>
        <device.rerouting.probability value="0.3"/>
        <device.rerouting.pre-period value="0"/>
    </routing>

    <report>
        <verbose value="true"/>
        <xml-validation value="never"/>
        <duration-log.statistics value="true"/>
        <no-step-log value="true"/>
    </report>

    <random_number>
        <seed value="42"/>
    </random_number>

</configuration>
-->

<routes xmlns:xsi="http://www.w3.org/2001/XMLSchema-instance" xsi:noNamespaceSchemaLocation="http://sumo.dlr.de/xsd/routes_file.xsd">
    <vehicle id="flow.2" depart="1.00" departLane="2" departSpeed="27.80" arrival="30.00">
        <route edges="beg beg2 middle end"/>
    </vehicle>

    <vehicle id="flow.5" depart="3.00" departLane="2" departSpeed="27.80" arrival="32.00">
        <route edges="beg beg2 middle end"/>
    </vehicle>

    <vehicle id="flow.0" depart="0.00" departLane="0" departSpeed="27.80" arrival="38.00">
        <route edges="beg beg2 middle end"/>
    </vehicle>

    <vehicle id="flow.1" depart="0.00" departLane="1" departSpeed="27.80" arrival="38.00">
        <route edges="beg beg2 middle end"/>
    </vehicle>

    <vehicle id="flow.20" depart="14.00" departLane="0" departSpeed="27.80" arrival="73.00">
        <routeDistribution>
            <route replacedOnEdge="beg" reason="rerouter" replacedAtTime="20.00" probability="0" edges="beg beg2 middle end"/>
            <route edges="beg detour end"/>
        </routeDistribution>
    </vehicle>

    <vehicle id="flow.26" depart="18.00" departLane="0" departSpeed="27.80" arrival="79.00">
        <routeDistribution>
            <route replacedOnEdge="beg" reason="rerouter" replacedAtTime="20.00" probability="0" edges="beg beg2 middle end"/>
            <route edges="beg detour end"/>
        </routeDistribution>
    </vehicle>

    <vehicle id="flow.21" depart="14.00" departLane="2" departSpeed="27.80" arrival="84.00">
        <routeDistribution>
            <route replacedOnEdge="beg" reason="rerouter" replacedAtTime="20.00" probability="0" edges="beg beg2 middle end"/>
            <route edges="beg detour end"/>
        </routeDistribution>
    </vehicle>

    <vehicle id="flow.28" depart="19.00" departLane="1" departSpeed="27.80" arrival="86.00">
        <routeDistribution>
            <route replacedOnEdge="beg" reason="rerouter" replacedAtTime="20.00" probability="0" edges="beg beg2 middle end"/>
            <route edges="beg detour end"/>
        </routeDistribution>
    </vehicle>

    <vehicle id="flow.27" depart="18.00" departLane="2" departSpeed="27.80" arrival="89.00">
        <routeDistribution>
            <route replacedOnEdge="beg" reason="rerouter" replacedAtTime="20.00" probability="0" edges="beg beg2 middle end"/>
            <route edges="beg detour end"/>
        </routeDistribution>
    </vehicle>

    <vehicle id="flow.30" depart="21.00" departLane="2" departSpeed="27.80" arrival="92.00">
        <routeDistribution>
            <route replacedOnEdge="beg" reason="rerouter" replacedAtTime="21.00" probability="0" edges="beg beg2 middle end"/>
            <route edges="beg detour end"/>
        </routeDistribution>
    </vehicle>

    <vehicle id="flow.37" depart="25.00" departLane="2" departSpeed="27.80" arrival="93.00">
        <routeDistribution>
            <route replacedOnEdge="beg" reason="rerouter" replacedAtTime="25.00" probability="0" edges="beg beg2 middle end"/>
            <route edges="beg detour end"/>
        </routeDistribution>
    </vehicle>

    <vehicle id="flow.35" depart="24.00" departLane="1" departSpeed="26.68" arrival="95.00">
        <routeDistribution>
            <route replacedOnEdge="beg" reason="rerouter" replacedAtTime="24.00" probability="0" edges="beg beg2 middle end"/>
            <route edges="beg detour end"/>
        </routeDistribution>
    </vehicle>

    <vehicle id="flow.42" depart="29.00" departLane="2" departSpeed="26.68" arrival="97.00">
        <routeDistribution>
            <route replacedOnEdge="beg" reason="rerouter" replacedAtTime="29.00" probability="0" edges="beg beg2 middle end"/>
            <route edges="beg detour end"/>
        </routeDistribution>
    </vehicle>

    <vehicle id="flow.43" depart="30.00" departLane="2" departSpeed="25.43" arrival="99.00">
        <routeDistribution>
            <route replacedOnEdge="beg" reason="rerouter" replacedAtTime="30.00" probability="0" edges="beg beg2 middle end"/>
            <route edges="beg detour end"/>
        </routeDistribution>
    </vehicle>

    <vehicle id="flow.38" depart="26.00" departLane="1" departSpeed="27.80" arrival="101.00">
        <routeDistribution>
            <route replacedOnEdge="beg" reason="rerouter" replacedAtTime="26.00" probability="0" edges="beg beg2 middle end"/>
            <route edges="beg detour end"/>
        </routeDistribution>
    </vehicle>

    <vehicle id="flow.44" depart="31.00" departLane="1" departSpeed="27.80" arrival="104.00">
        <routeDistribution>
            <route replacedOnEdge="beg" reason="rerouter" replacedAtTime="31.00" probability="0" edges="beg beg2 middle end"/>
            <route edges="beg detour end"/>
        </routeDistribution>
    </vehicle>

    <vehicle id="flow.47" depart="32.00" departLane="2" departSpeed="22.93" arrival="106.00">
        <routeDistribution>
            <route replacedOnEdge="beg" reason="rerouter" replacedAtTime="32.00" probability="0" edges="beg beg2 middle end"/>
            <route edges="beg detour end"/>
        </routeDistribution>
    </vehicle>

    <vehicle id="flow.52" depart="36.00" departLane="0" departSpeed="27.14" arrival="107.00">
        <routeDistribution>
            <route replacedOnEdge="beg" reason="rerouter" replacedAtTime="36.00" probability="0" edges="beg beg2 middle end"/>
            <route edges="beg detour end"/>
        </routeDistribution>
    </vehicle>

    <vehicle id="flow.49" depart="34.00" departLane="2" departSpeed="23.22" arrival="109.00">
        <routeDistribution>
            <route replacedOnEdge="beg" reason="rerouter" replacedAtTime="34.00" probability="0" edges="beg beg2 middle end"/>
            <route edges="beg detour end"/>
        </routeDistribution>
    </vehicle>

    <vehicle id="flow.58" depart="40.00" departLane="1" departSpeed="22.93" arrival="111.00">
        <routeDistribution>
            <route replacedOnEdge="beg" reason="rerouter" replacedAtTime="40.00" probability="0" edges="beg beg2 middle end"/>
            <route edges="beg detour end"/>
        </routeDistribution>
    </vehicle>

    <vehicle id="flow.62" depart="43.00" departLane="0" departSpeed="23.41" arrival="112.00">
        <routeDistribution>
            <route replacedOnEdge="beg" reason="rerouter" replacedAtTime="43.00" probability="0" edges="beg beg2 middle end"/>
            <route edges="beg detour end"/>
        </routeDistribution>
    </vehicle>

    <vehicle id="flow.64" depart="45.00" departLane="1" departSpeed="16.77" arrival="114.00">
        <routeDistribution>
            <route replacedOnEdge="beg" reason="rerouter" replacedAtTime="45.00" probability="0" edges="beg beg2 middle end"/>
            <route edges="beg detour end"/>
        </routeDistribution>
    </vehicle>

    <vehicle id="flow.65" depart="46.00" departLane="0" departSpeed="14.90" arrival="115.00">
        <routeDistribution>
            <route replacedOnEdge="beg" reason="rerouter" replacedAtTime="46.00" probability="0" edges="beg beg2 middle end"/>
            <route edges="beg detour end"/>
        </routeDistribution>
    </vehicle>

    <vehicle id="flow.74" depart="51.00" departLane="0" departSpeed="17.49" arrival="118.00">
        <routeDistribution>
            <route replacedOnEdge="beg" reason="rerouter" replacedAtTime="51.00" probability="0" edges="beg beg2 middle end"/>
            <route edges="beg detour end"/>
        </routeDistribution>
    </vehicle>

    <vehicle id="flow.73" depart="51.00" departLane="2" departSpeed="13.11" arrival="120.00">
        <routeDistribution>
            <route replacedOnEdge="beg" reason="rerouter" replacedAtTime="51.00" probability="0" edges="beg beg2 middle end"/>
            <route edges="beg detour end"/>
        </routeDistribution>
    </vehicle>

    <vehicle id="flow.80" depart="56.00" departLane="2" departSpeed="8.63" arrival="122.00">
        <routeDistribution>
            <route replacedOnEdge="beg" reason="rerouter" replacedAtTime="56.00" probability="0" edges="beg beg2 middle end"/>
            <route edges="beg detour end"/>
        </routeDistribution>
    </vehicle>

    <vehicle id="flow.75" depart="52.00" departLane="1" departSpeed="10.03" arrival="124.00">
        <routeDistribution>
            <route replacedOnEdge="beg" reason="rerouter" replacedAtTime="52.00" probability="0" edges="beg beg2 middle end"/>
            <route edges="beg detour end"/>
        </routeDistribution>
    </vehicle>

    <vehicle id="flow.77" depart="53.00" departLane="1" departSpeed="6.80" arrival="125.00">
        <routeDistribution>
            <route replacedOnEdge="beg" reason="rerouter" replacedAtTime="53.00" probability="0" edges="beg beg2 middle end"/>
            <route edges="beg detour end"/>
        </routeDistribution>
    </vehicle>

    <vehicle id="flow.88" depart="64.00" departLane="1" departSpeed="17.92" arrival="127.00">
        <routeDistribution>
            <route replacedOnEdge="beg" reason="rerouter" replacedAtTime="64.00" probability="0" edges="beg beg2 middle end"/>
            <route edges="beg detour end"/>
        </routeDistribution>
    </vehicle>

    <vehicle id="flow.85" depart="59.00" departLane="1" departSpeed="7.15" arrival="130.00">
        <routeDistribution>
            <route replacedOnEdge="beg" reason="rerouter" replacedAtTime="59.00" probability="0" edges="beg beg2 middle end"/>
            <route edges="beg detour end"/>
        </routeDistribution>
    </vehicle>

    <vehicle id="flow.84" depart="59.00" departLane="2" departSpeed="2.09" arrival="132.00">
        <routeDistribution>
            <route replacedOnEdge="beg" reason="rerouter" replacedAtTime="59.00" probability="0" edges="beg beg2 middle end"/>
            <route edges="beg detour end"/>
        </routeDistribution>
    </vehicle>

    <vehicle id="flow.89" depart="64.00" departLane="2" departSpeed="3.10" arrival="133.00">
        <routeDistribution>
            <route replacedOnEdge="beg" reason="rerouter" replacedAtTime="64.00" probability="0" edges="beg beg2 middle end"/>
            <route edges="beg detour end"/>
        </routeDistribution>
    </vehicle>

    <vehicle id="flow.95" depart="69.00" departLane="1" departSpeed="10.07" arrival="135.00">
        <routeDistribution>
            <route replacedOnEdge="beg" reason="rerouter" replacedAtTime="69.00" probability="0" edges="beg beg2 middle end"/>
            <route edges="beg detour end"/>
        </routeDistribution>
    </vehicle>

    <vehicle id="flow.99" depart="71.00" departLane="2" departSpeed="19.14" arrival="136.00">
        <routeDistribution>
            <route replacedOnEdge="beg" reason="rerouter" replacedAtTime="71.00" probability="0" edges="beg beg2 middle end"/>
            <route edges="beg detour end"/>
        </routeDistribution>
    </vehicle>

    <vehicle id="flow.98" depart="71.00" departLane="1" departSpeed="14.57" arrival="138.00">
        <routeDistribution>
            <route replacedOnEdge="beg" reason="rerouter" replacedAtTime="71.00" probability="0" edges="beg beg2 middle end"/>
            <route edges="beg detour end"/>
        </routeDistribution>
    </vehicle>

    <vehicle id="flow.3" depart="2.00" departLane="0" departSpeed="27.80" arrival="139.00">
        <route edges="beg beg2 middle end"/>
    </vehicle>

    <vehicle id="flow.4" depart="2.00" departLane="1" departSpeed="27.80" arrival="139.00">
        <route edges="beg beg2 middle end"/>
    </vehicle>

    <vehicle id="flow.8" depart="5.00" departLane="2" departSpeed="27.80" arrival="139.00">
        <route edges="beg beg2 middle end"/>
    </vehicle>

    <vehicle id="flow.6" depart="4.00" departLane="0" departSpeed="27.80" arrival="140.00">
        <route edges="beg beg2 middle end"/>
    </vehicle>

    <vehicle id="flow.7" depart="4.00" departLane="1" departSpeed="27.80" arrival="140.00">
        <route edges="beg beg2 middle end"/>
    </vehicle>

    <vehicle id="flow.11" depart="7.00" departLane="2" departSpeed="27.80" arrival="140.00">
        <route edges="beg beg2 middle end"/>
    </vehicle>

    <vehicle id="flow.9" depart="6.00" departLane="0" departSpeed="27.80" arrival="141.00">
        <route edges="beg beg2 middle end"/>
    </vehicle>

    <vehicle id="flow.10" depart="7.00" departLane="1" departSpeed="27.80" arrival="141.00">
        <route edges="beg beg2 middle end"/>
    </vehicle>

    <vehicle id="flow.14" depart="9.00" departLane="2" departSpeed="27.80" arrival="141.00">
        <route edges="beg beg2 middle end"/>
    </vehicle>

    <vehicle id="flow.12" depart="8.00" departLane="0" departSpeed="27.80" arrival="143.00">
        <route edges="beg beg2 middle end"/>
    </vehicle>

    <vehicle id="flow.13" depart="9.00" departLane="1" departSpeed="27.80" arrival="143.00">
        <route edges="beg beg2 middle end"/>
    </vehicle>

    <vehicle id="flow.17" depart="11.00" departLane="2" departSpeed="27.80" arrival="143.00">
        <route edges="beg beg2 middle end"/>
    </vehicle>

    <vehicle id="flow.15" depart="10.00" departLane="0" departSpeed="27.80" arrival="144.00">
        <route edges="beg beg2 middle end"/>
    </vehicle>

    <vehicle id="flow.16" depart="11.00" departLane="1" departSpeed="27.80" arrival="144.00">
        <route edges="beg beg2 middle end"/>
    </vehicle>

    <vehicle id="flow.22" depart="15.00" departLane="1" departSpeed="27.80" arrival="144.00">
        <route edges="beg beg2 middle end"/>
    </vehicle>

    <vehicle id="flow.112" depart="78.00" departLane="2" departSpeed="9.78" arrival="144.00">
        <routeDistribution>
            <route replacedOnEdge="beg" reason="rerouter" replacedAtTime="78.00" probability="0" edges="beg beg2 middle end"/>
            <route edges="beg detour end"/>
        </routeDistribution>
    </vehicle>

    <vehicle id="flow.18" depart="12.00" departLane="0" departSpeed="27.80" arrival="145.00">
        <route edges="beg beg2 middle end"/>
    </vehicle>

    <vehicle id="flow.19" depart="13.00" departLane="1" departSpeed="27.80" arrival="145.00">
        <route edges="beg beg2 middle end"/>
    </vehicle>

    <vehicle id="flow.25" depart="17.00" departLane="1" departSpeed="27.80" arrival="145.00">
        <route edges="beg beg2 middle end"/>
    </vehicle>

    <vehicle id="flow.24" depart="16.00" departLane="2" departSpeed="27.80" arrival="146.00">
        <route edges="beg beg2 middle end"/>
    </vehicle>

    <vehicle id="flow.33" depart="23.00" departLane="1" departSpeed="27.80" arrival="146.00">
        <route edges="beg beg2 middle end"/>
    </vehicle>

    <vehicle id="flow.114" depart="80.00" departLane="1" departSpeed="10.57" arrival="146.00">
        <routeDistribution>
            <route replacedOnEdge="beg" reason="rerouter" replacedAtTime="80.00" probability="0" edges="beg beg2 middle end"/>
            <route edges="beg detour end"/>
        </routeDistribution>
    </vehicle>

    <vehicle id="flow.23" depart="16.00" departLane="0" departSpeed="27.80" arrival="147.00">
        <route edges="beg beg2 middle end"/>
    </vehicle>

    <vehicle id="flow.29" depart="20.00" departLane="0" departSpeed="27.80" arrival="148.00">
        <route edges="beg beg2 middle end"/>
    </vehicle>

    <vehicle id="flow.31" depart="22.00" departLane="2" departSpeed="27.80" arrival="148.00">
        <route edges="beg beg2 middle end"/>
    </vehicle>

    <vehicle id="flow.34" depart="23.00" departLane="0" departSpeed="27.80" arrival="148.00">
        <route edges="beg beg2 middle end"/>
    </vehicle>

    <vehicle id="flow.116" depart="81.00" departLane="1" departSpeed="7.60" arrival="148.00">
        <routeDistribution>
            <route replacedOnEdge="beg" reason="rerouter" replacedAtTime="81.00" probability="0" edges="beg beg2 middle end"/>
            <route edges="beg detour end"/>
        </routeDistribution>
    </vehicle>

    <vehicle id="flow.32" depart="23.00" departLane="2" departSpeed="26.68" arrival="149.00">
        <route edges="beg beg2 middle end"/>
    </vehicle>

    <vehicle id="flow.36" depart="25.00" departLane="0" departSpeed="27.80" arrival="149.00">
        <route edges="beg beg2 middle end"/>
    </vehicle>

    <vehicle id="flow.39" depart="27.00" departLane="0" departSpeed="26.68" arrival="149.00">
        <route edges="beg beg2 middle end"/>
    </vehicle>

    <vehicle id="flow.40" depart="28.00" departLane="2" departSpeed="27.80" arrival="150.00">
        <route edges="beg beg2 middle end"/>
    </vehicle>

    <vehicle id="flow.41" depart="28.00" departLane="0" departSpeed="25.43" arrival="150.00">
        <route edges="beg beg2 middle end"/>
    </vehicle>

    <vehicle id="flow.45" depart="31.00" departLane="2" departSpeed="24.18" arrival="151.00">
        <route edges="beg beg2 middle end"/>
    </vehicle>

    <vehicle id="flow.46" depart="32.00" departLane="1" departSpeed="26.68" arrival="151.00">
        <route edges="beg beg2 middle end"/>
    </vehicle>

    <vehicle id="flow.50" depart="35.00" departLane="1" departSpeed="24.18" arrival="151.00">
        <route edges="beg beg2 middle end"/>
    </vehicle>

    <vehicle id="flow.55" depart="38.00" departLane="0" departSpeed="25.91" arrival="152.00">
        <route edges="beg beg2 middle end"/>
    </vehicle>

    <vehicle id="flow.122" depart="86.00" departLane="1" departSpeed="5.55" arrival="152.00">
        <routeDistribution>
            <route replacedOnEdge="beg" reason="rerouter" replacedAtTime="86.00" probability="0" edges="beg beg2 middle end"/>
            <route edges="beg detour end"/>
        </routeDistribution>
    </vehicle>

    <vehicle id="flow.48" depart="33.00" departLane="1" departSpeed="25.43" arrival="153.00">
        <route edges="beg beg2 middle end"/>
    </vehicle>

    <vehicle id="flow.59" depart="41.00" departLane="1" departSpeed="21.52" arrival="153.00">
        <route edges="beg beg2 middle end"/>
    </vehicle>

    <vehicle id="flow.60" depart="42.00" departLane="1" departSpeed="20.02" arrival="153.00">
        <route edges="beg beg2 middle end"/>
    </vehicle>

    <vehicle id="flow.56" depart="39.00" departLane="0" departSpeed="24.66" arrival="154.00">
        <route edges="beg beg2 middle end"/>
    </vehicle>

    <vehicle id="flow.63" depart="44.00" departLane="1" departSpeed="18.52" arrival="154.00">
        <route edges="beg beg2 middle end"/>
    </vehicle>

    <vehicle id="flow.69" depart="48.00" departLane="0" departSpeed="19.08" arrival="154.00">
        <route edges="beg beg2 middle end"/>
    </vehicle>

    <vehicle id="flow.51" depart="35.00" departLane="2" departSpeed="21.86" arrival="155.00">
        <route edges="beg beg2 middle end"/>
    </vehicle>

    <vehicle id="flow.70" depart="49.00" departLane="1" departSpeed="16.53" arrival="155.00">
        <route edges="beg beg2 middle end"/>
    </vehicle>

    <vehicle id="flow.66" depart="46.00" departLane="1" departSpeed="16.77" arrival="156.00">
        <route edges="beg beg2 middle end"/>
    </vehicle>

    <vehicle id="flow.53" depart="37.00" departLane="2" departSpeed="21.64" arrival="157.00">
        <route edges="beg beg2 middle end"/>
    </vehicle>

    <vehicle id="flow.71" depart="50.00" departLane="1" departSpeed="14.65" arrival="157.00">
        <route edges="beg beg2 middle end"/>
    </vehicle>

    <vehicle id="flow.72" depart="51.00" departLane="1" departSpeed="12.53" arrival="157.00">
        <route edges="beg beg2 middle end"/>
    </vehicle>

    <vehicle id="flow.54" depart="38.00" departLane="2" departSpeed="20.14" arrival="158.00">
        <route edges="beg beg2 middle end"/>
    </vehicle>

    <vehicle id="flow.81" depart="56.00" departLane="0" departSpeed="10.86" arrival="158.00">
        <route edges="beg beg2 middle end"/>
    </vehicle>

    <vehicle id="flow.83" depart="58.00" departLane="1" departSpeed="10.27" arrival="158.00">
        <route edges="beg beg2 middle end"/>
    </vehicle>

    <vehicle id="flow.128" depart="93.00" departLane="0" departSpeed="15.20" arrival="158.00">
        <routeDistribution>
            <route replacedOnEdge="beg" reason="rerouter" replacedAtTime="93.00" probability="0" edges="beg beg2 middle end"/>
            <route edges="beg detour end"/>
        </routeDistribution>
    </vehicle>

    <vehicle id="flow.57" depart="39.00" departLane="2" departSpeed="18.64" arrival="159.00">
        <route edges="beg beg2 middle end"/>
    </vehicle>

    <vehicle id="flow.61" depart="42.00" departLane="2" departSpeed="17.90" arrival="159.00">
        <route edges="beg beg2 middle end"/>
    </vehicle>

    <vehicle id="flow.68" depart="47.00" departLane="2" departSpeed="14.49" arrival="159.00">
        <route edges="beg beg2 middle end"/>
    </vehicle>

    <vehicle id="flow.133" depart="94.00" departLane="2" departSpeed="25.43" arrival="159.00">
        <routeDistribution>
            <route replacedOnEdge="beg" reason="rerouter" replacedAtTime="94.00" probability="0" edges="beg beg2 middle end"/>
            <route edges="beg detour end"/>
        </routeDistribution>
    </vehicle>

    <vehicle id="flow.67" depart="46.00" departLane="2" departSpeed="16.36" arrival="160.00">
        <route edges="beg beg2 middle end"/>
    </vehicle>

    <vehicle id="flow.92" depart="67.00" departLane="1" departSpeed="14.68" arrival="160.00">
        <route edges="beg beg2 middle end"/>
    </vehicle>

    <vehicle id="flow.76" depart="53.00" departLane="2" departSpeed="12.05" arrival="161.00">
        <route edges="beg beg2 middle end"/>
    </vehicle>

    <vehicle id="flow.131" depart="94.00" departLane="0" departSpeed="13.27" arrival="161.00">
        <routeDistribution>
            <route replacedOnEdge="beg" reason="rerouter" replacedAtTime="94.00" probability="0" edges="beg beg2 middle end"/>
            <route edges="beg detour end"/>
        </routeDistribution>
    </vehicle>

    <vehicle id="flow.79" depart="55.00" departLane="2" departSpeed="11.25" arrival="162.00">
        <route edges="beg beg2 middle end"/>
    </vehicle>

    <vehicle id="flow.91" depart="66.00" departLane="1" departSpeed="16.56" arrival="162.00">
        <route edges="beg beg2 middle end"/>
    </vehicle>

    <vehicle id="flow.96" depart="70.00" departLane="1" departSpeed="16.44" arrival="162.00">
        <route edges="beg beg2 middle end"/>
    </vehicle>

    <vehicle id="flow.135" depart="96.00" departLane="1" departSpeed="13.65" arrival="162.00">
        <routeDistribution>
            <route replacedOnEdge="beg" reason="rerouter" replacedAtTime="96.00" probability="0" edges="beg beg2 middle end"/>
            <route edges="beg detour end"/>
        </routeDistribution>
    </vehicle>

    <vehicle id="flow.78" depart="54.00" departLane="1" departSpeed="9.24" arrival="163.00">
        <route edges="beg beg2 middle end"/>
    </vehicle>

    <vehicle id="flow.93" depart="68.00" departLane="1" departSpeed="12.57" arrival="163.00">
        <route edges="beg beg2 middle end"/>
    </vehicle>

    <vehicle id="flow.100" depart="71.00" departLane="0" departSpeed="13.52" arrival="163.00">
        <route edges="beg beg2 middle end"/>
    </vehicle>

    <vehicle id="flow.82" depart="57.00" departLane="2" departSpeed="4.88" arrival="164.00">
        <route edges="beg beg2 middle end"/>
    </vehicle>

    <vehicle id="flow.101" depart="72.00" departLane="1" departSpeed="12.42" arrival="164.00">
        <route edges="beg beg2 middle end"/>
    </vehicle>

    <vehicle id="flow.103" depart="72.00" departLane="0" departSpeed="11.03" arrival="164.00">
        <route edges="beg beg2 middle end"/>
    </vehicle>

    <vehicle id="flow.132" depart="94.00" departLane="1" departSpeed="4.42" arrival="164.00">
        <routeDistribution>
            <route replacedOnEdge="beg" reason="rerouter" replacedAtTime="94.00" probability="0" edges="beg beg2 middle end"/>
            <route edges="beg detour end"/>
        </routeDistribution>
    </vehicle>

    <vehicle id="flow.86" depart="61.00" departLane="2" departSpeed="7.65" arrival="165.00">
        <route edges="beg beg2 middle end"/>
    </vehicle>

    <vehicle id="flow.136" depart="97.00" departLane="1" departSpeed="11.20" arrival="165.00">
        <routeDistribution>
            <route replacedOnEdge="beg" reason="rerouter" replacedAtTime="97.00" probability="0" edges="beg beg2 middle end"/>
            <route edges="beg detour end"/>
        </routeDistribution>
    </vehicle>

    <vehicle id="flow.104" depart="73.00" departLane="1" departSpeed="9.92" arrival="166.00">
        <route edges="beg beg2 middle end"/>
    </vehicle>

    <vehicle id="flow.111" depart="78.00" departLane="1" departSpeed="7.40" arrival="166.00">
        <route edges="beg beg2 middle end"/>
    </vehicle>

    <vehicle id="flow.87" depart="62.00" departLane="2" departSpeed="3.30" arrival="167.00">
        <route edges="beg beg2 middle end"/>
    </vehicle>

    <vehicle id="flow.107" depart="74.00" departLane="1" departSpeed="6.63" arrival="167.00">
        <route edges="beg beg2 middle end"/>
    </vehicle>

    <vehicle id="flow.109" depart="76.00" departLane="1" departSpeed="5.70" arrival="167.00">
        <route edges="beg beg2 middle end"/>
    </vehicle>

    <vehicle id="flow.142" depart="99.00" departLane="1" departSpeed="10.48" arrival="167.00">
        <routeDistribution>
            <route replacedOnEdge="beg" reason="rerouter" replacedAtTime="99.00" probability="0" edges="beg beg2 middle end"/>
            <route edges="beg detour end"/>
        </routeDistribution>
    </vehicle>

    <vehicle id="flow.90" depart="65.00" departLane="2" departSpeed="9.23" arrival="168.00">
        <route edges="beg beg2 middle end"/>
    </vehicle>

    <vehicle id="flow.113" depart="79.00" departLane="1" departSpeed="13.07" arrival="168.00">
        <route edges="beg beg2 middle end"/>
    </vehicle>

    <vehicle id="flow.115" depart="80.00" departLane="0" departSpeed="9.97" arrival="168.00">
        <route edges="beg beg2 middle end"/>
    </vehicle>

    <vehicle id="flow.137" depart="97.00" departLane="0" departSpeed="10.93" arrival="168.00">
        <routeDistribution>
            <route replacedOnEdge="beg" reason="rerouter" replacedAtTime="97.00" probability="0" edges="beg beg2 middle end"/>
            <route edges="beg detour end"/>
        </routeDistribution>
    </vehicle>

    <vehicle id="flow.94" depart="69.00" departLane="2" departSpeed="22.14" arrival="169.00">
        <route edges="beg beg2 middle end"/>
    </vehicle>

    <vehicle id="flow.97" depart="70.00" departLane="2" departSpeed="20.64" arrival="170.00">
        <route edges="beg beg2 middle end"/>
    </vehicle>

    <vehicle id="flow.108" depart="75.00" departLane="2" departSpeed="11.40" arrival="170.00">
        <route edges="beg beg2 middle end"/>
    </vehicle>

    <vehicle id="flow.117" depart="81.00" departLane="0" departSpeed="6.70" arrival="170.00">
        <route edges="beg beg2 middle end"/>
    </vehicle>

    <vehicle id="flow.118" depart="82.00" departLane="2" departSpeed="27.80" arrival="171.00">
        <route edges="beg beg2 middle end"/>
    </vehicle>

    <vehicle id="flow.126" depart="91.00" departLane="0" departSpeed="14.23" arrival="171.00">
        <route edges="beg beg2 middle end"/>
    </vehicle>

    <vehicle id="flow.102" depart="72.00" departLane="2" departSpeed="17.55" arrival="172.00">
        <route edges="beg beg2 middle end"/>
    </vehicle>

    <vehicle id="flow.119" depart="83.00" departLane="0" departSpeed="1.40" arrival="172.00">
        <route edges="beg beg2 middle end"/>
    </vehicle>

    <vehicle id="flow.123" depart="88.00" departLane="1" departSpeed="7.17" arrival="172.00">
        <route edges="beg beg2 middle end"/>
    </vehicle>

    <vehicle id="flow.105" depart="73.00" departLane="2" departSpeed="15.67" arrival="173.00">
        <route edges="beg beg2 middle end"/>
    </vehicle>

    <vehicle id="flow.124" depart="90.00" departLane="1" departSpeed="9.66" arrival="173.00">
        <route edges="beg beg2 middle end"/>
    </vehicle>

    <vehicle id="flow.125" depart="91.00" departLane="1" departSpeed="6.24" arrival="173.00">
        <route edges="beg beg2 middle end"/>
    </vehicle>

    <vehicle id="flow.106" depart="74.00" departLane="2" departSpeed="13.80" arrival="174.00">
        <route edges="beg beg2 middle end"/>
    </vehicle>

    <vehicle id="flow.129" depart="93.00" departLane="1" departSpeed="8.21" arrival="175.00">
        <route edges="beg beg2 middle end"/>
    </vehicle>
