<?xml version="1.0" encoding="UTF-8"?>

<!-- generated on 2022-07-03 12:50:00 by Eclipse SUMO sumo Version v1_13_0+1364-9230dc458dd
This data file and the accompanying materials
are made available under the terms of the Eclipse Public License v2.0
which accompanies this distribution, and is available at
http://www.eclipse.org/legal/epl-v20.html
This file may also be made available under the following Secondary
Licenses when the conditions for such availability set forth in the Eclipse
Public License 2.0 are satisfied: GNU General Public License, version 2
or later which is available at
https://www.gnu.org/licenses/old-licenses/gpl-2.0-standalone.html
SPDX-License-Identifier: EPL-2.0 OR GPL-2.0-or-later
<configuration xmlns:xsi="http://www.w3.org/2001/XMLSchema-instance" xsi:noNamespaceSchemaLocation="http://sumo.dlr.de/xsd/sumoConfiguration.xsd">

    <input>
        <net-file value="net.net.xml"/>
        <additional-files value="input_routes.rou.xml,input_additional.add.xml,input_additional2.add.xml"/>
    </input>

    <output>
        <write-license value="true"/>
    </output>

    <time>
        <begin value="0"/>
        <end value="150"/>
    </time>

    <processing>
        <default.speeddev value="0"/>
    </processing>

    <report>
        <xml-validation value="never"/>
        <duration-log.disable value="true"/>
        <no-step-log value="true"/>
    </report>

    <mesoscopic>
        <mesosim value="true"/>
    </mesoscopic>

</configuration>
-->

<meandata xmlns:xsi="http://www.w3.org/2001/XMLSchema-instance" xsi:noNamespaceSchemaLocation="http://sumo.dlr.de/xsd/meandata_file.xsd">
    <interval begin="0.00" end="15.00" id="dump_all_15">
        <edge id="4/1to3/1" sampledSeconds="27.00" CO_abs="452.612900" CO2_abs="55715.570668" HC_abs="3.246179" PMx_abs="0.308948" NOx_abs="17.463497" fuel_abs="17752.373693" electricity_abs="0"
            CO_normed="271.567740" CO2_normed="33429.342401" HC_normed="1.947707" PMx_normed="0.185369" NOx_normed="10.478098" fuel_normed="10651.424216" electricity_normed="0"
            traveltime="40.00" CO_perVeh="670.537630" CO2_perVeh="82541.586175" HC_perVeh="4.809154" PMx_perVeh="0.457701" NOx_perVeh="25.871847" fuel_perVeh="26299.812879" electricity_perVeh="0"/>
    </interval>
    <interval begin="0.00" end="15.00" id="dump_t1_15">
        <edge id="4/1to3/1" sampledSeconds="14.00" CO_abs="269.500000" CO2_abs="29571.111111" HC_abs="1.862778" PMx_abs="0.174611" NOx_abs="9.733889" fuel_abs="9432.111111" electricity_abs="0"
            CO_normed="161.700000" CO2_normed="17742.666667" HC_normed="1.117667" PMx_normed="0.104767" NOx_normed="5.840333" fuel_normed="5659.266667" electricity_normed="0"
            traveltime="40.00" CO_perVeh="770.000000" CO2_perVeh="84488.888889" HC_perVeh="5.322222" PMx_perVeh="0.498889" NOx_perVeh="27.811111" fuel_perVeh="26948.888889" electricity_perVeh="0"/>
    </interval>
    <interval begin="0.00" end="15.00" id="dump_t4_15"/>
    <interval begin="15.00" end="30.00" id="dump_all_15">
        <edge id="4/1to3/1" sampledSeconds="59.00" CO_abs="614.485875" CO2_abs="90120.890006" HC_abs="4.688795" PMx_abs="0.456994" NOx_abs="26.378739" fuel_abs="28674.526349" electricity_abs="9.692391"
            CO_normed="368.691525" CO2_normed="54072.534003" HC_normed="2.813277" PMx_normed="0.274196" NOx_normed="15.827243" fuel_normed="17204.715809" electricity_normed="5.815434"
            traveltime="40.00" CO_perVeh="416.600593" CO2_perVeh="61098.908478" HC_perVeh="3.178844" PMx_perVeh="0.309826" NOx_perVeh="17.883891" fuel_perVeh="19440.356847" electricity_perVeh="6.571112"/>
    </interval>
    <interval begin="15.00" end="30.00" id="dump_t1_15">
        <edge id="4/1to3/1" sampledSeconds="15.00" CO_abs="288.750000" CO2_abs="31683.333333" HC_abs="1.995833" PMx_abs="0.187083" NOx_abs="10.429167" fuel_abs="10105.833333" electricity_abs="0"
            CO_normed="173.250000" CO2_normed="19010.000000" HC_normed="1.197500" PMx_normed="0.112250" NOx_normed="6.257500" fuel_normed="6063.500000" electricity_normed="0"
            traveltime="40.00" CO_perVeh="770.000000" CO2_perVeh="84488.888889" HC_perVeh="5.322222" PMx_perVeh="0.498889" NOx_perVeh="27.811111" fuel_perVeh="26948.888889" electricity_perVeh="0"/>
    </interval>
    <interval begin="15.00" end="30.00" id="dump_t4_15">
        <edge id="4/1to3/1" sampledSeconds="14.00" CO_abs="0" CO2_abs="0" HC_abs="0" PMx_abs="0" NOx_abs="0" fuel_abs="0" electricity_abs="9.692391"
            CO_normed="0" CO2_normed="0" HC_normed="0" PMx_normed="0" NOx_normed="0" fuel_normed="0" electricity_normed="5.815434"
            traveltime="40.00" CO_perVeh="0" CO2_perVeh="0" HC_perVeh="0" PMx_perVeh="0" NOx_perVeh="0" fuel_perVeh="0" electricity_perVeh="27.692545"/>
    </interval>
    <interval begin="30.00" end="45.00" id="dump_all_15">
        <edge id="3/1to2/1" sampledSeconds="4.00" CO_abs="77.000000" CO2_abs="8448.888889" HC_abs="0.532222" PMx_abs="0.049889" NOx_abs="2.781111" fuel_abs="2694.888889" electricity_abs="0"
            CO_normed="46.200000" CO2_normed="5069.333333" HC_normed="0.319333" PMx_normed="0.029933" NOx_normed="1.668667" fuel_normed="1616.933333" electricity_normed="0"
            traveltime="40.00" CO_perVeh="770.000000" CO2_perVeh="84488.888889" HC_perVeh="5.322222" PMx_perVeh="0.498889" NOx_perVeh="27.811111" fuel_perVeh="26948.888889" electricity_perVeh="0"/>
        <edge id="4/1to3/1" sampledSeconds="56.00" CO_abs="537.485875" CO2_abs="81672.001117" HC_abs="4.156573" PMx_abs="0.407105" NOx_abs="23.597628" fuel_abs="25979.637460" electricity_abs="10.384704"
            CO_normed="322.491525" CO2_normed="49003.200670" HC_normed="2.493944" PMx_normed="0.244263" NOx_normed="14.158577" fuel_normed="15587.782476" electricity_normed="6.230823"
            traveltime="40.00" CO_perVeh="383.918482" CO2_perVeh="58337.143655" HC_perVeh="2.968981" PMx_perVeh="0.290789" NOx_perVeh="16.855448" fuel_perVeh="18556.883900" electricity_perVeh="7.417646"/>
    </interval>
    <interval begin="30.00" end="45.00" id="dump_t1_15">
        <edge id="3/1to2/1" sampledSeconds="4.00" CO_abs="77.000000" CO2_abs="8448.888889" HC_abs="0.532222" PMx_abs="0.049889" NOx_abs="2.781111" fuel_abs="2694.888889" electricity_abs="0"
            CO_normed="46.200000" CO2_normed="5069.333333" HC_normed="0.319333" PMx_normed="0.029933" NOx_normed="1.668667" fuel_normed="1616.933333" electricity_normed="0"
            traveltime="40.00" CO_perVeh="770.000000" CO2_perVeh="84488.888889" HC_perVeh="5.322222" PMx_perVeh="0.498889" NOx_perVeh="27.811111" fuel_perVeh="26948.888889" electricity_perVeh="0"/>
        <edge id="4/1to3/1" sampledSeconds="11.00" CO_abs="211.750000" CO2_abs="23234.444444" HC_abs="1.463611" PMx_abs="0.137194" NOx_abs="7.648056" fuel_abs="7410.944444" electricity_abs="0"
            CO_normed="127.050000" CO2_normed="13940.666667" HC_normed="0.878167" PMx_normed="0.082317" NOx_normed="4.588833" fuel_normed="4446.566667" electricity_normed="0"
            traveltime="40.00" CO_perVeh="770.000000" CO2_perVeh="84488.888889" HC_perVeh="5.322222" PMx_perVeh="0.498889" NOx_perVeh="27.811111" fuel_perVeh="26948.888889" electricity_perVeh="0"/>
    </interval>
    <interval begin="30.00" end="45.00" id="dump_t4_15">
        <edge id="4/1to3/1" sampledSeconds="15.00" CO_abs="0" CO2_abs="0" HC_abs="0" PMx_abs="0" NOx_abs="0" fuel_abs="0" electricity_abs="10.384704"
            CO_normed="0" CO2_normed="0" HC_normed="0" PMx_normed="0" NOx_normed="0" fuel_normed="0" electricity_normed="6.230823"
            traveltime="40.00" CO_perVeh="0" CO2_perVeh="0" HC_perVeh="0" PMx_perVeh="0" NOx_perVeh="0" fuel_perVeh="0" electricity_perVeh="27.692545"/>
    </interval>
    <interval begin="45.00" end="60.00" id="dump_all_15">
        <edge id="3/1to2/1" sampledSeconds="42.00" CO_abs="580.441525" CO2_abs="77306.978448" HC_abs="4.276888" PMx_abs="0.411391" NOx_abs="23.475299" fuel_abs="24615.660254" electricity_abs="2.769254"
            CO_normed="348.264915" CO2_normed="46384.187069" HC_normed="2.566133" PMx_normed="0.246834" NOx_normed="14.085179" fuel_normed="14769.396152" electricity_normed="1.661553"
            traveltime="40.00" CO_perVeh="552.801452" CO2_perVeh="73625.693760" HC_perVeh="4.073227" PMx_perVeh="0.391801" NOx_perVeh="22.357427" fuel_perVeh="23443.485956" electricity_perVeh="2.637385"/>
        <edge id="4/1to3/1" sampledSeconds="18.00" CO_abs="34.044350" CO2_abs="12813.911558" HC_abs="0.411907" PMx_abs="0.045603" NOx_abs="2.903440" fuel_abs="4058.866095" electricity_abs="7.615450"
            CO_normed="20.426610" CO2_normed="7688.346935" HC_normed="0.247144" PMx_normed="0.027362" NOx_normed="1.742064" fuel_normed="2435.319657" electricity_normed="4.569270"
            traveltime="40.00" CO_perVeh="75.654111" CO2_perVeh="28475.359017" HC_perVeh="0.915349" PMx_perVeh="0.101340" NOx_perVeh="6.452089" fuel_perVeh="9019.702433" electricity_perVeh="16.923222"/>
    </interval>
    <interval begin="45.00" end="60.00" id="dump_t1_15">
        <edge id="3/1to2/1" sampledSeconds="15.00" CO_abs="288.750000" CO2_abs="31683.333333" HC_abs="1.995833" PMx_abs="0.187083" NOx_abs="10.429167" fuel_abs="10105.833333" electricity_abs="0"
            CO_normed="173.250000" CO2_normed="19010.000000" HC_normed="1.197500" PMx_normed="0.112250" NOx_normed="6.257500" fuel_normed="6063.500000" electricity_normed="0"
            traveltime="40.00" CO_perVeh="770.000000" CO2_perVeh="84488.888889" HC_perVeh="5.322222" PMx_perVeh="0.498889" NOx_perVeh="27.811111" fuel_perVeh="26948.888889" electricity_perVeh="0"/>
    </interval>
    <interval begin="45.00" end="60.00" id="dump_t4_15">
        <edge id="3/1to2/1" sampledSeconds="4.00" CO_abs="0" CO2_abs="0" HC_abs="0" PMx_abs="0" NOx_abs="0" fuel_abs="0" electricity_abs="2.769254"
            CO_normed="0" CO2_normed="0" HC_normed="0" PMx_normed="0" NOx_normed="0" fuel_normed="0" electricity_normed="1.661553"
            traveltime="40.00" CO_perVeh="0" CO2_perVeh="0" HC_perVeh="0" PMx_perVeh="0" NOx_perVeh="0" fuel_perVeh="0" electricity_perVeh="27.692545"/>
        <edge id="4/1to3/1" sampledSeconds="11.00" CO_abs="0" CO2_abs="0" HC_abs="0" PMx_abs="0" NOx_abs="0" fuel_abs="0" electricity_abs="7.615450"
            CO_normed="0" CO2_normed="0" HC_normed="0" PMx_normed="0" NOx_normed="0" fuel_normed="0" electricity_normed="4.569270"
            traveltime="40.00" CO_perVeh="0" CO2_perVeh="0" HC_perVeh="0" PMx_perVeh="0" NOx_perVeh="0" fuel_perVeh="0" electricity_perVeh="27.692545"/>
    </interval>
    <interval begin="60.00" end="75.00" id="dump_all_15">
        <edge id="3/1to2/1" sampledSeconds="60.00" CO_abs="614.485875" CO2_abs="90120.890006" HC_abs="4.688795" PMx_abs="0.456994" NOx_abs="26.378739" fuel_abs="28674.526349" electricity_abs="10.384704"
            CO_normed="368.691525" CO2_normed="54072.534003" HC_normed="2.813277" PMx_normed="0.274196" NOx_normed="15.827243" fuel_normed="17204.715809" electricity_normed="6.230823"
            traveltime="40.00" CO_perVeh="409.657250" CO2_perVeh="60080.593337" HC_perVeh="3.125863" PMx_perVeh="0.304663" NOx_perVeh="17.585826" fuel_perVeh="19116.350899" electricity_perVeh="6.923136"/>
    </interval>
    <interval begin="60.00" end="75.00" id="dump_t1_15">
        <edge id="3/1to2/1" sampledSeconds="15.00" CO_abs="288.750000" CO2_abs="31683.333333" HC_abs="1.995833" PMx_abs="0.187083" NOx_abs="10.429167" fuel_abs="10105.833333" electricity_abs="0"
            CO_normed="173.250000" CO2_normed="19010.000000" HC_normed="1.197500" PMx_normed="0.112250" NOx_normed="6.257500" fuel_normed="6063.500000" electricity_normed="0"
            traveltime="40.00" CO_perVeh="770.000000" CO2_perVeh="84488.888889" HC_perVeh="5.322222" PMx_perVeh="0.498889" NOx_perVeh="27.811111" fuel_perVeh="26948.888889" electricity_perVeh="0"/>
    </interval>
    <interval begin="60.00" end="75.00" id="dump_t4_15">
        <edge id="3/1to2/1" sampledSeconds="15.00" CO_abs="0" CO2_abs="0" HC_abs="0" PMx_abs="0" NOx_abs="0" fuel_abs="0" electricity_abs="10.384704"
            CO_normed="0" CO2_normed="0" HC_normed="0" PMx_normed="0" NOx_normed="0" fuel_normed="0" electricity_normed="6.230823"
            traveltime="40.00" CO_perVeh="0" CO2_perVeh="0" HC_perVeh="0" PMx_perVeh="0" NOx_perVeh="0" fuel_perVeh="0" electricity_perVeh="27.692545"/>
    </interval>
    <interval begin="75.00" end="90.00" id="dump_all_15">
        <edge id="2/1to1/1" sampledSeconds="13.00" CO_abs="250.250000" CO2_abs="27458.888889" HC_abs="1.729722" PMx_abs="0.162139" NOx_abs="9.038611" fuel_abs="8758.388889" electricity_abs="0"
            CO_normed="150.150000" CO2_normed="16475.333333" HC_normed="1.037833" PMx_normed="0.097283" NOx_normed="5.423167" fuel_normed="5255.033333" electricity_normed="0"
            traveltime="40.00" CO_perVeh="770.000000" CO2_perVeh="84488.888889" HC_perVeh="5.322222" PMx_perVeh="0.498889" NOx_perVeh="27.811111" fuel_perVeh="26948.888889" electricity_perVeh="0"/>
        <edge id="3/1to2/1" sampledSeconds="47.00" CO_abs="364.235875" CO2_abs="62662.001117" HC_abs="2.959073" PMx_abs="0.294855" NOx_abs="17.340128" fuel_abs="19916.137460" electricity_abs="10.384704"
            CO_normed="218.541525" CO2_normed="37597.200670" HC_normed="1.775444" PMx_normed="0.176913" NOx_normed="10.404077" fuel_normed="11949.682476" electricity_normed="6.230823"
            traveltime="40.00" CO_perVeh="309.987979" CO2_perVeh="53329.362653" HC_perVeh="2.518360" PMx_perVeh="0.250940" NOx_perVeh="14.757555" fuel_perVeh="16949.904221" electricity_perVeh="8.838046"/>
    </interval>
    <interval begin="75.00" end="90.00" id="dump_t1_15">
        <edge id="2/1to1/1" sampledSeconds="9.00" CO_abs="173.250000" CO2_abs="19010.000000" HC_abs="1.197500" PMx_abs="0.112250" NOx_abs="6.257500" fuel_abs="6063.500000" electricity_abs="0"
            CO_normed="103.950000" CO2_normed="11406.000000" HC_normed="0.718500" PMx_normed="0.067350" NOx_normed="3.754500" fuel_normed="3638.100000" electricity_normed="0"
            traveltime="40.00" CO_perVeh="770.000000" CO2_perVeh="84488.888889" HC_perVeh="5.322222" PMx_perVeh="0.498889" NOx_perVeh="27.811111" fuel_perVeh="26948.888889" electricity_perVeh="0"/>
        <edge id="3/1to2/1" sampledSeconds="6.00" CO_abs="115.500000" CO2_abs="12673.333333" HC_abs="0.798333" PMx_abs="0.074833" NOx_abs="4.171667" fuel_abs="4042.333333" electricity_abs="0"
            CO_normed="69.300000" CO2_normed="7604.000000" HC_normed="0.479000" PMx_normed="0.044900" NOx_normed="2.503000" fuel_normed="2425.400000" electricity_normed="0"
            traveltime="40.00" CO_perVeh="770.000000" CO2_perVeh="84488.888889" HC_perVeh="5.322222" PMx_perVeh="0.498889" NOx_perVeh="27.811111" fuel_perVeh="26948.888889" electricity_perVeh="0"/>
    </interval>
    <interval begin="75.00" end="90.00" id="dump_t4_15">
        <edge id="3/1to2/1" sampledSeconds="15.00" CO_abs="0" CO2_abs="0" HC_abs="0" PMx_abs="0" NOx_abs="0" fuel_abs="0" electricity_abs="10.384704"
            CO_normed="0" CO2_normed="0" HC_normed="0" PMx_normed="0" NOx_normed="0" fuel_normed="0" electricity_normed="6.230823"
            traveltime="40.00" CO_perVeh="0" CO2_perVeh="0" HC_perVeh="0" PMx_perVeh="0" NOx_perVeh="0" fuel_perVeh="0" electricity_perVeh="27.692545"/>
    </interval>
    <interval begin="90.00" end="105.00" id="dump_all_15">
        <edge id="2/1to1/1" sampledSeconds="53.00" CO_abs="612.020150" CO2_abs="88337.275116" HC_abs="4.642320" PMx_abs="0.451472" NOx_abs="26.010712" fuel_abs="28110.335703" electricity_abs="6.230823"
            CO_normed="367.212090" CO2_normed="53002.365070" HC_normed="2.785392" PMx_normed="0.270883" NOx_normed="15.606427" fuel_normed="16866.201422" electricity_normed="3.738494"
            traveltime="40.00" CO_perVeh="461.902000" CO2_perVeh="66669.641597" HC_perVeh="3.503638" PMx_perVeh="0.340734" NOx_perVeh="19.630726" fuel_perVeh="21215.347701" electricity_perVeh="4.702508"/>
        <edge id="3/1to2/1" sampledSeconds="7.00" CO_abs="2.465725" CO2_abs="1783.614889" HC_abs="0.046475" PMx_abs="0.005522" NOx_abs="0.368027" fuel_abs="564.190645" electricity_abs="4.153882"
            CO_normed="1.479435" CO2_normed="1070.168934" HC_normed="0.027885" PMx_normed="0.003313" NOx_normed="0.220816" fuel_normed="338.514387" electricity_normed="2.492329"
            traveltime="40.00" CO_perVeh="14.089857" CO2_perVeh="10192.085082" HC_perVeh="0.265573" PMx_perVeh="0.031553" NOx_perVeh="2.103012" fuel_perVeh="3223.946546" electricity_perVeh="23.736467"/>
    </interval>
    <interval begin="90.00" end="105.00" id="dump_t1_15">
        <edge id="2/1to1/1" sampledSeconds="15.00" CO_abs="288.750000" CO2_abs="31683.333333" HC_abs="1.995833" PMx_abs="0.187083" NOx_abs="10.429167" fuel_abs="10105.833333" electricity_abs="0"
            CO_normed="173.250000" CO2_normed="19010.000000" HC_normed="1.197500" PMx_normed="0.112250" NOx_normed="6.257500" fuel_normed="6063.500000" electricity_normed="0"
            traveltime="40.00" CO_perVeh="770.000000" CO2_perVeh="84488.888889" HC_perVeh="5.322222" PMx_perVeh="0.498889" NOx_perVeh="27.811111" fuel_perVeh="26948.888889" electricity_perVeh="0"/>
    </interval>
    <interval begin="90.00" end="105.00" id="dump_t4_15">
        <edge id="2/1to1/1" sampledSeconds="9.00" CO_abs="0" CO2_abs="0" HC_abs="0" PMx_abs="0" NOx_abs="0" fuel_abs="0" electricity_abs="6.230823"
            CO_normed="0" CO2_normed="0" HC_normed="0" PMx_normed="0" NOx_normed="0" fuel_normed="0" electricity_normed="3.738494"
            traveltime="40.00" CO_perVeh="0" CO2_perVeh="0" HC_perVeh="0" PMx_perVeh="0" NOx_perVeh="0" fuel_perVeh="0" electricity_perVeh="27.692545"/>
        <edge id="3/1to2/1" sampledSeconds="6.00" CO_abs="0" CO2_abs="0" HC_abs="0" PMx_abs="0" NOx_abs="0" fuel_abs="0" electricity_abs="4.153882"
            CO_normed="0" CO2_normed="0" HC_normed="0" PMx_normed="0" NOx_normed="0" fuel_normed="0" electricity_normed="2.492329"
            traveltime="40.00" CO_perVeh="0" CO2_perVeh="0" HC_perVeh="0" PMx_perVeh="0" NOx_perVeh="0" fuel_perVeh="0" electricity_perVeh="27.692545"/>
    </interval>
    <interval begin="105.00" end="120.00" id="dump_all_15">
        <edge id="2/1to1/1" sampledSeconds="60.00" CO_abs="614.485875" CO2_abs="90120.890006" HC_abs="4.688795" PMx_abs="0.456994" NOx_abs="26.378739" fuel_abs="28674.526349" electricity_abs="10.384704"
            CO_normed="368.691525" CO2_normed="54072.534003" HC_normed="2.813277" PMx_normed="0.274196" NOx_normed="15.827243" fuel_normed="17204.715809" electricity_normed="6.230823"
            traveltime="40.00" CO_perVeh="409.657250" CO2_perVeh="60080.593337" HC_perVeh="3.125863" PMx_perVeh="0.304663" NOx_perVeh="17.585826" fuel_perVeh="19116.350899" electricity_perVeh="6.923136"/>
    </interval>
    <interval begin="105.00" end="120.00" id="dump_t1_15">
        <edge id="2/1to1/1" sampledSeconds="15.00" CO_abs="288.750000" CO2_abs="31683.333333" HC_abs="1.995833" PMx_abs="0.187083" NOx_abs="10.429167" fuel_abs="10105.833333" electricity_abs="0"
            CO_normed="173.250000" CO2_normed="19010.000000" HC_normed="1.197500" PMx_normed="0.112250" NOx_normed="6.257500" fuel_normed="6063.500000" electricity_normed="0"
            traveltime="40.00" CO_perVeh="770.000000" CO2_perVeh="84488.888889" HC_perVeh="5.322222" PMx_perVeh="0.498889" NOx_perVeh="27.811111" fuel_perVeh="26948.888889" electricity_perVeh="0"/>
    </interval>
    <interval begin="105.00" end="120.00" id="dump_t4_15">
        <edge id="2/1to1/1" sampledSeconds="15.00" CO_abs="0" CO2_abs="0" HC_abs="0" PMx_abs="0" NOx_abs="0" fuel_abs="0" electricity_abs="10.384704"
            CO_normed="0" CO2_normed="0" HC_normed="0" PMx_normed="0" NOx_normed="0" fuel_normed="0" electricity_normed="6.230823"
            traveltime="40.00" CO_perVeh="0" CO2_perVeh="0" HC_perVeh="0" PMx_perVeh="0" NOx_perVeh="0" fuel_perVeh="0" electricity_perVeh="27.692545"/>
    </interval>
    <interval begin="120.00" end="135.00" id="dump_all_15">
        <edge id="1/1to0/1" sampledSeconds="27.00" CO_abs="452.612900" CO2_abs="55715.570668" HC_abs="3.246179" PMx_abs="0.308948" NOx_abs="17.463497" fuel_abs="17752.373693" electricity_abs="0"
            CO_normed="271.567740" CO2_normed="33429.342401" HC_normed="1.947707" PMx_normed="0.185369" NOx_normed="10.478098" fuel_normed="10651.424216" electricity_normed="0"
            traveltime="40.00" CO_perVeh="670.537630" CO2_perVeh="82541.586175" HC_perVeh="4.809154" PMx_perVeh="0.457701" NOx_perVeh="25.871847" fuel_perVeh="26299.812879" electricity_perVeh="0"/>
        <edge id="2/1to1/1" sampledSeconds="33.00" CO_abs="161.872975" CO2_abs="34405.319337" HC_abs="1.442616" PMx_abs="0.148045" NOx_abs="8.915242" fuel_abs="10922.152656" electricity_abs="10.384704"
            CO_normed="97.123785" CO2_normed="20643.191602" HC_normed="0.865570" PMx_normed="0.088827" NOx_normed="5.349145" fuel_normed="6553.291593" electricity_normed="6.230823"
            traveltime="40.00" CO_perVeh="196.209667" CO2_perVeh="41703.417379" HC_perVeh="1.748626" PMx_perVeh="0.179449" NOx_perVeh="10.806354" fuel_perVeh="13238.972916" electricity_perVeh="12.587520"/>
    </interval>
    <interval begin="120.00" end="135.00" id="dump_t1_15">
        <edge id="1/1to0/1" sampledSeconds="14.00" CO_abs="269.500000" CO2_abs="29571.111111" HC_abs="1.862778" PMx_abs="0.174611" NOx_abs="9.733889" fuel_abs="9432.111111" electricity_abs="0"
            CO_normed="161.700000" CO2_normed="17742.666667" HC_normed="1.117667" PMx_normed="0.104767" NOx_normed="5.840333" fuel_normed="5659.266667" electricity_normed="0"
            traveltime="40.00" CO_perVeh="770.000000" CO2_perVeh="84488.888889" HC_perVeh="5.322222" PMx_perVeh="0.498889" NOx_perVeh="27.811111" fuel_perVeh="26948.888889" electricity_perVeh="0"/>
        <edge id="2/1to1/1" sampledSeconds="1.00" CO_abs="19.250000" CO2_abs="2112.222222" HC_abs="0.133056" PMx_abs="0.012472" NOx_abs="0.695278" fuel_abs="673.722222" electricity_abs="0"
            CO_normed="11.550000" CO2_normed="1267.333333" HC_normed="0.079833" PMx_normed="0.007483" NOx_normed="0.417167" fuel_normed="404.233333" electricity_normed="0"
            traveltime="40.00" CO_perVeh="770.000000" CO2_perVeh="84488.888889" HC_perVeh="5.322222" PMx_perVeh="0.498889" NOx_perVeh="27.811111" fuel_perVeh="26948.888889" electricity_perVeh="0"/>
    </interval>
    <interval begin="120.00" end="135.00" id="dump_t4_15">
        <edge id="2/1to1/1" sampledSeconds="15.00" CO_abs="0" CO2_abs="0" HC_abs="0" PMx_abs="0" NOx_abs="0" fuel_abs="0" electricity_abs="10.384704"
            CO_normed="0" CO2_normed="0" HC_normed="0" PMx_normed="0" NOx_normed="0" fuel_normed="0" electricity_normed="6.230823"
            traveltime="40.00" CO_perVeh="0" CO2_perVeh="0" HC_perVeh="0" PMx_perVeh="0" NOx_perVeh="0" fuel_perVeh="0" electricity_perVeh="27.692545"/>
    </interval>
    <interval begin="135.00" end="150.00" id="dump_all_15">
        <edge id="1/1to0/1" sampledSeconds="59.00" CO_abs="614.485875" CO2_abs="90120.890006" HC_abs="4.688795" PMx_abs="0.456994" NOx_abs="26.378739" fuel_abs="28674.526349" electricity_abs="9.692391"
            CO_normed="368.691525" CO2_normed="54072.534003" HC_normed="2.813277" PMx_normed="0.274196" NOx_normed="15.827243" fuel_normed="17204.715809" electricity_normed="5.815434"
            traveltime="40.00" CO_perVeh="416.600593" CO2_perVeh="61098.908478" HC_perVeh="3.178844" PMx_perVeh="0.309826" NOx_perVeh="17.883891" fuel_perVeh="19440.356847" electricity_perVeh="6.571112"/>
        <edge id="2/1to1/1" sampledSeconds="1.00" CO_abs="0" CO2_abs="0" HC_abs="0" PMx_abs="0" NOx_abs="0" fuel_abs="0" electricity_abs="0.692314"
            CO_normed="0" CO2_normed="0" HC_normed="0" PMx_normed="0" NOx_normed="0" fuel_normed="0" electricity_normed="0.415388"
            traveltime="40.00" CO_perVeh="0" CO2_perVeh="0" HC_perVeh="0" PMx_perVeh="0" NOx_perVeh="0" fuel_perVeh="0" electricity_perVeh="27.692545"/>
    </interval>
    <interval begin="135.00" end="150.00" id="dump_t1_15">
        <edge id="1/1to0/1" sampledSeconds="15.00" CO_abs="288.750000" CO2_abs="31683.333333" HC_abs="1.995833" PMx_abs="0.187083" NOx_abs="10.429167" fuel_abs="10105.833333" electricity_abs="0"
            CO_normed="173.250000" CO2_normed="19010.000000" HC_normed="1.197500" PMx_normed="0.112250" NOx_normed="6.257500" fuel_normed="6063.500000" electricity_normed="0"
            traveltime="40.00" CO_perVeh="770.000000" CO2_perVeh="84488.888889" HC_perVeh="5.322222" PMx_perVeh="0.498889" NOx_perVeh="27.811111" fuel_perVeh="26948.888889" electricity_perVeh="0"/>
    </interval>
    <interval begin="135.00" end="150.00" id="dump_t4_15">
        <edge id="1/1to0/1" sampledSeconds="14.00" CO_abs="0" CO2_abs="0" HC_abs="0" PMx_abs="0" NOx_abs="0" fuel_abs="0" electricity_abs="9.692391"
            CO_normed="0" CO2_normed="0" HC_normed="0" PMx_normed="0" NOx_normed="0" fuel_normed="0" electricity_normed="5.815434"
            traveltime="40.00" CO_perVeh="0" CO2_perVeh="0" HC_perVeh="0" PMx_perVeh="0" NOx_perVeh="0" fuel_perVeh="0" electricity_perVeh="27.692545"/>
        <edge id="2/1to1/1" sampledSeconds="1.00" CO_abs="0" CO2_abs="0" HC_abs="0" PMx_abs="0" NOx_abs="0" fuel_abs="0" electricity_abs="0.692314"
            CO_normed="0" CO2_normed="0" HC_normed="0" PMx_normed="0" NOx_normed="0" fuel_normed="0" electricity_normed="0.415388"
            traveltime="40.00" CO_perVeh="0" CO2_perVeh="0" HC_perVeh="0" PMx_perVeh="0" NOx_perVeh="0" fuel_perVeh="0" electricity_perVeh="27.692545"/>
    </interval>
</meandata>
