<?xml version="1.0" encoding="UTF-8"?>

<!-- generated on 2025-11-02T19:54:03.519059+01:00 by Eclipse SUMO sumo v1_24_0+1715-28a54f8871d
This data file and the accompanying materials
are made available under the terms of the Eclipse Public License v2.0
which accompanies this distribution, and is available at
http://www.eclipse.org/legal/epl-v20.html
This file may also be made available under the following Secondary
Licenses when the conditions for such availability set forth in the Eclipse
Public License 2.0 are satisfied: GNU General Public License, version 2
or later which is available at
https://www.gnu.org/licenses/old-licenses/gpl-2.0-standalone.html
SPDX-License-Identifier: EPL-2.0 OR GPL-2.0-or-later
<sumoConfiguration xmlns:xsi="http://www.w3.org/2001/XMLSchema-instance" xsi:noNamespaceSchemaLocation="http://sumo.dlr.de/xsd/sumoConfiguration.xsd">

    <input>
        <net-file value="net3.net.xml"/>
        <route-files value="input_routes.rou.xml"/>
        <additional-files value="input_additional.add.xml"/>
    </input>

    <output>
        <write-license value="true"/>
    </output>

    <processing>
        <default.speeddev value="0"/>
    </processing>

    <report>
        <xml-validation value="never"/>
        <duration-log.disable value="true"/>
        <no-step-log value="true"/>
    </report>

</sumoConfiguration>
-->

<meandata xmlns:xsi="http://www.w3.org/2001/XMLSchema-instance" xsi:noNamespaceSchemaLocation="http://sumo.dlr.de/xsd/meandata_file.xsd">
    <interval begin="0.00" end="300.00" id="dump_300">
        <edge id="CE" sampledSeconds="209.00" traveltime="23.22" overlapTraveltime="23.28" density="8.09" overlapDensity="8.09" laneDensity="2.70" occupancy="0.00" waitingTime="0.00" timeLoss="0.00" speed="3.71" speedRelative="0.27" departed="5" arrived="6" entered="5" left="3" laneChangedFrom="0" laneChangedTo="0" flow="108.00"/>
        <edge id="CN" sampledSeconds="209.00" traveltime="41.80" overlapTraveltime="41.90" density="8.02" overlapDensity="8.02" laneDensity="2.67" occupancy="0.00" waitingTime="0.00" timeLoss="0.00" speed="2.08" speedRelative="0.15" departed="3" arrived="4" entered="3" left="1" laneChangedFrom="0" laneChangedTo="0" flow="60.00"/>
        <edge id="CS" sampledSeconds="71.00" traveltime="14.20" overlapTraveltime="14.24" density="2.77" overlapDensity="2.77" laneDensity="0.92" occupancy="0.00" waitingTime="0.00" timeLoss="0.00" speed="6.01" speedRelative="0.43" departed="3" arrived="2" entered="2" left="3" laneChangedFrom="0" laneChangedTo="0" flow="60.00"/>
        <edge id="CW" sampledSeconds="140.00" traveltime="23.33" overlapTraveltime="23.39" density="5.42" overlapDensity="5.42" laneDensity="1.81" occupancy="0.00" waitingTime="0.00" timeLoss="0.00" speed="3.69" speedRelative="0.27" departed="3" arrived="2" entered="3" left="4" laneChangedFrom="0" laneChangedTo="0" flow="72.00"/>
        <edge id="EC" sampledSeconds="176.00" traveltime="29.33" overlapTraveltime="29.41" density="6.81" overlapDensity="6.81" laneDensity="2.27" occupancy="0.00" waitingTime="0.00" timeLoss="0.00" speed="2.94" speedRelative="0.21" departed="5" arrived="1" entered="1" left="5" laneChangedFrom="0" laneChangedTo="0" flow="72.00"/>
        <edge id="NC" sampledSeconds="107.00" traveltime="26.75" overlapTraveltime="26.82" density="4.10" overlapDensity="4.10" laneDensity="1.37" occupancy="0.00" waitingTime="0.00" timeLoss="0.00" speed="3.25" speedRelative="0.23" departed="3" arrived="1" entered="1" left="3" laneChangedFrom="0" laneChangedTo="0" flow="48.00"/>
        <edge id="SC" sampledSeconds="170.00" traveltime="56.67" overlapTraveltime="56.81" density="6.64" overlapDensity="6.64" laneDensity="2.21" occupancy="0.00" waitingTime="0.00" timeLoss="0.00" speed="1.51" speedRelative="0.11" departed="3" arrived="1" entered="3" left="2" laneChangedFrom="0" laneChangedTo="0" flow="36.00"/>
        <edge id="WC" sampledSeconds="209.00" traveltime="34.83" overlapTraveltime="34.92" density="8.09" overlapDensity="8.09" laneDensity="2.70" occupancy="0.00" waitingTime="0.00" timeLoss="0.00" speed="2.47" speedRelative="0.18" departed="5" arrived="2" entered="2" left="4" laneChangedFrom="0" laneChangedTo="0" flow="72.00"/>
    </interval>
    <interval begin="300.00" end="456.00" id="dump_300">
        <edge id="CE" sampledSeconds="68.00" traveltime="34.00" overlapTraveltime="34.08" density="5.06" overlapDensity="5.06" laneDensity="1.69" occupancy="0.00" waitingTime="0.00" timeLoss="0.00" speed="2.53" speedRelative="0.18" departed="0" arrived="2" entered="1" left="0" laneChangedFrom="0" laneChangedTo="0" flow="46.15"/>
        <edge id="CN" sampledSeconds="105.00" traveltime="52.50" overlapTraveltime="52.63" density="7.75" overlapDensity="7.75" laneDensity="2.58" occupancy="0.00" waitingTime="0.00" timeLoss="0.00" speed="1.66" speedRelative="0.12" departed="0" arrived="1" entered="1" left="1" laneChangedFrom="0" laneChangedTo="0" flow="46.15"/>
        <edge id="CS" sampledSeconds="0.00" departed="0" arrived="0" entered="0" left="0" laneChangedFrom="0" laneChangedTo="0"/>
        <edge id="CW" sampledSeconds="102.00" traveltime="34.00" overlapTraveltime="34.08" density="7.59" overlapDensity="7.59" laneDensity="2.53" occupancy="0.00" waitingTime="0.00" timeLoss="0.00" speed="2.53" speedRelative="0.18" departed="0" arrived="3" entered="3" left="0" laneChangedFrom="0" laneChangedTo="0" flow="69.23"/>
        <edge id="EC" sampledSeconds="34.00" traveltime="34.00" overlapTraveltime="34.08" density="2.53" overlapDensity="2.53" laneDensity="0.84" occupancy="0.00" waitingTime="0.00" timeLoss="0.00" speed="2.53" speedRelative="0.18" departed="0" arrived="1" entered="1" left="0" laneChangedFrom="0" laneChangedTo="0" flow="23.08"/>
        <edge id="NC" sampledSeconds="35.00" traveltime="35.00" overlapTraveltime="35.09" density="2.58" overlapDensity="2.58" laneDensity="0.86" occupancy="0.00" waitingTime="0.00" timeLoss="0.00" speed="2.48" speedRelative="0.18" departed="0" arrived="1" entered="1" left="0" laneChangedFrom="0" laneChangedTo="0" flow="23.08"/>
        <edge id="SC" sampledSeconds="171.00" traveltime="42.75" overlapTraveltime="42.86" density="12.84" overlapDensity="12.84" laneDensity="4.28" occupancy="0.00" waitingTime="0.00" timeLoss="0.00" speed="2.00" speedRelative="0.14" departed="0" arrived="3" entered="1" left="1" laneChangedFrom="0" laneChangedTo="0" flow="92.31"/>
        <edge id="WC" sampledSeconds="70.00" traveltime="70.00" overlapTraveltime="70.17" density="5.21" overlapDensity="5.21" laneDensity="1.74" occupancy="0.00" waitingTime="0.00" timeLoss="0.00" speed="1.23" speedRelative="0.09" departed="0" arrived="0" entered="0" left="1" laneChangedFrom="0" laneChangedTo="0" flow="23.08"/>
    </interval>
</meandata>
