<?xml version="1.0" encoding="UTF-8"?>

<!-- generated on 2024-09-09 09:27:16 by Eclipse SUMO sumo Version v1_20_0+1915-abb849f738d
This data file and the accompanying materials
are made available under the terms of the Eclipse Public License v2.0
which accompanies this distribution, and is available at
http://www.eclipse.org/legal/epl-v20.html
This file may also be made available under the following Secondary
Licenses when the conditions for such availability set forth in the Eclipse
Public License 2.0 are satisfied: GNU General Public License, version 2
or later which is available at
https://www.gnu.org/licenses/old-licenses/gpl-2.0-standalone.html
SPDX-License-Identifier: EPL-2.0 OR GPL-2.0-or-later
<sumoConfiguration xmlns:xsi="http://www.w3.org/2001/XMLSchema-instance" xsi:noNamespaceSchemaLocation="http://sumo.dlr.de/xsd/sumoConfiguration.xsd">

    <input>
        <net-file value="net3.net.xml"/>
        <route-files value="input_routes.rou.xml"/>
        <additional-files value="input_additional.add.xml"/>
    </input>

    <output>
        <write-license value="true"/>
    </output>

    <processing>
        <default.speeddev value="0"/>
    </processing>

    <report>
        <xml-validation value="never"/>
        <duration-log.disable value="true"/>
        <no-step-log value="true"/>
    </report>

</sumoConfiguration>
-->

<meandata xmlns:xsi="http://www.w3.org/2001/XMLSchema-instance" xsi:noNamespaceSchemaLocation="http://sumo.dlr.de/xsd/meandata_file.xsd">
    <interval begin="0.00" end="300.00" id="dump_300">
        <edge id="CE" sampledSeconds="209.00" traveltime="23.22" overlapTraveltime="23.28" density="8.09" laneDensity="2.70" occupancy="0.00" waitingTime="0.00" timeLoss="0.00" speed="3.71" speedRelative="0.27" departed="5" arrived="6" entered="5" left="3" laneChangedFrom="0" laneChangedTo="0"/>
        <edge id="CN" sampledSeconds="140.00" traveltime="35.00" overlapTraveltime="35.09" density="5.37" laneDensity="1.79" occupancy="0.00" waitingTime="0.00" timeLoss="0.00" speed="2.48" speedRelative="0.18" departed="3" arrived="4" entered="2" left="0" laneChangedFrom="0" laneChangedTo="0"/>
        <edge id="CS" sampledSeconds="71.00" traveltime="14.20" overlapTraveltime="14.24" density="2.77" laneDensity="0.92" occupancy="0.00" waitingTime="0.00" timeLoss="0.00" speed="6.01" speedRelative="0.43" departed="3" arrived="2" entered="2" left="3" laneChangedFrom="0" laneChangedTo="0"/>
        <edge id="CW" sampledSeconds="71.00" traveltime="14.20" overlapTraveltime="14.24" density="2.75" laneDensity="0.92" occupancy="0.00" waitingTime="0.00" timeLoss="0.00" speed="6.07" speedRelative="0.44" departed="3" arrived="2" entered="2" left="3" laneChangedFrom="0" laneChangedTo="0"/>
        <edge id="EC" sampledSeconds="176.00" traveltime="29.33" overlapTraveltime="29.41" density="6.81" laneDensity="2.27" occupancy="0.00" waitingTime="0.00" timeLoss="0.00" speed="2.94" speedRelative="0.21" departed="5" arrived="1" entered="1" left="5" laneChangedFrom="0" laneChangedTo="0"/>
        <edge id="NC" sampledSeconds="176.00" traveltime="58.67" overlapTraveltime="58.81" density="6.75" laneDensity="2.25" occupancy="0.00" waitingTime="0.00" timeLoss="0.00" speed="1.48" speedRelative="0.11" departed="3" arrived="1" entered="1" left="2" laneChangedFrom="0" laneChangedTo="0"/>
        <edge id="SC" sampledSeconds="171.00" traveltime="57.00" overlapTraveltime="57.14" density="6.67" laneDensity="2.22" occupancy="0.00" waitingTime="0.00" timeLoss="0.00" speed="1.50" speedRelative="0.11" departed="3" arrived="1" entered="3" left="2" laneChangedFrom="0" laneChangedTo="0"/>
        <edge id="WC" sampledSeconds="279.00" traveltime="46.50" overlapTraveltime="46.62" density="10.80" laneDensity="3.60" occupancy="0.00" waitingTime="0.00" timeLoss="0.00" speed="1.85" speedRelative="0.13" departed="5" arrived="2" entered="2" left="4" laneChangedFrom="0" laneChangedTo="0"/>
    </interval>
    <interval begin="300.00" end="456.00" id="dump_300">
        <edge id="CE" sampledSeconds="68.00" traveltime="34.00" overlapTraveltime="34.08" density="5.06" laneDensity="1.69" occupancy="0.00" waitingTime="0.00" timeLoss="0.00" speed="2.53" speedRelative="0.18" departed="0" arrived="2" entered="1" left="0" laneChangedFrom="0" laneChangedTo="0"/>
        <edge id="CN" sampledSeconds="35.00" traveltime="35.00" overlapTraveltime="35.09" density="2.58" laneDensity="0.86" occupancy="0.00" waitingTime="0.00" timeLoss="0.00" speed="2.48" speedRelative="0.18" departed="0" arrived="1" entered="0" left="0" laneChangedFrom="0" laneChangedTo="0"/>
        <edge id="CS" sampledSeconds="0.00" departed="0" arrived="0" entered="0" left="0" laneChangedFrom="0" laneChangedTo="0"/>
        <edge id="CW" sampledSeconds="104.00" traveltime="34.67" overlapTraveltime="34.75" density="7.74" laneDensity="2.58" occupancy="0.00" waitingTime="0.00" timeLoss="0.00" speed="2.49" speedRelative="0.18" departed="0" arrived="3" entered="3" left="0" laneChangedFrom="0" laneChangedTo="0"/>
        <edge id="EC" sampledSeconds="34.00" traveltime="34.00" overlapTraveltime="34.08" density="2.53" laneDensity="0.84" occupancy="0.00" waitingTime="0.00" timeLoss="0.00" speed="2.53" speedRelative="0.18" departed="0" arrived="1" entered="1" left="0" laneChangedFrom="0" laneChangedTo="0"/>
        <edge id="NC" sampledSeconds="103.00" traveltime="51.50" overlapTraveltime="51.63" density="7.60" laneDensity="2.53" occupancy="0.00" waitingTime="0.00" timeLoss="0.00" speed="1.69" speedRelative="0.12" departed="0" arrived="1" entered="1" left="1" laneChangedFrom="0" laneChangedTo="0"/>
        <edge id="SC" sampledSeconds="172.00" traveltime="43.00" overlapTraveltime="43.11" density="12.91" laneDensity="4.30" occupancy="0.00" waitingTime="0.00" timeLoss="0.00" speed="1.99" speedRelative="0.14" departed="0" arrived="3" entered="1" left="1" laneChangedFrom="0" laneChangedTo="0"/>
        <edge id="WC" sampledSeconds="69.00" traveltime="69.00" overlapTraveltime="69.17" density="5.13" laneDensity="1.71" occupancy="0.00" waitingTime="0.00" timeLoss="0.00" speed="1.25" speedRelative="0.09" departed="0" arrived="0" entered="0" left="1" laneChangedFrom="0" laneChangedTo="0"/>
    </interval>
</meandata>
