<?xml version="1.0" encoding="UTF-8"?>

<!-- generated on 03/14/17 11:13:45 by SUMO Version dev-SVN-r23360
<?xml version="1.0" encoding="UTF-8"?>

<configuration xmlns:xsi="http://www.w3.org/2001/XMLSchema-instance" xsi:noNamespaceSchemaLocation="http://sumo.dlr.de/xsd/sumoConfiguration.xsd">

    <input>
        <net-file value="motorway.net.xml"/>
        <route-files value="input_routes.rou.xml"/>
        <additional-files value="input_additional.add.xml"/>
    </input>

    <report>
        <xml-validation value="never"/>
        <duration-log.disable value="true"/>
        <no-step-log value="true"/>
    </report>

</configuration>
-->

<meandata xmlns:xsi="http://www.w3.org/2001/XMLSchema-instance" xsi:noNamespaceSchemaLocation="http://sumo.dlr.de/xsd/meandata_file.xsd">
    <interval begin="0.00" end="1037.00" id="laneData">
        <edge id="beg">
            <lane id="beg_0" sampledSeconds="0.00" departed="0" arrived="0" entered="0" left="0" laneChangedFrom="0" laneChangedTo="0"/>
            <lane id="beg_1" sampledSeconds="0.00" departed="0" arrived="0" entered="0" left="0" laneChangedFrom="0" laneChangedTo="0"/>
            <lane id="beg_2" sampledSeconds="0.00" departed="0" arrived="0" entered="0" left="0" laneChangedFrom="0" laneChangedTo="0"/>
        </edge>
        <edge id="beg2">
            <lane id="beg2_0" sampledSeconds="2459.22" traveltime="99.34" overlapTraveltime="100.85" density="0.79" occupancy="0.40" waitingTime="0.00" speed="29.77" departed="393" arrived="0" entered="0" left="289" laneChangedFrom="104" laneChangedTo="0"/>
            <lane id="beg2_1" sampledSeconds="2058.82" traveltime="89.27" overlapTraveltime="89.49" density="0.66" occupancy="0.33" waitingTime="0.00" speed="33.55" departed="301" arrived="0" entered="0" left="405" laneChangedFrom="0" laneChangedTo="104"/>
        </edge>
        <edge id="end">
            <lane id="end_0" sampledSeconds="4174.79" traveltime="9.19" overlapTraveltime="9.37" density="20.44" occupancy="10.22" waitingTime="0.00" speed="21.57" departed="0" arrived="447" entered="447" left="0" laneChangedFrom="1" laneChangedTo="1"/>
            <lane id="end_1" sampledSeconds="2835.86" traveltime="6.20" overlapTraveltime="6.35" density="13.88" occupancy="6.94" waitingTime="0.00" speed="31.80" departed="0" arrived="447" entered="447" left="0" laneChangedFrom="1" laneChangedTo="1"/>
        </edge>
        <edge id="end2">
            <lane id="end2_0" sampledSeconds="0.00" departed="0" arrived="0" entered="0" left="0" laneChangedFrom="0" laneChangedTo="0"/>
        </edge>
        <edge id="end3">
            <lane id="end3_0" sampledSeconds="0.00" departed="0" arrived="0" entered="0" left="0" laneChangedFrom="0" laneChangedTo="0"/>
        </edge>
        <edge id="merge">
            <lane id="merge_0" sampledSeconds="4153.95" traveltime="28.60" overlapTraveltime="30.08" density="41.30" occupancy="20.65" waitingTime="1826.00" speed="3.39" departed="0" arrived="0" entered="200" left="0" laneChangedFrom="200" laneChangedTo="0"/>
            <lane id="merge_1" sampledSeconds="3128.18" traveltime="9.02" overlapTraveltime="9.54" density="31.10" occupancy="15.55" waitingTime="135.00" speed="10.70" departed="0" arrived="0" entered="289" left="449" laneChangedFrom="40" laneChangedTo="200"/>
            <lane id="merge_2" sampledSeconds="1434.67" traveltime="3.18" overlapTraveltime="3.35" density="14.26" occupancy="7.13" waitingTime="0.00" speed="30.42" departed="0" arrived="0" entered="405" left="445" laneChangedFrom="0" laneChangedTo="40"/>
        </edge>
        <edge id="offRamp">
            <lane id="offRamp_0" sampledSeconds="0.00" departed="0" arrived="0" entered="0" left="0" laneChangedFrom="0" laneChangedTo="0"/>
        </edge>
        <edge id="onRamp">
            <lane id="onRamp_0" sampledSeconds="2084.90" traveltime="10.23" overlapTraveltime="10.60" density="6.65" occupancy="3.33" waitingTime="3.00" speed="28.98" departed="200" arrived="0" entered="0" left="200" laneChangedFrom="0" laneChangedTo="0"/>
        </edge>
    </interval>
</meandata>
