<?xml version="1.0" encoding="UTF-8"?>

<!-- generated on 2024-09-20 11:52:32 by Eclipse SUMO sumo Version v1_20_0+0587-e12035278ba
This data file and the accompanying materials
are made available under the terms of the Eclipse Public License v2.0
which accompanies this distribution, and is available at
http://www.eclipse.org/legal/epl-v20.html
This file may also be made available under the following Secondary
Licenses when the conditions for such availability set forth in the Eclipse
Public License 2.0 are satisfied: GNU General Public License, version 2
or later which is available at
https://www.gnu.org/licenses/old-licenses/gpl-2.0-standalone.html
SPDX-License-Identifier: EPL-2.0 OR GPL-2.0-or-later
<configuration xmlns:xsi="http://www.w3.org/2001/XMLSchema-instance" xsi:noNamespaceSchemaLocation="http://sumo.dlr.de/xsd/sumoConfiguration.xsd">

    <input>
        <net-file value="net.net.xml"/>
        <route-files value="input_routes.rou.xml"/>
    </input>

    <output>
        <write-license value="true"/>
        <tripinfo-output value="tripinfos.xml"/>
        <railsignal-block-output value="railsignal_blocks.xml"/>
    </output>

    <processing>
        <default.speeddev value="0"/>
    </processing>

    <report>
        <xml-validation value="never"/>
        <duration-log.disable value="true"/>
        <no-step-log value="true"/>
    </report>

</configuration>
-->

<tripinfos xmlns:xsi="http://www.w3.org/2001/XMLSchema-instance" xsi:noNamespaceSchemaLocation="http://sumo.dlr.de/xsd/tripinfo_file.xsd">
    <tripinfo id="t_1" depart="0.00" departLane="-E7_0" departPos="100.00" departSpeed="0.00" departDelay="0.00" arrival="52.00" arrivalLane="-E6_0" arrivalPos="141.42" arrivalSpeed="13.00" duration="52.00" routeLength="341.42" waitingTime="0.00" waitingCount="0" stopTime="0.00" timeLoss="27.20" rerouteNo="1" devices="tripinfo_t_1 routing_t_1" vType="DEFAULT_RAILTYPE" speedFactor="1.00" vaporized=""/>
    <tripinfo id="t_0" depart="0.00" departLane="E0_0" departPos="100.00" departSpeed="0.00" departDelay="0.00" arrival="109.00" arrivalLane="E7_0" arrivalPos="100.00" arrivalSpeed="13.89" duration="109.00" routeLength="500.00" waitingTime="22.00" waitingCount="1" stopTime="0.00" timeLoss="72.16" rerouteNo="1" devices="tripinfo_t_0 routing_t_0" vType="DEFAULT_RAILTYPE" speedFactor="1.00" vaporized=""/>
    <tripinfo id="t_2" depart="109.00" departLane="-E7_0" departPos="100.00" departSpeed="0.00" departDelay="109.00" arrival="176.00" arrivalLane="-E5_0" arrivalPos="141.42" arrivalSpeed="13.89" duration="67.00" routeLength="541.42" waitingTime="0.00" waitingCount="0" stopTime="0.00" timeLoss="27.28" rerouteNo="1" devices="tripinfo_t_2 routing_t_2" vType="DEFAULT_RAILTYPE" speedFactor="1.00" vaporized=""/>
</tripinfos>
