<?xml version="1.0" encoding="UTF-8"?>

<!-- generated on Tue Dec 17 13:28:10 2019 by Eclipse SUMO Version v1_4_0+0138-2f33c8b
This data file and the accompanying materials
are made available under the terms of the Eclipse Public License v2.0
which accompanies this distribution, and is available at
http://www.eclipse.org/legal/epl-v20.html
SPDX-License-Identifier: EPL-2.0
<configuration xmlns:xsi="http://www.w3.org/2001/XMLSchema-instance" xsi:noNamespaceSchemaLocation="http://sumo.dlr.de/xsd/sumoConfiguration.xsd">

    <input>
        <net-file value="net.net.xml"/>
        <route-files value="input_routes.rou.xml"/>
    </input>

    <output>
        <write-license value="true"/>
        <tripinfo-output value="tripinfos.xml"/>
    </output>

    <time>
        <end value="300"/>
    </time>

    <processing>
        <default.speeddev value="0"/>
    </processing>

    <report>
        <xml-validation value="never"/>
        <duration-log.disable value="true"/>
        <no-step-log value="true"/>
    </report>

    <taxi_device>
        <device.taxi.dispatch-algorithm value="greedy"/>
    </taxi_device>

</configuration>
-->

<tripinfos xmlns:xsi="http://www.w3.org/2001/XMLSchema-instance" xsi:noNamespaceSchemaLocation="http://sumo.dlr.de/xsd/tripinfo_file.xsd">
    <personinfo id="p0" depart="0.00" type="DEFAULT_PEDTYPE">
        <ride waitingTime="17.00" vehicle="trip_1" depart="17.00" arrival="78.00" arrivalPos="87.60" duration="61.00" routeLength="571.00"/>
    </personinfo>
    <tripinfo id="trip_0" depart="0.00" departLane="A0B0_1" departPos="5.10" departSpeed="0.00" departDelay="0.00" arrival="133.00" arrivalLane="B0C0_1" arrivalPos="87.60" arrivalSpeed="13.39" duration="133.00" routeLength="184.50" waitingTime="1.00" waitingCount="1" stopTime="110.00" timeLoss="9.42" rerouteNo="1" devices="tripinfo_trip_0 routing_trip_0 taxi_trip_0" vType="taxi" speedFactor="1.00" vaporized="">
        <taxi customers="0" occupiedDistance="0.00" occupiedTime="0.00"/>
    </tripinfo>
    <tripinfo id="trip_1" depart="0.00" departLane="A2B2_1" departPos="5.10" departSpeed="0.00" departDelay="0.00" arrival="140.00" arrivalLane="A0B0_1" arrivalPos="87.60" arrivalSpeed="1.30" duration="140.00" routeLength="672.90" waitingTime="2.00" waitingCount="1" stopTime="65.00" timeLoss="24.20" rerouteNo="3" devices="tripinfo_trip_1 routing_trip_1 taxi_trip_1 person_trip_1" vType="taxi" speedFactor="1.00" vaporized="">
        <taxi customers="1" occupiedDistance="571.00" occupiedTime="62.00"/>
    </tripinfo>
</tripinfos>
