<?xml version="1.0" encoding="UTF-8"?>

<!-- generated on 2026-05-22T11:33:07.920141+01:00 by Eclipse SUMO sumo v1_27_0+0010-ad0de344202
This data file and the accompanying materials
are made available under the terms of the Eclipse Public License v2.0
which accompanies this distribution, and is available at
http://www.eclipse.org/legal/epl-v20.html
This file may also be made available under the following Secondary
Licenses when the conditions for such availability set forth in the Eclipse
Public License 2.0 are satisfied: GNU General Public License, version 2
or later which is available at
https://www.gnu.org/licenses/old-licenses/gpl-2.0-standalone.html
SPDX-License-Identifier: EPL-2.0 OR GPL-2.0-or-later
<sumoConfiguration xmlns:xsi="http://www.w3.org/2001/XMLSchema-instance" xsi:noNamespaceSchemaLocation="http://sumo.dlr.de/xsd/sumoConfiguration.xsd">

    <input>
        <net-file value="net.net.xml"/>
        <route-files value="input_routes.rou.xml"/>
    </input>

    <output>
        <write-license value="true"/>
        <tripinfo-output value="tripinfos.xml"/>
        <railsignal-block-output value="railsignal_blocks.xml"/>
    </output>

    <processing>
        <time-to-teleport.railsignal-deadlock value="200"/>
        <default.departspeed value="0"/>
        <default.departlane value="first"/>
        <default.speeddev value="0"/>
    </processing>

    <report>
        <xml-validation value="never"/>
        <duration-log.disable value="true"/>
        <duration-log.statistics value="true"/>
        <no-step-log value="true"/>
    </report>

    <mesoscopic>
        <mesosim value="true"/>
        <meso-junction-control value="true"/>
    </mesoscopic>

</sumoConfiguration>
-->

<tripinfos xmlns:xsi="http://www.w3.org/2001/XMLSchema-instance" xsi:noNamespaceSchemaLocation="http://sumo.dlr.de/xsd/tripinfo_file.xsd">
    <tripinfo id="v_0" depart="0.00" departLane="E0_0" departPos="0.00" departSpeed="13.89" departDelay="0.00" arrival="75.00" arrivalLane="-E0_0" arrivalPos="100.00" arrivalSpeed="13.89" duration="75.00" routeLength="1041.05" waitingTime="0.00" waitingCount="0" stopTime="0.00" timeLoss="0.00" rerouteNo="0" devices="tripinfo_v_0" vType="train" speedFactor="1.00" vaporized=""/>
    <tripinfo id="v_1" depart="8.00" departLane="E0_0" departPos="0.00" departSpeed="13.89" departDelay="8.00" arrival="106.00" arrivalLane="-E0_0" arrivalPos="100.00" arrivalSpeed="13.89" duration="98.00" routeLength="1041.05" waitingTime="23.00" waitingCount="2" stopTime="0.00" timeLoss="23.00" rerouteNo="0" devices="tripinfo_v_1" vType="train" speedFactor="1.00" vaporized=""/>
</tripinfos>
