<?xml version="1.0" encoding="UTF-8"?>

<!-- generated on 2025-10-09T21:49:20.781076+01:00 by Eclipse SUMO sumo v1_24_0+1329-e45c39789b9
This data file and the accompanying materials
are made available under the terms of the Eclipse Public License v2.0
which accompanies this distribution, and is available at
http://www.eclipse.org/legal/epl-v20.html
This file may also be made available under the following Secondary
Licenses when the conditions for such availability set forth in the Eclipse
Public License 2.0 are satisfied: GNU General Public License, version 2
or later which is available at
https://www.gnu.org/licenses/old-licenses/gpl-2.0-standalone.html
SPDX-License-Identifier: EPL-2.0 OR GPL-2.0-or-later
<sumoConfiguration xmlns:xsi="http://www.w3.org/2001/XMLSchema-instance" xsi:noNamespaceSchemaLocation="http://sumo.dlr.de/xsd/sumoConfiguration.xsd">

    <input>
        <net-file value="net.net.xml"/>
        <route-files value="input_routes.rou.xml"/>
        <additional-files value="input_additional.add.xml"/>
    </input>

    <output>
        <write-license value="true"/>
        <fcd-output value="fcd.xml"/>
        <person-summary-output value="summary.xml"/>
        <tripinfo-output value="tripinfos.xml"/>
    </output>

    <processing>
        <default.speeddev value="0"/>
        <pedestrian.model value="nonInteracting"/>
    </processing>

    <report>
        <xml-validation value="never"/>
        <duration-log.disable value="true"/>
        <no-step-log value="true"/>
    </report>

</sumoConfiguration>
-->

<fcd-export xmlns:xsi="http://www.w3.org/2001/XMLSchema-instance" xsi:noNamespaceSchemaLocation="http://sumo.dlr.de/xsd/fcd_file.xsd">
    <timestep time="0.00">
        <person id="p0.0" x="-159.90" y="-1.60" angle="90.00" type="DEFAULT_PEDTYPE" speed="0.00" pos="40.10" edge="a" slope="0.00"/>
        <person id="p0.1" x="-159.90" y="-1.60" angle="90.00" type="DEFAULT_PEDTYPE" speed="0.00" pos="40.10" edge="a" slope="0.00"/>
        <person id="p0.2" x="-159.90" y="-1.60" angle="90.00" type="DEFAULT_PEDTYPE" speed="0.00" pos="40.10" edge="a" slope="0.00"/>
        <person id="p0.3" x="-159.90" y="-1.60" angle="90.00" type="DEFAULT_PEDTYPE" speed="0.00" pos="40.10" edge="a" slope="0.00"/>
        <person id="p0.4" x="-159.90" y="-1.60" angle="90.00" type="DEFAULT_PEDTYPE" speed="0.00" pos="40.10" edge="a" slope="0.00"/>
        <person id="p0.5" x="-159.90" y="-1.60" angle="90.00" type="DEFAULT_PEDTYPE" speed="0.00" pos="40.10" edge="a" slope="0.00"/>
        <person id="p0.6" x="-159.90" y="-1.60" angle="90.00" type="DEFAULT_PEDTYPE" speed="0.00" pos="40.10" edge="a" slope="0.00"/>
        <person id="p0.7" x="-159.90" y="-1.60" angle="90.00" type="DEFAULT_PEDTYPE" speed="0.00" pos="40.10" edge="a" slope="0.00"/>
        <person id="p0.8" x="-159.90" y="-1.60" angle="90.00" type="DEFAULT_PEDTYPE" speed="0.00" pos="40.10" edge="a" slope="0.00"/>
        <person id="p0.9" x="-159.90" y="-1.60" angle="90.00" type="DEFAULT_PEDTYPE" speed="0.00" pos="40.10" edge="a" slope="0.00"/>
    </timestep>
    <timestep time="1.00">
        <person id="p0.0" x="-159.65" y="-1.60" angle="90.00" type="DEFAULT_PEDTYPE" speed="0.25" pos="40.35" edge="a" slope="0.00"/>
        <person id="p0.1" x="-159.65" y="-1.60" angle="90.00" type="DEFAULT_PEDTYPE" speed="0.25" pos="40.35" edge="a" slope="0.00"/>
        <person id="p0.2" x="-159.65" y="-1.60" angle="90.00" type="DEFAULT_PEDTYPE" speed="0.25" pos="40.35" edge="a" slope="0.00"/>
        <person id="p0.3" x="-159.65" y="-1.60" angle="90.00" type="DEFAULT_PEDTYPE" speed="0.25" pos="40.35" edge="a" slope="0.00"/>
        <person id="p0.4" x="-159.65" y="-1.60" angle="90.00" type="DEFAULT_PEDTYPE" speed="0.25" pos="40.35" edge="a" slope="0.00"/>
        <person id="p0.5" x="-159.65" y="-1.60" angle="90.00" type="DEFAULT_PEDTYPE" speed="0.25" pos="40.35" edge="a" slope="0.00"/>
        <person id="p0.6" x="-159.65" y="-1.60" angle="90.00" type="DEFAULT_PEDTYPE" speed="0.25" pos="40.35" edge="a" slope="0.00"/>
        <person id="p0.7" x="-159.65" y="-1.60" angle="90.00" type="DEFAULT_PEDTYPE" speed="0.25" pos="40.35" edge="a" slope="0.00"/>
        <person id="p0.8" x="-159.65" y="-1.60" angle="90.00" type="DEFAULT_PEDTYPE" speed="0.25" pos="40.35" edge="a" slope="0.00"/>
        <person id="p0.9" x="-159.65" y="-1.60" angle="90.00" type="DEFAULT_PEDTYPE" speed="0.25" pos="40.35" edge="a" slope="0.00"/>
    </timestep>
    <timestep time="2.00">
        <person id="p0.0" x="-159.15" y="-1.60" angle="90.00" type="DEFAULT_PEDTYPE" speed="0.50" pos="40.85" edge="a" slope="0.00"/>
        <person id="p0.1" x="-159.15" y="-1.60" angle="90.00" type="DEFAULT_PEDTYPE" speed="0.50" pos="40.85" edge="a" slope="0.00"/>
        <person id="p0.2" x="-159.15" y="-1.60" angle="90.00" type="DEFAULT_PEDTYPE" speed="0.50" pos="40.85" edge="a" slope="0.00"/>
        <person id="p0.3" x="-159.15" y="-1.60" angle="90.00" type="DEFAULT_PEDTYPE" speed="0.50" pos="40.85" edge="a" slope="0.00"/>
        <person id="p0.4" x="-159.15" y="-1.60" angle="90.00" type="DEFAULT_PEDTYPE" speed="0.50" pos="40.85" edge="a" slope="0.00"/>
        <person id="p0.5" x="-159.15" y="-1.60" angle="90.00" type="DEFAULT_PEDTYPE" speed="0.50" pos="40.85" edge="a" slope="0.00"/>
        <person id="p0.6" x="-159.15" y="-1.60" angle="90.00" type="DEFAULT_PEDTYPE" speed="0.50" pos="40.85" edge="a" slope="0.00"/>
        <person id="p0.7" x="-159.15" y="-1.60" angle="90.00" type="DEFAULT_PEDTYPE" speed="0.50" pos="40.85" edge="a" slope="0.00"/>
        <person id="p0.8" x="-159.15" y="-1.60" angle="90.00" type="DEFAULT_PEDTYPE" speed="0.50" pos="40.85" edge="a" slope="0.00"/>
        <person id="p0.9" x="-159.15" y="-1.60" angle="90.00" type="DEFAULT_PEDTYPE" speed="0.50" pos="40.85" edge="a" slope="0.00"/>
    </timestep>
    <timestep time="3.00">
        <person id="p0.0" x="-158.40" y="-1.60" angle="90.00" type="DEFAULT_PEDTYPE" speed="0.75" pos="41.60" edge="a" slope="0.00"/>
        <person id="p0.1" x="-158.40" y="-1.60" angle="90.00" type="DEFAULT_PEDTYPE" speed="0.75" pos="41.60" edge="a" slope="0.00"/>
        <person id="p0.2" x="-158.40" y="-1.60" angle="90.00" type="DEFAULT_PEDTYPE" speed="0.75" pos="41.60" edge="a" slope="0.00"/>
        <person id="p0.3" x="-158.40" y="-1.60" angle="90.00" type="DEFAULT_PEDTYPE" speed="0.75" pos="41.60" edge="a" slope="0.00"/>
        <person id="p0.4" x="-158.40" y="-1.60" angle="90.00" type="DEFAULT_PEDTYPE" speed="0.75" pos="41.60" edge="a" slope="0.00"/>
        <person id="p0.5" x="-158.40" y="-1.60" angle="90.00" type="DEFAULT_PEDTYPE" speed="0.75" pos="41.60" edge="a" slope="0.00"/>
        <person id="p0.6" x="-158.40" y="-1.60" angle="90.00" type="DEFAULT_PEDTYPE" speed="0.75" pos="41.60" edge="a" slope="0.00"/>
        <person id="p0.7" x="-158.40" y="-1.60" angle="90.00" type="DEFAULT_PEDTYPE" speed="0.75" pos="41.60" edge="a" slope="0.00"/>
        <person id="p0.8" x="-158.40" y="-1.60" angle="90.00" type="DEFAULT_PEDTYPE" speed="0.75" pos="41.60" edge="a" slope="0.00"/>
        <person id="p0.9" x="-158.40" y="-1.60" angle="90.00" type="DEFAULT_PEDTYPE" speed="0.75" pos="41.60" edge="a" slope="0.00"/>
    </timestep>
    <timestep time="4.00">
        <person id="p0.0" x="-157.40" y="-1.60" angle="90.00" type="DEFAULT_PEDTYPE" speed="1.00" pos="42.60" edge="a" slope="0.00"/>
        <person id="p0.1" x="-157.40" y="-1.60" angle="90.00" type="DEFAULT_PEDTYPE" speed="1.00" pos="42.60" edge="a" slope="0.00"/>
        <person id="p0.2" x="-157.40" y="-1.60" angle="90.00" type="DEFAULT_PEDTYPE" speed="1.00" pos="42.60" edge="a" slope="0.00"/>
        <person id="p0.3" x="-157.40" y="-1.60" angle="90.00" type="DEFAULT_PEDTYPE" speed="1.00" pos="42.60" edge="a" slope="0.00"/>
        <person id="p0.4" x="-157.40" y="-1.60" angle="90.00" type="DEFAULT_PEDTYPE" speed="1.00" pos="42.60" edge="a" slope="0.00"/>
        <person id="p0.5" x="-157.40" y="-1.60" angle="90.00" type="DEFAULT_PEDTYPE" speed="1.00" pos="42.60" edge="a" slope="0.00"/>
        <person id="p0.6" x="-157.40" y="-1.60" angle="90.00" type="DEFAULT_PEDTYPE" speed="1.00" pos="42.60" edge="a" slope="0.00"/>
        <person id="p0.7" x="-157.40" y="-1.60" angle="90.00" type="DEFAULT_PEDTYPE" speed="1.00" pos="42.60" edge="a" slope="0.00"/>
        <person id="p0.8" x="-157.40" y="-1.60" angle="90.00" type="DEFAULT_PEDTYPE" speed="1.00" pos="42.60" edge="a" slope="0.00"/>
        <person id="p0.9" x="-157.40" y="-1.60" angle="90.00" type="DEFAULT_PEDTYPE" speed="1.00" pos="42.60" edge="a" slope="0.00"/>
    </timestep>
    <timestep time="5.00">
        <person id="p0.0" x="-156.15" y="-1.60" angle="90.00" type="DEFAULT_PEDTYPE" speed="1.25" pos="43.85" edge="a" slope="0.00"/>
        <person id="p0.1" x="-156.15" y="-1.60" angle="90.00" type="DEFAULT_PEDTYPE" speed="1.25" pos="43.85" edge="a" slope="0.00"/>
        <person id="p0.2" x="-156.15" y="-1.60" angle="90.00" type="DEFAULT_PEDTYPE" speed="1.25" pos="43.85" edge="a" slope="0.00"/>
        <person id="p0.3" x="-156.15" y="-1.60" angle="90.00" type="DEFAULT_PEDTYPE" speed="1.25" pos="43.85" edge="a" slope="0.00"/>
        <person id="p0.4" x="-156.15" y="-1.60" angle="90.00" type="DEFAULT_PEDTYPE" speed="1.25" pos="43.85" edge="a" slope="0.00"/>
        <person id="p0.5" x="-156.15" y="-1.60" angle="90.00" type="DEFAULT_PEDTYPE" speed="1.25" pos="43.85" edge="a" slope="0.00"/>
        <person id="p0.6" x="-156.15" y="-1.60" angle="90.00" type="DEFAULT_PEDTYPE" speed="1.25" pos="43.85" edge="a" slope="0.00"/>
        <person id="p0.7" x="-156.15" y="-1.60" angle="90.00" type="DEFAULT_PEDTYPE" speed="1.25" pos="43.85" edge="a" slope="0.00"/>
        <person id="p0.8" x="-156.15" y="-1.60" angle="90.00" type="DEFAULT_PEDTYPE" speed="1.25" pos="43.85" edge="a" slope="0.00"/>
        <person id="p0.9" x="-156.15" y="-1.60" angle="90.00" type="DEFAULT_PEDTYPE" speed="1.25" pos="43.85" edge="a" slope="0.00"/>
    </timestep>
    <timestep time="6.00">
        <person id="p0.0" x="-154.65" y="-1.60" angle="90.00" type="DEFAULT_PEDTYPE" speed="1.50" pos="45.35" edge="a" slope="0.00"/>
        <person id="p0.1" x="-154.65" y="-1.60" angle="90.00" type="DEFAULT_PEDTYPE" speed="1.50" pos="45.35" edge="a" slope="0.00"/>
        <person id="p0.2" x="-154.65" y="-1.60" angle="90.00" type="DEFAULT_PEDTYPE" speed="1.50" pos="45.35" edge="a" slope="0.00"/>
        <person id="p0.3" x="-154.65" y="-1.60" angle="90.00" type="DEFAULT_PEDTYPE" speed="1.50" pos="45.35" edge="a" slope="0.00"/>
        <person id="p0.4" x="-154.65" y="-1.60" angle="90.00" type="DEFAULT_PEDTYPE" speed="1.50" pos="45.35" edge="a" slope="0.00"/>
        <person id="p0.5" x="-154.65" y="-1.60" angle="90.00" type="DEFAULT_PEDTYPE" speed="1.50" pos="45.35" edge="a" slope="0.00"/>
        <person id="p0.6" x="-154.65" y="-1.60" angle="90.00" type="DEFAULT_PEDTYPE" speed="1.50" pos="45.35" edge="a" slope="0.00"/>
        <person id="p0.7" x="-154.65" y="-1.60" angle="90.00" type="DEFAULT_PEDTYPE" speed="1.50" pos="45.35" edge="a" slope="0.00"/>
        <person id="p0.8" x="-154.65" y="-1.60" angle="90.00" type="DEFAULT_PEDTYPE" speed="1.50" pos="45.35" edge="a" slope="0.00"/>
        <person id="p0.9" x="-154.65" y="-1.60" angle="90.00" type="DEFAULT_PEDTYPE" speed="1.50" pos="45.35" edge="a" slope="0.00"/>
    </timestep>
    <timestep time="7.00">
        <person id="p0.0" x="-152.90" y="-1.60" angle="90.00" type="DEFAULT_PEDTYPE" speed="1.75" pos="47.10" edge="a" slope="0.00"/>
        <person id="p0.1" x="-152.90" y="-1.60" angle="90.00" type="DEFAULT_PEDTYPE" speed="1.75" pos="47.10" edge="a" slope="0.00"/>
        <person id="p0.2" x="-152.90" y="-1.60" angle="90.00" type="DEFAULT_PEDTYPE" speed="1.75" pos="47.10" edge="a" slope="0.00"/>
        <person id="p0.3" x="-152.90" y="-1.60" angle="90.00" type="DEFAULT_PEDTYPE" speed="1.75" pos="47.10" edge="a" slope="0.00"/>
        <person id="p0.4" x="-152.90" y="-1.60" angle="90.00" type="DEFAULT_PEDTYPE" speed="1.75" pos="47.10" edge="a" slope="0.00"/>
        <person id="p0.5" x="-152.90" y="-1.60" angle="90.00" type="DEFAULT_PEDTYPE" speed="1.75" pos="47.10" edge="a" slope="0.00"/>
        <person id="p0.6" x="-152.90" y="-1.60" angle="90.00" type="DEFAULT_PEDTYPE" speed="1.75" pos="47.10" edge="a" slope="0.00"/>
        <person id="p0.7" x="-152.90" y="-1.60" angle="90.00" type="DEFAULT_PEDTYPE" speed="1.75" pos="47.10" edge="a" slope="0.00"/>
        <person id="p0.8" x="-152.90" y="-1.60" angle="90.00" type="DEFAULT_PEDTYPE" speed="1.75" pos="47.10" edge="a" slope="0.00"/>
        <person id="p0.9" x="-152.90" y="-1.60" angle="90.00" type="DEFAULT_PEDTYPE" speed="1.75" pos="47.10" edge="a" slope="0.00"/>
    </timestep>
    <timestep time="8.00">
        <person id="p0.0" x="-150.90" y="-1.60" angle="90.00" type="DEFAULT_PEDTYPE" speed="2.00" pos="49.10" edge="a" slope="0.00"/>
        <person id="p0.1" x="-150.90" y="-1.60" angle="90.00" type="DEFAULT_PEDTYPE" speed="2.00" pos="49.10" edge="a" slope="0.00"/>
        <person id="p0.2" x="-150.90" y="-1.60" angle="90.00" type="DEFAULT_PEDTYPE" speed="2.00" pos="49.10" edge="a" slope="0.00"/>
        <person id="p0.3" x="-150.90" y="-1.60" angle="90.00" type="DEFAULT_PEDTYPE" speed="2.00" pos="49.10" edge="a" slope="0.00"/>
        <person id="p0.4" x="-150.90" y="-1.60" angle="90.00" type="DEFAULT_PEDTYPE" speed="2.00" pos="49.10" edge="a" slope="0.00"/>
        <person id="p0.5" x="-150.90" y="-1.60" angle="90.00" type="DEFAULT_PEDTYPE" speed="2.00" pos="49.10" edge="a" slope="0.00"/>
        <person id="p0.6" x="-150.90" y="-1.60" angle="90.00" type="DEFAULT_PEDTYPE" speed="2.00" pos="49.10" edge="a" slope="0.00"/>
        <person id="p0.7" x="-150.90" y="-1.60" angle="90.00" type="DEFAULT_PEDTYPE" speed="2.00" pos="49.10" edge="a" slope="0.00"/>
        <person id="p0.8" x="-150.90" y="-1.60" angle="90.00" type="DEFAULT_PEDTYPE" speed="2.00" pos="49.10" edge="a" slope="0.00"/>
        <person id="p0.9" x="-150.90" y="-1.60" angle="90.00" type="DEFAULT_PEDTYPE" speed="2.00" pos="49.10" edge="a" slope="0.00"/>
    </timestep>
    <timestep time="9.00">
        <person id="p0.0" x="-148.65" y="-1.60" angle="90.00" type="DEFAULT_PEDTYPE" speed="2.25" pos="51.35" edge="a" slope="0.00"/>
        <person id="p0.1" x="-148.65" y="-1.60" angle="90.00" type="DEFAULT_PEDTYPE" speed="2.25" pos="51.35" edge="a" slope="0.00"/>
        <person id="p0.2" x="-148.65" y="-1.60" angle="90.00" type="DEFAULT_PEDTYPE" speed="2.25" pos="51.35" edge="a" slope="0.00"/>
        <person id="p0.3" x="-148.65" y="-1.60" angle="90.00" type="DEFAULT_PEDTYPE" speed="2.25" pos="51.35" edge="a" slope="0.00"/>
        <person id="p0.4" x="-148.65" y="-1.60" angle="90.00" type="DEFAULT_PEDTYPE" speed="2.25" pos="51.35" edge="a" slope="0.00"/>
        <person id="p0.5" x="-148.65" y="-1.60" angle="90.00" type="DEFAULT_PEDTYPE" speed="2.25" pos="51.35" edge="a" slope="0.00"/>
        <person id="p0.6" x="-148.65" y="-1.60" angle="90.00" type="DEFAULT_PEDTYPE" speed="2.25" pos="51.35" edge="a" slope="0.00"/>
        <person id="p0.7" x="-148.65" y="-1.60" angle="90.00" type="DEFAULT_PEDTYPE" speed="2.25" pos="51.35" edge="a" slope="0.00"/>
        <person id="p0.8" x="-148.65" y="-1.60" angle="90.00" type="DEFAULT_PEDTYPE" speed="2.25" pos="51.35" edge="a" slope="0.00"/>
        <person id="p0.9" x="-148.65" y="-1.60" angle="90.00" type="DEFAULT_PEDTYPE" speed="2.25" pos="51.35" edge="a" slope="0.00"/>
    </timestep>
    <timestep time="10.00">
        <person id="p0.0" x="-146.15" y="-1.60" angle="90.00" type="DEFAULT_PEDTYPE" speed="2.50" pos="53.85" edge="a" slope="0.00"/>
        <person id="p0.1" x="-146.15" y="-1.60" angle="90.00" type="DEFAULT_PEDTYPE" speed="2.50" pos="53.85" edge="a" slope="0.00"/>
        <person id="p0.2" x="-146.15" y="-1.60" angle="90.00" type="DEFAULT_PEDTYPE" speed="2.50" pos="53.85" edge="a" slope="0.00"/>
        <person id="p0.3" x="-146.15" y="-1.60" angle="90.00" type="DEFAULT_PEDTYPE" speed="2.50" pos="53.85" edge="a" slope="0.00"/>
        <person id="p0.4" x="-146.15" y="-1.60" angle="90.00" type="DEFAULT_PEDTYPE" speed="2.50" pos="53.85" edge="a" slope="0.00"/>
        <person id="p0.5" x="-146.15" y="-1.60" angle="90.00" type="DEFAULT_PEDTYPE" speed="2.50" pos="53.85" edge="a" slope="0.00"/>
        <person id="p0.6" x="-146.15" y="-1.60" angle="90.00" type="DEFAULT_PEDTYPE" speed="2.50" pos="53.85" edge="a" slope="0.00"/>
        <person id="p0.7" x="-146.15" y="-1.60" angle="90.00" type="DEFAULT_PEDTYPE" speed="2.50" pos="53.85" edge="a" slope="0.00"/>
        <person id="p0.8" x="-146.15" y="-1.60" angle="90.00" type="DEFAULT_PEDTYPE" speed="2.50" pos="53.85" edge="a" slope="0.00"/>
        <person id="p0.9" x="-146.15" y="-1.60" angle="90.00" type="DEFAULT_PEDTYPE" speed="2.50" pos="53.85" edge="a" slope="0.00"/>
    </timestep>
    <timestep time="11.00">
        <person id="p0.0" x="-143.40" y="-1.60" angle="90.00" type="DEFAULT_PEDTYPE" speed="2.75" pos="56.60" edge="a" slope="0.00"/>
        <person id="p0.1" x="-143.40" y="-1.60" angle="90.00" type="DEFAULT_PEDTYPE" speed="2.75" pos="56.60" edge="a" slope="0.00"/>
        <person id="p0.2" x="-143.40" y="-1.60" angle="90.00" type="DEFAULT_PEDTYPE" speed="2.75" pos="56.60" edge="a" slope="0.00"/>
        <person id="p0.3" x="-143.40" y="-1.60" angle="90.00" type="DEFAULT_PEDTYPE" speed="2.75" pos="56.60" edge="a" slope="0.00"/>
        <person id="p0.4" x="-143.40" y="-1.60" angle="90.00" type="DEFAULT_PEDTYPE" speed="2.75" pos="56.60" edge="a" slope="0.00"/>
        <person id="p0.5" x="-143.40" y="-1.60" angle="90.00" type="DEFAULT_PEDTYPE" speed="2.75" pos="56.60" edge="a" slope="0.00"/>
        <person id="p0.6" x="-143.40" y="-1.60" angle="90.00" type="DEFAULT_PEDTYPE" speed="2.75" pos="56.60" edge="a" slope="0.00"/>
        <person id="p0.7" x="-143.40" y="-1.60" angle="90.00" type="DEFAULT_PEDTYPE" speed="2.75" pos="56.60" edge="a" slope="0.00"/>
        <person id="p0.8" x="-143.40" y="-1.60" angle="90.00" type="DEFAULT_PEDTYPE" speed="2.75" pos="56.60" edge="a" slope="0.00"/>
        <person id="p0.9" x="-143.40" y="-1.60" angle="90.00" type="DEFAULT_PEDTYPE" speed="2.75" pos="56.60" edge="a" slope="0.00"/>
    </timestep>
    <timestep time="12.00">
        <person id="p0.0" x="-140.40" y="-1.60" angle="90.00" type="DEFAULT_PEDTYPE" speed="3.00" pos="59.60" edge="a" slope="0.00"/>
        <person id="p0.1" x="-140.40" y="-1.60" angle="90.00" type="DEFAULT_PEDTYPE" speed="3.00" pos="59.60" edge="a" slope="0.00"/>
        <person id="p0.2" x="-140.40" y="-1.60" angle="90.00" type="DEFAULT_PEDTYPE" speed="3.00" pos="59.60" edge="a" slope="0.00"/>
        <person id="p0.3" x="-140.40" y="-1.60" angle="90.00" type="DEFAULT_PEDTYPE" speed="3.00" pos="59.60" edge="a" slope="0.00"/>
        <person id="p0.4" x="-140.40" y="-1.60" angle="90.00" type="DEFAULT_PEDTYPE" speed="3.00" pos="59.60" edge="a" slope="0.00"/>
        <person id="p0.5" x="-140.40" y="-1.60" angle="90.00" type="DEFAULT_PEDTYPE" speed="3.00" pos="59.60" edge="a" slope="0.00"/>
        <person id="p0.6" x="-140.40" y="-1.60" angle="90.00" type="DEFAULT_PEDTYPE" speed="3.00" pos="59.60" edge="a" slope="0.00"/>
        <person id="p0.7" x="-140.40" y="-1.60" angle="90.00" type="DEFAULT_PEDTYPE" speed="3.00" pos="59.60" edge="a" slope="0.00"/>
        <person id="p0.8" x="-140.40" y="-1.60" angle="90.00" type="DEFAULT_PEDTYPE" speed="3.00" pos="59.60" edge="a" slope="0.00"/>
        <person id="p0.9" x="-140.40" y="-1.60" angle="90.00" type="DEFAULT_PEDTYPE" speed="3.00" pos="59.60" edge="a" slope="0.00"/>
    </timestep>
    <timestep time="13.00">
        <person id="p0.0" x="-137.15" y="-1.60" angle="90.00" type="DEFAULT_PEDTYPE" speed="3.25" pos="62.85" edge="a" slope="0.00"/>
        <person id="p0.1" x="-137.15" y="-1.60" angle="90.00" type="DEFAULT_PEDTYPE" speed="3.25" pos="62.85" edge="a" slope="0.00"/>
        <person id="p0.2" x="-137.15" y="-1.60" angle="90.00" type="DEFAULT_PEDTYPE" speed="3.25" pos="62.85" edge="a" slope="0.00"/>
        <person id="p0.3" x="-137.15" y="-1.60" angle="90.00" type="DEFAULT_PEDTYPE" speed="3.25" pos="62.85" edge="a" slope="0.00"/>
        <person id="p0.4" x="-137.15" y="-1.60" angle="90.00" type="DEFAULT_PEDTYPE" speed="3.25" pos="62.85" edge="a" slope="0.00"/>
        <person id="p0.5" x="-137.15" y="-1.60" angle="90.00" type="DEFAULT_PEDTYPE" speed="3.25" pos="62.85" edge="a" slope="0.00"/>
        <person id="p0.6" x="-137.15" y="-1.60" angle="90.00" type="DEFAULT_PEDTYPE" speed="3.25" pos="62.85" edge="a" slope="0.00"/>
        <person id="p0.7" x="-137.15" y="-1.60" angle="90.00" type="DEFAULT_PEDTYPE" speed="3.25" pos="62.85" edge="a" slope="0.00"/>
        <person id="p0.8" x="-137.15" y="-1.60" angle="90.00" type="DEFAULT_PEDTYPE" speed="3.25" pos="62.85" edge="a" slope="0.00"/>
        <person id="p0.9" x="-137.15" y="-1.60" angle="90.00" type="DEFAULT_PEDTYPE" speed="3.25" pos="62.85" edge="a" slope="0.00"/>
    </timestep>
    <timestep time="14.00">
        <person id="p0.0" x="-133.65" y="-1.60" angle="90.00" type="DEFAULT_PEDTYPE" speed="3.50" pos="66.35" edge="a" slope="0.00"/>
        <person id="p0.1" x="-133.65" y="-1.60" angle="90.00" type="DEFAULT_PEDTYPE" speed="3.50" pos="66.35" edge="a" slope="0.00"/>
        <person id="p0.2" x="-133.65" y="-1.60" angle="90.00" type="DEFAULT_PEDTYPE" speed="3.50" pos="66.35" edge="a" slope="0.00"/>
        <person id="p0.3" x="-133.65" y="-1.60" angle="90.00" type="DEFAULT_PEDTYPE" speed="3.50" pos="66.35" edge="a" slope="0.00"/>
        <person id="p0.4" x="-133.65" y="-1.60" angle="90.00" type="DEFAULT_PEDTYPE" speed="3.50" pos="66.35" edge="a" slope="0.00"/>
        <person id="p0.5" x="-133.65" y="-1.60" angle="90.00" type="DEFAULT_PEDTYPE" speed="3.50" pos="66.35" edge="a" slope="0.00"/>
        <person id="p0.6" x="-133.65" y="-1.60" angle="90.00" type="DEFAULT_PEDTYPE" speed="3.50" pos="66.35" edge="a" slope="0.00"/>
        <person id="p0.7" x="-133.65" y="-1.60" angle="90.00" type="DEFAULT_PEDTYPE" speed="3.50" pos="66.35" edge="a" slope="0.00"/>
        <person id="p0.8" x="-133.65" y="-1.60" angle="90.00" type="DEFAULT_PEDTYPE" speed="3.50" pos="66.35" edge="a" slope="0.00"/>
        <person id="p0.9" x="-133.65" y="-1.60" angle="90.00" type="DEFAULT_PEDTYPE" speed="3.50" pos="66.35" edge="a" slope="0.00"/>
    </timestep>
    <timestep time="15.00">
        <person id="p0.0" x="-131.18" y="-1.60" angle="90.00" type="DEFAULT_PEDTYPE" speed="2.47" pos="68.82" edge="a" slope="0.00"/>
        <person id="p0.1" x="-131.18" y="-1.60" angle="90.00" type="DEFAULT_PEDTYPE" speed="2.47" pos="68.82" edge="a" slope="0.00"/>
        <person id="p0.2" x="-131.18" y="-1.60" angle="90.00" type="DEFAULT_PEDTYPE" speed="2.47" pos="68.82" edge="a" slope="0.00"/>
        <person id="p0.3" x="-131.18" y="-1.60" angle="90.00" type="DEFAULT_PEDTYPE" speed="2.47" pos="68.82" edge="a" slope="0.00"/>
        <person id="p0.4" x="-131.18" y="-1.60" angle="90.00" type="DEFAULT_PEDTYPE" speed="2.47" pos="68.82" edge="a" slope="0.00"/>
        <person id="p0.5" x="-131.18" y="-1.60" angle="90.00" type="DEFAULT_PEDTYPE" speed="2.47" pos="68.82" edge="a" slope="0.00"/>
        <person id="p0.6" x="-131.18" y="-1.60" angle="90.00" type="DEFAULT_PEDTYPE" speed="2.47" pos="68.82" edge="a" slope="0.00"/>
        <person id="p0.7" x="-131.18" y="-1.60" angle="90.00" type="DEFAULT_PEDTYPE" speed="2.47" pos="68.82" edge="a" slope="0.00"/>
        <person id="p0.8" x="-131.18" y="-1.60" angle="90.00" type="DEFAULT_PEDTYPE" speed="2.47" pos="68.82" edge="a" slope="0.00"/>
        <person id="p0.9" x="-131.18" y="-1.60" angle="90.00" type="DEFAULT_PEDTYPE" speed="2.47" pos="68.82" edge="a" slope="0.00"/>
    </timestep>
    <timestep time="16.00">
        <person id="p0.0" x="-130.00" y="-1.60" angle="90.00" type="DEFAULT_PEDTYPE" speed="1.18" pos="70.00" edge="a" slope="0.00"/>
        <person id="p0.1" x="-130.00" y="-1.60" angle="90.00" type="DEFAULT_PEDTYPE" speed="1.18" pos="70.00" edge="a" slope="0.00"/>
        <person id="p0.2" x="-130.00" y="-1.60" angle="90.00" type="DEFAULT_PEDTYPE" speed="1.18" pos="70.00" edge="a" slope="0.00"/>
        <person id="p0.3" x="-130.00" y="-1.60" angle="90.00" type="DEFAULT_PEDTYPE" speed="1.18" pos="70.00" edge="a" slope="0.00"/>
        <person id="p0.4" x="-130.00" y="-1.60" angle="90.00" type="DEFAULT_PEDTYPE" speed="1.18" pos="70.00" edge="a" slope="0.00"/>
        <person id="p0.5" x="-130.00" y="-1.60" angle="90.00" type="DEFAULT_PEDTYPE" speed="1.18" pos="70.00" edge="a" slope="0.00"/>
        <person id="p0.6" x="-130.00" y="-1.60" angle="90.00" type="DEFAULT_PEDTYPE" speed="1.18" pos="70.00" edge="a" slope="0.00"/>
        <person id="p0.7" x="-130.00" y="-1.60" angle="90.00" type="DEFAULT_PEDTYPE" speed="1.18" pos="70.00" edge="a" slope="0.00"/>
        <person id="p0.8" x="-130.00" y="-1.60" angle="90.00" type="DEFAULT_PEDTYPE" speed="1.18" pos="70.00" edge="a" slope="0.00"/>
        <person id="p0.9" x="-130.00" y="-1.60" angle="90.00" type="DEFAULT_PEDTYPE" speed="1.18" pos="70.00" edge="a" slope="0.00"/>
    </timestep>
    <timestep time="17.00">
        <person id="p0.0" x="-130.00" y="-1.60" angle="90.00" type="DEFAULT_PEDTYPE" speed="0.00" pos="70.00" edge="a" slope="0.00"/>
        <person id="p0.1" x="-130.00" y="-1.60" angle="90.00" type="DEFAULT_PEDTYPE" speed="0.00" pos="70.00" edge="a" slope="0.00"/>
        <person id="p0.2" x="-130.00" y="-1.60" angle="90.00" type="DEFAULT_PEDTYPE" speed="0.00" pos="70.00" edge="a" slope="0.00"/>
        <person id="p0.3" x="-130.00" y="-1.60" angle="90.00" type="DEFAULT_PEDTYPE" speed="0.00" pos="70.00" edge="a" slope="0.00"/>
        <person id="p0.4" x="-130.00" y="-1.60" angle="90.00" type="DEFAULT_PEDTYPE" speed="0.00" pos="70.00" edge="a" slope="0.00"/>
        <person id="p0.5" x="-130.00" y="-1.60" angle="90.00" type="DEFAULT_PEDTYPE" speed="0.00" pos="70.00" edge="a" slope="0.00"/>
        <person id="p0.6" x="-130.00" y="-1.60" angle="90.00" type="DEFAULT_PEDTYPE" speed="0.00" pos="70.00" edge="a" slope="0.00"/>
        <person id="p0.7" x="-130.00" y="-1.60" angle="90.00" type="DEFAULT_PEDTYPE" speed="0.00" pos="70.00" edge="a" slope="0.00"/>
        <person id="p0.8" x="-130.00" y="-1.60" angle="90.00" type="DEFAULT_PEDTYPE" speed="0.00" pos="70.00" edge="a" slope="0.00"/>
        <person id="p0.9" x="-130.00" y="-1.60" angle="90.00" type="DEFAULT_PEDTYPE" speed="0.00" pos="70.00" edge="a" slope="0.00"/>
    </timestep>
    <timestep time="18.00">
        <person id="p0.0" x="-130.00" y="-1.60" angle="90.00" type="DEFAULT_PEDTYPE" speed="0.00" pos="70.00" edge="a" slope="0.00"/>
        <person id="p0.1" x="-130.00" y="-1.60" angle="90.00" type="DEFAULT_PEDTYPE" speed="0.00" pos="70.00" edge="a" slope="0.00"/>
        <person id="p0.2" x="-130.00" y="-1.60" angle="90.00" type="DEFAULT_PEDTYPE" speed="0.00" pos="70.00" edge="a" slope="0.00"/>
        <person id="p0.3" x="-130.00" y="-1.60" angle="90.00" type="DEFAULT_PEDTYPE" speed="0.00" pos="70.00" edge="a" slope="0.00"/>
        <person id="p0.4" x="-130.00" y="-1.60" angle="90.00" type="DEFAULT_PEDTYPE" speed="0.00" pos="70.00" edge="a" slope="0.00"/>
        <person id="p0.5" x="-130.00" y="-1.60" angle="90.00" type="DEFAULT_PEDTYPE" speed="0.00" pos="70.00" edge="a" slope="0.00"/>
        <person id="p0.6" x="-130.00" y="-1.60" angle="90.00" type="DEFAULT_PEDTYPE" speed="0.00" pos="70.00" edge="a" slope="0.00"/>
        <person id="p0.7" x="-130.00" y="-1.60" angle="90.00" type="DEFAULT_PEDTYPE" speed="0.00" pos="70.00" edge="a" slope="0.00"/>
        <person id="p0.8" x="-130.00" y="-1.60" angle="90.00" type="DEFAULT_PEDTYPE" speed="0.00" pos="70.00" edge="a" slope="0.00"/>
        <person id="p0.9" x="-130.00" y="-1.60" angle="90.00" type="DEFAULT_PEDTYPE" speed="0.00" pos="70.00" edge="a" slope="0.00"/>
    </timestep>
    <timestep time="19.00">
        <person id="p0.0" x="-130.00" y="-1.60" angle="90.00" type="DEFAULT_PEDTYPE" speed="0.00" pos="70.00" edge="a" slope="0.00"/>
        <person id="p0.1" x="-130.00" y="-1.60" angle="90.00" type="DEFAULT_PEDTYPE" speed="0.00" pos="70.00" edge="a" slope="0.00"/>
        <person id="p0.2" x="-130.00" y="-1.60" angle="90.00" type="DEFAULT_PEDTYPE" speed="0.00" pos="70.00" edge="a" slope="0.00"/>
        <person id="p0.3" x="-130.00" y="-1.60" angle="90.00" type="DEFAULT_PEDTYPE" speed="0.00" pos="70.00" edge="a" slope="0.00"/>
        <person id="p0.4" x="-130.00" y="-1.60" angle="90.00" type="DEFAULT_PEDTYPE" speed="0.00" pos="70.00" edge="a" slope="0.00"/>
        <person id="p0.5" x="-130.00" y="-1.60" angle="90.00" type="DEFAULT_PEDTYPE" speed="0.00" pos="70.00" edge="a" slope="0.00"/>
        <person id="p0.6" x="-130.00" y="-1.60" angle="90.00" type="DEFAULT_PEDTYPE" speed="0.00" pos="70.00" edge="a" slope="0.00"/>
        <person id="p0.7" x="-130.00" y="-1.60" angle="90.00" type="DEFAULT_PEDTYPE" speed="0.00" pos="70.00" edge="a" slope="0.00"/>
        <person id="p0.8" x="-130.00" y="-1.60" angle="90.00" type="DEFAULT_PEDTYPE" speed="0.00" pos="70.00" edge="a" slope="0.00"/>
        <person id="p0.9" x="-130.00" y="-1.60" angle="90.00" type="DEFAULT_PEDTYPE" speed="0.00" pos="70.00" edge="a" slope="0.00"/>
    </timestep>
    <timestep time="20.00">
        <person id="p0.0" x="-130.00" y="-1.60" angle="90.00" type="DEFAULT_PEDTYPE" speed="0.00" pos="70.00" edge="a" slope="0.00"/>
        <person id="p0.1" x="-130.00" y="-1.60" angle="90.00" type="DEFAULT_PEDTYPE" speed="0.00" pos="70.00" edge="a" slope="0.00"/>
        <person id="p0.2" x="-130.00" y="-1.60" angle="90.00" type="DEFAULT_PEDTYPE" speed="0.00" pos="70.00" edge="a" slope="0.00"/>
        <person id="p0.3" x="-130.00" y="-1.60" angle="90.00" type="DEFAULT_PEDTYPE" speed="0.00" pos="70.00" edge="a" slope="0.00"/>