<?xml version="1.0"?>

<!-- generated on 02/13/12 14:19:41 by SUMO sumo Version dev-SVN-r11881
<?xml version="1.0" encoding="UTF-8"?>

<configuration xmlns:xsi="http://www.w3.org/2001/XMLSchema-instance" xsi:noNamespaceSchemaLocation="http://sumo.sf.net/xsd/sumoConfiguration.xsd">

    <input>
        <net-file value="net.net.xml"/>
        <route-files value="input_routes.rou.xml"/>
    </input>

    <output>
        <netstate-dump value="rawdump.xml"/>
    </output>

    <report>
        <no-duration-log value="true"/>
        <no-step-log value="true"/>
    </report>

</configuration>
-->

<sumo-netstate>
    <timestep time="0.00">
        <edge id="beg">
            <lane id="beg_0">
                <vehicle id="1" pos="5.10" speed="0.00"/>
            </lane>
            <lane id="beg_1"/>
            <lane id="beg_2"/>
        </edge>
    </timestep>
    <timestep time="1.00">
        <edge id="beg">
            <lane id="beg_0">
                <vehicle id="1" pos="6.77" speed="1.67"/>
            </lane>
            <lane id="beg_1"/>
            <lane id="beg_2"/>
        </edge>
    </timestep>
    <timestep time="2.00">
        <edge id="beg">
            <lane id="beg_0">
                <vehicle id="1" pos="10.99" speed="4.21"/>
            </lane>
            <lane id="beg_1"/>
            <lane id="beg_2"/>
        </edge>
    </timestep>
    <timestep time="3.00">
        <edge id="beg">
            <lane id="beg_0">
                <vehicle id="1" pos="17.16" speed="6.18"/>
            </lane>
            <lane id="beg_1"/>
            <lane id="beg_2"/>
        </edge>
    </timestep>
    <timestep time="4.00">
        <edge id="beg">
            <lane id="beg_0">
                <vehicle id="1" pos="25.17" speed="8.01"/>
            </lane>
            <lane id="beg_1"/>
            <lane id="beg_2"/>
        </edge>
    </timestep>
    <timestep time="5.00">
        <edge id="beg">
            <lane id="beg_0">
                <vehicle id="1" pos="35.73" speed="10.55"/>
            </lane>
            <lane id="beg_1"/>
            <lane id="beg_2"/>
        </edge>
    </timestep>
    <timestep time="6.00">
        <edge id="beg">
            <lane id="beg_0">
                <vehicle id="1" pos="47.91" speed="12.19"/>
            </lane>
            <lane id="beg_1"/>
            <lane id="beg_2"/>
        </edge>
    </timestep>
    <timestep time="7.00">
        <edge id="beg">
            <lane id="beg_0">
                <vehicle id="1" pos="62.38" speed="14.46"/>
            </lane>
            <lane id="beg_1"/>
            <lane id="beg_2"/>
        </edge>
    </timestep>
    <timestep time="8.00">
        <edge id="beg">
            <lane id="beg_0">
                <vehicle id="1" pos="78.73" speed="16.36"/>
            </lane>
            <lane id="beg_1"/>
            <lane id="beg_2"/>
        </edge>
    </timestep>
    <timestep time="9.00">
        <edge id="beg">
            <lane id="beg_0">
                <vehicle id="1" pos="96.72" speed="17.99"/>
            </lane>
            <lane id="beg_1"/>
            <lane id="beg_2"/>
        </edge>
    </timestep>
    <timestep time="10.00">
        <edge id="beg">
            <lane id="beg_0">
                <vehicle id="1" pos="117.30" speed="20.58"/>
            </lane>
            <lane id="beg_1"/>
            <lane id="beg_2"/>
        </edge>
    </timestep>
    <timestep time="11.00">
        <edge id="beg">
            <lane id="beg_0">
                <vehicle id="1" pos="139.60" speed="22.30"/>
            </lane>
            <lane id="beg_1"/>
            <lane id="beg_2"/>
        </edge>
    </timestep>
    <timestep time="12.00">
        <edge id="beg">
            <lane id="beg_0">
                <vehicle id="1" pos="163.90" speed="24.30"/>
            </lane>
            <lane id="beg_1"/>
            <lane id="beg_2"/>
        </edge>
    </timestep>
    <timestep time="13.00">
        <edge id="beg">
            <lane id="beg_0">
                <vehicle id="1" pos="190.21" speed="26.31"/>
            </lane>
            <lane id="beg_1"/>
            <lane id="beg_2"/>
        </edge>
    </timestep>
    <timestep time="14.00">
        <edge id="beg">
            <lane id="beg_0">
                <vehicle id="1" pos="217.27" speed="27.06"/>
            </lane>
            <lane id="beg_1"/>
            <lane id="beg_2"/>
        </edge>
    </timestep>
    <timestep time="15.00">
        <edge id="beg">
            <lane id="beg_0">
                <vehicle id="1" pos="244.73" speed="27.46"/>
            </lane>
            <lane id="beg_1"/>
            <lane id="beg_2"/>
        </edge>
    </timestep>
    <timestep time="16.00">
        <edge id="beg">
            <lane id="beg_0">
                <vehicle id="1" pos="272.45" speed="27.72"/>
            </lane>
            <lane id="beg_1"/>
            <lane id="beg_2"/>
        </edge>
    </timestep>
    <timestep time="17.00">
        <edge id="beg">
            <lane id="beg_0">
                <vehicle id="1" pos="299.11" speed="26.66"/>
            </lane>
            <lane id="beg_1"/>
            <lane id="beg_2"/>
        </edge>
    </timestep>
    <timestep time="18.00">
        <edge id="beg">
            <lane id="beg_0">
                <vehicle id="1" pos="326.49" speed="27.38"/>
            </lane>
            <lane id="beg_1"/>
            <lane id="beg_2"/>
        </edge>
    </timestep>
    <timestep time="19.00">
        <edge id="beg">
            <lane id="beg_0">
                <vehicle id="1" pos="353.40" speed="26.91"/>
            </lane>
            <lane id="beg_1"/>
            <lane id="beg_2"/>
        </edge>
    </timestep>
    <timestep time="20.00">
        <edge id="beg">
            <lane id="beg_0">
                <vehicle id="1" pos="381.14" speed="27.74"/>
            </lane>
            <lane id="beg_1"/>
            <lane id="beg_2"/>
        </edge>
    </timestep>
    <timestep time="21.00">
        <edge id="beg">
            <lane id="beg_0">
                <vehicle id="1" pos="408.28" speed="27.13"/>
            </lane>
            <lane id="beg_1"/>
            <lane id="beg_2"/>
        </edge>
    </timestep>
    <timestep time="22.00">
        <edge id="beg">
            <lane id="beg_0">
                <vehicle id="1" pos="435.68" speed="27.40"/>
            </lane>
            <lane id="beg_1"/>
            <lane id="beg_2"/>
        </edge>
    </timestep>
    <timestep time="23.00">
        <edge id="beg">
            <lane id="beg_0">
                <vehicle id="1" pos="462.65" speed="26.98"/>
            </lane>
            <lane id="beg_1"/>
            <lane id="beg_2"/>
        </edge>
    </timestep>
    <timestep time="24.00">
        <edge id="beg">
            <lane id="beg_0">
                <vehicle id="1" pos="489.23" speed="26.58"/>
            </lane>
            <lane id="beg_1"/>
            <lane id="beg_2"/>
        </edge>
    </timestep>
    <timestep time="25.00">
        <edge id="end">
            <lane id="end_0">
                <vehicle id="1" pos="15.86" speed="26.73"/>
            </lane>
            <lane id="end_1"/>
            <lane id="end_2"/>
        </edge>
    </timestep>
    <timestep time="26.00">
        <edge id="end">
            <lane id="end_0">
                <vehicle id="1" pos="42.51" speed="26.65"/>
            </lane>
            <lane id="end_1"/>
            <lane id="end_2"/>
        </edge>
    </timestep>
    <timestep time="27.00">
        <edge id="end">
            <lane id="end_0">
                <vehicle id="1" pos="69.79" speed="27.28"/>
            </lane>
            <lane id="end_1"/>
            <lane id="end_2"/>
        </edge>
    </timestep>
    <timestep time="28.00">
        <edge id="end">
            <lane id="end_0">
                <vehicle id="1" pos="96.88" speed="27.09"/>
            </lane>
            <lane id="end_1"/>
            <lane id="end_2"/>
        </edge>
    </timestep>
    <timestep time="29.00">
        <edge id="end">
            <lane id="end_0">
                <vehicle id="1" pos="124.38" speed="27.49"/>
            </lane>
            <lane id="end_1"/>
            <lane id="end_2"/>
        </edge>
    </timestep>
    <timestep time="30.00">
        <edge id="end">
            <lane id="end_0">
                <vehicle id="1" pos="152.13" speed="27.76"/>
            </lane>
            <lane id="end_1"/>
            <lane id="end_2"/>
        </edge>
    </timestep>
    <timestep time="31.00">
        <edge id="end">
            <lane id="end_0">
                <vehicle id="1" pos="179.54" speed="27.41"/>
            </lane>
            <lane id="end_1"/>
            <lane id="end_2"/>
        </edge>
    </timestep>
    <timestep time="32.00">
        <edge id="end">
            <lane id="end_0">
                <vehicle id="1" pos="206.35" speed="26.81"/>
            </lane>
            <lane id="end_1"/>
            <lane id="end_2"/>
        </edge>
    </timestep>
    <timestep time="33.00">
        <edge id="end">
            <lane id="end_0">
                <vehicle id="1" pos="233.94" speed="27.59"/>
            </lane>
            <lane id="end_1"/>
            <lane id="end_2"/>
        </edge>
    </timestep>
    <timestep time="34.00">
        <edge id="end">
            <lane id="end_0">
                <vehicle id="1" pos="260.50" speed="26.56"/>
            </lane>
            <lane id="end_1"/>
            <lane id="end_2"/>
        </edge>
    </timestep>
    <timestep time="35.00">
        <edge id="end">
            <lane id="end_0">
                <vehicle id="1" pos="288.26" speed="27.76"/>
            </lane>
            <lane id="end_1"/>
            <lane id="end_2"/>
        </edge>
    </timestep>
    <timestep time="36.00">
        <edge id="end">
            <lane id="end_0">
                <vehicle id="1" pos="315.17" speed="26.91"/>
            </lane>
            <lane id="end_1"/>
            <lane id="end_2"/>
        </edge>
    </timestep>
    <timestep time="37.00">
        <edge id="end">
            <lane id="end_0">
                <vehicle id="1" pos="342.54" speed="27.37"/>
            </lane>
            <lane id="end_1"/>
            <lane id="end_2"/>
        </edge>
    </timestep>
    <timestep time="38.00">
        <edge id="end">
            <lane id="end_0">
                <vehicle id="1" pos="370.17" speed="27.63"/>
            </lane>
            <lane id="end_1"/>
            <lane id="end_2"/>
        </edge>
    </timestep>
    <timestep time="39.00">
        <edge id="end">
            <lane id="end_0">
                <vehicle id="1" pos="397.81" speed="27.64"/>
            </lane>
            <lane id="end_1"/>
            <lane id="end_2"/>
        </edge>
    </timestep>
    <timestep time="40.00">
        <edge id="end">
            <lane id="end_0">
                <vehicle id="1" pos="425.07" speed="27.27"/>
            </lane>
            <lane id="end_1"/>
            <lane id="end_2"/>
        </edge>
    </timestep>
    <timestep time="41.00">
        <edge id="end">
            <lane id="end_0">
                <vehicle id="1" pos="451.62" speed="26.55"/>
            </lane>
            <lane id="end_1"/>
            <lane id="end_2"/>
        </edge>
    </timestep>
    <timestep time="42.00">
        <edge id="end">
            <lane id="end_0">
                <vehicle id="1" pos="479.08" speed="27.46"/>
            </lane>
            <lane id="end_1"/>
            <lane id="end_2"/>
        </edge>
    </timestep>
    <timestep time="43.00">
    </timestep>
</sumo-netstate>
