<?xml version="1.0" encoding="UTF-8"?>

<!-- generated on Sat Mar 28 13:33:58 2020 by Eclipse SUMO Version v1_5_0+0988-75786a29d6
This data file and the accompanying materials
are made available under the terms of the Eclipse Public License v2.0
which accompanies this distribution, and is available at
http://www.eclipse.org/legal/epl-v20.html
SPDX-License-Identifier: EPL-2.0
<configuration xmlns:xsi="http://www.w3.org/2001/XMLSchema-instance" xsi:noNamespaceSchemaLocation="http://sumo.dlr.de/xsd/sumoConfiguration.xsd">

    <input>
        <net-file value="three_split.net.xml"/>
        <route-files value="input_routes.rou.xml"/>
    </input>

    <output>
        <write-license value="true"/>
        <tripinfo-output value="tripinfos.xml"/>
    </output>

    <time>
        <end value="1000"/>
    </time>

    <processing>
        <default.speeddev value="0"/>
        <pedestrian.model value="nonInteracting"/>
    </processing>

    <report>
        <xml-validation value="never"/>
        <duration-log.disable value="true"/>
        <no-step-log value="true"/>
    </report>

    <mesoscopic>
        <mesosim value="true"/>
    </mesoscopic>

</configuration>
-->

<tripinfos xmlns:xsi="http://www.w3.org/2001/XMLSchema-instance" xsi:noNamespaceSchemaLocation="http://sumo.dlr.de/xsd/tripinfo_file.xsd">
    <containerinfo id="c1" depart="20.00" type="DEFAULT_CONTAINERTYPE">
        <transport waitingTime="18.00" vehicle="truck" depart="38.00" arrival="211.00" arrivalPos="500.00" duration="173.00" routeLength="2912.36"/>
    </containerinfo>
    <containerinfo id="c2" depart="20.00" type="DEFAULT_CONTAINERTYPE">
        <transport waitingTime="18.00" vehicle="truck" depart="38.00" arrival="211.00" arrivalPos="500.00" duration="173.00" routeLength="2912.36"/>
    </containerinfo>
    <tripinfo id="truck" depart="0.00" departLane="" departPos="0.00" departSpeed="2.98" departDelay="0.00" arrival="211.00" arrivalLane="" arrivalPos="500.00" arrivalSpeed="27.80" duration="211.00" routeLength="3012.36" waitingTime="0.00" waitingCount="0" stopTime="30.00" timeLoss="30.00" rerouteNo="0" devices="tripinfo_truck container_truck" vType="DEFAULT_VEHTYPE" speedFactor="1.00" vaporized=""/>
</tripinfos>
