<?xml version="1.0" encoding="UTF-8"?>

<!-- generated on Wed Dec 11 10:00:04 2013 by SUMO sumo Version dev-SVN-r15307
<?xml version="1.0" encoding="UTF-8"?>

<configuration xmlns:xsi="http://www.w3.org/2001/XMLSchema-instance" xsi:noNamespaceSchemaLocation="http://sumo-sim.org/xsd/sumoConfiguration.xsd">

    <input>
        <net-file value="net.net.xml"/>
        <additional-files value="input_routes.rou.xml,input_additional.add.xml"/>
    </input>

    <time>
        <begin value="0"/>
        <end value="150"/>
    </time>

    <report>
        <no-duration-log value="true"/>
        <no-step-log value="true"/>
    </report>

</configuration>
-->

<meandata xmlns:xsi="http://www.w3.org/2001/XMLSchema-instance" xsi:noNamespaceSchemaLocation="http://sumo-sim.org/xsd/meandata_file.xsd">
    <interval begin="0.00" end="60.00" id="dump_60">
        <edge id="1si">
            <lane id="1si_0" sampledSeconds="1.00" traveltime="23.71" density="0.07" occupancy="0.02" waitingTime="0.00" speed="10.00" departed="1" arrived="0" entered="0" left="0" laneChangedFrom="1" laneChangedTo="0"/>
            <lane id="1si_1" sampledSeconds="1.00" traveltime="23.71" density="0.07" occupancy="0.02" waitingTime="0.00" speed="10.00" departed="0" arrived="0" entered="0" left="0" laneChangedFrom="1" laneChangedTo="1"/>
            <lane id="1si_2" sampledSeconds="44.67" traveltime="88.16" density="3.14" occupancy="0.94" waitingTime="29.00" speed="2.69" departed="0" arrived="0" entered="0" left="1" laneChangedFrom="0" laneChangedTo="1"/>
        </edge>
        <edge id="4o">
            <lane id="4o_0" sampledSeconds="13.87" traveltime="74.18" density="0.47" occupancy="0.14" waitingTime="0.00" speed="6.59" departed="0" arrived="0" entered="1" left="0" laneChangedFrom="0" laneChangedTo="0"/>
        </edge>
    </interval>
    <interval begin="60.00" end="120.00" id="dump_60">
        <edge id="4o">
            <lane id="4o_0" sampledSeconds="40.00" traveltime="48.87" density="1.36" occupancy="0.41" waitingTime="0.00" speed="10.00" departed="0" arrived="1" entered="0" left="0" laneChangedFrom="0" laneChangedTo="0"/>
        </edge>
    </interval>
    <interval begin="120.00" end="150.00" id="dump_60"/>
</meandata>
