<?xml version="1.0" encoding="UTF-8"?>

<!-- generated on Fri Jan  6 15:59:32 2017 by SUMO Version dev-SVN-r22484
<?xml version="1.0" encoding="UTF-8"?>

<configuration xmlns:xsi="http://www.w3.org/2001/XMLSchema-instance" xsi:noNamespaceSchemaLocation="http://sumo.dlr.de/xsd/sumoConfiguration.xsd">

    <input>
        <net-file value="net.net.xml"/>
        <route-files value="input_routes.rou.xml"/>
        <additional-files value="input_additional.add.xml"/>
    </input>

    <output>
        <vehroute-output value="vehroutes.xml"/>
    </output>

    <routing>
        <device.rerouting.probability value="0.3"/>
        <device.rerouting.pre-period value="0"/>
    </routing>

    <report>
        <verbose value="true"/>
        <xml-validation value="never"/>
        <duration-log.statistics value="true"/>
        <no-step-log value="true"/>
    </report>

    <mesoscopic>
        <mesosim value="true"/>
    </mesoscopic>

    <random_number>
        <seed value="42"/>
    </random_number>

</configuration>
-->

<routes xmlns:xsi="http://www.w3.org/2001/XMLSchema-instance" xsi:noNamespaceSchemaLocation="http://sumo.dlr.de/xsd/routes_file.xsd">
    <vehicle id="flow.0" depart="0.00" arrival="34.00">
        <route edges="beg beg2 middle end"/>
    </vehicle>

    <vehicle id="flow.1" depart="0.00" arrival="35.00">
        <route edges="beg beg2 middle end"/>
    </vehicle>

    <vehicle id="flow.2" depart="1.00" arrival="36.00">
        <route edges="beg beg2 middle end"/>
    </vehicle>

    <vehicle id="flow.3" depart="1.00" arrival="36.00">
        <route edges="beg beg2 middle end"/>
    </vehicle>

    <vehicle id="flow.4" depart="2.00" arrival="37.00">
        <route edges="beg beg2 middle end"/>
    </vehicle>

    <vehicle id="flow.5" depart="2.00" arrival="38.00">
        <route edges="beg beg2 middle end"/>
    </vehicle>

    <vehicle id="flow.6" depart="3.00" arrival="38.00">
        <route edges="beg beg2 middle end"/>
    </vehicle>

    <vehicle id="flow.7" depart="3.00" arrival="39.00">
        <route edges="beg beg2 middle end"/>
    </vehicle>

    <vehicle id="flow.8" depart="4.00" arrival="40.00">
        <route edges="beg beg2 middle end"/>
    </vehicle>

    <vehicle id="flow.9" depart="5.00" arrival="40.00">
        <route edges="beg beg2 middle end"/>
    </vehicle>

    <vehicle id="flow.10" depart="5.00" arrival="41.00">
        <route edges="beg beg2 middle end"/>
    </vehicle>

    <vehicle id="flow.11" depart="6.00" arrival="42.00">
        <route edges="beg beg2 middle end"/>
    </vehicle>

    <vehicle id="flow.12" depart="6.00" arrival="42.00">
        <route edges="beg beg2 middle end"/>
    </vehicle>

    <vehicle id="flow.13" depart="7.00" arrival="43.00">
        <route edges="beg beg2 middle end"/>
    </vehicle>

    <vehicle id="flow.14" depart="7.00" arrival="44.00">
        <route edges="beg beg2 middle end"/>
    </vehicle>

    <vehicle id="flow.15" depart="8.00" arrival="44.00">
        <route edges="beg beg2 middle end"/>
    </vehicle>

    <vehicle id="flow.16" depart="8.00" arrival="45.00">
        <route edges="beg beg2 middle end"/>
    </vehicle>

    <vehicle id="flow.17" depart="9.00" arrival="46.00">
        <route edges="beg beg2 middle end"/>
    </vehicle>

    <vehicle id="flow.18" depart="10.00" arrival="46.00">
        <route edges="beg beg2 middle end"/>
    </vehicle>

    <vehicle id="flow.19" depart="10.00" arrival="47.00">
        <route edges="beg beg2 middle end"/>
    </vehicle>

    <vehicle id="flow.20" depart="11.00" arrival="48.00">
        <route edges="beg beg2 middle end"/>
    </vehicle>

    <vehicle id="flow.21" depart="11.00" arrival="48.00">
        <route edges="beg beg2 middle end"/>
    </vehicle>

    <vehicle id="flow.22" depart="12.00" arrival="49.00">
        <route edges="beg beg2 middle end"/>
    </vehicle>

    <vehicle id="flow.23" depart="12.00" arrival="50.00">
        <route edges="beg beg2 middle end"/>
    </vehicle>

    <vehicle id="flow.24" depart="13.00" arrival="50.00">
        <route edges="beg beg2 middle end"/>
    </vehicle>

    <vehicle id="flow.25" depart="13.00" arrival="51.00">
        <route edges="beg beg2 middle end"/>
    </vehicle>

    <vehicle id="flow.26" depart="14.00" arrival="52.00">
        <route edges="beg beg2 middle end"/>
    </vehicle>

    <vehicle id="flow.27" depart="15.00" arrival="52.00">
        <route edges="beg beg2 middle end"/>
    </vehicle>

    <vehicle id="flow.28" depart="15.00" arrival="53.00">
        <route edges="beg beg2 middle end"/>
    </vehicle>

    <vehicle id="flow.29" depart="16.00" arrival="54.00">
        <route edges="beg beg2 middle end"/>
    </vehicle>

    <vehicle id="flow.30" depart="16.00" arrival="54.00">
        <route edges="beg beg2 middle end"/>
    </vehicle>

    <vehicle id="flow.31" depart="17.00" arrival="55.00">
        <route edges="beg beg2 middle end"/>
    </vehicle>

    <vehicle id="flow.32" depart="17.00" arrival="56.00">
        <route edges="beg beg2 middle end"/>
    </vehicle>

    <vehicle id="flow.33" depart="18.00" arrival="56.00">
        <route edges="beg beg2 middle end"/>
    </vehicle>

    <vehicle id="flow.34" depart="18.00" arrival="57.00">
        <route edges="beg beg2 middle end"/>
    </vehicle>

    <vehicle id="flow.35" depart="19.00" arrival="58.00">
        <route edges="beg beg2 middle end"/>
    </vehicle>

    <vehicle id="flow.36" depart="20.00" arrival="58.00">
        <route edges="beg beg2 middle end"/>
    </vehicle>

    <vehicle id="flow.38" depart="21.00" arrival="59.00">
        <route edges="beg beg2 middle end"/>
    </vehicle>

    <vehicle id="flow.39" depart="21.00" arrival="60.00">
        <route edges="beg beg2 middle end"/>
    </vehicle>

    <vehicle id="flow.40" depart="22.00" arrival="60.00">
        <route edges="beg beg2 middle end"/>
    </vehicle>

    <vehicle id="flow.41" depart="22.00" arrival="61.00">
        <route edges="beg beg2 middle end"/>
    </vehicle>

    <vehicle id="flow.42" depart="23.00" arrival="62.00">
        <route edges="beg beg2 middle end"/>
    </vehicle>

    <vehicle id="flow.43" depart="23.00" arrival="62.00">
        <route edges="beg beg2 middle end"/>
    </vehicle>

    <vehicle id="flow.44" depart="24.00" arrival="63.00">
        <route edges="beg beg2 middle end"/>
    </vehicle>

    <vehicle id="flow.45" depart="25.00" arrival="64.00">
        <route edges="beg beg2 middle end"/>
    </vehicle>

    <vehicle id="flow.46" depart="25.00" arrival="64.00">
        <route edges="beg beg2 middle end"/>
    </vehicle>

    <vehicle id="flow.47" depart="26.00" arrival="65.00">
        <route edges="beg beg2 middle end"/>
    </vehicle>

    <vehicle id="flow.48" depart="26.00" arrival="66.00">
        <route edges="beg beg2 middle end"/>
    </vehicle>

    <vehicle id="flow.49" depart="27.00" arrival="66.00">
        <route edges="beg beg2 middle end"/>
    </vehicle>

    <vehicle id="flow.50" depart="27.00" arrival="67.00">
        <route edges="beg beg2 middle end"/>
    </vehicle>

    <vehicle id="flow.51" depart="28.00" arrival="68.00">
        <route edges="beg beg2 middle end"/>
    </vehicle>

    <vehicle id="flow.52" depart="28.00" arrival="68.00">
        <route edges="beg beg2 middle end"/>
    </vehicle>

    <vehicle id="flow.53" depart="29.00" arrival="69.00">
        <route edges="beg beg2 middle end"/>
    </vehicle>

    <vehicle id="flow.54" depart="30.00" arrival="70.00">
        <route edges="beg beg2 middle end"/>
    </vehicle>

    <vehicle id="flow.55" depart="30.00" arrival="70.00">
        <route edges="beg beg2 middle end"/>
    </vehicle>

    <vehicle id="flow.56" depart="31.00" arrival="71.00">
        <route edges="beg beg2 middle end"/>
    </vehicle>

    <vehicle id="flow.57" depart="31.00" arrival="72.00">
        <route edges="beg beg2 middle end"/>
    </vehicle>

    <vehicle id="flow.58" depart="32.00" arrival="72.00">
        <route edges="beg beg2 middle end"/>
    </vehicle>

    <vehicle id="flow.59" depart="32.00" arrival="73.00">
        <route edges="beg beg2 middle end"/>
    </vehicle>

    <vehicle id="flow.60" depart="33.00" arrival="74.00">
        <route edges="beg beg2 middle end"/>
    </vehicle>

    <vehicle id="flow.61" depart="33.00" arrival="74.00">
        <route edges="beg beg2 middle end"/>
    </vehicle>

    <vehicle id="flow.62" depart="34.00" arrival="75.00">
        <route edges="beg beg2 middle end"/>
    </vehicle>

    <vehicle id="flow.63" depart="35.00" arrival="76.00">
        <route edges="beg beg2 middle end"/>
    </vehicle>

    <vehicle id="flow.64" depart="35.00" arrival="76.00">
        <route edges="beg beg2 middle end"/>
    </vehicle>

    <vehicle id="flow.65" depart="36.00" arrival="77.00">
        <route edges="beg beg2 middle end"/>
    </vehicle>

    <vehicle id="flow.66" depart="36.00" arrival="78.00">
        <route edges="beg beg2 middle end"/>
    </vehicle>

    <vehicle id="flow.67" depart="37.00" arrival="78.00">
        <route edges="beg beg2 middle end"/>
    </vehicle>

    <vehicle id="flow.37" depart="20.00" arrival="79.00">
        <routeDistribution>
            <route replacedOnEdge="beg" replacedAtTime="20.00" probability="0" edges="beg beg2 middle end"/>
            <route edges="beg detour end"/>
        </routeDistribution>
    </vehicle>

    <vehicle id="flow.68" depart="37.00" arrival="79.00">
        <route edges="beg beg2 middle end"/>
    </vehicle>

    <vehicle id="flow.69" depart="38.00" arrival="80.00">
        <route edges="beg beg2 middle end"/>
    </vehicle>

    <vehicle id="flow.70" depart="38.00" arrival="80.00">
        <route edges="beg beg2 middle end"/>
    </vehicle>

    <vehicle id="flow.71" depart="39.00" arrival="81.00">
        <route edges="beg beg2 middle end"/>
    </vehicle>

    <vehicle id="flow.72" depart="40.00" arrival="82.00">
        <route edges="beg beg2 middle end"/>
    </vehicle>

    <vehicle id="flow.73" depart="40.00" arrival="82.00">
        <route edges="beg beg2 middle end"/>
    </vehicle>

    <vehicle id="flow.74" depart="41.00" arrival="83.00">
        <route edges="beg beg2 middle end"/>
    </vehicle>

    <vehicle id="flow.75" depart="41.00" arrival="84.00">
        <route edges="beg beg2 middle end"/>
    </vehicle>

    <vehicle id="flow.76" depart="42.00" arrival="84.00">
        <route edges="beg beg2 middle end"/>
    </vehicle>

    <vehicle id="flow.77" depart="42.00" arrival="85.00">
        <route edges="beg beg2 middle end"/>
    </vehicle>

    <vehicle id="flow.78" depart="43.00" arrival="86.00">
        <route edges="beg beg2 middle end"/>
    </vehicle>

    <vehicle id="flow.79" depart="43.00" arrival="86.00">
        <route edges="beg beg2 middle end"/>
    </vehicle>

    <vehicle id="flow.80" depart="44.00" arrival="87.00">
        <route edges="beg beg2 middle end"/>
    </vehicle>

    <vehicle id="flow.81" depart="45.00" arrival="88.00">
        <route edges="beg beg2 middle end"/>
    </vehicle>

    <vehicle id="flow.82" depart="45.00" arrival="88.00">
        <route edges="beg beg2 middle end"/>
    </vehicle>

    <vehicle id="flow.83" depart="46.00" arrival="89.00">
        <route edges="beg beg2 middle end"/>
    </vehicle>

    <vehicle id="flow.84" depart="46.00" arrival="90.00">
        <route edges="beg beg2 middle end"/>
    </vehicle>

    <vehicle id="flow.85" depart="47.00" arrival="90.00">
        <route edges="beg beg2 middle end"/>
    </vehicle>

    <vehicle id="flow.86" depart="47.00" arrival="91.00">
        <route edges="beg beg2 middle end"/>
    </vehicle>

    <vehicle id="flow.87" depart="48.00" arrival="92.00">
        <route edges="beg beg2 middle end"/>
    </vehicle>

    <vehicle id="flow.88" depart="48.00" arrival="92.00">
        <route edges="beg beg2 middle end"/>
    </vehicle>

    <vehicle id="flow.89" depart="49.00" arrival="93.00">
        <route edges="beg beg2 middle end"/>
    </vehicle>

    <vehicle id="flow.90" depart="50.00" arrival="94.00">
        <route edges="beg beg2 middle end"/>
    </vehicle>

    <vehicle id="flow.91" depart="50.00" arrival="94.00">
        <route edges="beg beg2 middle end"/>
    </vehicle>

    <vehicle id="flow.92" depart="51.00" arrival="95.00">
        <route edges="beg beg2 middle end"/>
    </vehicle>

    <vehicle id="flow.93" depart="51.00" arrival="96.00">
        <route edges="beg beg2 middle end"/>
    </vehicle>

    <vehicle id="flow.94" depart="52.00" arrival="96.00">
        <route edges="beg beg2 middle end"/>
    </vehicle>

    <vehicle id="flow.95" depart="52.00" arrival="97.00">
        <route edges="beg beg2 middle end"/>
    </vehicle>

    <vehicle id="flow.96" depart="53.00" arrival="98.00">
        <route edges="beg beg2 middle end"/>
    </vehicle>

    <vehicle id="flow.97" depart="53.00" arrival="98.00">
        <route edges="beg beg2 middle end"/>
    </vehicle>

    <vehicle id="flow.98" depart="54.00" arrival="99.00">
        <route edges="beg beg2 middle end"/>
    </vehicle>

    <vehicle id="flow.99" depart="55.00" arrival="100.00">
        <route edges="beg beg2 middle end"/>
    </vehicle>

    <vehicle id="flow.100" depart="55.00" arrival="100.00">
        <route edges="beg beg2 middle end"/>
    </vehicle>

    <vehicle id="flow.101" depart="56.00" arrival="101.00">
        <route edges="beg beg2 middle end"/>
    </vehicle>

    <vehicle id="flow.102" depart="56.00" arrival="102.00">
        <route edges="beg beg2 middle end"/>
    </vehicle>

    <vehicle id="flow.103" depart="57.00" arrival="102.00">
        <route edges="beg beg2 middle end"/>
    </vehicle>

    <vehicle id="flow.104" depart="57.00" arrival="103.00">
        <route edges="beg beg2 middle end"/>
    </vehicle>

    <vehicle id="flow.105" depart="58.00" arrival="104.00">
        <route edges="beg beg2 middle end"/>
    </vehicle>

    <vehicle id="flow.106" depart="58.00" arrival="104.00">
        <route edges="beg beg2 middle end"/>
    </vehicle>

    <vehicle id="flow.107" depart="59.00" arrival="105.00">
        <route edges="beg beg2 middle end"/>
    </vehicle>

    <vehicle id="flow.108" depart="60.00" arrival="106.00">
        <route edges="beg beg2 middle end"/>
    </vehicle>

    <vehicle id="flow.109" depart="60.00" arrival="106.00">
        <route edges="beg beg2 middle end"/>
    </vehicle>

    <vehicle id="flow.110" depart="61.00" arrival="107.00">
        <route edges="beg beg2 middle end"/>
    </vehicle>

    <vehicle id="flow.111" depart="61.00" arrival="108.00">
        <route edges="beg beg2 middle end"/>
    </vehicle>

    <vehicle id="flow.112" depart="62.00" arrival="108.00">
        <route edges="beg beg2 middle end"/>
    </vehicle>

    <vehicle id="flow.113" depart="62.00" arrival="109.00">
        <route edges="beg beg2 middle end"/>
    </vehicle>

    <vehicle id="flow.114" depart="63.00" arrival="110.00">
        <route edges="beg beg2 middle end"/>
    </vehicle>

    <vehicle id="flow.115" depart="63.00" arrival="110.00">
        <route edges="beg beg2 middle end"/>
    </vehicle>

    <vehicle id="flow.116" depart="64.00" arrival="111.00">
        <route edges="beg beg2 middle end"/>
    </vehicle>

    <vehicle id="flow.117" depart="65.00" arrival="112.00">
        <route edges="beg beg2 middle end"/>
    </vehicle>

    <vehicle id="flow.118" depart="65.00" arrival="112.00">
        <route edges="beg beg2 middle end"/>
    </vehicle>

    <vehicle id="flow.119" depart="66.00" arrival="113.00">
        <route edges="beg beg2 middle end"/>
    </vehicle>

    <vehicle id="flow.120" depart="66.00" arrival="114.00">
        <route edges="beg beg2 middle end"/>
    </vehicle>

    <vehicle id="flow.121" depart="67.00" arrival="114.00">
        <route edges="beg beg2 middle end"/>
    </vehicle>

    <vehicle id="flow.122" depart="67.00" arrival="115.00">
        <route edges="beg beg2 middle end"/>
    </vehicle>

    <vehicle id="flow.123" depart="68.00" arrival="116.00">
        <route edges="beg beg2 middle end"/>
    </vehicle>

    <vehicle id="flow.124" depart="68.00" arrival="116.00">
        <route edges="beg beg2 middle end"/>
    </vehicle>

    <vehicle id="flow.125" depart="69.00" arrival="117.00">
        <route edges="beg beg2 middle end"/>
    </vehicle>

    <vehicle id="flow.126" depart="70.00" arrival="118.00">
        <route edges="beg beg2 middle end"/>
    </vehicle>

    <vehicle id="flow.127" depart="70.00" arrival="118.00">
        <route edges="beg beg2 middle end"/>
    </vehicle>

    <vehicle id="flow.128" depart="71.00" arrival="119.00">
        <route edges="beg beg2 middle end"/>
    </vehicle>

    <vehicle id="flow.129" depart="71.00" arrival="120.00">
        <route edges="beg beg2 middle end"/>
    </vehicle>

    <vehicle id="flow.130" depart="72.00" arrival="120.00">
        <route edges="beg beg2 middle end"/>
    </vehicle>

    <vehicle id="flow.131" depart="72.00" arrival="121.00">
        <route edges="beg beg2 middle end"/>
    </vehicle>

    <vehicle id="flow.132" depart="73.00" arrival="122.00">
        <route edges="beg beg2 middle end"/>
    </vehicle>

    <vehicle id="flow.133" depart="73.00" arrival="122.00">
        <route edges="beg beg2 middle end"/>
    </vehicle>

    <vehicle id="flow.134" depart="74.00" arrival="123.00">
        <route edges="beg beg2 middle end"/>
    </vehicle>

    <vehicle id="flow.135" depart="75.00" arrival="124.00">
        <route edges="beg beg2 middle end"/>
    </vehicle>

    <vehicle id="flow.136" depart="75.00" arrival="124.00">
        <route edges="beg beg2 middle end"/>
    </vehicle>

    <vehicle id="flow.137" depart="76.00" arrival="125.00">
        <route edges="beg beg2 middle end"/>
    </vehicle>

    <vehicle id="flow.138" depart="76.00" arrival="126.00">
        <route edges="beg beg2 middle end"/>
    </vehicle>

    <vehicle id="flow.139" depart="77.00" arrival="126.00">
        <route edges="beg beg2 middle end"/>
    </vehicle>

    <vehicle id="flow.140" depart="77.00" arrival="127.00">
        <route edges="beg beg2 middle end"/>
    </vehicle>

    <vehicle id="flow.141" depart="78.00" arrival="128.00">
        <route edges="beg beg2 middle end"/>
    </vehicle>

    <vehicle id="flow.142" depart="78.00" arrival="128.00">
        <route edges="beg beg2 middle end"/>
    </vehicle>

    <vehicle id="flow.143" depart="79.00" arrival="129.00">
        <route edges="beg beg2 middle end"/>
    </vehicle>

    <vehicle id="flow.144" depart="80.00" arrival="130.00">
        <route edges="beg beg2 middle end"/>
    </vehicle>

    <vehicle id="flow.145" depart="80.00" arrival="130.00">
        <route edges="beg beg2 middle end"/>
    </vehicle>

    <vehicle id="flow.146" depart="81.00" arrival="131.00">
        <route edges="beg beg2 middle end"/>
    </vehicle>

    <vehicle id="flow.147" depart="81.00" arrival="132.00">
        <route edges="beg beg2 middle end"/>
    </vehicle>

    <vehicle id="flow.148" depart="82.00" arrival="132.00">
        <route edges="beg beg2 middle end"/>
    </vehicle>

    <vehicle id="flow.149" depart="82.00" arrival="133.00">
        <route edges="beg beg2 middle end"/>
    </vehicle>

    <vehicle id="flow.150" depart="83.00" arrival="134.00">
        <route edges="beg beg2 middle end"/>
    </vehicle>

    <vehicle id="flow.151" depart="83.00" arrival="134.00">
        <route edges="beg beg2 middle end"/>
    </vehicle>

    <vehicle id="flow.152" depart="84.00" arrival="135.00">
        <route edges="beg beg2 middle end"/>
    </vehicle>

    <vehicle id="flow.153" depart="85.00" arrival="136.00">
        <route edges="beg beg2 middle end"/>
    </vehicle>

    <vehicle id="flow.154" depart="85.00" arrival="136.00">
        <route edges="beg beg2 middle end"/>
    </vehicle>

    <vehicle id="flow.155" depart="86.00" arrival="137.00">
        <route edges="beg beg2 middle end"/>
    </vehicle>

    <vehicle id="flow.156" depart="86.00" arrival="138.00">
        <route edges="beg beg2 middle end"/>
    </vehicle>

    <vehicle id="flow.157" depart="87.00" arrival="138.00">
        <route edges="beg beg2 middle end"/>
    </vehicle>

    <vehicle id="flow.158" depart="87.00" arrival="139.00">
        <route edges="beg beg2 middle end"/>
    </vehicle>

    <vehicle id="flow.159" depart="88.00" arrival="140.00">
        <route edges="beg beg2 middle end"/>
    </vehicle>

    <vehicle id="flow.160" depart="88.00" arrival="140.00">
        <route edges="beg beg2 middle end"/>
    </vehicle>

    <vehicle id="flow.161" depart="89.00" arrival="141.00">
        <route edges="beg beg2 middle end"/>
    </vehicle>

    <vehicle id="flow.162" depart="90.00" arrival="142.00">
        <route edges="beg beg2 middle end"/>
    </vehicle>

    <vehicle id="flow.163" depart="90.00" arrival="142.00">
        <route edges="beg beg2 middle end"/>
    </vehicle>

    <vehicle id="flow.164" depart="91.00" arrival="143.00">
        <route edges="beg beg2 middle end"/>
    </vehicle>

    <vehicle id="flow.165" depart="91.00" arrival="144.00">
        <route edges="beg beg2 middle end"/>
    </vehicle>

    <vehicle id="flow.166" depart="92.00" arrival="144.00">
        <route edges="beg beg2 middle end"/>
    </vehicle>

    <vehicle id="flow.167" depart="92.00" arrival="145.00">
        <route edges="beg beg2 middle end"/>
    </vehicle>

    <vehicle id="flow.168" depart="93.00" arrival="146.00">
        <route edges="beg beg2 middle end"/>
    </vehicle>

    <vehicle id="flow.169" depart="93.00" arrival="146.00">
        <route edges="beg beg2 middle end"/>
    </vehicle>

    <vehicle id="flow.170" depart="94.00" arrival="147.00">
        <route edges="beg beg2 middle end"/>
    </vehicle>

    <vehicle id="flow.171" depart="95.00" arrival="148.00">
        <route edges="beg beg2 middle end"/>
    </vehicle>

    <vehicle id="flow.172" depart="95.00" arrival="148.00">
        <route edges="beg beg2 middle end"/>
    </vehicle>

    <vehicle id="flow.173" depart="96.00" arrival="149.00">
        <route edges="beg beg2 middle end"/>
    </vehicle>

    <vehicle id="flow.174" depart="96.00" arrival="149.00">
        <route edges="beg beg2 middle end"/>
    </vehicle>

    <vehicle id="flow.175" depart="97.00" arrival="150.00">
        <route edges="beg beg2 middle end"/>
    </vehicle>

    <vehicle id="flow.176" depart="97.00" arrival="150.00">
        <route edges="beg beg2 middle end"/>
    </vehicle>

    <vehicle id="flow.177" depart="98.00" arrival="151.00">
        <route edges="beg beg2 middle end"/>
    </vehicle>

    <vehicle id="flow.178" depart="98.00" arrival="151.00">
        <route edges="beg beg2 middle end"/>
    </vehicle>

    <vehicle id="flow.179" depart="99.00" arrival="151.00">
        <route edges="beg beg2 middle end"/>
    </vehicle>

    <vehicle id="flow.180" depart="100.00" arrival="152.00">
        <route edges="beg beg2 middle end"/>
    </vehicle>

    <vehicle id="flow.181" depart="100.00" arrival="152.00">
        <route edges="beg beg2 middle end"/>
    </vehicle>

    <vehicle id="flow.182" depart="101.00" arrival="153.00">
        <route edges="beg beg2 middle end"/>
    </vehicle>

    <vehicle id="flow.183" depart="101.00" arrival="154.00">
        <route edges="beg beg2 middle end"/>
    </vehicle>

    <vehicle id="flow.184" depart="102.00" arrival="154.00">
        <route edges="beg beg2 middle end"/>
    </vehicle>

    <vehicle id="flow.185" depart="102.00" arrival="155.00">
        <route edges="beg beg2 middle end"/>
    </vehicle>

    <vehicle id="flow.186" depart="103.00" arrival="156.00">
        <route edges="beg beg2 middle end"/>
    </vehicle>

    <vehicle id="flow.187" depart="103.00" arrival="156.00">
        <route edges="beg beg2 middle end"/>
    </vehicle>

    <vehicle id="flow.188" depart="104.00" arrival="157.00">
        <route edges="beg beg2 middle end"/>
    </vehicle>

    <vehicle id="flow.189" depart="105.00" arrival="158.00">
        <route edges="beg beg2 middle end"/>
    </vehicle>

    <vehicle id="flow.190" depart="105.00" arrival="158.00">
        <route edges="beg beg2 middle end"/>
    </vehicle>

    <vehicle id="flow.191" depart="106.00" arrival="159.00">
        <route edges="beg beg2 middle end"/>
    </vehicle>

    <vehicle id="flow.192" depart="106.00" arrival="160.00">
        <route edges="beg beg2 middle end"/>
    </vehicle>

    <vehicle id="flow.193" depart="107.00" arrival="160.00">
        <route edges="beg beg2 middle end"/>
    </vehicle>

    <vehicle id="flow.194" depart="107.00" arrival="161.00">
        <route edges="beg beg2 middle end"/>
    </vehicle>

    <vehicle id="flow.195" depart="108.00" arrival="162.00">
        <route edges="beg beg2 middle end"/>
    </vehicle>

    <vehicle id="flow.196" depart="108.00" arrival="162.00">
        <route edges="beg beg2 middle end"/>
    </vehicle>

    <vehicle id="flow.197" depart="109.00" arrival="163.00">
        <route edges="beg beg2 middle end"/>
    </vehicle>

    <vehicle id="flow.198" depart="110.00" arrival="164.00">
        <route edges="beg beg2 middle end"/>
    </vehicle>

    <vehicle id="flow.199" depart="110.00" arrival="164.00">
        <route edges="beg beg2 middle end"/>
    </vehicle>

    <vehicle id="flow.200" depart="111.00" arrival="165.00">
        <route edges="beg beg2 middle end"/>
    </vehicle>

    <vehicle id="flow.201" depart="111.00" arrival="166.00">
        <route edges="beg beg2 middle end"/>
    </vehicle>

    <vehicle id="flow.202" depart="112.00" arrival="166.00">
        <route edges="beg beg2 middle end"/>
    </vehicle>

    <vehicle id="flow.203" depart="112.00" arrival="167.00">
        <route edges="beg beg2 middle end"/>
    </vehicle>

    <vehicle id="flow.204" depart="113.00" arrival="168.00">
        <route edges="beg beg2 middle end"/>
    </vehicle>

    <vehicle id="flow.205" depart="113.00" arrival="168.00">
        <route edges="beg beg2 middle end"/>
    </vehicle>

    <vehicle id="flow.206" depart="114.00" arrival="169.00">
        <route edges="beg beg2 middle end"/>
    </vehicle>

    <vehicle id="flow.207" depart="115.00" arrival="170.00">
        <route edges="beg beg2 middle end"/>
    </vehicle>

    <vehicle id="flow.208" depart="115.00" arrival="170.00">
        <route edges="beg beg2 middle end"/>
    </vehicle>

    <vehicle id="flow.209" depart="116.00" arrival="171.00">
        <route edges="beg beg2 middle end"/>
    </vehicle>

    <vehicle id="flow.210" depart="116.00" arrival="172.00">
        <route edges="beg beg2 middle end"/>
    </vehicle>

    <vehicle id="flow.211" depart="117.00" arrival="172.00">
        <route edges="beg beg2 middle end"/>
    </vehicle>

    <vehicle id="flow.212" depart="117.00" arrival="173.00">
        <route edges="beg beg2 middle end"/>
    </vehicle>

    <vehicle id="flow.213" depart="118.00" arrival="174.00">
        <route edges="beg beg2 middle end"/>
    </vehicle>

    <vehicle id="flow.214" depart="118.00" arrival="174.00">
        <route edges="beg beg2 middle end"/>
    </vehicle>

    <vehicle id="flow.215" depart="119.00" arrival="175.00">
        <route edges="beg beg2 middle end"/>
    </vehicle>

    <vehicle id="flow.216" depart="120.00" arrival="175.00">
        <route edges="beg beg2 middle end"/>
    </vehicle>

    <vehicle id="flow.217" depart="120.00" arrival="176.00">
        <route edges="beg beg2 middle end"/>
    </vehicle>

    <vehicle id="flow.218" depart="121.00" arrival="176.00">
        <route edges="beg beg2 middle end"/>
    </vehicle>

    <vehicle id="flow.219" depart="121.00" arrival="177.00">
        <route edges="beg beg2 middle end"/>
    </vehicle>

    <vehicle id="flow.220" depart="122.00" arrival="177.00">
        <route edges="beg beg2 middle end"/>
    </vehicle>

    <vehicle id="flow.221" depart="122.00" arrival="177.00">
        <route edges="beg beg2 middle end"/>
    </vehicle>

    <vehicle id="flow.222" depart="123.00" arrival="178.00">
        <route edges="beg beg2 middle end"/>
    </vehicle>

    <vehicle id="flow.223" depart="123.00" arrival="178.00">
        <route edges="beg beg2 middle end"/>
    </vehicle>

    <vehicle id="flow.224" depart="124.00" arrival="179.00">
        <route edges="beg beg2 middle end"/>
    </vehicle>

    <vehicle id="flow.225" depart="125.00" arrival="179.00">
        <route edges="beg beg2 middle end"/>
    </vehicle>

    <vehicle id="flow.226" depart="125.00" arrival="180.00">
        <route edges="beg beg2 middle end"/>
    </vehicle>

    <vehicle id="flow.227" depart="126.00" arrival="181.00">
        <route edges="beg beg2 middle end"/>
    </vehicle>

    <vehicle id="flow.228" depart="126.00" arrival="181.00">
        <route edges="beg beg2 middle end"/>
    </vehicle>

    <vehicle id="flow.229" depart="127.00" arrival="182.00">
        <route edges="beg beg2 middle end"/>
    </vehicle>

    <vehicle id="flow.230" depart="127.00" arrival="183.00">
        <route edges="beg beg2 middle end"/>
    </vehicle>

    <vehicle id="flow.231" depart="128.00" arrival="183.00">
        <route edges="beg beg2 middle end"/>
    </vehicle>

    <vehicle id="flow.232" depart="128.00" arrival="184.00">
        <route edges="beg beg2 middle end"/>
    </vehicle>

    <vehicle id="flow.233" depart="129.00" arrival="185.00">
        <route edges="beg beg2 middle end"/>
    </vehicle>

    <vehicle id="flow.234" depart="130.00" arrival="185.00">
        <route edges="beg beg2 middle end"/>
    </vehicle>

    <vehicle id="flow.235" depart="130.00" arrival="186.00">
        <route edges="beg beg2 middle end"/>
    </vehicle>

    <vehicle id="flow.236" depart="131.00" arrival="187.00">
        <route edges="beg beg2 middle end"/>
    </vehicle>

    <vehicle id="flow.237" depart="131.00" arrival="187.00">
        <route edges="beg beg2 middle end"/>
    </vehicle>
