<?xml version="1.0" encoding="UTF-8"?>

<!-- generated on 2024-03-07 22:27:43 by Eclipse SUMO sumo Version v1_19_0+1200-d6b735e953a
This data file and the accompanying materials
are made available under the terms of the Eclipse Public License v2.0
which accompanies this distribution, and is available at
http://www.eclipse.org/legal/epl-v20.html
This file may also be made available under the following Secondary
Licenses when the conditions for such availability set forth in the Eclipse
Public License 2.0 are satisfied: GNU General Public License, version 2
or later which is available at
https://www.gnu.org/licenses/old-licenses/gpl-2.0-standalone.html
SPDX-License-Identifier: EPL-2.0 OR GPL-2.0-or-later
<configuration xmlns:xsi="http://www.w3.org/2001/XMLSchema-instance" xsi:noNamespaceSchemaLocation="http://sumo.dlr.de/xsd/sumoConfiguration.xsd">

    <input>
        <net-file value="net.net.xml"/>
        <route-files value="input_routes.rou.xml"/>
        <additional-files value="input_additional.add.xml"/>
    </input>

    <output>
        <write-license value="true"/>
        <fcd-output value="fcd.xml"/>
        <fcd-output.attributes value="speed,arrivalDelay"/>
        <stop-output value="stopinfos.xml"/>
    </output>

    <processing>
        <default.speeddev value="0"/>
    </processing>

    <report>
        <xml-validation value="never"/>
        <duration-log.disable value="true"/>
        <no-step-log value="true"/>
    </report>

    <mesoscopic>
        <mesosim value="true"/>
    </mesoscopic>

</configuration>
-->

<fcd-export xmlns:xsi="http://www.w3.org/2001/XMLSchema-instance" xsi:noNamespaceSchemaLocation="http://sumo.dlr.de/xsd/fcd_file.xsd">
    <timestep time="0.00">
        <vehicle id="t_0" speed="33.00" arrivalDelay="0.00"/>
    </timestep>
    <timestep time="1.00">
        <vehicle id="t_0" speed="33.00" arrivalDelay="0.00"/>
    </timestep>
    <timestep time="2.00">
        <vehicle id="t_0" speed="33.00" arrivalDelay="0.00"/>
    </timestep>
    <timestep time="3.00">
        <vehicle id="t_0" speed="33.00" arrivalDelay="0.00"/>
    </timestep>
    <timestep time="4.00">
        <vehicle id="t_0" speed="33.00" arrivalDelay="0.00"/>
    </timestep>
    <timestep time="5.00">
        <vehicle id="t_0" speed="33.00" arrivalDelay="0.00"/>
    </timestep>
    <timestep time="6.00">
        <vehicle id="t_0" speed="33.00" arrivalDelay="0.00"/>
    </timestep>
    <timestep time="7.00">
        <vehicle id="t_0" speed="33.00" arrivalDelay="0.00"/>
    </timestep>
    <timestep time="8.00">
        <vehicle id="t_0" speed="33.00" arrivalDelay="0.00"/>
    </timestep>
    <timestep time="9.00">
        <vehicle id="t_0" speed="33.00" arrivalDelay="0.00"/>
    </timestep>
    <timestep time="10.00">
        <vehicle id="t_0" speed="33.00" arrivalDelay="0.00"/>
    </timestep>
    <timestep time="11.00">
        <vehicle id="t_0" speed="0.00" arrivalDelay="0.00"/>
    </timestep>
    <timestep time="12.00">
        <vehicle id="t_0" speed="0.00" arrivalDelay="0.00"/>
    </timestep>
    <timestep time="13.00">
        <vehicle id="t_0" speed="0.00" arrivalDelay="0.00"/>
    </timestep>
    <timestep time="14.00">
        <vehicle id="t_0" speed="0.00" arrivalDelay="0.00"/>
    </timestep>
    <timestep time="15.00">
        <vehicle id="t_0" speed="0.00" arrivalDelay="0.00"/>
    </timestep>
    <timestep time="16.00">
        <vehicle id="t_0" speed="0.00" arrivalDelay="0.00"/>
    </timestep>
    <timestep time="17.00">
        <vehicle id="t_0" speed="0.00" arrivalDelay="0.00"/>
    </timestep>
    <timestep time="18.00">
        <vehicle id="t_0" speed="0.00" arrivalDelay="0.00"/>
    </timestep>
    <timestep time="19.00">
        <vehicle id="t_0" speed="0.00" arrivalDelay="0.00"/>
    </timestep>
    <timestep time="20.00">
        <vehicle id="t_0" speed="0.00" arrivalDelay="0.00"/>
    </timestep>
    <timestep time="21.00">
        <vehicle id="t_0" speed="0.00" arrivalDelay="0.00"/>
    </timestep>
    <timestep time="22.00">
        <vehicle id="t_0" speed="0.00" arrivalDelay="0.00"/>
    </timestep>
    <timestep time="23.00">
        <vehicle id="t_0" speed="0.00" arrivalDelay="0.00"/>
    </timestep>
    <timestep time="24.00">
        <vehicle id="t_0" speed="0.00" arrivalDelay="0.00"/>
    </timestep>
    <timestep time="25.00">
        <vehicle id="t_0" speed="0.00" arrivalDelay="0.00"/>
    </timestep>
    <timestep time="26.00">
        <vehicle id="t_0" speed="0.00" arrivalDelay="0.00"/>
    </timestep>
    <timestep time="27.00">
        <vehicle id="t_0" speed="0.00" arrivalDelay="0.00"/>
    </timestep>
    <timestep time="28.00">
        <vehicle id="t_0" speed="0.00" arrivalDelay="0.00"/>
    </timestep>
    <timestep time="29.00">
        <vehicle id="t_0" speed="0.00" arrivalDelay="0.00"/>
    </timestep>
    <timestep time="30.00">
        <vehicle id="t_0" speed="0.00" arrivalDelay="0.00"/>
    </timestep>
    <timestep time="31.00">
        <vehicle id="t_0" speed="0.00" arrivalDelay="0.00"/>
    </timestep>
    <timestep time="32.00">
        <vehicle id="t_0" speed="0.00" arrivalDelay="0.00"/>
    </timestep>
    <timestep time="33.00">
        <vehicle id="t_0" speed="0.00" arrivalDelay="0.00"/>
    </timestep>
    <timestep time="34.00">
        <vehicle id="t_0" speed="0.00" arrivalDelay="0.00"/>
    </timestep>
    <timestep time="35.00">
        <vehicle id="t_0" speed="0.00" arrivalDelay="0.00"/>
    </timestep>
    <timestep time="36.00">
        <vehicle id="t_0" speed="0.00" arrivalDelay="0.00"/>
    </timestep>
    <timestep time="37.00">
        <vehicle id="t_0" speed="0.00" arrivalDelay="0.00"/>
    </timestep>
    <timestep time="38.00">
        <vehicle id="t_0" speed="0.00" arrivalDelay="0.00"/>
    </timestep>
    <timestep time="39.00">
        <vehicle id="t_0" speed="0.00" arrivalDelay="0.00"/>
    </timestep>
    <timestep time="40.00">
        <vehicle id="t_0" speed="0.00" arrivalDelay="0.00"/>
    </timestep>
    <timestep time="41.00">
        <vehicle id="t_0" speed="0.00" arrivalDelay="0.00"/>
    </timestep>
    <timestep time="42.00">
        <vehicle id="t_0" speed="0.00" arrivalDelay="0.00"/>
    </timestep>
    <timestep time="43.00">
        <vehicle id="t_0" speed="0.00" arrivalDelay="0.00"/>
    </timestep>
    <timestep time="44.00">
        <vehicle id="t_0" speed="0.00" arrivalDelay="0.00"/>
    </timestep>
    <timestep time="45.00">
        <vehicle id="t_0" speed="0.00" arrivalDelay="0.00"/>
    </timestep>
    <timestep time="46.00">
        <vehicle id="t_0" speed="0.00" arrivalDelay="0.00"/>
    </timestep>
    <timestep time="47.00">
        <vehicle id="t_0" speed="0.00" arrivalDelay="0.00"/>
    </timestep>
    <timestep time="48.00">
        <vehicle id="t_0" speed="0.00" arrivalDelay="0.00"/>
    </timestep>
    <timestep time="49.00">
        <vehicle id="t_0" speed="0.00" arrivalDelay="0.00"/>
    </timestep>
    <timestep time="50.00">
        <vehicle id="t_0" speed="0.00" arrivalDelay="0.00"/>
    </timestep>
    <timestep time="51.00">
        <vehicle id="t_0" speed="0.00" arrivalDelay="0.00"/>
    </timestep>
    <timestep time="52.00">
        <vehicle id="t_0" speed="0.00" arrivalDelay="0.00"/>
    </timestep>
    <timestep time="53.00">
        <vehicle id="t_0" speed="0.00" arrivalDelay="0.00"/>
    </timestep>
    <timestep time="54.00">
        <vehicle id="t_0" speed="0.00" arrivalDelay="0.00"/>
    </timestep>
    <timestep time="55.00">
        <vehicle id="t_0" speed="0.00" arrivalDelay="0.00"/>
    </timestep>
    <timestep time="56.00">
        <vehicle id="t_0" speed="0.00" arrivalDelay="0.00"/>
    </timestep>
    <timestep time="57.00">
        <vehicle id="t_0" speed="0.00" arrivalDelay="0.00"/>
    </timestep>
    <timestep time="58.00">
        <vehicle id="t_0" speed="0.00" arrivalDelay="0.00"/>
    </timestep>
    <timestep time="59.00">
        <vehicle id="t_0" speed="0.00" arrivalDelay="0.00"/>
    </timestep>
    <timestep time="60.00">
        <vehicle id="t_0" speed="0.00" arrivalDelay="0.00"/>
    </timestep>
    <timestep time="61.00">
        <vehicle id="t_0" speed="0.00" arrivalDelay="0.00"/>
    </timestep>
    <timestep time="62.00">
        <vehicle id="t_0" speed="0.00" arrivalDelay="0.00"/>
    </timestep>
    <timestep time="63.00">
        <vehicle id="t_0" speed="0.00" arrivalDelay="0.00"/>
    </timestep>
    <timestep time="64.00">
        <vehicle id="t_0" speed="0.00" arrivalDelay="0.00"/>
    </timestep>
    <timestep time="65.00">
        <vehicle id="t_0" speed="0.00" arrivalDelay="0.00"/>
    </timestep>
    <timestep time="66.00">
        <vehicle id="t_0" speed="0.00" arrivalDelay="0.00"/>
    </timestep>
    <timestep time="67.00">
        <vehicle id="t_0" speed="0.00" arrivalDelay="0.00"/>
    </timestep>
    <timestep time="68.00">
        <vehicle id="t_0" speed="0.00" arrivalDelay="0.00"/>
    </timestep>
    <timestep time="69.00">
        <vehicle id="t_0" speed="0.00" arrivalDelay="0.00"/>
    </timestep>
    <timestep time="70.00">
        <vehicle id="t_0" speed="0.00" arrivalDelay="0.00"/>
    </timestep>
    <timestep time="71.00">
        <vehicle id="t_0" speed="0.00" arrivalDelay="0.00"/>
    </timestep>
    <timestep time="72.00">
        <vehicle id="t_0" speed="0.00" arrivalDelay="0.00"/>
    </timestep>
    <timestep time="73.00">
        <vehicle id="t_0" speed="0.00" arrivalDelay="0.00"/>
    </timestep>
    <timestep time="74.00">
        <vehicle id="t_0" speed="0.00" arrivalDelay="0.00"/>
    </timestep>
    <timestep time="75.00">
        <vehicle id="t_0" speed="0.00" arrivalDelay="0.00"/>
    </timestep>
    <timestep time="76.00">
        <vehicle id="t_0" speed="0.00" arrivalDelay="0.00"/>
    </timestep>
    <timestep time="77.00">
        <vehicle id="t_0" speed="0.00" arrivalDelay="0.00"/>
    </timestep>
    <timestep time="78.00">
        <vehicle id="t_0" speed="0.00" arrivalDelay="0.00"/>
    </timestep>
    <timestep time="79.00">
        <vehicle id="t_0" speed="0.00" arrivalDelay="0.00"/>
    </timestep>
    <timestep time="80.00">
        <vehicle id="t_0" speed="0.00" arrivalDelay="0.00"/>
    </timestep>
    <timestep time="81.00">
        <vehicle id="t_0" speed="0.00" arrivalDelay="0.00"/>
    </timestep>
    <timestep time="82.00">
        <vehicle id="t_0" speed="0.00" arrivalDelay="0.00"/>
    </timestep>
    <timestep time="83.00">
        <vehicle id="t_0" speed="0.00" arrivalDelay="0.00"/>
    </timestep>
    <timestep time="84.00">
        <vehicle id="t_0" speed="0.00" arrivalDelay="0.00"/>
    </timestep>
    <timestep time="85.00">
        <vehicle id="t_0" speed="0.00" arrivalDelay="0.00"/>
    </timestep>
    <timestep time="86.00">
        <vehicle id="t_0" speed="0.00" arrivalDelay="0.00"/>
    </timestep>
    <timestep time="87.00">
        <vehicle id="t_0" speed="0.00" arrivalDelay="0.00"/>
    </timestep>
    <timestep time="88.00">
        <vehicle id="t_0" speed="0.00" arrivalDelay="0.00"/>
    </timestep>
    <timestep time="89.00">
        <vehicle id="t_0" speed="0.00" arrivalDelay="0.00"/>
    </timestep>
    <timestep time="90.00">
        <vehicle id="t_0" speed="0.00" arrivalDelay="0.00"/>
    </timestep>
    <timestep time="91.00">
        <vehicle id="t_0" speed="0.00" arrivalDelay="0.00"/>
    </timestep>
    <timestep time="92.00">
        <vehicle id="t_0" speed="0.00" arrivalDelay="0.00"/>
    </timestep>
    <timestep time="93.00">
        <vehicle id="t_0" speed="0.00" arrivalDelay="0.00"/>
    </timestep>
    <timestep time="94.00">
        <vehicle id="t_0" speed="0.00" arrivalDelay="0.00"/>
    </timestep>
    <timestep time="95.00">
        <vehicle id="t_0" speed="0.00" arrivalDelay="0.00"/>
    </timestep>
    <timestep time="96.00">
        <vehicle id="t_0" speed="0.00" arrivalDelay="0.00"/>
    </timestep>
    <timestep time="97.00">
        <vehicle id="t_0" speed="0.00" arrivalDelay="0.00"/>
    </timestep>
    <timestep time="98.00">
        <vehicle id="t_0" speed="0.00" arrivalDelay="0.00"/>
    </timestep>
    <timestep time="99.00">
        <vehicle id="t_0" speed="0.00" arrivalDelay="0.00"/>
    </timestep>
    <timestep time="100.00">
        <vehicle id="t_0" speed="0.00" arrivalDelay="0.00"/>
    </timestep>
    <timestep time="101.00">
        <vehicle id="t_0" speed="0.00" arrivalDelay="0.00"/>
    </timestep>
    <timestep time="102.00">
        <vehicle id="t_0" speed="0.00" arrivalDelay="0.00"/>
    </timestep>
    <timestep time="103.00">
        <vehicle id="t_0" speed="0.00" arrivalDelay="0.00"/>
    </timestep>
    <timestep time="104.00">
        <vehicle id="t_0" speed="0.00" arrivalDelay="0.00"/>
    </timestep>
    <timestep time="105.00">
        <vehicle id="t_0" speed="0.00" arrivalDelay="0.00"/>
    </timestep>
    <timestep time="106.00">
        <vehicle id="t_0" speed="0.00" arrivalDelay="0.00"/>
    </timestep>
    <timestep time="107.00">
        <vehicle id="t_0" speed="0.00" arrivalDelay="0.00"/>
    </timestep>
    <timestep time="108.00">
        <vehicle id="t_0" speed="0.00" arrivalDelay="0.00"/>
    </timestep>
    <timestep time="109.00">
        <vehicle id="t_0" speed="0.00" arrivalDelay="0.00"/>
    </timestep>
    <timestep time="110.00">
        <vehicle id="t_0" speed="0.00" arrivalDelay="0.00"/>
    </timestep>
    <timestep time="111.00">
        <vehicle id="t_0" speed="0.00" arrivalDelay="0.00"/>
    </timestep>
    <timestep time="112.00">
        <vehicle id="t_0" speed="0.00" arrivalDelay="0.00"/>
    </timestep>
    <timestep time="113.00">
        <vehicle id="t_0" speed="0.00" arrivalDelay="0.00"/>
    </timestep>
    <timestep time="114.00">
        <vehicle id="t_0" speed="0.00" arrivalDelay="0.00"/>
    </timestep>
    <timestep time="115.00">
        <vehicle id="t_0" speed="0.00" arrivalDelay="0.00"/>
    </timestep>
    <timestep time="116.00">
        <vehicle id="t_0" speed="0.00" arrivalDelay="0.00"/>
    </timestep>
    <timestep time="117.00">
        <vehicle id="t_0" speed="0.00" arrivalDelay="0.00"/>
    </timestep>
    <timestep time="118.00">
        <vehicle id="t_0" speed="0.00" arrivalDelay="0.00"/>
    </timestep>
    <timestep time="119.00">
        <vehicle id="t_0" speed="0.00" arrivalDelay="0.00"/>
    </timestep>
    <timestep time="120.00">
        <vehicle id="t_0" speed="0.00" arrivalDelay="0.00"/>
    </timestep>
    <timestep time="121.00">
        <vehicle id="t_0" speed="0.00" arrivalDelay="0.00"/>
    </timestep>
    <timestep time="122.00">
        <vehicle id="t_0" speed="0.00" arrivalDelay="0.00"/>
    </timestep>
    <timestep time="123.00">
        <vehicle id="t_0" speed="33.00" arrivalDelay="0.00"/>
    </timestep>
    <timestep time="124.00">
        <vehicle id="t_0" speed="33.00" arrivalDelay="0.00"/>
    </timestep>
    <timestep time="125.00">
        <vehicle id="t_0" speed="33.00" arrivalDelay="0.00"/>
    </timestep>
    <timestep time="126.00">
        <vehicle id="t_0" speed="33.00" arrivalDelay="0.00"/>
    </timestep>
    <timestep time="127.00">
        <vehicle id="t_0" speed="33.00" arrivalDelay="0.00"/>
    </timestep>
    <timestep time="128.00">
        <vehicle id="t_0" speed="33.00" arrivalDelay="0.00"/>
    </timestep>
    <timestep time="129.00">
        <vehicle id="t_0" speed="33.00" arrivalDelay="0.00"/>
    </timestep>
    <timestep time="130.00">
        <vehicle id="t_0" speed="33.00" arrivalDelay="0.00"/>
    </timestep>
    <timestep time="131.00">
        <vehicle id="t_0" speed="33.00" arrivalDelay="0.00"/>
    </timestep>
    <timestep time="132.00">
        <vehicle id="t_0" speed="33.00" arrivalDelay="0.00"/>
    </timestep>
    <timestep time="133.00">
        <vehicle id="t_0" speed="33.00" arrivalDelay="0.00"/>
    </timestep>
    <timestep time="134.00">
        <vehicle id="t_0" speed="33.00" arrivalDelay="0.00"/>
    </timestep>
    <timestep time="135.00">
        <vehicle id="t_0" speed="33.00" arrivalDelay="0.00"/>
    </timestep>
    <timestep time="136.00">
        <vehicle id="t_0" speed="33.00" arrivalDelay="0.00"/>
    </timestep>
    <timestep time="137.00">
        <vehicle id="t_0" speed="33.00" arrivalDelay="0.00"/>
    </timestep>
    <timestep time="138.00">
        <vehicle id="t_0" speed="33.00" arrivalDelay="0.00"/>
    </timestep>
    <timestep time="139.00">
        <vehicle id="t_0" speed="33.00" arrivalDelay="0.00"/>
    </timestep>
    <timestep time="140.00">
        <vehicle id="t_0" speed="33.00" arrivalDelay="0.00"/>
    </timestep>
    <timestep time="141.00">
        <vehicle id="t_0" speed="33.00" arrivalDelay="0.00"/>
    </timestep>
    <timestep time="142.00">
        <vehicle id="t_0" speed="33.00" arrivalDelay="0.00"/>
    </timestep>
    <timestep time="143.00">
        <vehicle id="t_0" speed="33.00" arrivalDelay="0.00"/>
    </timestep>
    <timestep time="144.00">
        <vehicle id="t_0" speed="33.00" arrivalDelay="0.00"/>
    </timestep>
    <timestep time="145.00">
        <vehicle id="t_0" speed="33.00" arrivalDelay="0.00"/>
    </timestep>
    <timestep time="146.00">
        <vehicle id="t_0" speed="33.00" arrivalDelay="0.00"/>
    </timestep>
    <timestep time="147.00">
        <vehicle id="t_0" speed="33.00" arrivalDelay="0.00"/>
    </timestep>
    <timestep time="148.00">
        <vehicle id="t_0" speed="33.00" arrivalDelay="0.00"/>
    </timestep>
    <timestep time="149.00">
        <vehicle id="t_0" speed="33.00" arrivalDelay="0.00"/>
    </timestep>
    <timestep time="150.00">
        <vehicle id="t_0" speed="33.00" arrivalDelay="0.00"/>
    </timestep>
    <timestep time="151.00">
        <vehicle id="t_0" speed="33.00" arrivalDelay="0.00"/>
    </timestep>
    <timestep time="152.00">
        <vehicle id="t_0" speed="33.00" arrivalDelay="0.00"/>
    </timestep>
    <timestep time="153.00">
        <vehicle id="t_0" speed="33.00" arrivalDelay="0.00"/>
    </timestep>
    <timestep time="154.00">
        <vehicle id="t_0" speed="33.00" arrivalDelay="0.00"/>
    </timestep>
    <timestep time="155.00">
        <vehicle id="t_0" speed="33.00" arrivalDelay="0.00"/>
    </timestep>
    <timestep time="156.00">
        <vehicle id="t_0" speed="33.00" arrivalDelay="0.00"/>
    </timestep>
    <timestep time="157.00">
        <vehicle id="t_0" speed="33.00" arrivalDelay="0.00"/>
    </timestep>
    <timestep time="158.00">
        <vehicle id="t_0" speed="33.00" arrivalDelay="0.00"/>
    </timestep>
    <timestep time="159.00">
        <vehicle id="t_0" speed="33.00" arrivalDelay="0.00"/>
    </timestep>
    <timestep time="160.00">
        <vehicle id="t_0" speed="33.00" arrivalDelay="0.00"/>
    </timestep>
    <timestep time="161.00">
        <vehicle id="t_0" speed="33.00" arrivalDelay="0.00"/>
    </timestep>
    <timestep time="162.00">
        <vehicle id="t_0" speed="33.00" arrivalDelay="0.00"/>
    </timestep>
    <timestep time="163.00">
        <vehicle id="t_0" speed="33.00" arrivalDelay="0.00"/>
    </timestep>
    <timestep time="164.00">
        <vehicle id="t_0" speed="33.00" arrivalDelay="0.00"/>
    </timestep>
    <timestep time="165.00">
        <vehicle id="t_0" speed="33.00" arrivalDelay="0.00"/>
    </timestep>
    <timestep time="166.00">
        <vehicle id="t_0" speed="33.00" arrivalDelay="0.00"/>
    </timestep>
    <timestep time="167.00">
        <vehicle id="t_0" speed="33.00" arrivalDelay="0.00"/>
    </timestep>
    <timestep time="168.00">
        <vehicle id="t_0" speed="33.00" arrivalDelay="0.00"/>
    </timestep>
    <timestep time="169.00">
        <vehicle id="t_0" speed="33.00" arrivalDelay="0.00"/>
    </timestep>
    <timestep time="170.00">
        <vehicle id="t_0" speed="33.00" arrivalDelay="0.00"/>
    </timestep>
    <timestep time="171.00">
        <vehicle id="t_0" speed="33.00" arrivalDelay="0.00"/>
    </timestep>
    <timestep time="172.00">
        <vehicle id="t_0" speed="33.00" arrivalDelay="0.00"/>
    </timestep>
    <timestep time="173.00">
        <vehicle id="t_0" speed="33.00" arrivalDelay="0.00"/>
    </timestep>
    <timestep time="174.00">
        <vehicle id="t_0" speed="33.00" arrivalDelay="0.00"/>
    </timestep>
    <timestep time="175.00">
        <vehicle id="t_0" speed="33.00" arrivalDelay="0.00"/>
    </timestep>
    <timestep time="176.00">
        <vehicle id="t_0" speed="33.00" arrivalDelay="0.00"/>
    </timestep>
    <timestep time="177.00">
        <vehicle id="t_0" speed="33.00" arrivalDelay="0.00"/>
    </timestep>
    <timestep time="178.00">
        <vehicle id="t_0" speed="33.00" arrivalDelay="0.00"/>
    </timestep>
    <timestep time="179.00">
        <vehicle id="t_0" speed="33.00" arrivalDelay="0.00"/>
    </timestep>
    <timestep time="180.00">
        <vehicle id="t_0" speed="33.00" arrivalDelay="0.00"/>
    </timestep>
    <timestep time="181.00">
        <vehicle id="t_0" speed="33.00" arrivalDelay="0.00"/>
    </timestep>
    <timestep time="182.00">
        <vehicle id="t_0" speed="33.00" arrivalDelay="0.00"/>
    </timestep>
    <timestep time="183.00">
        <vehicle id="t_0" speed="33.00" arrivalDelay="0.00"/>
    </timestep>
    <timestep time="184.00">
        <vehicle id="t_0" speed="33.00" arrivalDelay="0.00"/>
    </timestep>
    <timestep time="185.00">
        <vehicle id="t_0" speed="33.00" arrivalDelay="0.00"/>
    </timestep>
    <timestep time="186.00">
        <vehicle id="t_0" speed="33.00" arrivalDelay="0.00"/>
    </timestep>
    <timestep time="187.00">
        <vehicle id="t_0" speed="33.00" arrivalDelay="0.00"/>
    </timestep>
    <timestep time="188.00">
        <vehicle id="t_0" speed="33.00" arrivalDelay="0.00"/>
    </timestep>
    <timestep time="189.00">
        <vehicle id="t_0" speed="33.00" arrivalDelay="0.00"/>
    </timestep>
    <timestep time="190.00">
        <vehicle id="t_0" speed="33.00" arrivalDelay="0.00"/>
    </timestep>
    <timestep time="191.00">
        <vehicle id="t_0" speed="33.00" arrivalDelay="0.00"/>
    </timestep>
    <timestep time="192.00">
        <vehicle id="t_0" speed="33.00" arrivalDelay="0.00"/>
    </timestep>
    <timestep time="193.00">
        <vehicle id="t_0" speed="33.00" arrivalDelay="0.00"/>
    </timestep>
    <timestep time="194.00">
        <vehicle id="t_0" speed="33.00" arrivalDelay="0.00"/>
    </timestep>
    <timestep time="195.00">
        <vehicle id="t_0" speed="33.00" arrivalDelay="0.00"/>
    </timestep>
    <timestep time="196.00">
        <vehicle id="t_0" speed="33.00" arrivalDelay="0.00"/>
    </timestep>
    <timestep time="197.00">
        <vehicle id="t_0" speed="33.00" arrivalDelay="0.00"/>
    </timestep>
    <timestep time="198.00">
        <vehicle id="t_0" speed="33.00" arrivalDelay="0.00"/>
    </timestep>
    <timestep time="199.00">
        <vehicle id="t_0" speed="33.00" arrivalDelay="0.00"/>
    </timestep>
    <timestep time="200.00">
        <vehicle id="t_0" speed="33.00" arrivalDelay="0.00"/>
    </timestep>
    <timestep time="201.00">
        <vehicle id="t_0" speed="33.00" arrivalDelay="0.00"/>
    </timestep>
    <timestep time="202.00">
        <vehicle id="t_0" speed="33.00" arrivalDelay="0.00"/>
    </timestep>
    <timestep time="203.00">
        <vehicle id="t_0" speed="33.00" arrivalDelay="0.00"/>
    </timestep>
    <timestep time="204.00">
        <vehicle id="t_0" speed="33.00" arrivalDelay="0.00"/>
    </timestep>
    <timestep time="205.00">
        <vehicle id="t_0" speed="33.00" arrivalDelay="0.00"/>
    </timestep>
    <timestep time="206.00">
        <vehicle id="t_0" speed="33.00" arrivalDelay="0.00"/>
    </timestep>
    <timestep time="207.00">
        <vehicle id="t_0" speed="33.00" arrivalDelay="0.00"/>
    </timestep>
    <timestep time="208.00">
        <vehicle id="t_0" speed="33.00" arrivalDelay="0.00"/>
    </timestep>
    <timestep time="209.00">
        <vehicle id="t_0" speed="33.00" arrivalDelay="0.00"/>
    </timestep>
    <timestep time="210.00">
        <vehicle id="t_0" speed="33.00" arrivalDelay="0.00"/>
    </timestep>
    <timestep time="211.00">
        <vehicle id="t_0" speed="33.00" arrivalDelay="0.00"/>
    </timestep>
    <timestep time="212.00">
        <vehicle id="t_0" speed="33.00" arrivalDelay="0.00"/>
    </timestep>
    <timestep time="213.00">
        <vehicle id="t_0" speed="33.00" arrivalDelay="0.00"/>
    </timestep>
    <timestep time="214.00">
        <vehicle id="t_0" speed="33.00" arrivalDelay="0.00"/>
    </timestep>
    <timestep time="215.00">
        <vehicle id="t_0" speed="33.00" arrivalDelay="0.00"/>
    </timestep>
    <timestep time="216.00">
        <vehicle id="t_0" speed="33.00" arrivalDelay="0.00"/>
    </timestep>
    <timestep time="217.00">
        <vehicle id="t_0" speed="33.00" arrivalDelay="0.00"/>
    </timestep>
    <timestep time="218.00">
        <vehicle id="t_0" speed="33.00" arrivalDelay="0.00"/>
    </timestep>
    <timestep time="219.00">
        <vehicle id="t_0" speed="33.00" arrivalDelay="0.00"/>
    </timestep>
    <timestep time="220.00">
        <vehicle id="t_0" speed="33.00" arrivalDelay="0.00"/>
    </timestep>
    <timestep time="221.00">
        <vehicle id="t_0" speed="33.00" arrivalDelay="0.00"/>
    </timestep>
    <timestep time="222.00">
        <vehicle id="t_0" speed="33.00" arrivalDelay="0.00"/>
    </timestep>
    <timestep time="223.00">
        <vehicle id="t_0" speed="33.00" arrivalDelay="0.00"/>
    </timestep>
    <timestep time="224.00">
        <vehicle id="t_0" speed="33.00" arrivalDelay="0.00"/>
    </timestep>
    <timestep time="225.00">
        <vehicle id="t_0" speed="33.00" arrivalDelay="0.00"/>
    </timestep>
    <timestep time="226.00">
        <vehicle id="t_0" speed="33.00" arrivalDelay="0.00"/>
    </timestep>
    <timestep time="227.00">
        <vehicle id="t_0" speed="33.00" arrivalDelay="0.00"/>
    </timestep>
    <timestep time="228.00">
        <vehicle id="t_0" speed="33.00" arrivalDelay="0.00"/>
    </timestep>
    <timestep time="229.00">
        <vehicle id="t_0" speed="33.00" arrivalDelay="0.00"/>
    </timestep>
    <timestep time="230.00">
        <vehicle id="t_0" speed="33.00" arrivalDelay="0.00"/>
    </timestep>
    <timestep time="231.00">
        <vehicle id="t_0" speed="33.00" arrivalDelay="0.00"/>
    </timestep>
    <timestep time="232.00">
        <vehicle id="t_0" speed="33.00" arrivalDelay="0.00"/>
    </timestep>
    <timestep time="233.00">
        <vehicle id="t_0" speed="33.00" arrivalDelay="0.00"/>
    </timestep>
    <timestep time="234.00">
        <vehicle id="t_0" speed="33.00" arrivalDelay="0.00"/>
    </timestep>
    <timestep time="235.00">
        <vehicle id="t_0" speed="33.00" arrivalDelay="0.00"/>
    </timestep>
    <timestep time="236.00">
        <vehicle id="t_0" speed="33.00" arrivalDelay="0.00"/>
    </timestep>
    <timestep time="237.00">
        <vehicle id="t_0" speed="33.00" arrivalDelay="0.00"/>
    </timestep>
    <timestep time="238.00">
        <vehicle id="t_0" speed="33.00" arrivalDelay="0.00"/>
    </timestep>
    <timestep time="239.00">
        <vehicle id="t_0" speed="33.00" arrivalDelay="0.00"/>
    </timestep>
    <timestep time="240.00">
        <vehicle id="t_0" speed="33.00" arrivalDelay="0.00"/>
    </timestep>
    <timestep time="241.00">
        <vehicle id="t_0" speed="33.00" arrivalDelay="0.00"/>
    </timestep>
    <timestep time="242.00">
        <vehicle id="t_0" speed="33.00" arrivalDelay="0.00"/>
    </timestep>
    <timestep time="243.00">
        <vehicle id="t_0" speed="33.00" arrivalDelay="0.00"/>
    </timestep>
    <timestep time="244.00">
        <vehicle id="t_0" speed="33.00" arrivalDelay="0.00"/>
    </timestep>
    <timestep time="245.00">
        <vehicle id="t_0" speed="33.00" arrivalDelay="0.00"/>
    </timestep>
    <timestep time="246.00">
        <vehicle id="t_0" speed="33.00" arrivalDelay="0.00"/>
    </timestep>
    <timestep time="247.00">
        <vehicle id="t_0" speed="33.00" arrivalDelay="0.00"/>
    </timestep>
    <timestep time="248.00">
        <vehicle id="t_0" speed="33.00" arrivalDelay="0.00"/>
    </timestep>
    <timestep time="249.00">
        <vehicle id="t_0" speed="33.00" arrivalDelay="0.00"/>
    </timestep>
    <timestep time="250.00">
        <vehicle id="t_0" speed="33.00" arrivalDelay="0.00"/>
    </timestep>
    <timestep time="251.00">
        <vehicle id="t_0" speed="33.00" arrivalDelay="0.00"/>
    </timestep>
    <timestep time="252.00">
        <vehicle id="t_0" speed="33.00" arrivalDelay="0.00"/>
    </timestep>
    <timestep time="253.00">
        <vehicle id="t_0" speed="33.00" arrivalDelay="0.00"/>
    </timestep>
    <timestep time="254.00">
        <vehicle id="t_0" speed="33.00" arrivalDelay="0.00"/>
    </timestep>
    <timestep time="255.00">
        <vehicle id="t_0" speed="33.00" arrivalDelay="0.00"/>
    </timestep>
    <timestep time="256.00">
        <vehicle id="t_0" speed="33.00" arrivalDelay="0.00"/>
    </timestep>
    <timestep time="257.00">
        <vehicle id="t_0" speed="33.00" arrivalDelay="0.00"/>
    </timestep>
    <timestep time="258.00">
        <vehicle id="t_0" speed="33.00" arrivalDelay="0.00"/>
    </timestep>
    <timestep time="259.00">
        <vehicle id="t_0" speed="33.00" arrivalDelay="0.00"/>
    </timestep>
    <timestep time="260.00">
        <vehicle id="t_0" speed="33.00" arrivalDelay="0.00"/>
    </timestep>
    <timestep time="261.00">
        <vehicle id="t_0" speed="33.00" arrivalDelay="0.00"/>
    </timestep>
    <timestep time="262.00">
        <vehicle id="t_0" speed="33.00" arrivalDelay="0.00"/>
    </timestep>
    <timestep time="263.00">
        <vehicle id="t_0" speed="33.00" arrivalDelay="0.00"/>
    </timestep>
    <timestep time="264.00">
        <vehicle id="t_0" speed="33.00" arrivalDelay="0.00"/>
    </timestep>
    <timestep time="265.00">
        <vehicle id="t_0" speed="33.00" arrivalDelay="0.00"/>
    </timestep>
    <timestep time="266.00">