<?xml version="1.0" encoding="UTF-8"?>

<!-- generated on Thu Apr 16 17:30:16 2020 by Eclipse SUMO Version v1_5_0+1176-18b765d9ef
This data file and the accompanying materials
are made available under the terms of the Eclipse Public License v2.0
which accompanies this distribution, and is available at
http://www.eclipse.org/legal/epl-v20.html
SPDX-License-Identifier: EPL-2.0
<configuration xmlns:xsi="http://www.w3.org/2001/XMLSchema-instance" xsi:noNamespaceSchemaLocation="http://sumo.dlr.de/xsd/sumoConfiguration.xsd">

    <input>
        <net-file value="net.net.xml"/>
        <route-files value="input_routes.rou.xml"/>
    </input>

    <output>
        <write-license value="true"/>
        <fcd-output value="fcd.xml"/>
    </output>

    <processing>
        <collision.action value="warn"/>
        <default.carfollowmodel value="IDM"/>
        <default.speeddev value="0"/>
    </processing>

    <report>
        <xml-validation value="never"/>
        <no-step-log value="true"/>
    </report>

</configuration>
-->

<fcd-export xmlns:xsi="http://www.w3.org/2001/XMLSchema-instance" xsi:noNamespaceSchemaLocation="http://sumo.dlr.de/xsd/fcd_file.xsd">
    <timestep time="0.00">
        <vehicle id="first" x="5.10" y="0.00" angle="90.00" type="DEFAULT_VEHTYPE" speed="13.84" pos="5.10" lane="0_0" slope="0.00"/>
    </timestep>
    <timestep time="1.00">
        <vehicle id="first" x="18.92" y="0.00" angle="90.00" type="DEFAULT_VEHTYPE" speed="13.82" pos="18.92" lane="0_0" slope="0.00"/>
        <vehicle id="flow.0" x="5.10" y="0.00" angle="90.00" type="flow" speed="12.17" pos="5.10" lane="0_0" slope="0.00"/>
    </timestep>
    <timestep time="2.00">
        <vehicle id="first" x="32.74" y="0.00" angle="90.00" type="DEFAULT_VEHTYPE" speed="13.81" pos="32.74" lane="0_0" slope="0.00"/>
        <vehicle id="flow.0" x="16.76" y="0.00" angle="90.00" type="flow" speed="11.66" pos="16.76" lane="0_0" slope="0.00"/>
        <vehicle id="flow.1" x="5.10" y="0.00" angle="90.00" type="flow" speed="9.69" pos="5.10" lane="0_0" slope="0.00"/>
    </timestep>
    <timestep time="3.00">
        <vehicle id="first" x="46.54" y="0.00" angle="90.00" type="DEFAULT_VEHTYPE" speed="13.80" pos="46.54" lane="0_0" slope="0.00"/>
        <vehicle id="flow.0" x="28.46" y="0.00" angle="90.00" type="flow" speed="11.69" pos="28.46" lane="0_0" slope="0.00"/>
        <vehicle id="flow.1" x="14.36" y="0.00" angle="90.00" type="flow" speed="9.26" pos="14.36" lane="0_0" slope="0.00"/>
        <vehicle id="flow.2" x="5.10" y="0.00" angle="90.00" type="flow" speed="0.49" pos="5.10" lane="0_0" slope="0.00"/>
    </timestep>
    <timestep time="4.00">
        <vehicle id="first" x="60.33" y="0.00" angle="90.00" type="DEFAULT_VEHTYPE" speed="13.79" pos="60.33" lane="0_0" slope="0.00"/>
        <vehicle id="flow.0" x="40.31" y="0.00" angle="90.00" type="flow" speed="11.85" pos="40.31" lane="0_0" slope="0.00"/>
        <vehicle id="flow.1" x="23.82" y="0.00" angle="90.00" type="flow" speed="9.46" pos="23.82" lane="0_0" slope="0.00"/>
        <vehicle id="flow.2" x="6.25" y="0.00" angle="90.00" type="flow" speed="1.15" pos="6.25" lane="0_0" slope="0.00"/>
    </timestep>
    <timestep time="5.00">
        <vehicle id="first" x="74.10" y="0.00" angle="90.00" type="DEFAULT_VEHTYPE" speed="13.78" pos="74.10" lane="0_0" slope="0.00"/>
        <vehicle id="flow.0" x="52.36" y="0.00" angle="90.00" type="flow" speed="12.05" pos="52.36" lane="0_0" slope="0.00"/>
        <vehicle id="flow.1" x="33.61" y="0.00" angle="90.00" type="flow" speed="9.79" pos="33.61" lane="0_0" slope="0.00"/>
        <vehicle id="flow.2" x="8.35" y="0.00" angle="90.00" type="flow" speed="2.11" pos="8.35" lane="0_0" slope="0.00"/>
    </timestep>
    <timestep time="6.00">
        <vehicle id="first" x="87.87" y="0.00" angle="90.00" type="DEFAULT_VEHTYPE" speed="13.76" pos="87.87" lane="0_0" slope="0.00"/>
        <vehicle id="flow.0" x="64.59" y="0.00" angle="90.00" type="flow" speed="12.24" pos="64.59" lane="0_0" slope="0.00"/>
        <vehicle id="flow.1" x="43.77" y="0.00" angle="90.00" type="flow" speed="10.16" pos="43.77" lane="0_0" slope="0.00"/>
        <vehicle id="flow.2" x="11.45" y="0.00" angle="90.00" type="flow" speed="3.09" pos="11.45" lane="0_0" slope="0.00"/>
    </timestep>
    <timestep time="7.00">
        <vehicle id="first" x="101.61" y="0.00" angle="90.00" type="DEFAULT_VEHTYPE" speed="13.75" pos="101.61" lane="0_0" slope="0.00"/>
        <vehicle id="flow.0" x="77.01" y="0.00" angle="90.00" type="flow" speed="12.41" pos="77.01" lane="0_0" slope="0.00"/>
        <vehicle id="flow.1" x="54.27" y="0.00" angle="90.00" type="flow" speed="10.50" pos="54.27" lane="0_0" slope="0.00"/>
        <vehicle id="flow.2" x="15.52" y="0.00" angle="90.00" type="flow" speed="4.08" pos="15.52" lane="0_0" slope="0.00"/>
        <vehicle id="flow.3" x="5.10" y="0.00" angle="90.00" type="flow" speed="0.59" pos="5.10" lane="0_0" slope="0.00"/>
    </timestep>
    <timestep time="8.00">
        <vehicle id="first" x="115.34" y="0.00" angle="90.00" type="DEFAULT_VEHTYPE" speed="13.73" pos="115.34" lane="0_0" slope="0.00"/>
        <vehicle id="flow.0" x="89.58" y="0.00" angle="90.00" type="flow" speed="12.57" pos="89.58" lane="0_0" slope="0.00"/>
        <vehicle id="flow.1" x="65.10" y="0.00" angle="90.00" type="flow" speed="10.82" pos="65.10" lane="0_0" slope="0.00"/>
        <vehicle id="flow.2" x="20.59" y="0.00" angle="90.00" type="flow" speed="5.06" pos="20.59" lane="0_0" slope="0.00"/>
        <vehicle id="flow.3" x="6.44" y="0.00" angle="90.00" type="flow" speed="1.34" pos="6.44" lane="0_0" slope="0.00"/>
    </timestep>
    <timestep time="9.00">
        <vehicle id="first" x="129.04" y="0.00" angle="90.00" type="DEFAULT_VEHTYPE" speed="13.70" pos="129.04" lane="0_0" slope="0.00"/>
        <vehicle id="flow.0" x="102.28" y="0.00" angle="90.00" type="flow" speed="12.70" pos="102.28" lane="0_0" slope="0.00"/>
        <vehicle id="flow.1" x="76.20" y="0.00" angle="90.00" type="flow" speed="11.10" pos="76.20" lane="0_0" slope="0.00"/>
        <vehicle id="flow.2" x="26.62" y="0.00" angle="90.00" type="flow" speed="6.04" pos="26.62" lane="0_0" slope="0.00"/>
        <vehicle id="flow.3" x="8.67" y="0.00" angle="90.00" type="flow" speed="2.24" pos="8.67" lane="0_0" slope="0.00"/>
    </timestep>
    <timestep time="10.00">
        <vehicle id="first" x="142.72" y="0.00" angle="90.00" type="DEFAULT_VEHTYPE" speed="13.67" pos="142.72" lane="0_0" slope="0.00"/>
        <vehicle id="flow.0" x="115.09" y="0.00" angle="90.00" type="flow" speed="12.82" pos="115.09" lane="0_0" slope="0.00"/>
        <vehicle id="flow.1" x="87.54" y="0.00" angle="90.00" type="flow" speed="11.34" pos="87.54" lane="0_0" slope="0.00"/>
        <vehicle id="flow.2" x="33.61" y="0.00" angle="90.00" type="flow" speed="6.99" pos="33.61" lane="0_0" slope="0.00"/>
        <vehicle id="flow.3" x="11.86" y="0.00" angle="90.00" type="flow" speed="3.18" pos="11.86" lane="0_0" slope="0.00"/>
    </timestep>
    <timestep time="11.00">
        <vehicle id="first" x="156.35" y="0.00" angle="90.00" type="DEFAULT_VEHTYPE" speed="13.64" pos="156.35" lane="0_0" slope="0.00"/>
        <vehicle id="flow.0" x="128.01" y="0.00" angle="90.00" type="flow" speed="12.91" pos="128.01" lane="0_0" slope="0.00"/>
        <vehicle id="flow.1" x="99.09" y="0.00" angle="90.00" type="flow" speed="11.55" pos="99.09" lane="0_0" slope="0.00"/>
        <vehicle id="flow.2" x="41.52" y="0.00" angle="90.00" type="flow" speed="7.91" pos="41.52" lane="0_0" slope="0.00"/>
        <vehicle id="flow.3" x="16.00" y="0.00" angle="90.00" type="flow" speed="4.14" pos="16.00" lane="0_0" slope="0.00"/>
        <vehicle id="flow.4" x="5.10" y="0.00" angle="90.00" type="flow" speed="0.61" pos="5.10" lane="0_0" slope="0.00"/>
    </timestep>
    <timestep time="12.00">
        <vehicle id="first" x="169.94" y="0.00" angle="90.00" type="DEFAULT_VEHTYPE" speed="13.59" pos="169.94" lane="0_0" slope="0.00"/>
        <vehicle id="flow.0" x="140.99" y="0.00" angle="90.00" type="flow" speed="12.99" pos="140.99" lane="0_0" slope="0.00"/>
        <vehicle id="flow.1" x="110.81" y="0.00" angle="90.00" type="flow" speed="11.72" pos="110.81" lane="0_0" slope="0.00"/>
        <vehicle id="flow.2" x="50.31" y="0.00" angle="90.00" type="flow" speed="8.78" pos="50.31" lane="0_0" slope="0.00"/>
        <vehicle id="flow.3" x="21.11" y="0.00" angle="90.00" type="flow" speed="5.11" pos="21.11" lane="0_0" slope="0.00"/>
        <vehicle id="flow.4" x="6.50" y="0.00" angle="90.00" type="flow" speed="1.40" pos="6.50" lane="0_0" slope="0.00"/>
    </timestep>
    <timestep time="13.00">
        <vehicle id="first" x="183.47" y="0.00" angle="90.00" type="DEFAULT_VEHTYPE" speed="13.53" pos="183.47" lane="0_0" slope="0.00"/>
        <vehicle id="flow.0" x="154.04" y="0.00" angle="90.00" type="flow" speed="13.05" pos="154.04" lane="0_0" slope="0.00"/>
        <vehicle id="flow.1" x="122.68" y="0.00" angle="90.00" type="flow" speed="11.87" pos="122.68" lane="0_0" slope="0.00"/>
        <vehicle id="flow.2" x="59.90" y="0.00" angle="90.00" type="flow" speed="9.60" pos="59.90" lane="0_0" slope="0.00"/>
        <vehicle id="flow.3" x="27.17" y="0.00" angle="90.00" type="flow" speed="6.07" pos="27.17" lane="0_0" slope="0.00"/>
        <vehicle id="flow.4" x="8.81" y="0.00" angle="90.00" type="flow" speed="2.31" pos="8.81" lane="0_0" slope="0.00"/>
    </timestep>
    <timestep time="14.00">
        <vehicle id="first" x="196.91" y="0.00" angle="90.00" type="DEFAULT_VEHTYPE" speed="13.44" pos="196.91" lane="0_0" slope="0.00"/>
        <vehicle id="flow.0" x="167.14" y="0.00" angle="90.00" type="flow" speed="13.09" pos="167.14" lane="0_0" slope="0.00"/>
        <vehicle id="flow.1" x="134.66" y="0.00" angle="90.00" type="flow" speed="11.99" pos="134.66" lane="0_0" slope="0.00"/>
        <vehicle id="flow.2" x="70.24" y="0.00" angle="90.00" type="flow" speed="10.33" pos="70.24" lane="0_0" slope="0.00"/>
        <vehicle id="flow.3" x="34.18" y="0.00" angle="90.00" type="flow" speed="7.01" pos="34.18" lane="0_0" slope="0.00"/>
        <vehicle id="flow.4" x="12.06" y="0.00" angle="90.00" type="flow" speed="3.25" pos="12.06" lane="0_0" slope="0.00"/>
    </timestep>
    <timestep time="15.00">
        <vehicle id="first" x="210.24" y="0.00" angle="90.00" type="DEFAULT_VEHTYPE" speed="13.33" pos="210.24" lane="0_0" slope="0.00"/>
        <vehicle id="flow.0" x="180.26" y="0.00" angle="90.00" type="flow" speed="13.12" pos="180.26" lane="0_0" slope="0.00"/>
        <vehicle id="flow.1" x="146.75" y="0.00" angle="90.00" type="flow" speed="12.09" pos="146.75" lane="0_0" slope="0.00"/>
        <vehicle id="flow.2" x="81.22" y="0.00" angle="90.00" type="flow" speed="10.98" pos="81.22" lane="0_0" slope="0.00"/>
        <vehicle id="flow.3" x="42.11" y="0.00" angle="90.00" type="flow" speed="7.93" pos="42.11" lane="0_0" slope="0.00"/>
        <vehicle id="flow.4" x="16.28" y="0.00" angle="90.00" type="flow" speed="4.21" pos="16.28" lane="0_0" slope="0.00"/>
        <vehicle id="flow.5" x="5.10" y="0.00" angle="90.00" type="flow" speed="3.95" pos="5.10" lane="0_0" slope="0.00"/>
    </timestep>
    <timestep time="16.00">
        <vehicle id="first" x="223.41" y="0.00" angle="90.00" type="DEFAULT_VEHTYPE" speed="13.17" pos="223.41" lane="0_0" slope="0.00"/>
        <vehicle id="flow.0" x="193.38" y="0.00" angle="90.00" type="flow" speed="13.13" pos="193.38" lane="0_0" slope="0.00"/>
        <vehicle id="flow.1" x="158.92" y="0.00" angle="90.00" type="flow" speed="12.17" pos="158.92" lane="0_0" slope="0.00"/>
        <vehicle id="flow.2" x="92.76" y="0.00" angle="90.00" type="flow" speed="11.54" pos="92.76" lane="0_0" slope="0.00"/>
        <vehicle id="flow.3" x="50.92" y="0.00" angle="90.00" type="flow" speed="8.81" pos="50.92" lane="0_0" slope="0.00"/>
        <vehicle id="flow.4" x="21.45" y="0.00" angle="90.00" type="flow" speed="5.18" pos="21.45" lane="0_0" slope="0.00"/>
        <vehicle id="flow.5" x="9.03" y="0.00" angle="90.00" type="flow" speed="3.93" pos="9.03" lane="0_0" slope="0.00"/>
    </timestep>
    <timestep time="17.00">
        <vehicle id="first" x="236.34" y="0.00" angle="90.00" type="DEFAULT_VEHTYPE" speed="12.93" pos="236.34" lane="0_0" slope="0.00"/>
        <vehicle id="flow.0" x="206.50" y="0.00" angle="90.00" type="flow" speed="13.12" pos="206.50" lane="0_0" slope="0.00"/>
        <vehicle id="flow.1" x="171.15" y="0.00" angle="90.00" type="flow" speed="12.24" pos="171.15" lane="0_0" slope="0.00"/>
        <vehicle id="flow.2" x="104.76" y="0.00" angle="90.00" type="flow" speed="12.01" pos="104.76" lane="0_0" slope="0.00"/>
        <vehicle id="flow.3" x="60.56" y="0.00" angle="90.00" type="flow" speed="9.64" pos="60.56" lane="0_0" slope="0.00"/>
        <vehicle id="flow.4" x="27.58" y="0.00" angle="90.00" type="flow" speed="6.13" pos="27.58" lane="0_0" slope="0.00"/>
        <vehicle id="flow.5" x="13.39" y="0.00" angle="90.00" type="flow" speed="4.35" pos="13.39" lane="0_0" slope="0.00"/>
        <vehicle id="flow.6" x="5.10" y="0.00" angle="90.00" type="flow" speed="0.32" pos="5.10" lane="0_0" slope="0.00"/>
    </timestep>
    <timestep time="18.00">
        <vehicle id="first" x="248.92" y="0.00" angle="90.00" type="DEFAULT_VEHTYPE" speed="12.58" pos="248.92" lane="0_0" slope="0.00"/>
        <vehicle id="flow.0" x="219.57" y="0.00" angle="90.00" type="flow" speed="13.07" pos="219.57" lane="0_0" slope="0.00"/>
        <vehicle id="flow.1" x="183.44" y="0.00" angle="90.00" type="flow" speed="12.29" pos="183.44" lane="0_0" slope="0.00"/>
        <vehicle id="flow.2" x="117.15" y="0.00" angle="90.00" type="flow" speed="12.39" pos="117.15" lane="0_0" slope="0.00"/>
        <vehicle id="flow.3" x="70.98" y="0.00" angle="90.00" type="flow" speed="10.41" pos="70.98" lane="0_0" slope="0.00"/>
        <vehicle id="flow.4" x="34.65" y="0.00" angle="90.00" type="flow" speed="7.06" pos="34.65" lane="0_0" slope="0.00"/>
        <vehicle id="flow.5" x="18.36" y="0.00" angle="90.00" type="flow" speed="4.98" pos="18.36" lane="0_0" slope="0.00"/>
        <vehicle id="flow.6" x="5.82" y="0.00" angle="90.00" type="flow" speed="0.72" pos="5.82" lane="0_0" slope="0.00"/>
    </timestep>
    <timestep time="19.00">
        <vehicle id="first" x="260.92" y="0.00" angle="90.00" type="DEFAULT_VEHTYPE" speed="12.01" pos="260.92" lane="0_0" slope="0.00"/>
        <vehicle id="flow.0" x="232.53" y="0.00" angle="90.00" type="flow" speed="12.97" pos="232.53" lane="0_0" slope="0.00"/>
        <vehicle id="flow.1" x="195.77" y="0.00" angle="90.00" type="flow" speed="12.33" pos="195.77" lane="0_0" slope="0.00"/>
        <vehicle id="flow.2" x="129.85" y="0.00" angle="90.00" type="flow" speed="12.69" pos="129.85" lane="0_0" slope="0.00"/>
        <vehicle id="flow.3" x="82.09" y="0.00" angle="90.00" type="flow" speed="11.11" pos="82.09" lane="0_0" slope="0.00"/>
        <vehicle id="flow.4" x="42.61" y="0.00" angle="90.00" type="flow" speed="7.97" pos="42.61" lane="0_0" slope="0.00"/>
        <vehicle id="flow.5" x="24.05" y="0.00" angle="90.00" type="flow" speed="5.69" pos="24.05" lane="0_0" slope="0.00"/>
        <vehicle id="flow.6" x="7.41" y="0.00" angle="90.00" type="flow" speed="1.60" pos="7.41" lane="0_0" slope="0.00"/>
    </timestep>
    <timestep time="20.00">
        <vehicle id="first" x="272.00" y="0.00" angle="90.00" type="DEFAULT_VEHTYPE" speed="11.07" pos="272.00" lane="0_0" slope="0.00"/>
        <vehicle id="flow.0" x="245.30" y="0.00" angle="90.00" type="flow" speed="12.77" pos="245.30" lane="0_0" slope="0.00"/>
        <vehicle id="flow.1" x="208.13" y="0.00" angle="90.00" type="flow" speed="12.36" pos="208.13" lane="0_0" slope="0.00"/>
        <vehicle id="flow.2" x="142.77" y="0.00" angle="90.00" type="flow" speed="12.93" pos="142.77" lane="0_0" slope="0.00"/>
        <vehicle id="flow.3" x="93.82" y="0.00" angle="90.00" type="flow" speed="11.73" pos="93.82" lane="0_0" slope="0.00"/>
        <vehicle id="flow.4" x="51.45" y="0.00" angle="90.00" type="flow" speed="8.83" pos="51.45" lane="0_0" slope="0.00"/>
        <vehicle id="flow.5" x="30.49" y="0.00" angle="90.00" type="flow" speed="6.44" pos="30.49" lane="0_0" slope="0.00"/>
        <vehicle id="flow.6" x="9.96" y="0.00" angle="90.00" type="flow" speed="2.54" pos="9.96" lane="0_0" slope="0.00"/>
    </timestep>
    <timestep time="21.00">
        <vehicle id="first" x="281.55" y="0.00" angle="90.00" type="DEFAULT_VEHTYPE" speed="9.56" pos="281.55" lane="0_0" slope="0.00"/>
        <vehicle id="flow.0" x="257.66" y="0.00" angle="90.00" type="flow" speed="12.36" pos="257.66" lane="0_0" slope="0.00"/>
        <vehicle id="flow.1" x="220.50" y="0.00" angle="90.00" type="flow" speed="12.37" pos="220.50" lane="0_0" slope="0.00"/>
        <vehicle id="flow.2" x="155.88" y="0.00" angle="90.00" type="flow" speed="13.11" pos="155.88" lane="0_0" slope="0.00"/>
        <vehicle id="flow.3" x="106.08" y="0.00" angle="90.00" type="flow" speed="12.26" pos="106.08" lane="0_0" slope="0.00"/>
        <vehicle id="flow.4" x="61.08" y="0.00" angle="90.00" type="flow" speed="9.64" pos="61.08" lane="0_0" slope="0.00"/>
        <vehicle id="flow.5" x="37.68" y="0.00" angle="90.00" type="flow" speed="7.19" pos="37.68" lane="0_0" slope="0.00"/>
        <vehicle id="flow.6" x="13.46" y="0.00" angle="90.00" type="flow" speed="3.50" pos="13.46" lane="0_0" slope="0.00"/>
        <vehicle id="flow.7" x="5.10" y="0.00" angle="90.00" type="flow" speed="0.33" pos="5.10" lane="0_0" slope="0.00"/>
    </timestep>
    <timestep time="22.00">
        <vehicle id="first" x="288.92" y="0.00" angle="90.00" type="DEFAULT_VEHTYPE" speed="7.37" pos="288.92" lane="0_0" slope="0.00"/>
        <vehicle id="flow.0" x="269.15" y="0.00" angle="90.00" type="flow" speed="11.49" pos="269.15" lane="0_0" slope="0.00"/>
        <vehicle id="flow.1" x="232.84" y="0.00" angle="90.00" type="flow" speed="12.35" pos="232.84" lane="0_0" slope="0.00"/>
        <vehicle id="flow.2" x="169.12" y="0.00" angle="90.00" type="flow" speed="13.24" pos="169.12" lane="0_0" slope="0.00"/>
        <vehicle id="flow.3" x="118.79" y="0.00" angle="90.00" type="flow" speed="12.71" pos="118.79" lane="0_0" slope="0.00"/>
        <vehicle id="flow.4" x="71.46" y="0.00" angle="90.00" type="flow" speed="10.38" pos="71.46" lane="0_0" slope="0.00"/>
        <vehicle id="flow.5" x="45.58" y="0.00" angle="90.00" type="flow" speed="7.90" pos="45.58" lane="0_0" slope="0.00"/>
        <vehicle id="flow.6" x="17.92" y="0.00" angle="90.00" type="flow" speed="4.47" pos="17.92" lane="0_0" slope="0.00"/>
        <vehicle id="flow.7" x="5.81" y="0.00" angle="90.00" type="flow" speed="0.71" pos="5.81" lane="0_0" slope="0.00"/>
    </timestep>
    <timestep time="23.00">
        <vehicle id="first" x="293.83" y="0.00" angle="90.00" type="DEFAULT_VEHTYPE" speed="4.91" pos="293.83" lane="0_0" slope="0.00"/>
        <vehicle id="flow.0" x="278.79" y="0.00" angle="90.00" type="flow" speed="9.64" pos="278.79" lane="0_0" slope="0.00"/>
        <vehicle id="flow.1" x="245.09" y="0.00" angle="90.00" type="flow" speed="12.24" pos="245.09" lane="0_0" slope="0.00"/>
        <vehicle id="flow.2" x="182.46" y="0.00" angle="90.00" type="flow" speed="13.34" pos="182.46" lane="0_0" slope="0.00"/>
        <vehicle id="flow.3" x="131.86" y="0.00" angle="90.00" type="flow" speed="13.08" pos="131.86" lane="0_0" slope="0.00"/>
        <vehicle id="flow.4" x="82.49" y="0.00" angle="90.00" type="flow" speed="11.04" pos="82.49" lane="0_0" slope="0.00"/>
        <vehicle id="flow.5" x="54.13" y="0.00" angle="90.00" type="flow" speed="8.55" pos="54.13" lane="0_0" slope="0.00"/>
        <vehicle id="flow.6" x="23.35" y="0.00" angle="90.00" type="flow" speed="5.42" pos="23.35" lane="0_0" slope="0.00"/>
        <vehicle id="flow.7" x="7.37" y="0.00" angle="90.00" type="flow" speed="1.56" pos="7.37" lane="0_0" slope="0.00"/>
    </timestep>
    <timestep time="24.00">
        <vehicle id="first" x="296.74" y="0.00" angle="90.00" type="DEFAULT_VEHTYPE" speed="2.91" pos="296.74" lane="0_0" slope="0.00"/>
        <vehicle id="flow.0" x="285.45" y="0.00" angle="90.00" type="flow" speed="6.65" pos="285.45" lane="0_0" slope="0.00"/>
        <vehicle id="flow.1" x="256.98" y="0.00" angle="90.00" type="flow" speed="11.89" pos="256.98" lane="0_0" slope="0.00"/>
        <vehicle id="flow.2" x="195.86" y="0.00" angle="90.00" type="flow" speed="13.40" pos="195.86" lane="0_0" slope="0.00"/>
        <vehicle id="flow.3" x="145.24" y="0.00" angle="90.00" type="flow" speed="13.37" pos="145.24" lane="0_0" slope="0.00"/>
        <vehicle id="flow.4" x="94.11" y="0.00" angle="90.00" type="flow" speed="11.61" pos="94.11" lane="0_0" slope="0.00"/>
        <vehicle id="flow.5" x="63.27" y="0.00" angle="90.00" type="flow" speed="9.14" pos="63.27" lane="0_0" slope="0.00"/>
        <vehicle id="flow.6" x="29.72" y="0.00" angle="90.00" type="flow" speed="6.37" pos="29.72" lane="0_0" slope="0.00"/>
        <vehicle id="flow.7" x="9.87" y="0.00" angle="90.00" type="flow" speed="2.49" pos="9.87" lane="0_0" slope="0.00"/>
    </timestep>
    <timestep time="25.00">
        <vehicle id="first" x="298.33" y="0.00" angle="90.00" type="DEFAULT_VEHTYPE" speed="1.59" pos="298.33" lane="0_0" slope="0.00"/>
        <vehicle id="flow.0" x="289.21" y="0.00" angle="90.00" type="flow" speed="3.77" pos="289.21" lane="0_0" slope="0.00"/>
        <vehicle id="flow.1" x="267.74" y="0.00" angle="90.00" type="flow" speed="10.75" pos="267.74" lane="0_0" slope="0.00"/>
        <vehicle id="flow.2" x="209.29" y="0.00" angle="90.00" type="flow" speed="13.43" pos="209.29" lane="0_0" slope="0.00"/>
        <vehicle id="flow.3" x="158.84" y="0.00" angle="90.00" type="flow" speed="13.60" pos="158.84" lane="0_0" slope="0.00"/>
        <vehicle id="flow.4" x="106.21" y="0.00" angle="90.00" type="flow" speed="12.10" pos="106.21" lane="0_0" slope="0.00"/>
        <vehicle id="flow.5" x="72.91" y="0.00" angle="90.00" type="flow" speed="9.64" pos="72.91" lane="0_0" slope="0.00"/>
        <vehicle id="flow.6" x="37.00" y="0.00" angle="90.00" type="flow" speed="7.29" pos="37.00" lane="0_0" slope="0.00"/>
        <vehicle id="flow.7" x="13.32" y="0.00" angle="90.00" type="flow" speed="3.45" pos="13.32" lane="0_0" slope="0.00"/>
        <vehicle id="flow.8" x="5.10" y="0.00" angle="90.00" type="flow" speed="0.29" pos="5.10" lane="0_0" slope="0.00"/>
    </timestep>
    <timestep time="26.00">
        <vehicle id="first" x="299.17" y="0.00" angle="90.00" type="DEFAULT_VEHTYPE" speed="0.83" pos="299.17" lane="0_0" slope="0.00"/>
        <vehicle id="flow.0" x="291.08" y="0.00" angle="90.00" type="flow" speed="1.87" pos="291.08" lane="0_0" slope="0.00"/>
        <vehicle id="flow.1" x="275.90" y="0.00" angle="90.00" type="flow" speed="8.17" pos="275.90" lane="0_0" slope="0.00"/>
        <vehicle id="flow.2" x="222.66" y="0.00" angle="90.00" type="flow" speed="13.38" pos="222.66" lane="0_0" slope="0.00"/>
        <vehicle id="flow.3" x="172.62" y="0.00" angle="90.00" type="flow" speed="13.78" pos="172.62" lane="0_0" slope="0.00"/>
        <vehicle id="flow.4" x="118.72" y="0.00" angle="90.00" type="flow" speed="12.51" pos="118.72" lane="0_0" slope="0.00"/>
        <vehicle id="flow.5" x="82.97" y="0.00" angle="90.00" type="flow" speed="10.06" pos="82.97" lane="0_0" slope="0.00"/>
        <vehicle id="flow.6" x="45.17" y="0.00" angle="90.00" type="flow" speed="8.17" pos="45.17" lane="0_0" slope="0.00"/>
        <vehicle id="flow.7" x="17.73" y="0.00" angle="90.00" type="flow" speed="4.41" pos="17.73" lane="0_0" slope="0.00"/>
        <vehicle id="flow.8" x="5.72" y="0.00" angle="90.00" type="flow" speed="0.62" pos="5.72" lane="0_0" slope="0.00"/>
    </timestep>
    <timestep time="27.00">
        <vehicle id="first" x="299.59" y="0.00" angle="90.00" type="DEFAULT_VEHTYPE" speed="0.42" pos="299.59" lane="0_0" slope="0.00"/>
        <vehicle id="flow.0" x="291.93" y="0.00" angle="90.00" type="flow" speed="0.85" pos="291.93" lane="0_0" slope="0.00"/>
        <vehicle id="flow.1" x="280.81" y="0.00" angle="90.00" type="flow" speed="4.90" pos="280.81" lane="0_0" slope="0.00"/>
        <vehicle id="flow.2" x="235.77" y="0.00" angle="90.00" type="flow" speed="13.11" pos="235.77" lane="0_0" slope="0.00"/>
        <vehicle id="flow.3" x="186.53" y="0.00" angle="90.00" type="flow" speed="13.91" pos="186.53" lane="0_0" slope="0.00"/>
        <vehicle id="flow.4" x="131.56" y="0.00" angle="90.00" type="flow" speed="12.84" pos="131.56" lane="0_0" slope="0.00"/>
        <vehicle id="flow.5" x="93.36" y="0.00" angle="90.00" type="flow" speed="10.40" pos="93.36" lane="0_0" slope="0.00"/>
        <vehicle id="flow.6" x="54.16" y="0.00" angle="90.00" type="flow" speed="8.99" pos="54.16" lane="0_0" slope="0.00"/>
        <vehicle id="flow.7" x="23.09" y="0.00" angle="90.00" type="flow" speed="5.36" pos="23.09" lane="0_0" slope="0.00"/>
        <vehicle id="flow.8" x="7.20" y="0.00" angle="90.00" type="flow" speed="1.48" pos="7.20" lane="0_0" slope="0.00"/>
    </timestep>
    <timestep time="28.00">
        <vehicle id="first" x="299.80" y="0.00" angle="90.00" type="DEFAULT_VEHTYPE" speed="0.21" pos="299.80" lane="0_0" slope="0.00"/>
        <vehicle id="flow.0" x="292.29" y="0.00" angle="90.00" type="flow" speed="0.36" pos="292.29" lane="0_0" slope="0.00"/>
        <vehicle id="flow.1" x="283.31" y="0.00" angle="90.00" type="flow" speed="2.51" pos="283.31" lane="0_0" slope="0.00"/>
        <vehicle id="flow.2" x="248.06" y="0.00" angle="90.00" type="flow" speed="12.29" pos="248.06" lane="0_0" slope="0.00"/>
        <vehicle id="flow.3" x="200.51" y="0.00" angle="90.00" type="flow" speed="13.98" pos="200.51" lane="0_0" slope="0.00"/>
        <vehicle id="flow.4" x="144.67" y="0.00" angle="90.00" type="flow" speed="13.11" pos="144.67" lane="0_0" slope="0.00"/>
        <vehicle id="flow.5" x="104.03" y="0.00" angle="90.00" type="flow" speed="10.66" pos="104.03" lane="0_0" slope="0.00"/>
        <vehicle id="flow.6" x="63.91" y="0.00" angle="90.00" type="flow" speed="9.75" pos="63.91" lane="0_0" slope="0.00"/>
        <vehicle id="flow.7" x="29.39" y="0.00" angle="90.00" type="flow" speed="6.30" pos="29.39" lane="0_0" slope="0.00"/>
        <vehicle id="flow.8" x="9.61" y="0.00" angle="90.00" type="flow" speed="2.41" pos="9.61" lane="0_0" slope="0.00"/>
    </timestep>
    <timestep time="29.00">
        <vehicle id="first" x="299.90" y="0.00" angle="90.00" type="DEFAULT_VEHTYPE" speed="0.10" pos="299.90" lane="0_0" slope="0.00"/>
        <vehicle id="flow.0" x="292.42" y="0.00" angle="90.00" type="flow" speed="0.13" pos="292.42" lane="0_0" slope="0.00"/>
        <vehicle id="flow.1" x="284.45" y="0.00" angle="90.00" type="flow" speed="1.14" pos="284.45" lane="0_0" slope="0.00"/>
        <vehicle id="flow.2" x="258.70" y="0.00" angle="90.00" type="flow" speed="10.63" pos="258.70" lane="0_0" slope="0.00"/>
        <vehicle id="flow.3" x="214.47" y="0.00" angle="90.00" type="flow" speed="13.96" pos="214.47" lane="0_0" slope="0.00"/>
        <vehicle id="flow.4" x="157.99" y="0.00" angle="90.00" type="flow" speed="13.32" pos="157.99" lane="0_0" slope="0.00"/>
        <vehicle id="flow.5" x="114.90" y="0.00" angle="90.00" type="flow" speed="10.87" pos="114.90" lane="0_0" slope="0.00"/>
        <vehicle id="flow.6" x="74.33" y="0.00" angle="90.00" type="flow" speed="10.42" pos="74.33" lane="0_0" slope="0.00"/>
        <vehicle id="flow.7" x="36.58" y="0.00" angle="90.00" type="flow" speed="7.19" pos="36.58" lane="0_0" slope="0.00"/>
        <vehicle id="flow.8" x="12.98" y="0.00" angle="90.00" type="flow" speed="3.37" pos="12.98" lane="0_0" slope="0.00"/>
        <vehicle id="flow.9" x="5.10" y="0.00" angle="90.00" type="flow" speed="0.18" pos="5.10" lane="0_0" slope="0.00"/>
    </timestep>
    <timestep time="30.00">
        <vehicle id="first" x="299.95" y="0.00" angle="90.00" type="DEFAULT_VEHTYPE" speed="0.05" pos="299.95" lane="0_0" slope="0.00"/>
        <vehicle id="flow.0" x="292.42" y="0.00" angle="90.00" type="flow" speed="0.00" pos="292.42" lane="0_0" slope="0.00"/>
        <vehicle id="flow.1" x="284.90" y="0.00" angle="90.00" type="flow" speed="0.44" pos="284.90" lane="0_0" slope="0.00"/>
        <vehicle id="flow.2" x="266.80" y="0.00" angle="90.00" type="flow" speed="8.11" pos="266.80" lane="0_0" slope="0.00"/>
        <vehicle id="flow.3" x="228.20" y="0.00" angle="90.00" type="flow" speed="13.73" pos="228.20" lane="0_0" slope="0.00"/>
        <vehicle id="flow.4" x="171.47" y="0.00" angle="90.00" type="flow" speed="13.48" pos="171.47" lane="0_0" slope="0.00"/>
        <vehicle id="flow.5" x="125.93" y="0.00" angle="90.00" type="flow" speed="11.03" pos="125.93" lane="0_0" slope="0.00"/>
        <vehicle id="flow.6" x="85.34" y="0.00" angle="90.00" type="flow" speed="11.01" pos="85.34" lane="0_0" slope="0.00"/>
        <vehicle id="flow.7" x="44.60" y="0.00" angle="90.00" type="flow" speed="8.03" pos="44.60" lane="0_0" slope="0.00"/>
        <vehicle id="flow.8" x="17.30" y="0.00" angle="90.00" type="flow" speed="4.33" pos="17.30" lane="0_0" slope="0.00"/>
        <vehicle id="flow.9" x="5.48" y="0.00" angle="90.00" type="flow" speed="0.38" pos="5.48" lane="0_0" slope="0.00"/>
    </timestep>
    <timestep time="31.00">
        <vehicle id="first" x="299.95" y="0.00" angle="90.00" type="DEFAULT_VEHTYPE" speed="0.00" pos="299.95" lane="0_0" slope="0.00"/>
        <vehicle id="flow.0" x="292.44" y="0.00" angle="90.00" type="flow" speed="0.02" pos="292.44" lane="0_0" slope="0.00"/>
        <vehicle id="flow.1" x="284.98" y="0.00" angle="90.00" type="flow" speed="0.09" pos="284.98" lane="0_0" slope="0.00"/>
        <vehicle id="flow.2" x="272.09" y="0.00" angle="90.00" type="flow" speed="5.29" pos="272.09" lane="0_0" slope="0.00"/>