<?xml version="1.0" encoding="UTF-8"?>

<!-- generated on Wed Mar 11 22:23:26 2020 by Eclipse SUMO Version v1_5_0+0662-a598ecae47
This data file and the accompanying materials
are made available under the terms of the Eclipse Public License v2.0
which accompanies this distribution, and is available at
http://www.eclipse.org/legal/epl-v20.html
SPDX-License-Identifier: EPL-2.0
<configuration xmlns:xsi="http://www.w3.org/2001/XMLSchema-instance" xsi:noNamespaceSchemaLocation="http://sumo.dlr.de/xsd/sumoConfiguration.xsd">

    <input>
        <net-file value="net.net.xml"/>
        <route-files value="input_routes.rou.xml"/>
    </input>

    <output>
        <write-license value="true"/>
        <fcd-output value="fcd.xml"/>
    </output>

    <processing>
        <collision.action value="warn"/>
        <default.carfollowmodel value="IDM"/>
        <default.speeddev value="0"/>
    </processing>

    <report>
        <xml-validation value="never"/>
        <no-step-log value="true"/>
    </report>

</configuration>
-->

<fcd-export xmlns:xsi="http://www.w3.org/2001/XMLSchema-instance" xsi:noNamespaceSchemaLocation="http://sumo.dlr.de/xsd/fcd_file.xsd">
    <timestep time="0.00">
        <vehicle id="first" x="5.10" y="0.00" angle="90.00" type="DEFAULT_VEHTYPE" speed="13.84" pos="5.10" lane="0_0" slope="0.00"/>
    </timestep>
    <timestep time="1.00">
        <vehicle id="first" x="18.92" y="0.00" angle="90.00" type="DEFAULT_VEHTYPE" speed="13.82" pos="18.92" lane="0_0" slope="0.00"/>
        <vehicle id="flow.0" x="5.10" y="0.00" angle="90.00" type="flow" speed="12.17" pos="5.10" lane="0_0" slope="0.00"/>
    </timestep>
    <timestep time="2.00">
        <vehicle id="first" x="32.74" y="0.00" angle="90.00" type="DEFAULT_VEHTYPE" speed="13.81" pos="32.74" lane="0_0" slope="0.00"/>
        <vehicle id="flow.0" x="16.76" y="0.00" angle="90.00" type="flow" speed="11.66" pos="16.76" lane="0_0" slope="0.00"/>
        <vehicle id="flow.1" x="5.10" y="0.00" angle="90.00" type="flow" speed="9.69" pos="5.10" lane="0_0" slope="0.00"/>
    </timestep>
    <timestep time="3.00">
        <vehicle id="first" x="46.54" y="0.00" angle="90.00" type="DEFAULT_VEHTYPE" speed="13.80" pos="46.54" lane="0_0" slope="0.00"/>
        <vehicle id="flow.0" x="28.46" y="0.00" angle="90.00" type="flow" speed="11.69" pos="28.46" lane="0_0" slope="0.00"/>
        <vehicle id="flow.1" x="14.36" y="0.00" angle="90.00" type="flow" speed="9.26" pos="14.36" lane="0_0" slope="0.00"/>
        <vehicle id="flow.2" x="5.10" y="0.00" angle="90.00" type="flow" speed="0.06" pos="5.10" lane="0_0" slope="0.00"/>
    </timestep>
    <timestep time="4.00">
        <vehicle id="first" x="60.33" y="0.00" angle="90.00" type="DEFAULT_VEHTYPE" speed="13.79" pos="60.33" lane="0_0" slope="0.00"/>
        <vehicle id="flow.0" x="40.31" y="0.00" angle="90.00" type="flow" speed="11.85" pos="40.31" lane="0_0" slope="0.00"/>
        <vehicle id="flow.1" x="23.82" y="0.00" angle="90.00" type="flow" speed="9.46" pos="23.82" lane="0_0" slope="0.00"/>
        <vehicle id="flow.2" x="5.81" y="0.00" angle="90.00" type="flow" speed="0.71" pos="5.81" lane="0_0" slope="0.00"/>
    </timestep>
    <timestep time="5.00">
        <vehicle id="first" x="74.10" y="0.00" angle="90.00" type="DEFAULT_VEHTYPE" speed="13.78" pos="74.10" lane="0_0" slope="0.00"/>
        <vehicle id="flow.0" x="52.36" y="0.00" angle="90.00" type="flow" speed="12.05" pos="52.36" lane="0_0" slope="0.00"/>
        <vehicle id="flow.1" x="33.61" y="0.00" angle="90.00" type="flow" speed="9.79" pos="33.61" lane="0_0" slope="0.00"/>
        <vehicle id="flow.2" x="7.49" y="0.00" angle="90.00" type="flow" speed="1.68" pos="7.49" lane="0_0" slope="0.00"/>
    </timestep>
    <timestep time="6.00">
        <vehicle id="first" x="87.87" y="0.00" angle="90.00" type="DEFAULT_VEHTYPE" speed="13.76" pos="87.87" lane="0_0" slope="0.00"/>
        <vehicle id="flow.0" x="64.59" y="0.00" angle="90.00" type="flow" speed="12.24" pos="64.59" lane="0_0" slope="0.00"/>
        <vehicle id="flow.1" x="43.77" y="0.00" angle="90.00" type="flow" speed="10.16" pos="43.77" lane="0_0" slope="0.00"/>
        <vehicle id="flow.2" x="10.15" y="0.00" angle="90.00" type="flow" speed="2.66" pos="10.15" lane="0_0" slope="0.00"/>
    </timestep>
    <timestep time="7.00">
        <vehicle id="first" x="101.61" y="0.00" angle="90.00" type="DEFAULT_VEHTYPE" speed="13.75" pos="101.61" lane="0_0" slope="0.00"/>
        <vehicle id="flow.0" x="77.01" y="0.00" angle="90.00" type="flow" speed="12.41" pos="77.01" lane="0_0" slope="0.00"/>
        <vehicle id="flow.1" x="54.27" y="0.00" angle="90.00" type="flow" speed="10.50" pos="54.27" lane="0_0" slope="0.00"/>
        <vehicle id="flow.2" x="13.81" y="0.00" angle="90.00" type="flow" speed="3.65" pos="13.81" lane="0_0" slope="0.00"/>
        <vehicle id="flow.3" x="5.10" y="0.00" angle="90.00" type="flow" speed="0.00" pos="5.10" lane="0_0" slope="0.00"/>
    </timestep>
    <timestep time="8.00">
        <vehicle id="first" x="115.34" y="0.00" angle="90.00" type="DEFAULT_VEHTYPE" speed="13.73" pos="115.34" lane="0_0" slope="0.00"/>
        <vehicle id="flow.0" x="89.58" y="0.00" angle="90.00" type="flow" speed="12.57" pos="89.58" lane="0_0" slope="0.00"/>
        <vehicle id="flow.1" x="65.10" y="0.00" angle="90.00" type="flow" speed="10.82" pos="65.10" lane="0_0" slope="0.00"/>
        <vehicle id="flow.2" x="18.45" y="0.00" angle="90.00" type="flow" speed="4.64" pos="18.45" lane="0_0" slope="0.00"/>
        <vehicle id="flow.3" x="5.63" y="0.00" angle="90.00" type="flow" speed="0.53" pos="5.63" lane="0_0" slope="0.00"/>
    </timestep>
    <timestep time="9.00">
        <vehicle id="first" x="129.04" y="0.00" angle="90.00" type="DEFAULT_VEHTYPE" speed="13.70" pos="129.04" lane="0_0" slope="0.00"/>
        <vehicle id="flow.0" x="102.28" y="0.00" angle="90.00" type="flow" speed="12.70" pos="102.28" lane="0_0" slope="0.00"/>
        <vehicle id="flow.1" x="76.20" y="0.00" angle="90.00" type="flow" speed="11.10" pos="76.20" lane="0_0" slope="0.00"/>
        <vehicle id="flow.2" x="24.07" y="0.00" angle="90.00" type="flow" speed="5.62" pos="24.07" lane="0_0" slope="0.00"/>
        <vehicle id="flow.3" x="7.05" y="0.00" angle="90.00" type="flow" speed="1.42" pos="7.05" lane="0_0" slope="0.00"/>
    </timestep>
    <timestep time="10.00">
        <vehicle id="first" x="142.72" y="0.00" angle="90.00" type="DEFAULT_VEHTYPE" speed="13.67" pos="142.72" lane="0_0" slope="0.00"/>
        <vehicle id="flow.0" x="115.09" y="0.00" angle="90.00" type="flow" speed="12.82" pos="115.09" lane="0_0" slope="0.00"/>
        <vehicle id="flow.1" x="87.54" y="0.00" angle="90.00" type="flow" speed="11.34" pos="87.54" lane="0_0" slope="0.00"/>
        <vehicle id="flow.2" x="30.65" y="0.00" angle="90.00" type="flow" speed="6.58" pos="30.65" lane="0_0" slope="0.00"/>
        <vehicle id="flow.3" x="9.41" y="0.00" angle="90.00" type="flow" speed="2.37" pos="9.41" lane="0_0" slope="0.00"/>
    </timestep>
    <timestep time="11.00">
        <vehicle id="first" x="156.35" y="0.00" angle="90.00" type="DEFAULT_VEHTYPE" speed="13.64" pos="156.35" lane="0_0" slope="0.00"/>
        <vehicle id="flow.0" x="128.01" y="0.00" angle="90.00" type="flow" speed="12.91" pos="128.01" lane="0_0" slope="0.00"/>
        <vehicle id="flow.1" x="99.09" y="0.00" angle="90.00" type="flow" speed="11.55" pos="99.09" lane="0_0" slope="0.00"/>
        <vehicle id="flow.2" x="38.17" y="0.00" angle="90.00" type="flow" speed="7.52" pos="38.17" lane="0_0" slope="0.00"/>
        <vehicle id="flow.3" x="12.75" y="0.00" angle="90.00" type="flow" speed="3.34" pos="12.75" lane="0_0" slope="0.00"/>
        <vehicle id="flow.4" x="5.10" y="0.00" angle="90.00" type="flow" speed="0.00" pos="5.10" lane="0_0" slope="0.00"/>
    </timestep>
    <timestep time="12.00">
        <vehicle id="first" x="169.94" y="0.00" angle="90.00" type="DEFAULT_VEHTYPE" speed="13.59" pos="169.94" lane="0_0" slope="0.00"/>
        <vehicle id="flow.0" x="140.99" y="0.00" angle="90.00" type="flow" speed="12.99" pos="140.99" lane="0_0" slope="0.00"/>
        <vehicle id="flow.1" x="110.81" y="0.00" angle="90.00" type="flow" speed="11.72" pos="110.81" lane="0_0" slope="0.00"/>
        <vehicle id="flow.2" x="46.59" y="0.00" angle="90.00" type="flow" speed="8.42" pos="46.59" lane="0_0" slope="0.00"/>
        <vehicle id="flow.3" x="17.06" y="0.00" angle="90.00" type="flow" speed="4.31" pos="17.06" lane="0_0" slope="0.00"/>
        <vehicle id="flow.4" x="5.20" y="0.00" angle="90.00" type="flow" speed="0.10" pos="5.20" lane="0_0" slope="0.00"/>
    </timestep>
    <timestep time="13.00">
        <vehicle id="first" x="183.47" y="0.00" angle="90.00" type="DEFAULT_VEHTYPE" speed="13.53" pos="183.47" lane="0_0" slope="0.00"/>
        <vehicle id="flow.0" x="154.04" y="0.00" angle="90.00" type="flow" speed="13.05" pos="154.04" lane="0_0" slope="0.00"/>
        <vehicle id="flow.1" x="122.68" y="0.00" angle="90.00" type="flow" speed="11.87" pos="122.68" lane="0_0" slope="0.00"/>
        <vehicle id="flow.2" x="55.85" y="0.00" angle="90.00" type="flow" speed="9.26" pos="55.85" lane="0_0" slope="0.00"/>
        <vehicle id="flow.3" x="22.35" y="0.00" angle="90.00" type="flow" speed="5.29" pos="22.35" lane="0_0" slope="0.00"/>
        <vehicle id="flow.4" x="6.17" y="0.00" angle="90.00" type="flow" speed="0.97" pos="6.17" lane="0_0" slope="0.00"/>
    </timestep>
    <timestep time="14.00">
        <vehicle id="first" x="196.91" y="0.00" angle="90.00" type="DEFAULT_VEHTYPE" speed="13.44" pos="196.91" lane="0_0" slope="0.00"/>
        <vehicle id="flow.0" x="167.14" y="0.00" angle="90.00" type="flow" speed="13.09" pos="167.14" lane="0_0" slope="0.00"/>
        <vehicle id="flow.1" x="134.66" y="0.00" angle="90.00" type="flow" speed="11.99" pos="134.66" lane="0_0" slope="0.00"/>
        <vehicle id="flow.2" x="65.88" y="0.00" angle="90.00" type="flow" speed="10.03" pos="65.88" lane="0_0" slope="0.00"/>
        <vehicle id="flow.3" x="28.61" y="0.00" angle="90.00" type="flow" speed="6.25" pos="28.61" lane="0_0" slope="0.00"/>
        <vehicle id="flow.4" x="8.08" y="0.00" angle="90.00" type="flow" speed="1.91" pos="8.08" lane="0_0" slope="0.00"/>
    </timestep>
    <timestep time="15.00">
        <vehicle id="first" x="210.24" y="0.00" angle="90.00" type="DEFAULT_VEHTYPE" speed="13.33" pos="210.24" lane="0_0" slope="0.00"/>
        <vehicle id="flow.0" x="180.26" y="0.00" angle="90.00" type="flow" speed="13.12" pos="180.26" lane="0_0" slope="0.00"/>
        <vehicle id="flow.1" x="146.75" y="0.00" angle="90.00" type="flow" speed="12.09" pos="146.75" lane="0_0" slope="0.00"/>
        <vehicle id="flow.2" x="76.61" y="0.00" angle="90.00" type="flow" speed="10.72" pos="76.61" lane="0_0" slope="0.00"/>
        <vehicle id="flow.3" x="35.81" y="0.00" angle="90.00" type="flow" speed="7.20" pos="35.81" lane="0_0" slope="0.00"/>
        <vehicle id="flow.4" x="10.96" y="0.00" angle="90.00" type="flow" speed="2.88" pos="10.96" lane="0_0" slope="0.00"/>
    </timestep>
    <timestep time="16.00">
        <vehicle id="first" x="223.41" y="0.00" angle="90.00" type="DEFAULT_VEHTYPE" speed="13.17" pos="223.41" lane="0_0" slope="0.00"/>
        <vehicle id="flow.0" x="193.38" y="0.00" angle="90.00" type="flow" speed="13.13" pos="193.38" lane="0_0" slope="0.00"/>
        <vehicle id="flow.1" x="158.92" y="0.00" angle="90.00" type="flow" speed="12.17" pos="158.92" lane="0_0" slope="0.00"/>
        <vehicle id="flow.2" x="87.93" y="0.00" angle="90.00" type="flow" speed="11.32" pos="87.93" lane="0_0" slope="0.00"/>
        <vehicle id="flow.3" x="43.93" y="0.00" angle="90.00" type="flow" speed="8.12" pos="43.93" lane="0_0" slope="0.00"/>
        <vehicle id="flow.4" x="14.82" y="0.00" angle="90.00" type="flow" speed="3.86" pos="14.82" lane="0_0" slope="0.00"/>
        <vehicle id="flow.5" x="5.10" y="0.00" angle="90.00" type="flow" speed="0.00" pos="5.10" lane="0_0" slope="0.00"/>
    </timestep>
    <timestep time="17.00">
        <vehicle id="first" x="236.34" y="0.00" angle="90.00" type="DEFAULT_VEHTYPE" speed="12.93" pos="236.34" lane="0_0" slope="0.00"/>
        <vehicle id="flow.0" x="206.50" y="0.00" angle="90.00" type="flow" speed="13.12" pos="206.50" lane="0_0" slope="0.00"/>
        <vehicle id="flow.1" x="171.15" y="0.00" angle="90.00" type="flow" speed="12.24" pos="171.15" lane="0_0" slope="0.00"/>
        <vehicle id="flow.2" x="99.77" y="0.00" angle="90.00" type="flow" speed="11.83" pos="99.77" lane="0_0" slope="0.00"/>
        <vehicle id="flow.3" x="52.93" y="0.00" angle="90.00" type="flow" speed="9.00" pos="52.93" lane="0_0" slope="0.00"/>
        <vehicle id="flow.4" x="19.66" y="0.00" angle="90.00" type="flow" speed="4.84" pos="19.66" lane="0_0" slope="0.00"/>
        <vehicle id="flow.5" x="5.81" y="0.00" angle="90.00" type="flow" speed="0.71" pos="5.81" lane="0_0" slope="0.00"/>
    </timestep>
    <timestep time="18.00">
        <vehicle id="first" x="248.92" y="0.00" angle="90.00" type="DEFAULT_VEHTYPE" speed="12.58" pos="248.92" lane="0_0" slope="0.00"/>
        <vehicle id="flow.0" x="219.57" y="0.00" angle="90.00" type="flow" speed="13.07" pos="219.57" lane="0_0" slope="0.00"/>
        <vehicle id="flow.1" x="183.44" y="0.00" angle="90.00" type="flow" speed="12.29" pos="183.44" lane="0_0" slope="0.00"/>
        <vehicle id="flow.2" x="112.02" y="0.00" angle="90.00" type="flow" speed="12.26" pos="112.02" lane="0_0" slope="0.00"/>
        <vehicle id="flow.3" x="62.76" y="0.00" angle="90.00" type="flow" speed="9.83" pos="62.76" lane="0_0" slope="0.00"/>
        <vehicle id="flow.4" x="25.47" y="0.00" angle="90.00" type="flow" speed="5.81" pos="25.47" lane="0_0" slope="0.00"/>
        <vehicle id="flow.5" x="7.43" y="0.00" angle="90.00" type="flow" speed="1.62" pos="7.43" lane="0_0" slope="0.00"/>
    </timestep>
    <timestep time="19.00">
        <vehicle id="first" x="260.92" y="0.00" angle="90.00" type="DEFAULT_VEHTYPE" speed="12.01" pos="260.92" lane="0_0" slope="0.00"/>
        <vehicle id="flow.0" x="232.53" y="0.00" angle="90.00" type="flow" speed="12.97" pos="232.53" lane="0_0" slope="0.00"/>
        <vehicle id="flow.1" x="195.77" y="0.00" angle="90.00" type="flow" speed="12.33" pos="195.77" lane="0_0" slope="0.00"/>
        <vehicle id="flow.2" x="124.62" y="0.00" angle="90.00" type="flow" speed="12.60" pos="124.62" lane="0_0" slope="0.00"/>
        <vehicle id="flow.3" x="73.36" y="0.00" angle="90.00" type="flow" speed="10.60" pos="73.36" lane="0_0" slope="0.00"/>
        <vehicle id="flow.4" x="32.23" y="0.00" angle="90.00" type="flow" speed="6.76" pos="32.23" lane="0_0" slope="0.00"/>
        <vehicle id="flow.5" x="10.00" y="0.00" angle="90.00" type="flow" speed="2.58" pos="10.00" lane="0_0" slope="0.00"/>
    </timestep>
    <timestep time="20.00">
        <vehicle id="first" x="272.00" y="0.00" angle="90.00" type="DEFAULT_VEHTYPE" speed="11.07" pos="272.00" lane="0_0" slope="0.00"/>
        <vehicle id="flow.0" x="245.30" y="0.00" angle="90.00" type="flow" speed="12.77" pos="245.30" lane="0_0" slope="0.00"/>
        <vehicle id="flow.1" x="208.13" y="0.00" angle="90.00" type="flow" speed="12.36" pos="208.13" lane="0_0" slope="0.00"/>
        <vehicle id="flow.2" x="137.48" y="0.00" angle="90.00" type="flow" speed="12.86" pos="137.48" lane="0_0" slope="0.00"/>
        <vehicle id="flow.3" x="84.65" y="0.00" angle="90.00" type="flow" speed="11.29" pos="84.65" lane="0_0" slope="0.00"/>
        <vehicle id="flow.4" x="39.92" y="0.00" angle="90.00" type="flow" speed="7.69" pos="39.92" lane="0_0" slope="0.00"/>
        <vehicle id="flow.5" x="13.55" y="0.00" angle="90.00" type="flow" speed="3.54" pos="13.55" lane="0_0" slope="0.00"/>
        <vehicle id="flow.6" x="5.10" y="0.00" angle="90.00" type="flow" speed="0.00" pos="5.10" lane="0_0" slope="0.00"/>
    </timestep>
    <timestep time="21.00">
        <vehicle id="first" x="281.55" y="0.00" angle="90.00" type="DEFAULT_VEHTYPE" speed="9.56" pos="281.55" lane="0_0" slope="0.00"/>
        <vehicle id="flow.0" x="257.66" y="0.00" angle="90.00" type="flow" speed="12.36" pos="257.66" lane="0_0" slope="0.00"/>
        <vehicle id="flow.1" x="220.50" y="0.00" angle="90.00" type="flow" speed="12.37" pos="220.50" lane="0_0" slope="0.00"/>
        <vehicle id="flow.2" x="150.55" y="0.00" angle="90.00" type="flow" speed="13.07" pos="150.55" lane="0_0" slope="0.00"/>
        <vehicle id="flow.3" x="96.54" y="0.00" angle="90.00" type="flow" speed="11.89" pos="96.54" lane="0_0" slope="0.00"/>
        <vehicle id="flow.4" x="48.49" y="0.00" angle="90.00" type="flow" speed="8.58" pos="48.49" lane="0_0" slope="0.00"/>
        <vehicle id="flow.5" x="18.06" y="0.00" angle="90.00" type="flow" speed="4.51" pos="18.06" lane="0_0" slope="0.00"/>
        <vehicle id="flow.6" x="5.56" y="0.00" angle="90.00" type="flow" speed="0.46" pos="5.56" lane="0_0" slope="0.00"/>
    </timestep>
    <timestep time="22.00">
        <vehicle id="first" x="288.92" y="0.00" angle="90.00" type="DEFAULT_VEHTYPE" speed="7.37" pos="288.92" lane="0_0" slope="0.00"/>
        <vehicle id="flow.0" x="269.15" y="0.00" angle="90.00" type="flow" speed="11.49" pos="269.15" lane="0_0" slope="0.00"/>
        <vehicle id="flow.1" x="232.84" y="0.00" angle="90.00" type="flow" speed="12.35" pos="232.84" lane="0_0" slope="0.00"/>
        <vehicle id="flow.2" x="163.78" y="0.00" angle="90.00" type="flow" speed="13.23" pos="163.78" lane="0_0" slope="0.00"/>
        <vehicle id="flow.3" x="108.96" y="0.00" angle="90.00" type="flow" speed="12.42" pos="108.96" lane="0_0" slope="0.00"/>
        <vehicle id="flow.4" x="57.91" y="0.00" angle="90.00" type="flow" speed="9.41" pos="57.91" lane="0_0" slope="0.00"/>
        <vehicle id="flow.5" x="23.52" y="0.00" angle="90.00" type="flow" speed="5.46" pos="23.52" lane="0_0" slope="0.00"/>
        <vehicle id="flow.6" x="6.89" y="0.00" angle="90.00" type="flow" speed="1.34" pos="6.89" lane="0_0" slope="0.00"/>
    </timestep>
    <timestep time="23.00">
        <vehicle id="first" x="293.83" y="0.00" angle="90.00" type="DEFAULT_VEHTYPE" speed="4.91" pos="293.83" lane="0_0" slope="0.00"/>
        <vehicle id="flow.0" x="278.79" y="0.00" angle="90.00" type="flow" speed="9.64" pos="278.79" lane="0_0" slope="0.00"/>
        <vehicle id="flow.1" x="245.09" y="0.00" angle="90.00" type="flow" speed="12.24" pos="245.09" lane="0_0" slope="0.00"/>
        <vehicle id="flow.2" x="177.12" y="0.00" angle="90.00" type="flow" speed="13.34" pos="177.12" lane="0_0" slope="0.00"/>
        <vehicle id="flow.3" x="121.81" y="0.00" angle="90.00" type="flow" speed="12.86" pos="121.81" lane="0_0" slope="0.00"/>
        <vehicle id="flow.4" x="68.09" y="0.00" angle="90.00" type="flow" speed="10.18" pos="68.09" lane="0_0" slope="0.00"/>
        <vehicle id="flow.5" x="29.91" y="0.00" angle="90.00" type="flow" speed="6.39" pos="29.91" lane="0_0" slope="0.00"/>
        <vehicle id="flow.6" x="9.17" y="0.00" angle="90.00" type="flow" speed="2.28" pos="9.17" lane="0_0" slope="0.00"/>
    </timestep>
    <timestep time="24.00">
        <vehicle id="first" x="296.74" y="0.00" angle="90.00" type="DEFAULT_VEHTYPE" speed="2.91" pos="296.74" lane="0_0" slope="0.00"/>
        <vehicle id="flow.0" x="285.45" y="0.00" angle="90.00" type="flow" speed="6.65" pos="285.45" lane="0_0" slope="0.00"/>
        <vehicle id="flow.1" x="256.98" y="0.00" angle="90.00" type="flow" speed="11.89" pos="256.98" lane="0_0" slope="0.00"/>
        <vehicle id="flow.2" x="190.54" y="0.00" angle="90.00" type="flow" speed="13.42" pos="190.54" lane="0_0" slope="0.00"/>
        <vehicle id="flow.3" x="135.03" y="0.00" angle="90.00" type="flow" speed="13.21" pos="135.03" lane="0_0" slope="0.00"/>
        <vehicle id="flow.4" x="78.97" y="0.00" angle="90.00" type="flow" speed="10.88" pos="78.97" lane="0_0" slope="0.00"/>
        <vehicle id="flow.5" x="37.16" y="0.00" angle="90.00" type="flow" speed="7.26" pos="37.16" lane="0_0" slope="0.00"/>
        <vehicle id="flow.6" x="12.42" y="0.00" angle="90.00" type="flow" speed="3.25" pos="12.42" lane="0_0" slope="0.00"/>
    </timestep>
    <timestep time="25.00">
        <vehicle id="first" x="298.33" y="0.00" angle="90.00" type="DEFAULT_VEHTYPE" speed="1.59" pos="298.33" lane="0_0" slope="0.00"/>
        <vehicle id="flow.0" x="289.21" y="0.00" angle="90.00" type="flow" speed="3.77" pos="289.21" lane="0_0" slope="0.00"/>
        <vehicle id="flow.1" x="267.74" y="0.00" angle="90.00" type="flow" speed="10.75" pos="267.74" lane="0_0" slope="0.00"/>
        <vehicle id="flow.2" x="204.00" y="0.00" angle="90.00" type="flow" speed="13.46" pos="204.00" lane="0_0" slope="0.00"/>
        <vehicle id="flow.3" x="148.53" y="0.00" angle="90.00" type="flow" speed="13.50" pos="148.53" lane="0_0" slope="0.00"/>
        <vehicle id="flow.4" x="90.45" y="0.00" angle="90.00" type="flow" speed="11.49" pos="90.45" lane="0_0" slope="0.00"/>
        <vehicle id="flow.5" x="45.22" y="0.00" angle="90.00" type="flow" speed="8.06" pos="45.22" lane="0_0" slope="0.00"/>
        <vehicle id="flow.6" x="16.64" y="0.00" angle="90.00" type="flow" speed="4.22" pos="16.64" lane="0_0" slope="0.00"/>
        <vehicle id="flow.7" x="5.10" y="0.00" angle="90.00" type="flow" speed="3.88" pos="5.10" lane="0_0" slope="0.00"/>
    </timestep>
    <timestep time="26.00">
        <vehicle id="first" x="299.17" y="0.00" angle="90.00" type="DEFAULT_VEHTYPE" speed="0.83" pos="299.17" lane="0_0" slope="0.00"/>
        <vehicle id="flow.0" x="291.08" y="0.00" angle="90.00" type="flow" speed="1.87" pos="291.08" lane="0_0" slope="0.00"/>
        <vehicle id="flow.1" x="275.90" y="0.00" angle="90.00" type="flow" speed="8.17" pos="275.90" lane="0_0" slope="0.00"/>
        <vehicle id="flow.2" x="217.44" y="0.00" angle="90.00" type="flow" speed="13.44" pos="217.44" lane="0_0" slope="0.00"/>
        <vehicle id="flow.3" x="162.26" y="0.00" angle="90.00" type="flow" speed="13.73" pos="162.26" lane="0_0" slope="0.00"/>
        <vehicle id="flow.4" x="102.46" y="0.00" angle="90.00" type="flow" speed="12.01" pos="102.46" lane="0_0" slope="0.00"/>
        <vehicle id="flow.5" x="53.99" y="0.00" angle="90.00" type="flow" speed="8.77" pos="53.99" lane="0_0" slope="0.00"/>
        <vehicle id="flow.6" x="21.83" y="0.00" angle="90.00" type="flow" speed="5.19" pos="21.83" lane="0_0" slope="0.00"/>
        <vehicle id="flow.7" x="9.09" y="0.00" angle="90.00" type="flow" speed="3.99" pos="9.09" lane="0_0" slope="0.00"/>
    </timestep>
    <timestep time="27.00">
        <vehicle id="first" x="299.59" y="0.00" angle="90.00" type="DEFAULT_VEHTYPE" speed="0.42" pos="299.59" lane="0_0" slope="0.00"/>
        <vehicle id="flow.0" x="291.93" y="0.00" angle="90.00" type="flow" speed="0.85" pos="291.93" lane="0_0" slope="0.00"/>
        <vehicle id="flow.1" x="280.81" y="0.00" angle="90.00" type="flow" speed="4.90" pos="280.81" lane="0_0" slope="0.00"/>
        <vehicle id="flow.2" x="230.67" y="0.00" angle="90.00" type="flow" speed="13.23" pos="230.67" lane="0_0" slope="0.00"/>
        <vehicle id="flow.3" x="176.16" y="0.00" angle="90.00" type="flow" speed="13.90" pos="176.16" lane="0_0" slope="0.00"/>
        <vehicle id="flow.4" x="114.92" y="0.00" angle="90.00" type="flow" speed="12.45" pos="114.92" lane="0_0" slope="0.00"/>
        <vehicle id="flow.5" x="63.38" y="0.00" angle="90.00" type="flow" speed="9.39" pos="63.38" lane="0_0" slope="0.00"/>
        <vehicle id="flow.6" x="27.98" y="0.00" angle="90.00" type="flow" speed="6.15" pos="27.98" lane="0_0" slope="0.00"/>
        <vehicle id="flow.7" x="13.52" y="0.00" angle="90.00" type="flow" speed="4.44" pos="13.52" lane="0_0" slope="0.00"/>
        <vehicle id="flow.8" x="5.10" y="0.00" angle="90.00" type="flow" speed="0.00" pos="5.10" lane="0_0" slope="0.00"/>
    </timestep>
    <timestep time="28.00">
        <vehicle id="first" x="299.80" y="0.00" angle="90.00" type="DEFAULT_VEHTYPE" speed="0.21" pos="299.80" lane="0_0" slope="0.00"/>
        <vehicle id="flow.0" x="292.29" y="0.00" angle="90.00" type="flow" speed="0.36" pos="292.29" lane="0_0" slope="0.00"/>
        <vehicle id="flow.1" x="283.31" y="0.00" angle="90.00" type="flow" speed="2.51" pos="283.31" lane="0_0" slope="0.00"/>
        <vehicle id="flow.2" x="243.24" y="0.00" angle="90.00" type="flow" speed="12.58" pos="243.24" lane="0_0" slope="0.00"/>
        <vehicle id="flow.3" x="190.17" y="0.00" angle="90.00" type="flow" speed="14.01" pos="190.17" lane="0_0" slope="0.00"/>
        <vehicle id="flow.4" x="127.73" y="0.00" angle="90.00" type="flow" speed="12.81" pos="127.73" lane="0_0" slope="0.00"/>
        <vehicle id="flow.5" x="73.28" y="0.00" angle="90.00" type="flow" speed="9.90" pos="73.28" lane="0_0" slope="0.00"/>
        <vehicle id="flow.6" x="35.06" y="0.00" angle="90.00" type="flow" speed="7.08" pos="35.06" lane="0_0" slope="0.00"/>
        <vehicle id="flow.7" x="18.59" y="0.00" angle="90.00" type="flow" speed="5.07" pos="18.59" lane="0_0" slope="0.00"/>
        <vehicle id="flow.8" x="5.57" y="0.00" angle="90.00" type="flow" speed="0.47" pos="5.57" lane="0_0" slope="0.00"/>
    </timestep>
    <timestep time="29.00">
        <vehicle id="first" x="299.90" y="0.00" angle="90.00" type="DEFAULT_VEHTYPE" speed="0.10" pos="299.90" lane="0_0" slope="0.00"/>
        <vehicle id="flow.0" x="292.42" y="0.00" angle="90.00" type="flow" speed="0.13" pos="292.42" lane="0_0" slope="0.00"/>
        <vehicle id="flow.1" x="284.45" y="0.00" angle="90.00" type="flow" speed="1.14" pos="284.45" lane="0_0" slope="0.00"/>
        <vehicle id="flow.2" x="254.48" y="0.00" angle="90.00" type="flow" speed="11.24" pos="254.48" lane="0_0" slope="0.00"/>
        <vehicle id="flow.3" x="204.22" y="0.00" angle="90.00" type="flow" speed="14.05" pos="204.22" lane="0_0" slope="0.00"/>
        <vehicle id="flow.4" x="140.83" y="0.00" angle="90.00" type="flow" speed="13.10" pos="140.83" lane="0_0" slope="0.00"/>
        <vehicle id="flow.5" x="83.58" y="0.00" angle="90.00" type="flow" speed="10.30" pos="83.58" lane="0_0" slope="0.00"/>
        <vehicle id="flow.6" x="43.05" y="0.00" angle="90.00" type="flow" speed="7.99" pos="43.05" lane="0_0" slope="0.00"/>
        <vehicle id="flow.7" x="24.37" y="0.00" angle="90.00" type="flow" speed="5.79" pos="24.37" lane="0_0" slope="0.00"/>
        <vehicle id="flow.8" x="6.93" y="0.00" angle="90.00" type="flow" speed="1.37" pos="6.93" lane="0_0" slope="0.00"/>
    </timestep>
    <timestep time="30.00">
        <vehicle id="first" x="299.95" y="0.00" angle="90.00" type="DEFAULT_VEHTYPE" speed="0.05" pos="299.95" lane="0_0" slope="0.00"/>
        <vehicle id="flow.0" x="292.42" y="0.00" angle="90.00" type="flow" speed="0.00" pos="292.42" lane="0_0" slope="0.00"/>
        <vehicle id="flow.1" x="284.90" y="0.00" angle="90.00" type="flow" speed="0.44" pos="284.90" lane="0_0" slope="0.00"/>
        <vehicle id="flow.2" x="263.59" y="0.00" angle="90.00" type="flow" speed="9.10" pos="263.59" lane="0_0" slope="0.00"/>
        <vehicle id="flow.3" x="218.18" y="0.00" angle="90.00" type="flow" speed="13.96" pos="218.18" lane="0_0" slope="0.00"/>
        <vehicle id="flow.4" x="154.16" y="0.00" angle="90.00" type="flow" speed="13.33" pos="154.16" lane="0_0" slope="0.00"/>
        <vehicle id="flow.5" x="94.20" y="0.00" angle="90.00" type="flow" speed="10.62" pos="94.20" lane="0_0" slope="0.00"/>
        <vehicle id="flow.6" x="51.89" y="0.00" angle="90.00" type="flow" speed="8.84" pos="51.89" lane="0_0" slope="0.00"/>
        <vehicle id="flow.7" x="30.92" y="0.00" angle="90.00" type="flow" speed="6.54" pos="30.92" lane="0_0" slope="0.00"/>
        <vehicle id="flow.8" x="9.25" y="0.00" angle="90.00" type="flow" speed="2.32" pos="9.25" lane="0_0" slope="0.00"/>
    </timestep>
    <timestep time="31.00">
        <vehicle id="first" x="299.95" y="0.00" angle="90.00" type="DEFAULT_VEHTYPE" speed="0.00" pos="299.95" lane="0_0" slope="0.00"/>
        <vehicle id="flow.0" x="292.44" y="0.00" angle="90.00" type="flow" speed="0.02" pos="292.44" lane="0_0" slope="0.00"/>
        <vehicle id="flow.1" x="284.98" y="0.00" angle="90.00" type="flow" speed="0.09" pos="284.98" lane="0_0" slope="0.00"/>
        <vehicle id="flow.2" x="270.00" y="0.00" angle="90.00" type="flow" speed="6.42" pos="270.00" lane="0_0" slope="0.00"/>
        <vehicle id="flow.3" x="231.76" y="0.00" angle="90.00" type="flow" speed="13.58" pos="231.76" lane="0_0" slope="0.00"/>
        <vehicle id="flow.4" x="167.66" y="0.00" angle="90.00" type="flow" speed="13.50" pos="167.66" lane="0_0" slope="0.00"/>
        <vehicle id="flow.5" x="105.07" y="0.00" angle="90.00" type="flow" speed="10.86" pos="105.07" lane="0_0" slope="0.00"/>
        <vehicle id="flow.6" x="61.52" y="0.00" angle="90.00" type="flow" speed="9.63" pos="61.52" lane="0_0" slope="0.00"/>
        <vehicle id="flow.7" x="38.21" y="0.00" angle="90.00" type="flow" speed="7.30" pos="38.21" lane="0_0" slope="0.00"/>
        <vehicle id="flow.8" x="12.54" y="0.00" angle="90.00" type="flow" speed="3.29" pos="12.54" lane="0_0" slope="0.00"/>
    </timestep>
    <timestep time="32.00">
        <vehicle id="first" x="299.95" y="0.00" angle="90.00" type="DEFAULT_VEHTYPE" speed="0.00" pos="299.95" lane="0_0" slope="0.00"/>
        <vehicle id="flow.0" x="292.45" y="0.00" angle="90.00" type="flow" speed="0.01" pos="292.45" lane="0_0" slope="0.00"/>
        <vehicle id="flow.1" x="284.98" y="0.00" angle="90.00" type="flow" speed="0.00" pos="284.98" lane="0_0" slope="0.00"/>
        <vehicle id="flow.2" x="273.86" y="0.00" angle="90.00" type="flow" speed="3.85" pos="273.86" lane="0_0" slope="0.00"/>
        <vehicle id="flow.3" x="244.31" y="0.00" angle="90.00" type="flow" speed="12.55" pos="244.31" lane="0_0" slope="0.00"/>
        <vehicle id="flow.4" x="181.29" y="0.00" angle="90.00" type="flow" speed="13.63" pos="181.29" lane="0_0" slope="0.00"/>