<?xml version="1.0" encoding="UTF-8"?>

<!-- generated on Thu Jan  5 16:15:53 2017 by SUMO Version dev-SVN-r22466
<?xml version="1.0" encoding="UTF-8"?>

<configuration xmlns:xsi="http://www.w3.org/2001/XMLSchema-instance" xsi:noNamespaceSchemaLocation="http://sumo.dlr.de/xsd/sumoConfiguration.xsd">

    <input>
        <net-file value="net.net.xml"/>
        <route-files value="input_routes.rou.xml"/>
        <additional-files value="input_additional.add.xml"/>
    </input>

    <output>
        <vehroute-output value="vehroutes.xml"/>
    </output>

    <time>
        <end value="1440"/>
    </time>

    <report>
        <xml-validation value="never"/>
        <duration-log.disable value="true"/>
        <no-step-log value="true"/>
    </report>

    <mesoscopic>
        <mesosim value="true"/>
    </mesoscopic>

</configuration>
-->

<meandata xmlns:xsi="http://www.w3.org/2001/XMLSchema-instance" xsi:noNamespaceSchemaLocation="http://sumo.dlr.de/xsd/meandata_file.xsd">
    <interval begin="0.00" end="360.00" id="expect_300_vehs">
        <edge id="bottleneck" sampledSeconds="503.07" traveltime="2.73" overlapTraveltime="2.87" density="14.19" occupancy="7.09" waitingTime="0.00" speed="36.12" departed="0" arrived="0" entered="185" left="184" laneChangedFrom="0" laneChangedTo="0"/>
        <edge id="end" sampledSeconds="507.10" traveltime="2.77" overlapTraveltime="2.91" density="14.09" occupancy="7.04" waitingTime="0.00" speed="36.11" departed="0" arrived="182" entered="184" left="0" laneChangedFrom="0" laneChangedTo="0"/>
        <edge id="jam" sampledSeconds="3559.02" traveltime="18.77" overlapTraveltime="19.72" density="100.37" occupancy="25.09" waitingTime="0.00" speed="5.25" departed="0" arrived="0" entered="192" left="185" laneChangedFrom="0" laneChangedTo="0"/>
        <edge id="middle" sampledSeconds="6280.25" traveltime="29.98" overlapTraveltime="31.48" density="174.45" occupancy="43.61" waitingTime="0.00" speed="3.34" departed="0" arrived="0" entered="218" left="192" laneChangedFrom="0" laneChangedTo="0"/>
        <edge id="start" sampledSeconds="1351.59" traveltime="6.11" overlapTraveltime="6.42" density="37.54" occupancy="9.39" waitingTime="0.00" speed="16.36" departed="223" arrived="0" entered="0" left="218" laneChangedFrom="0" laneChangedTo="0"/>
    </interval>
    <interval begin="360.00" end="720.00" id="expect_300_vehs">
        <edge id="bottleneck" sampledSeconds="490.86" traveltime="2.73" overlapTraveltime="2.87" density="13.84" occupancy="6.92" waitingTime="0.00" speed="36.12" departed="0" arrived="0" entered="180" left="180" laneChangedFrom="0" laneChangedTo="0"/>
        <edge id="end" sampledSeconds="498.42" traveltime="2.77" overlapTraveltime="2.91" density="13.85" occupancy="6.92" waitingTime="0.00" speed="36.11" departed="0" arrived="180" entered="180" left="0" laneChangedFrom="0" laneChangedTo="0"/>
        <edge id="jam" sampledSeconds="2480.96" traveltime="13.78" overlapTraveltime="14.48" density="69.97" occupancy="17.49" waitingTime="0.00" speed="7.15" departed="0" arrived="0" entered="180" left="180" laneChangedFrom="0" laneChangedTo="0"/>
        <edge id="middle" sampledSeconds="9359.82" traveltime="52.07" overlapTraveltime="54.68" density="260.00" occupancy="65.00" waitingTime="0.00" speed="1.92" departed="0" arrived="0" entered="180" left="180" laneChangedFrom="0" laneChangedTo="0"/>
        <edge id="start" sampledSeconds="1714.40" traveltime="9.53" overlapTraveltime="10.01" density="47.62" occupancy="11.91" waitingTime="0.00" speed="10.49" departed="180" arrived="0" entered="0" left="180" laneChangedFrom="0" laneChangedTo="0"/>
    </interval>
    <interval begin="720.00" end="1080.00" id="expect_300_vehs">
        <edge id="bottleneck" sampledSeconds="490.86" traveltime="2.73" overlapTraveltime="2.87" density="13.84" occupancy="6.92" waitingTime="0.00" speed="36.12" departed="0" arrived="0" entered="180" left="180" laneChangedFrom="0" laneChangedTo="0"/>
        <edge id="end" sampledSeconds="498.42" traveltime="2.77" overlapTraveltime="2.91" density="13.85" occupancy="6.92" waitingTime="0.00" speed="36.11" departed="0" arrived="180" entered="180" left="0" laneChangedFrom="0" laneChangedTo="0"/>
        <edge id="jam" sampledSeconds="2478.02" traveltime="13.77" overlapTraveltime="14.47" density="69.88" occupancy="17.47" waitingTime="0.00" speed="7.15" departed="0" arrived="0" entered="180" left="180" laneChangedFrom="0" laneChangedTo="0"/>
        <edge id="middle" sampledSeconds="9359.82" traveltime="51.98" overlapTraveltime="54.58" density="260.00" occupancy="65.00" waitingTime="0.00" speed="1.92" departed="0" arrived="0" entered="180" left="180" laneChangedFrom="0" laneChangedTo="0"/>
        <edge id="start" sampledSeconds="1712.34" traveltime="9.52" overlapTraveltime="9.99" density="47.56" occupancy="11.89" waitingTime="0.00" speed="10.51" departed="180" arrived="0" entered="0" left="180" laneChangedFrom="0" laneChangedTo="0"/>
    </interval>
    <interval begin="1080.00" end="1440.00" id="expect_300_vehs">
        <edge id="bottleneck" sampledSeconds="490.86" traveltime="2.73" overlapTraveltime="2.87" density="13.84" occupancy="6.92" waitingTime="0.00" speed="36.12" departed="0" arrived="0" entered="180" left="180" laneChangedFrom="0" laneChangedTo="0"/>
        <edge id="end" sampledSeconds="498.42" traveltime="2.77" overlapTraveltime="2.91" density="13.85" occupancy="6.92" waitingTime="0.00" speed="36.11" departed="0" arrived="180" entered="180" left="0" laneChangedFrom="0" laneChangedTo="0"/>
        <edge id="jam" sampledSeconds="2480.00" traveltime="13.78" overlapTraveltime="14.48" density="69.94" occupancy="17.48" waitingTime="0.00" speed="7.15" departed="0" arrived="0" entered="180" left="180" laneChangedFrom="0" laneChangedTo="0"/>
        <edge id="middle" sampledSeconds="9359.82" traveltime="51.97" overlapTraveltime="54.57" density="260.00" occupancy="65.00" waitingTime="0.00" speed="1.92" departed="0" arrived="0" entered="180" left="180" laneChangedFrom="0" laneChangedTo="0"/>
        <edge id="start" sampledSeconds="1713.36" traveltime="9.51" overlapTraveltime="9.98" density="47.59" occupancy="11.90" waitingTime="0.00" speed="10.52" departed="180" arrived="0" entered="0" left="180" laneChangedFrom="0" laneChangedTo="0"/>
    </interval>
</meandata>
