<?xml version="1.0" encoding="UTF-8"?>

<!-- generated on Thu Mar  6 17:51:37 2014 by SUMO sumo Version dev-SVN-r15852
<?xml version="1.0" encoding="UTF-8"?>

<configuration xmlns:xsi="http://www.w3.org/2001/XMLSchema-instance" xsi:noNamespaceSchemaLocation="http://sumo-sim.org/xsd/sumoConfiguration.xsd">

    <input>
        <net-file value="net.net.xml"/>
        <route-files value="input_routes.rou.xml"/>
        <additional-files value="input_additional.add.xml"/>
    </input>

    <output>
        <vehroute-output value="vehroutes.xml"/>
    </output>

    <time>
        <end value="1440"/>
    </time>

    <report>
        <xml-validation value="never"/>
        <no-duration-log value="true"/>
        <no-step-log value="true"/>
    </report>

</configuration>
-->

<meandata xmlns:xsi="http://www.w3.org/2001/XMLSchema-instance" xsi:noNamespaceSchemaLocation="http://sumo-sim.org/xsd/meandata_file.xsd">
    <interval begin="0.00" end="360.00" id="expect_300_vehs">
        <edge id="bottleneck" sampledSeconds="826.70" traveltime="4.13" density="23.31" occupancy="11.66" waitingTime="0.00" speed="23.87" departed="0" arrived="0" entered="193" left="189" laneChangedFrom="0" laneChangedTo="0"/>
        <edge id="end" sampledSeconds="598.14" traveltime="3.03" density="16.62" occupancy="8.31" waitingTime="0.00" speed="33.01" departed="0" arrived="188" entered="189" left="0" laneChangedFrom="0" laneChangedTo="0"/>
        <edge id="jam" sampledSeconds="3352.67" traveltime="15.85" density="94.55" occupancy="23.64" waitingTime="647.00" speed="6.22" departed="0" arrived="0" entered="212" left="193" laneChangedFrom="90" laneChangedTo="90"/>
        <edge id="middle" sampledSeconds="4881.93" traveltime="21.02" density="135.61" occupancy="33.90" waitingTime="1721.00" speed="4.76" departed="0" arrived="0" entered="230" left="212" laneChangedFrom="27" laneChangedTo="27"/>
        <edge id="start" sampledSeconds="4383.75" traveltime="19.00" density="121.77" occupancy="30.44" waitingTime="1668.00" speed="5.26" departed="240" arrived="0" entered="0" left="230" laneChangedFrom="31" laneChangedTo="31"/>
    </interval>
    <interval begin="360.00" end="720.00" id="expect_300_vehs">
        <edge id="bottleneck" sampledSeconds="891.54" traveltime="4.57" density="25.14" occupancy="12.57" waitingTime="0.00" speed="21.57" departed="0" arrived="0" entered="185" left="186" laneChangedFrom="0" laneChangedTo="0"/>
        <edge id="end" sampledSeconds="610.88" traveltime="3.15" density="16.97" occupancy="8.48" waitingTime="0.00" speed="31.77" departed="0" arrived="185" entered="186" left="0" laneChangedFrom="0" laneChangedTo="0"/>
        <edge id="jam" sampledSeconds="4413.82" traveltime="23.47" density="124.47" occupancy="31.12" waitingTime="1295.00" speed="4.20" departed="0" arrived="0" entered="171" left="185" laneChangedFrom="116" laneChangedTo="116"/>
        <edge id="middle" sampledSeconds="7287.04" traveltime="40.78" density="202.42" occupancy="50.60" waitingTime="3460.76" speed="2.45" departed="0" arrived="0" entered="174" left="171" laneChangedFrom="8" laneChangedTo="8"/>
        <edge id="start" sampledSeconds="6765.80" traveltime="39.38" density="187.94" occupancy="46.98" waitingTime="3496.00" speed="2.54" departed="189" arrived="0" entered="0" left="174" laneChangedFrom="29" laneChangedTo="29"/>
    </interval>
    <interval begin="720.00" end="1080.00" id="expect_300_vehs">
        <edge id="bottleneck" sampledSeconds="904.48" traveltime="4.51" density="25.51" occupancy="12.75" waitingTime="0.00" speed="21.86" departed="0" arrived="0" entered="191" left="192" laneChangedFrom="0" laneChangedTo="0"/>
        <edge id="end" sampledSeconds="626.93" traveltime="3.12" density="17.41" occupancy="8.71" waitingTime="0.00" speed="32.07" departed="0" arrived="192" entered="192" left="0" laneChangedFrom="0" laneChangedTo="0"/>
        <edge id="jam" sampledSeconds="3849.00" traveltime="19.27" density="108.54" occupancy="27.14" waitingTime="1023.00" speed="5.11" departed="0" arrived="0" entered="190" left="191" laneChangedFrom="110" laneChangedTo="110"/>
        <edge id="middle" sampledSeconds="6533.45" traveltime="32.91" density="181.48" occupancy="45.37" waitingTime="3182.00" speed="3.04" departed="0" arrived="0" entered="189" left="190" laneChangedFrom="10" laneChangedTo="10"/>
        <edge id="start" sampledSeconds="6338.64" traveltime="34.71" density="176.07" occupancy="44.02" waitingTime="3562.00" speed="2.88" departed="181" arrived="0" entered="0" left="189" laneChangedFrom="26" laneChangedTo="26"/>
    </interval>
    <interval begin="1080.00" end="1440.00" id="expect_300_vehs">
        <edge id="bottleneck" sampledSeconds="846.94" traveltime="4.26" density="23.88" occupancy="11.94" waitingTime="0.00" speed="23.11" departed="0" arrived="0" entered="189" left="189" laneChangedFrom="0" laneChangedTo="0"/>
        <edge id="end" sampledSeconds="603.89" traveltime="3.06" density="16.77" occupancy="8.39" waitingTime="0.00" speed="32.67" departed="0" arrived="189" entered="189" left="0" laneChangedFrom="0" laneChangedTo="0"/>
        <edge id="jam" sampledSeconds="4013.21" traveltime="19.99" density="113.18" occupancy="28.29" waitingTime="887.00" speed="4.93" departed="0" arrived="0" entered="195" left="189" laneChangedFrom="129" laneChangedTo="129"/>
        <edge id="middle" sampledSeconds="7244.93" traveltime="34.70" density="201.25" occupancy="50.31" waitingTime="2629.00" speed="2.88" departed="0" arrived="0" entered="200" left="195" laneChangedFrom="3" laneChangedTo="3"/>
        <edge id="start" sampledSeconds="6235.59" traveltime="30.68" density="173.21" occupancy="43.30" waitingTime="2188.00" speed="3.26" departed="198" arrived="0" entered="0" left="200" laneChangedFrom="26" laneChangedTo="26"/>
    </interval>
</meandata>
