<?xml version="1.0" encoding="UTF-8"?>

<!-- generated on Mon Jun  2 16:37:44 2014 by SUMO sumo Version dev-SVN-r16462
<?xml version="1.0" encoding="UTF-8"?>

<configuration xmlns:xsi="http://www.w3.org/2001/XMLSchema-instance" xsi:noNamespaceSchemaLocation="http://sumo-sim.org/xsd/sumoConfiguration.xsd">

    <input>
        <net-file value="net.net.xml"/>
        <route-files value="input_routes.rou.xml"/>
        <additional-files value="input_additional.add.xml"/>
    </input>

    <output>
        <vehroute-output value="vehroutes.xml"/>
    </output>

    <time>
        <end value="1440"/>
    </time>

    <report>
        <xml-validation value="never"/>
        <no-duration-log value="true"/>
        <no-step-log value="true"/>
    </report>

</configuration>
-->

<routes xmlns:xsi="http://www.w3.org/2001/XMLSchema-instance" xsi:noNamespaceSchemaLocation="http://sumo-sim.org/xsd/routes_file.xsd">
    <vehicle id="high.0" depart="0.00" arrival="14.00">
        <route edges="start middle jam bottleneck end"/>
    </vehicle>

    <vehicle id="high.1" depart="1.00" arrival="16.00">
        <route edges="start middle jam bottleneck end"/>
    </vehicle>

    <vehicle id="high.2" depart="2.00" arrival="17.00">
        <route edges="start middle jam bottleneck end"/>
    </vehicle>

    <vehicle id="high.4" depart="4.00" arrival="18.00">
        <route edges="start middle jam bottleneck end"/>
    </vehicle>

    <vehicle id="high.3" depart="4.00" arrival="19.00">
        <route edges="start middle jam bottleneck end"/>
    </vehicle>

    <vehicle id="high.5" depart="6.00" arrival="21.00">
        <route edges="start middle jam bottleneck end"/>
    </vehicle>

    <vehicle id="high.7" depart="8.00" arrival="22.00">
        <route edges="start middle jam bottleneck end"/>
    </vehicle>

    <vehicle id="high.6" depart="8.00" arrival="23.00">
        <route edges="start middle jam bottleneck end"/>
    </vehicle>

    <vehicle id="high.8" depart="10.00" arrival="25.00">
        <route edges="start middle jam bottleneck end"/>
    </vehicle>

    <vehicle id="high.9" depart="10.00" arrival="26.00">
        <route edges="start middle jam bottleneck end"/>
    </vehicle>

    <vehicle id="high.10" depart="12.00" arrival="27.00">
        <route edges="start middle jam bottleneck end"/>
    </vehicle>

    <vehicle id="high.12" depart="14.00" arrival="29.00">
        <route edges="start middle jam bottleneck end"/>
    </vehicle>

    <vehicle id="high.11" depart="14.00" arrival="30.00">
        <route edges="start middle jam bottleneck end"/>
    </vehicle>

    <vehicle id="high.13" depart="16.00" arrival="31.00">
        <route edges="start middle jam bottleneck end"/>
    </vehicle>

    <vehicle id="high.14" depart="16.00" arrival="32.00">
        <route edges="start middle jam bottleneck end"/>
    </vehicle>

    <vehicle id="high.15" depart="18.00" arrival="33.00">
        <route edges="start middle jam bottleneck end"/>
    </vehicle>

    <vehicle id="high.17" depart="20.00" arrival="35.00">
        <route edges="start middle jam bottleneck end"/>
    </vehicle>

    <vehicle id="high.16" depart="20.00" arrival="36.00">
        <route edges="start middle jam bottleneck end"/>
    </vehicle>

    <vehicle id="high.18" depart="22.00" arrival="37.00">
        <route edges="start middle jam bottleneck end"/>
    </vehicle>

    <vehicle id="high.19" depart="22.00" arrival="38.00">
        <route edges="start middle jam bottleneck end"/>
    </vehicle>

    <vehicle id="high.20" depart="24.00" arrival="40.00">
        <route edges="start middle jam bottleneck end"/>
    </vehicle>

    <vehicle id="high.21" depart="25.00" arrival="41.00">
        <route edges="start middle jam bottleneck end"/>
    </vehicle>

    <vehicle id="high.22" depart="26.00" arrival="42.00">
        <route edges="start middle jam bottleneck end"/>
    </vehicle>

    <vehicle id="high.23" depart="27.00" arrival="44.00">
        <route edges="start middle jam bottleneck end"/>
    </vehicle>

    <vehicle id="high.24" depart="28.00" arrival="45.00">
        <route edges="start middle jam bottleneck end"/>
    </vehicle>

    <vehicle id="high.27" depart="32.00" arrival="47.00">
        <route edges="start middle jam bottleneck end"/>
    </vehicle>

    <vehicle id="high.25" depart="30.00" arrival="48.00">
        <route edges="start middle jam bottleneck end"/>
    </vehicle>

    <vehicle id="high.26" depart="31.00" arrival="50.00">
        <route edges="start middle jam bottleneck end"/>
    </vehicle>

    <vehicle id="high.29" depart="34.00" arrival="52.00">
        <route edges="start middle jam bottleneck end"/>
    </vehicle>

    <vehicle id="high.28" depart="34.00" arrival="54.00">
        <route edges="start middle jam bottleneck end"/>
    </vehicle>

    <vehicle id="high.30" depart="36.00" arrival="55.00">
        <route edges="start middle jam bottleneck end"/>
    </vehicle>

    <vehicle id="high.31" depart="37.00" arrival="56.00">
        <route edges="start middle jam bottleneck end"/>
    </vehicle>

    <vehicle id="high.32" depart="38.00" arrival="57.00">
        <route edges="start middle jam bottleneck end"/>
    </vehicle>

    <vehicle id="high.33" depart="39.00" arrival="58.00">
        <route edges="start middle jam bottleneck end"/>
    </vehicle>

    <vehicle id="high.34" depart="40.00" arrival="60.00">
        <route edges="start middle jam bottleneck end"/>
    </vehicle>

    <vehicle id="high.36" depart="43.00" arrival="61.00">
        <route edges="start middle jam bottleneck end"/>
    </vehicle>

    <vehicle id="high.35" depart="42.00" arrival="63.00">
        <route edges="start middle jam bottleneck end"/>
    </vehicle>

    <vehicle id="high.37" depart="45.00" arrival="64.00">
        <route edges="start middle jam bottleneck end"/>
    </vehicle>

    <vehicle id="high.38" depart="45.00" arrival="71.00">
        <route edges="start middle jam bottleneck end"/>
    </vehicle>

    <vehicle id="high.39" depart="47.00" arrival="72.00">
        <route edges="start middle jam bottleneck end"/>
    </vehicle>

    <vehicle id="high.40" depart="48.00" arrival="74.00">
        <route edges="start middle jam bottleneck end"/>
    </vehicle>

    <vehicle id="high.41" depart="49.00" arrival="76.00">
        <route edges="start middle jam bottleneck end"/>
    </vehicle>

    <vehicle id="high.43" depart="51.00" arrival="78.00">
        <route edges="start middle jam bottleneck end"/>
    </vehicle>

    <vehicle id="high.48" depart="57.00" arrival="79.00">
        <route edges="start middle jam bottleneck end"/>
    </vehicle>

    <vehicle id="high.42" depart="50.00" arrival="80.00">
        <route edges="start middle jam bottleneck end"/>
    </vehicle>

    <vehicle id="high.54" depart="64.00" arrival="82.00">
        <route edges="start middle jam bottleneck end"/>
    </vehicle>

    <vehicle id="high.44" depart="52.00" arrival="83.00">
        <route edges="start middle jam bottleneck end"/>
    </vehicle>

    <vehicle id="high.53" depart="63.00" arrival="85.00">
        <route edges="start middle jam bottleneck end"/>
    </vehicle>

    <vehicle id="high.45" depart="54.00" arrival="87.00">
        <route edges="start middle jam bottleneck end"/>
    </vehicle>

    <vehicle id="high.55" depart="66.00" arrival="89.00">
        <route edges="start middle jam bottleneck end"/>
    </vehicle>

    <vehicle id="high.47" depart="56.00" arrival="91.00">
        <route edges="start middle jam bottleneck end"/>
    </vehicle>

    <vehicle id="high.58" depart="69.00" arrival="93.00">
        <route edges="start middle jam bottleneck end"/>
    </vehicle>

    <vehicle id="high.46" depart="55.00" arrival="95.00">
        <route edges="start middle jam bottleneck end"/>
    </vehicle>

    <vehicle id="high.49" depart="58.00" arrival="96.00">
        <route edges="start middle jam bottleneck end"/>
    </vehicle>

    <vehicle id="high.59" depart="71.00" arrival="99.00">
        <route edges="start middle jam bottleneck end"/>
    </vehicle>

    <vehicle id="high.50" depart="60.00" arrival="100.00">
        <route edges="start middle jam bottleneck end"/>
    </vehicle>

    <vehicle id="high.61" depart="73.00" arrival="102.00">
        <route edges="start middle jam bottleneck end"/>
    </vehicle>

    <vehicle id="high.63" depart="75.00" arrival="103.00">
        <route edges="start middle jam bottleneck end"/>
    </vehicle>

    <vehicle id="high.51" depart="61.00" arrival="105.00">
        <route edges="start middle jam bottleneck end"/>
    </vehicle>

    <vehicle id="high.64" depart="77.00" arrival="108.00">
        <route edges="start middle jam bottleneck end"/>
    </vehicle>

    <vehicle id="high.66" depart="79.00" arrival="109.00">
        <route edges="start middle jam bottleneck end"/>
    </vehicle>

    <vehicle id="high.52" depart="62.00" arrival="110.00">
        <route edges="start middle jam bottleneck end"/>
    </vehicle>

    <vehicle id="high.67" depart="81.00" arrival="111.00">
        <route edges="start middle jam bottleneck end"/>
    </vehicle>

    <vehicle id="high.69" depart="83.00" arrival="113.00">
        <route edges="start middle jam bottleneck end"/>
    </vehicle>

    <vehicle id="high.71" depart="85.00" arrival="116.00">
        <route edges="start middle jam bottleneck end"/>
    </vehicle>

    <vehicle id="high.56" depart="67.00" arrival="118.00">
        <route edges="start middle jam bottleneck end"/>
    </vehicle>

    <vehicle id="high.72" depart="87.00" arrival="121.00">
        <route edges="start middle jam bottleneck end"/>
    </vehicle>

    <vehicle id="high.57" depart="68.00" arrival="122.00">
        <route edges="start middle jam bottleneck end"/>
    </vehicle>

    <vehicle id="high.60" depart="72.00" arrival="123.00">
        <route edges="start middle jam bottleneck end"/>
    </vehicle>

    <vehicle id="high.62" depart="75.00" arrival="124.00">
        <route edges="start middle jam bottleneck end"/>
    </vehicle>

    <vehicle id="high.74" depart="89.00" arrival="125.00">
        <route edges="start middle jam bottleneck end"/>
    </vehicle>

    <vehicle id="high.65" depart="79.00" arrival="127.00">
        <route edges="start middle jam bottleneck end"/>
    </vehicle>

    <vehicle id="high.76" depart="91.00" arrival="128.00">
        <route edges="start middle jam bottleneck end"/>
    </vehicle>

    <vehicle id="high.68" depart="81.00" arrival="129.00">
        <route edges="start middle jam bottleneck end"/>
    </vehicle>

    <vehicle id="high.78" depart="93.00" arrival="131.00">
        <route edges="start middle jam bottleneck end"/>
    </vehicle>

    <vehicle id="high.70" depart="85.00" arrival="132.00">
        <route edges="start middle jam bottleneck end"/>
    </vehicle>

    <vehicle id="high.81" depart="97.00" arrival="135.00">
        <route edges="start middle jam bottleneck end"/>
    </vehicle>

    <vehicle id="high.83" depart="99.00" arrival="137.00">
        <route edges="start middle jam bottleneck end"/>
    </vehicle>

    <vehicle id="high.85" depart="102.00" arrival="139.00">
        <route edges="start middle jam bottleneck end"/>
    </vehicle>

    <vehicle id="high.87" depart="104.00" arrival="141.00">
        <route edges="start middle jam bottleneck end"/>
    </vehicle>

    <vehicle id="high.89" depart="107.00" arrival="142.00">
        <route edges="start middle jam bottleneck end"/>
    </vehicle>

    <vehicle id="high.90" depart="109.00" arrival="144.00">
        <route edges="start middle jam bottleneck end"/>
    </vehicle>

    <vehicle id="high.92" depart="110.00" arrival="146.00">
        <route edges="start middle jam bottleneck end"/>
    </vehicle>

    <vehicle id="high.94" depart="112.00" arrival="148.00">
        <route edges="start middle jam bottleneck end"/>
    </vehicle>

    <vehicle id="high.95" depart="114.00" arrival="150.00">
        <route edges="start middle jam bottleneck end"/>
    </vehicle>

    <vehicle id="high.98" depart="117.00" arrival="152.00">
        <route edges="start middle jam bottleneck end"/>
    </vehicle>

    <vehicle id="high.73" depart="87.00" arrival="153.00">
        <route edges="start middle jam bottleneck end"/>
    </vehicle>

    <vehicle id="high.99" depart="119.00" arrival="155.00">
        <route edges="start middle jam bottleneck end"/>
    </vehicle>

    <vehicle id="high.75" depart="90.00" arrival="157.00">
        <route edges="start middle jam bottleneck end"/>
    </vehicle>

    <vehicle id="high.100" depart="120.00" arrival="160.00">
        <route edges="start middle jam bottleneck end"/>
    </vehicle>

    <vehicle id="high.113" depart="136.00" arrival="161.00">
        <route edges="start middle jam bottleneck end"/>
    </vehicle>

    <vehicle id="high.77" depart="92.00" arrival="164.00">
        <route edges="start middle jam bottleneck end"/>
    </vehicle>

    <vehicle id="high.79" depart="94.00" arrival="165.00">
        <route edges="start middle jam bottleneck end"/>
    </vehicle>

    <vehicle id="high.80" depart="96.00" arrival="170.00">
        <route edges="start middle jam bottleneck end"/>
    </vehicle>

    <vehicle id="high.108" depart="129.00" arrival="173.00">
        <route edges="start middle jam bottleneck end"/>
    </vehicle>

    <vehicle id="high.109" depart="131.00" arrival="177.00">
        <route edges="start middle jam bottleneck end"/>
    </vehicle>

    <vehicle id="high.107" depart="128.00" arrival="180.00">
        <route edges="start middle jam bottleneck end"/>
    </vehicle>

    <vehicle id="high.82" depart="99.00" arrival="182.00">
        <route edges="start middle jam bottleneck end"/>
    </vehicle>

    <vehicle id="high.110" depart="133.00" arrival="186.00">
        <route edges="start middle jam bottleneck end"/>
    </vehicle>

    <vehicle id="high.84" depart="100.00" arrival="188.00">
        <route edges="start middle jam bottleneck end"/>
    </vehicle>

    <vehicle id="high.124" depart="152.00" arrival="190.00">
        <route edges="start middle jam bottleneck end"/>
    </vehicle>

    <vehicle id="high.86" depart="104.00" arrival="192.00">
        <route edges="start middle jam bottleneck end"/>
    </vehicle>

    <vehicle id="high.111" depart="135.00" arrival="194.00">
        <route edges="start middle jam bottleneck end"/>
    </vehicle>

    <vehicle id="high.127" depart="156.00" arrival="195.00">
        <route edges="start middle jam bottleneck end"/>
    </vehicle>

    <vehicle id="high.132" depart="160.00" arrival="198.00">
        <route edges="start middle jam bottleneck end"/>
    </vehicle>

    <vehicle id="high.131" depart="158.00" arrival="199.00">
        <route edges="start middle jam bottleneck end"/>
    </vehicle>

    <vehicle id="high.116" depart="139.00" arrival="201.00">
        <route edges="start middle jam bottleneck end"/>
    </vehicle>

    <vehicle id="high.88" depart="105.00" arrival="203.00">
        <route edges="start middle jam bottleneck end"/>
    </vehicle>

    <vehicle id="high.117" depart="141.00" arrival="205.00">
        <route edges="start middle jam bottleneck end"/>
    </vehicle>

    <vehicle id="high.91" depart="109.00" arrival="206.00">
        <route edges="start middle jam bottleneck end"/>
    </vehicle>

    <vehicle id="high.119" depart="143.00" arrival="209.00">
        <route edges="start middle jam bottleneck end"/>
    </vehicle>

    <vehicle id="high.102" depart="122.00" arrival="210.00">
        <route edges="start middle jam bottleneck end"/>
    </vehicle>

    <vehicle id="high.106" depart="127.00" arrival="211.00">
        <route edges="start middle jam bottleneck end"/>
    </vehicle>

    <vehicle id="high.93" depart="111.00" arrival="212.00">
        <route edges="start middle jam bottleneck end"/>
    </vehicle>

    <vehicle id="high.121" depart="146.00" arrival="214.00">
        <route edges="start middle jam bottleneck end"/>
    </vehicle>

    <vehicle id="high.96" depart="116.00" arrival="217.00">
        <route edges="start middle jam bottleneck end"/>
    </vehicle>

    <vehicle id="high.126" depart="156.00" arrival="219.00">
        <route edges="start middle jam bottleneck end"/>
    </vehicle>

    <vehicle id="high.97" depart="116.00" arrival="220.00">
        <route edges="start middle jam bottleneck end"/>
    </vehicle>

    <vehicle id="high.123" depart="152.00" arrival="221.00">
        <route edges="start middle jam bottleneck end"/>
    </vehicle>

    <vehicle id="high.101" depart="121.00" arrival="222.00">
        <route edges="start middle jam bottleneck end"/>
    </vehicle>

    <vehicle id="high.138" depart="172.00" arrival="224.00">
        <route edges="start middle jam bottleneck end"/>
    </vehicle>

    <vehicle id="high.143" depart="174.00" arrival="226.00">
        <route edges="start middle jam bottleneck end"/>
    </vehicle>

    <vehicle id="high.145" depart="176.00" arrival="228.00">
        <route edges="start middle jam bottleneck end"/>
    </vehicle>

    <vehicle id="high.103" depart="123.00" arrival="230.00">
        <route edges="start middle jam bottleneck end"/>
    </vehicle>

    <vehicle id="high.135" depart="166.00" arrival="232.00">
        <route edges="start middle jam bottleneck end"/>
    </vehicle>

    <vehicle id="high.137" depart="170.00" arrival="234.00">
        <route edges="start middle jam bottleneck end"/>
    </vehicle>

    <vehicle id="high.104" depart="124.00" arrival="235.00">
        <route edges="start middle jam bottleneck end"/>
    </vehicle>

    <vehicle id="high.147" depart="179.00" arrival="238.00">
        <route edges="start middle jam bottleneck end"/>
    </vehicle>

    <vehicle id="high.142" depart="174.00" arrival="240.00">
        <route edges="start middle jam bottleneck end"/>
    </vehicle>

    <vehicle id="high.130" depart="158.00" arrival="242.00">
        <route edges="start middle jam bottleneck end"/>
    </vehicle>

    <vehicle id="high.141" depart="174.00" arrival="245.00">
        <route edges="start middle jam bottleneck end"/>
    </vehicle>

    <vehicle id="high.140" depart="174.00" arrival="246.00">
        <route edges="start middle jam bottleneck end"/>
    </vehicle>

    <vehicle id="high.115" depart="138.00" arrival="248.00">
        <route edges="start middle jam bottleneck end"/>
    </vehicle>

    <vehicle id="high.105" depart="126.00" arrival="250.00">
        <route edges="start middle jam bottleneck end"/>
    </vehicle>

    <vehicle id="high.144" depart="176.00" arrival="253.00">
        <route edges="start middle jam bottleneck end"/>
    </vehicle>

    <vehicle id="high.114" depart="136.00" arrival="254.00">
        <route edges="start middle jam bottleneck end"/>
    </vehicle>

    <vehicle id="high.146" depart="179.00" arrival="257.00">
        <route edges="start middle jam bottleneck end"/>
    </vehicle>

    <vehicle id="high.148" depart="183.00" arrival="259.00">
        <route edges="start middle jam bottleneck end"/>
    </vehicle>

    <vehicle id="high.112" depart="136.00" arrival="260.00">
        <route edges="start middle jam bottleneck end"/>
    </vehicle>

    <vehicle id="high.118" depart="141.00" arrival="262.00">
        <route edges="start middle jam bottleneck end"/>
    </vehicle>

    <vehicle id="high.149" depart="185.00" arrival="264.00">
        <route edges="start middle jam bottleneck end"/>
    </vehicle>

    <vehicle id="high.120" depart="145.00" arrival="266.00">
        <route edges="start middle jam bottleneck end"/>
    </vehicle>

    <vehicle id="high.150" depart="187.00" arrival="267.00">
        <route edges="start middle jam bottleneck end"/>
    </vehicle>

    <vehicle id="high.156" depart="194.00" arrival="268.00">
        <route edges="start middle jam bottleneck end"/>
    </vehicle>

    <vehicle id="high.157" depart="195.00" arrival="270.00">
        <route edges="start middle jam bottleneck end"/>
    </vehicle>

    <vehicle id="high.160" depart="198.00" arrival="272.00">
        <route edges="start middle jam bottleneck end"/>
    </vehicle>

    <vehicle id="high.128" depart="157.00" arrival="273.00">
        <route edges="start middle jam bottleneck end"/>
    </vehicle>

    <vehicle id="high.162" depart="200.00" arrival="275.00">
        <route edges="start middle jam bottleneck end"/>
    </vehicle>

    <vehicle id="high.165" depart="204.00" arrival="277.00">
        <route edges="start middle jam bottleneck end"/>
    </vehicle>

    <vehicle id="high.168" depart="207.00" arrival="279.00">
        <route edges="start middle jam bottleneck end"/>
    </vehicle>

    <vehicle id="high.151" depart="189.00" arrival="281.00">
        <route edges="start middle jam bottleneck end"/>
    </vehicle>

    <vehicle id="high.133" depart="161.00" arrival="282.00">
        <route edges="start middle jam bottleneck end"/>
    </vehicle>

    <vehicle id="high.159" depart="196.00" arrival="283.00">
        <route edges="start middle jam bottleneck end"/>
    </vehicle>

    <vehicle id="high.161" depart="198.00" arrival="284.00">
        <route edges="start middle jam bottleneck end"/>
    </vehicle>

    <vehicle id="high.136" depart="169.00" arrival="285.00">
        <route edges="start middle jam bottleneck end"/>
    </vehicle>

    <vehicle id="high.134" depart="163.00" arrival="287.00">
        <route edges="start middle jam bottleneck end"/>
    </vehicle>

    <vehicle id="high.167" depart="206.00" arrival="288.00">
        <route edges="start middle jam bottleneck end"/>
    </vehicle>

    <vehicle id="high.169" depart="208.00" arrival="290.00">
        <route edges="start middle jam bottleneck end"/>
    </vehicle>

    <vehicle id="high.122" depart="149.00" arrival="292.00">
        <route edges="start middle jam bottleneck end"/>
    </vehicle>

    <vehicle id="high.171" depart="212.00" arrival="294.00">
        <route edges="start middle jam bottleneck end"/>
    </vehicle>

    <vehicle id="high.172" depart="237.00" arrival="296.00">
        <route edges="start middle jam bottleneck end"/>
    </vehicle>

    <vehicle id="high.173" depart="238.00" arrival="298.00">
        <route edges="start middle jam bottleneck end"/>
    </vehicle>

    <vehicle id="high.125" depart="153.00" arrival="300.00">
        <route edges="start middle jam bottleneck end"/>
    </vehicle>

    <vehicle id="high.175" depart="240.00" arrival="302.00">
        <route edges="start middle jam bottleneck end"/>
    </vehicle>

    <vehicle id="high.129" depart="158.00" arrival="304.00">
        <route edges="start middle jam bottleneck end"/>
    </vehicle>

    <vehicle id="high.177" depart="242.00" arrival="307.00">
        <route edges="start middle jam bottleneck end"/>
    </vehicle>

    <vehicle id="high.183" depart="247.00" arrival="309.00">
        <route edges="start middle jam bottleneck end"/>
    </vehicle>

    <vehicle id="high.139" depart="174.00" arrival="310.00">
        <route edges="start middle jam bottleneck end"/>
    </vehicle>

    <vehicle id="high.187" depart="250.00" arrival="313.00">
        <route edges="start middle jam bottleneck end"/>
    </vehicle>

    <vehicle id="high.181" depart="246.00" arrival="314.00">
        <route edges="start middle jam bottleneck end"/>
    </vehicle>

    <vehicle id="high.184" depart="248.00" arrival="316.00">
        <route edges="start middle jam bottleneck end"/>
    </vehicle>

    <vehicle id="high.152" depart="191.00" arrival="318.00">
        <route edges="start middle jam bottleneck end"/>
    </vehicle>

    <vehicle id="high.185" depart="250.00" arrival="321.00">
        <route edges="start middle jam bottleneck end"/>
    </vehicle>

    <vehicle id="high.189" depart="252.00" arrival="324.00">
        <route edges="start middle jam bottleneck end"/>
    </vehicle>

    <vehicle id="high.190" depart="254.00" arrival="327.00">
        <route edges="start middle jam bottleneck end"/>
    </vehicle>

    <vehicle id="high.191" depart="256.00" arrival="329.00">
        <route edges="start middle jam bottleneck end"/>
    </vehicle>

    <vehicle id="high.193" depart="260.00" arrival="330.00">
        <route edges="start middle jam bottleneck end"/>
    </vehicle>

    <vehicle id="high.153" depart="192.00" arrival="333.00">
        <route edges="start middle jam bottleneck end"/>
    </vehicle>

    <vehicle id="high.195" depart="265.00" arrival="335.00">
        <route edges="start middle jam bottleneck end"/>
    </vehicle>

    <vehicle id="high.196" depart="290.00" arrival="338.00">
        <route edges="start middle jam bottleneck end"/>
    </vehicle>

    <vehicle id="high.154" depart="193.00" arrival="339.00">
        <route edges="start middle jam bottleneck end"/>
    </vehicle>

    <vehicle id="high.155" depart="194.00" arrival="340.00">
        <route edges="start middle jam bottleneck end"/>
    </vehicle>

    <vehicle id="high.158" depart="196.00" arrival="342.00">
        <route edges="start middle jam bottleneck end"/>
    </vehicle>

    <vehicle id="high.164" depart="202.00" arrival="343.00">
        <route edges="start middle jam bottleneck end"/>
    </vehicle>

    <vehicle id="high.174" depart="239.00" arrival="344.00">
        <route edges="start middle jam bottleneck end"/>
    </vehicle>

    <vehicle id="high.163" depart="202.00" arrival="345.00">
        <route edges="start middle jam bottleneck end"/>
    </vehicle>

    <vehicle id="high.166" depart="204.00" arrival="346.00">
        <route edges="start middle jam bottleneck end"/>
    </vehicle>

    <vehicle id="high.170" depart="212.00" arrival="348.00">
        <route edges="start middle jam bottleneck end"/>
    </vehicle>

    <vehicle id="high.176" depart="240.00" arrival="349.00">
        <route edges="start middle jam bottleneck end"/>
    </vehicle>

    <vehicle id="high.178" depart="243.00" arrival="350.00">
        <route edges="start middle jam bottleneck end"/>
    </vehicle>

    <vehicle id="high.199" depart="296.00" arrival="351.00">
        <route edges="start middle jam bottleneck end"/>
    </vehicle>

    <vehicle id="high.197" depart="292.00" arrival="353.00">
        <route edges="start middle jam bottleneck end"/>
    </vehicle>

    <vehicle id="high.182" depart="247.00" arrival="354.00">
        <route edges="start middle jam bottleneck end"/>
    </vehicle>

    <vehicle id="high.200" depart="298.00" arrival="356.00">
        <route edges="start middle jam bottleneck end"/>
    </vehicle>

    <vehicle id="high.198" depart="294.00" arrival="357.00">
        <route edges="start middle jam bottleneck end"/>
    </vehicle>

    <vehicle id="high.180" depart="244.00" arrival="359.00">
        <route edges="start middle jam bottleneck end"/>
    </vehicle>

    <vehicle id="high.188" depart="250.00" arrival="360.00">
        <route edges="start middle jam bottleneck end"/>
    </vehicle>

    <vehicle id="high.201" depart="300.00" arrival="361.00">
        <route edges="start middle jam bottleneck end"/>
    </vehicle>

    <vehicle id="high.206" depart="306.00" arrival="362.00">
        <route edges="start middle jam bottleneck end"/>
    </vehicle>

    <vehicle id="high.203" depart="302.00" arrival="364.00">
        <route edges="start middle jam bottleneck end"/>
    </vehicle>

    <vehicle id="high.207" depart="308.00" arrival="365.00">
        <route edges="start middle jam bottleneck end"/>
    </vehicle>

    <vehicle id="high.205" depart="304.00" arrival="367.00">
        <route edges="start middle jam bottleneck end"/>
    </vehicle>

    <vehicle id="high.209" depart="310.00" arrival="369.00">
        <route edges="start middle jam bottleneck end"/>
    </vehicle>

    <vehicle id="high.211" depart="312.00" arrival="371.00">
        <route edges="start middle jam bottleneck end"/>
    </vehicle>

    <vehicle id="high.219" depart="318.00" arrival="373.00">
        <route edges="start middle jam bottleneck end"/>
    </vehicle>

    <vehicle id="high.179" depart="243.00" arrival="375.00">
        <route edges="start middle jam bottleneck end"/>
    </vehicle>

    <vehicle id="high.213" depart="313.00" arrival="377.00">
        <route edges="start middle jam bottleneck end"/>
    </vehicle>

    <vehicle id="high.225" depart="322.00" arrival="379.00">
        <route edges="start middle jam bottleneck end"/>
    </vehicle>

    <vehicle id="high.186" depart="250.00" arrival="381.00">
        <route edges="start middle jam bottleneck end"/>
    </vehicle>

    <vehicle id="high.214" depart="315.00" arrival="383.00">
        <route edges="start middle jam bottleneck end"/>
    </vehicle>

    <vehicle id="high.216" depart="316.00" arrival="385.00">
        <route edges="start middle jam bottleneck end"/>
    </vehicle>

    <vehicle id="high.218" depart="318.00" arrival="386.00">
        <route edges="start middle jam bottleneck end"/>
    </vehicle>

    <vehicle id="high.227" depart="323.00" arrival="389.00">
        <route edges="start middle jam bottleneck end"/>
    </vehicle>

    <vehicle id="high.192" depart="256.00" arrival="391.00">
        <route edges="start middle jam bottleneck end"/>
    </vehicle>

    <vehicle id="high.228" depart="325.00" arrival="394.00">
        <route edges="start middle jam bottleneck end"/>
    </vehicle>

    <vehicle id="high.223" depart="322.00" arrival="396.00">
        <route edges="start middle jam bottleneck end"/>
    </vehicle>

    <vehicle id="high.194" depart="261.00" arrival="398.00">
        <route edges="start middle jam bottleneck end"/>
    </vehicle>

    <vehicle id="high.230" depart="327.00" arrival="400.00">
        <route edges="start middle jam bottleneck end"/>
    </vehicle>

    <vehicle id="high.232" depart="337.00" arrival="402.00">
        <route edges="start middle jam bottleneck end"/>