<?xml version="1.0" encoding="UTF-8"?>

<!-- generated on 2026-05-20T11:29:43.639038+01:00 by Eclipse SUMO sumo v1_26_0+1684-2084a7c81fd
<sumoConfiguration xmlns:xsi="http://www.w3.org/2001/XMLSchema-instance" xsi:noNamespaceSchemaLocation="http://sumo.dlr.de/xsd/sumoConfiguration.xsd">

    <input>
        <net-file value="input_net.net.xml"/>
        <load-state value="state.xml"/>
    </input>

    <output>
        <output-suffix value="2"/>
        <tripinfo-output value="tripinfo.xml"/>
        <vehroute-output value="vehroutes.xml"/>
    </output>

    <processing>
        <default.departspeed value="0"/>
        <default.departlane value="first"/>
    </processing>

    <report>
        <duration-log.disable value="true"/>
        <no-step-log value="true"/>
    </report>

    <mesoscopic>
        <mesosim value="true"/>
    </mesoscopic>

</sumoConfiguration>
-->

<routes xmlns:xsi="http://www.w3.org/2001/XMLSchema-instance" xsi:noNamespaceSchemaLocation="http://sumo.dlr.de/xsd/routes_file.xsd">
    <person id="walk_route" depart="1.00" arrival="156.00">
        <walk edges="2/1to1/1 3/1to2/1"/>
    </person>

    <person id="walk_trip" depart="2.00" arrival="717.00">
        <walk edges="3/1to2/1 1/1to2/1 1/1to0/1"/>
    </person>

    <person id="walk_route_id" depart="0.00" arrival="954.00">
        <walk edges="4/1to3/1 3/1to2/1 2/1to1/1 1/1to0/1"/>
    </person>

</routes>
