<?xml version="1.0"?>

<!-- generated on 04/17/08 12:06:22 by SUMO sumo Version 0.9.7
<configuration>

   <input>
      <net-file>three_split.net.xml</net-file>
      <additional-files>input_routes.rou.xml,input_additional.add.xml</additional-files>
   </input>

   <output>
      <vehroute-output>vehroutes.xml</vehroute-output>
   </output>

   <time>
      <begin>0</begin>
   </time>

   <processing>
      <no-duration-log>true</no-duration-log>
      <no-step-log>true</no-step-log>
   </processing>

</configuration>
-->

<routes>
   <vehicle id="0" depart="0" arrival="77">
      <route edges="beg middle end rend"/>
   </vehicle>

   <vehicle id="1" depart="20" arrival="97">
      <route edges="beg middle end rend"/>
   </vehicle>

   <vehicle id="2" depart="40" arrival="117">
      <route edges="beg middle end rend"/>
   </vehicle>

   <vehicle id="3" depart="60" arrival="137">
      <route edges="beg middle end rend"/>
   </vehicle>

   <vehicle id="4" depart="80" arrival="157">
      <route edges="beg middle end rend"/>
   </vehicle>

   <vehicle id="5" depart="100" arrival="288">
      <replaced_route replacedOnEdge="beg"  replacedAtTime="100" edges="beg middle end rend"/>

      <route edges="beg beg2left left left2end end rend"/>
   </vehicle>

   <vehicle id="6" depart="120" arrival="308">
      <replaced_route replacedOnEdge="beg"  replacedAtTime="120" edges="beg middle end rend"/>

      <route edges="beg beg2left left left2end end rend"/>
   </vehicle>

   <vehicle id="7" depart="140" arrival="328">
      <replaced_route replacedOnEdge="beg"  replacedAtTime="140" edges="beg middle end rend"/>

      <route edges="beg beg2left left left2end end rend"/>
   </vehicle>

   <vehicle id="8" depart="160" arrival="348">
      <replaced_route replacedOnEdge="beg"  replacedAtTime="160" edges="beg middle end rend"/>

      <route edges="beg beg2left left left2end end rend"/>
   </vehicle>

   <vehicle id="9" depart="180" arrival="368">
      <replaced_route replacedOnEdge="beg"  replacedAtTime="180" edges="beg middle end rend"/>

      <route edges="beg beg2left left left2end end rend"/>
   </vehicle>

</routes>
