<?xml version="1.0" encoding="UTF-8"?>

<!-- generated on Mon Nov  3 13:20:24 2014 by SUMO Version dev-SVN-r17232ID
<?xml version="1.0" encoding="UTF-8"?>

<configuration xmlns:xsi="http://www.w3.org/2001/XMLSchema-instance" xsi:noNamespaceSchemaLocation="http://sumo.dlr.de/xsd/sumoConfiguration.xsd">

    <input>
        <net-file value="net.net.xml"/>
        <additional-files value="input_routes.rou.xml,input_additional.add.xml"/>
    </input>

    <output>
        <netstate-dump value="rawdump.xml"/>
    </output>

    <time>
        <begin value="0"/>
        <end value="10"/>
    </time>

    <report>
        <xml-validation value="never"/>
        <no-duration-log value="true"/>
        <no-step-log value="true"/>
    </report>

    <mesoscopic>
        <mesosim value="true"/>
    </mesoscopic>

</configuration>
-->

<netstate xmlns:xsi="http://www.w3.org/2001/XMLSchema-instance" xsi:noNamespaceSchemaLocation="http://sumo.dlr.de/xsd/netstate_file.xsd">
    <timestep time="0.00">
        <edge id="beg">
            <vehicle id="3" pos="0.00" speed="22.08"/>
            <vehicle id="2" pos="0.00" speed="24.61"/>
            <vehicle id="1" pos="0.00" speed="27.80"/>
        </edge>
    </timestep>
    <timestep time="1.00">
        <edge id="beg">
            <vehicle id="3" pos="0.00" speed="22.08"/>
            <vehicle id="2" pos="0.00" speed="24.61"/>
            <vehicle id="1" pos="0.00" speed="27.80"/>
        </edge>
    </timestep>
    <timestep time="2.00">
        <edge id="beg">
            <vehicle id="3" pos="0.00" speed="22.08"/>
            <vehicle id="2" pos="0.00" speed="24.61"/>
            <vehicle id="1" pos="0.00" speed="27.80"/>
        </edge>
    </timestep>
    <timestep time="3.00">
        <edge id="beg">
            <vehicle id="3" pos="0.00" speed="22.08"/>
            <vehicle id="2" pos="0.00" speed="24.61"/>
            <vehicle id="1" pos="0.00" speed="27.80"/>
        </edge>
    </timestep>
    <timestep time="4.00">
        <edge id="beg">
            <vehicle id="3" pos="0.00" speed="22.08"/>
            <vehicle id="2" pos="0.00" speed="24.61"/>
            <vehicle id="1" pos="100.00" speed="27.80"/>
        </edge>
    </timestep>
    <timestep time="5.00">
        <edge id="beg">
            <vehicle id="3" pos="100.00" speed="27.80"/>
            <vehicle id="2" pos="100.00" speed="27.80"/>
            <vehicle id="1" pos="100.00" speed="27.80"/>
        </edge>
    </timestep>
    <timestep time="6.00">
        <edge id="beg">
            <vehicle id="3" pos="100.00" speed="27.80"/>
            <vehicle id="2" pos="100.00" speed="27.80"/>
            <vehicle id="1" pos="100.00" speed="27.80"/>
        </edge>
    </timestep>
    <timestep time="7.00">
        <edge id="beg">
            <vehicle id="3" pos="100.00" speed="27.80"/>
            <vehicle id="2" pos="100.00" speed="27.80"/>
            <vehicle id="1" pos="100.00" speed="27.80"/>
        </edge>
    </timestep>
    <timestep time="8.00">
        <edge id="beg">
            <vehicle id="3" pos="100.00" speed="27.80"/>
            <vehicle id="2" pos="200.00" speed="27.80"/>
            <vehicle id="1" pos="200.00" speed="27.80"/>
        </edge>
    </timestep>
    <timestep time="9.00">
        <edge id="beg">
            <vehicle id="3" pos="200.00" speed="27.80"/>
            <vehicle id="2" pos="200.00" speed="27.80"/>
            <vehicle id="1" pos="200.00" speed="27.80"/>
        </edge>
    </timestep>
</netstate>
