<?xml version="1.0" encoding="UTF-8"?>

<!-- generated on 2021-09-23 10:06:15 by Eclipse SUMO sumo Version v1_10_0+0931-5c67f1888db
This data file and the accompanying materials
are made available under the terms of the Eclipse Public License v2.0
which accompanies this distribution, and is available at
http://www.eclipse.org/legal/epl-v20.html
SPDX-License-Identifier: EPL-2.0
<configuration xmlns:xsi="http://www.w3.org/2001/XMLSchema-instance" xsi:noNamespaceSchemaLocation="http://sumo.dlr.de/xsd/sumoConfiguration.xsd">

    <input>
        <net-file value="three_split.net.xml"/>
        <route-files value="input_routes.rou.xml"/>
    </input>

    <output>
        <write-license value="true"/>
        <tripinfo-output value="tripinfos.xml"/>
    </output>

    <time>
        <end value="1000"/>
    </time>

    <processing>
        <default.speeddev value="0"/>
        <pedestrian.model value="nonInteracting"/>
    </processing>

    <report>
        <xml-validation value="never"/>
        <xml-validation.routes value="never"/>
        <duration-log.disable value="true"/>
        <no-step-log value="true"/>
    </report>

    <mesoscopic>
        <mesosim value="true"/>
    </mesoscopic>

</configuration>
-->

<tripinfos xmlns:xsi="http://www.w3.org/2001/XMLSchema-instance" xsi:noNamespaceSchemaLocation="http://sumo.dlr.de/xsd/tripinfo_file.xsd">
    <personinfo id="p1" depart="25.00" type="DEFAULT_PEDTYPE">
        <ride waitingTime="1.00" vehicle="p" depart="26.00" arrival="207.00" arrivalPos="500.00" duration="181.00" routeLength="2912.36" timeLoss="0.00"/>
    </personinfo>
    <tripinfo id="p" depart="0.00" departLane="" departPos="0.00" departSpeed="100.00" departDelay="0.00" arrival="207.00" arrivalLane="" arrivalPos="500.00" arrivalSpeed="27.80" duration="207.00" routeLength="3012.36" waitingTime="0.00" waitingCount="0" stopTime="0.00" timeLoss="0.00" rerouteNo="0" devices="tripinfo_p person_p" vType="DEFAULT_VEHTYPE" speedFactor="1.00" vaporized=""/>
</tripinfos>
