<?xml version="1.0" encoding="UTF-8"?>

<!-- generated on 2025-11-02T21:46:01.803352+01:00 by Eclipse SUMO sumo v1_24_0+1715-28a54f8871d
This data file and the accompanying materials
are made available under the terms of the Eclipse Public License v2.0
which accompanies this distribution, and is available at
http://www.eclipse.org/legal/epl-v20.html
This file may also be made available under the following Secondary
Licenses when the conditions for such availability set forth in the Eclipse
Public License 2.0 are satisfied: GNU General Public License, version 2
or later which is available at
https://www.gnu.org/licenses/old-licenses/gpl-2.0-standalone.html
SPDX-License-Identifier: EPL-2.0 OR GPL-2.0-or-later
<sumoConfiguration xmlns:xsi="http://www.w3.org/2001/XMLSchema-instance" xsi:noNamespaceSchemaLocation="http://sumo.dlr.de/xsd/sumoConfiguration.xsd">

    <input>
        <net-file value="net.net.xml"/>
        <route-files value="input_routes.rou.xml"/>
        <additional-files value="input_additional.add.xml"/>
    </input>

    <output>
        <write-license value="true"/>
    </output>

    <time>
        <end value="1440"/>
    </time>

    <processing>
        <default.speeddev value="0"/>
    </processing>

    <report>
        <verbose value="true"/>
        <xml-validation value="never"/>
        <no-step-log value="true"/>
    </report>

    <mesoscopic>
        <mesosim value="true"/>
    </mesoscopic>

</sumoConfiguration>
-->

<meandata xmlns:xsi="http://www.w3.org/2001/XMLSchema-instance" xsi:noNamespaceSchemaLocation="http://sumo.dlr.de/xsd/meandata_file.xsd">
    <interval begin="0.00" end="1440.00" id="expect_300_vehs">
        <edge id="in1" sampledSeconds="93484.84" traveltime="206.09" overlapTraveltime="208.18" density="131.73" overlapDensity="131.73" laneDensity="65.87" occupancy="32.93" waitingTime="1007.29" timeLoss="77390.76" speed="2.39" speedRelative="0.17" departed="491" arrived="0" entered="0" left="421" laneChangedFrom="0" laneChangedTo="0" flow="1134.04"/>
        <edge id="in2" sampledSeconds="93370.07" traveltime="206.10" overlapTraveltime="208.20" density="131.93" overlapDensity="131.93" laneDensity="65.96" occupancy="32.98" waitingTime="1003.50" timeLoss="77339.91" speed="2.38" speedRelative="0.17" departed="491" arrived="0" entered="0" left="421" laneChangedFrom="0" laneChangedTo="0" flow="1132.57"/>
        <edge id="out" sampledSeconds="30189.00" traveltime="36.32" overlapTraveltime="36.68" density="42.06" overlapDensity="42.06" laneDensity="42.06" occupancy="21.03" waitingTime="0.00" timeLoss="355.99" speed="13.73" speedRelative="0.99" departed="0" arrived="820" entered="842" left="0" laneChangedFrom="0" laneChangedTo="0" flow="2078.14"/>
    </interval>
</meandata>
