<?xml version="1.0" encoding="UTF-8"?>

<!-- generated on Wed May 30 09:51:10 2018 by Eclipse SUMO Version b2daee9
This data file and the accompanying materials
are made available under the terms of the Eclipse Public License v2.0
which accompanies this distribution, and is available at
http://www.eclipse.org/legal/epl-v20.html
SPDX-License-Identifier: EPL-2.0
<configuration xmlns:xsi="http://www.w3.org/2001/XMLSchema-instance" xsi:noNamespaceSchemaLocation="https://sumo.dlr.de/xsd/sumoConfiguration.xsd">

    <input>
        <net-file value="net.net.xml"/>
        <route-files value="input_routes.rou.xml"/>
        <additional-files value="input_additional.add.xml"/>
    </input>

    <output>
        <write-license value="true"/>
    </output>

    <time>
        <end value="1440"/>
    </time>

    <processing>
        <lateral-resolution value="0.8"/>
    </processing>

    <report>
        <verbose value="true"/>
        <xml-validation value="never"/>
        <no-step-log value="true"/>
    </report>

</configuration>
-->

<meandata xmlns:xsi="http://www.w3.org/2001/XMLSchema-instance" xsi:noNamespaceSchemaLocation="https://sumo.dlr.de/xsd/meandata_file.xsd">
    <interval begin="0.00" end="1440.00" id="expect_300_vehs">
        <edge id="in1" sampledSeconds="87023.65" traveltime="1850.95" overlapTraveltime="1864.27" density="122.63" occupancy="30.65" waitingTime="72546.00" speed="0.27" departed="80" arrived="0" entered="0" left="15" laneChangedFrom="0" laneChangedTo="0"/>
        <edge id="in2" sampledSeconds="18954.72" traveltime="40.24" overlapTraveltime="40.63" density="26.78" occupancy="6.66" waitingTime="1.00" speed="12.22" departed="479" arrived="0" entered="0" left="465" laneChangedFrom="0" laneChangedTo="0"/>
        <edge id="out" sampledSeconds="18061.58" traveltime="37.79" overlapTraveltime="38.17" density="25.16" occupancy="12.46" waitingTime="0.00" speed="13.19" departed="0" arrived="467" entered="480" left="0" laneChangedFrom="0" laneChangedTo="0"/>
    </interval>
</meandata>
