<?xml version="1.0" encoding="UTF-8"?>

<!-- generated on 2024-06-27 12:07:11 by Eclipse SUMO sumo Version v1_20_0+0875-c7310f6279d
This data file and the accompanying materials
are made available under the terms of the Eclipse Public License v2.0
which accompanies this distribution, and is available at
http://www.eclipse.org/legal/epl-v20.html
This file may also be made available under the following Secondary
Licenses when the conditions for such availability set forth in the Eclipse
Public License 2.0 are satisfied: GNU General Public License, version 2
or later which is available at
https://www.gnu.org/licenses/old-licenses/gpl-2.0-standalone.html
SPDX-License-Identifier: EPL-2.0 OR GPL-2.0-or-later
<sumoConfiguration xmlns:xsi="http://www.w3.org/2001/XMLSchema-instance" xsi:noNamespaceSchemaLocation="http://sumo.dlr.de/xsd/sumoConfiguration.xsd">

    <input>
        <net-file value="net.net.xml"/>
        <route-files value="input_routes.rou.xml"/>
        <additional-files value="input_additional.add.xml"/>
    </input>

    <output>
        <write-license value="true"/>
    </output>

    <time>
        <end value="1440"/>
    </time>

    <processing>
        <default.speeddev value="0"/>
    </processing>

    <report>
        <verbose value="true"/>
        <xml-validation value="never"/>
        <no-step-log value="true"/>
    </report>

</sumoConfiguration>
-->

<meandata xmlns:xsi="http://www.w3.org/2001/XMLSchema-instance" xsi:noNamespaceSchemaLocation="http://sumo.dlr.de/xsd/meandata_file.xsd">
    <interval begin="0.00" end="1440.00" id="expect_300_vehs">
        <edge id="in1" sampledSeconds="87414.14" traveltime="2007.19" overlapTraveltime="2022.83" density="123.18" laneDensity="61.59" occupancy="30.79" waitingTime="75700.00" timeLoss="85865.37" speed="0.25" speedRelative="0.02" departed="77" arrived="0" entered="0" left="11" laneChangedFrom="0" laneChangedTo="0"/>
        <edge id="in2" sampledSeconds="18940.65" traveltime="40.19" overlapTraveltime="40.57" density="26.76" laneDensity="13.38" occupancy="6.66" waitingTime="1.00" timeLoss="2253.86" speed="12.24" speedRelative="0.88" departed="479" arrived="0" entered="0" left="466" laneChangedFrom="0" laneChangedTo="0"/>
        <edge id="out" sampledSeconds="17899.86" traveltime="37.76" overlapTraveltime="38.13" density="24.94" laneDensity="24.94" occupancy="12.35" waitingTime="0.00" timeLoss="884.95" speed="13.20" speedRelative="0.95" departed="0" arrived="464" entered="477" left="0" laneChangedFrom="0" laneChangedTo="0"/>
    </interval>
</meandata>
