<?xml version="1.0" encoding="UTF-8"?>

<!-- generated on 2026-05-20T09:19:50.041572+01:00 by Eclipse SUMO sumo v1_26_0+1678-6b9b3d63f0c
<sumoConfiguration xmlns:xsi="http://www.w3.org/2001/XMLSchema-instance" xsi:noNamespaceSchemaLocation="http://sumo.dlr.de/xsd/sumoConfiguration.xsd">

    <input>
        <net-file value="net.net.xml"/>
        <route-files value="input_routes.rou.xml"/>
        <additional-files value="input_additional.add.xml"/>
    </input>

    <output>
        <tripinfo-output value="tripinfo.xml"/>
        <vehroute-output value="vehroutes.xml"/>
        <save-state.times value="50"/>
        <save-state.files value="state.xml"/>
        <save-state.transportables value="true"/>
    </output>

    <processing>
        <default.departspeed value="0"/>
        <default.departlane value="first"/>
    </processing>

    <report>
        <duration-log.disable value="true"/>
        <no-step-log value="true"/>
    </report>

    <mesoscopic>
        <mesosim value="true"/>
    </mesoscopic>

</sumoConfiguration>
-->

<snapshot type="meso" version="v1_26_0+1678-6b9b3d63f0c" time="50.00" xmlns:xsi="http://www.w3.org/2001/XMLSchema-instance" xsi:noNamespaceSchemaLocation="http://sumo.dlr.de/xsd/state_file.xsd">
    <delay number="0" begin="0" end="0" depart="0.00" time="0.00" speedFactor="1.00" decel="4.50"/>
    <vType id="DEFAULT_PEDTYPE" vClass="pedestrian"/>
    <transportables type="person" state="1 1 0 0 0 0 0 0 0">
        <person id="p0" type="DEFAULT_PEDTYPE" depart="0.00" departPos="390.00" speedFactor="1.0600" state="8 1.5 7000 192266">
            <walk edges="beg" trainStop="ts_0" started="0.00" ended="7.00"/>
            <walk edges="left"/>
        </person>
    </transportables>
</snapshot>
