<?xml version="1.0" encoding="UTF-8"?>

<!-- generated on 05/02/13 15:11:35 by SUMO sumo Version 0.17.0
<?xml version="1.0" encoding="UTF-8"?>

<configuration xmlns:xsi="http://www.w3.org/2001/XMLSchema-instance" xsi:noNamespaceSchemaLocation="http://sumo.dlr.de/xsd/sumoConfiguration.xsd">

    <input>
        <net-file value="net.net.xml"/>
        <route-files value="input_routes.rou.xml"/>
        <additional-files value="input_additional.add.xml"/>
    </input>

    <output>
        <vehroute-output value="vehroutes.xml"/>
    </output>

    <report>
        <no-duration-log value="true"/>
        <no-step-log value="true"/>
    </report>

    <mesoscopic>
        <mesosim value="true"/>
        <meso-multi-queue value="true"/>
    </mesoscopic>

</configuration>
-->

<meandata xmlns:xsi="http://www.w3.org/2001/XMLSchema-instance" xsi:noNamespaceSchemaLocation="http://sumo.dlr.de/xsd/meandata_file.xsd">
    <interval begin="0.00" end="115.00" id="expect10vehs">
        <edge id="beg" sampledSeconds="287.28" traveltime="3.83" density="24.98" occupancy="6.25" waitingTime="0.00" speed="26.11" departed="75" arrived="0" entered="0" left="75" laneChangedFrom="0" laneChangedTo="0"/>
        <edge id="end" sampledSeconds="181.22" traveltime="5.03" density="11.26" occupancy="5.63" waitingTime="0.00" speed="27.80" departed="0" arrived="36" entered="36" left="0" laneChangedFrom="0" laneChangedTo="0"/>
        <edge id="end2" sampledSeconds="163.88" traveltime="9.64" density="10.64" occupancy="5.32" waitingTime="0.00" speed="13.89" departed="0" arrived="17" entered="17" left="0" laneChangedFrom="0" laneChangedTo="0"/>
        <edge id="middle" sampledSeconds="199.85" traveltime="3.54" density="17.64" occupancy="4.41" waitingTime="0.00" speed="27.81" departed="2" arrived="0" entered="75" left="77" laneChangedFrom="0" laneChangedTo="0" vaporized="24"/>
    </interval>
</meandata>
