<?xml version="1.0" encoding="UTF-8"?>

<!-- generated on 05/02/13 14:14:08 by SUMO sumo Version 0.17.0
<?xml version="1.0" encoding="UTF-8"?>

<configuration xmlns:xsi="http://www.w3.org/2001/XMLSchema-instance" xsi:noNamespaceSchemaLocation="http://sumo-sim.org/xsd/sumoConfiguration.xsd">

    <input>
        <net-file value="net.net.xml"/>
        <additional-files value="input_routes.rou.xml,input_additional.add.xml,input_additional2.add.xml"/>
    </input>

    <time>
        <begin value="0"/>
        <end value="150"/>
    </time>

    <report>
        <no-duration-log value="true"/>
        <no-step-log value="true"/>
    </report>

</configuration>
-->

<meandata xmlns:xsi="http://www.w3.org/2001/XMLSchema-instance" xsi:noNamespaceSchemaLocation="http://sumo-sim.org/xsd/meandata_file.xsd">
    <interval begin="0.00" end="15.00" id="dump_all_15">
        <edge id="4/1to3/1" sampledSeconds="23.00" CO_abs="0" CO2_abs="37683.884355" HC_abs="6.757512" PMx_abs="2.176965" NOx_abs="59.518119" fuel_abs="15.023992"
            CO_normed="0" CO2_normed="23160.389873" HC_normed="4.153145" PMx_normed="1.337956" NOx_normed="36.579638" fuel_normed="9.233696"
            traveltime="40.64" CO_perVeh="0" CO2_perVeh="66586.230048" HC_perVeh="11.940310" PMx_perVeh="3.846629" NOx_perVeh="105.166631" fuel_perVeh="26.546918"/>
    </interval>
    <interval begin="0.00" end="15.00" id="dump_t1_15">
        <edge id="4/1to3/1" sampledSeconds="14.00" CO_abs="0" CO2_abs="23520.989377" HC_abs="4.118758" PMx_abs="1.371237" NOx_abs="37.319632" fuel_abs="9.377462"
            CO_normed="0" CO2_normed="14455.921768" HC_normed="2.531375" PMx_normed="0.842758" NOx_normed="22.936522" fuel_normed="5.763357"
            traveltime="39.05" CO_perVeh="0" CO2_perVeh="65606.759655" HC_perVeh="11.488393" PMx_perVeh="3.824771" NOx_perVeh="104.095116" fuel_perVeh="26.156421"/>
    </interval>
    <interval begin="0.00" end="15.00" id="dump_t2_15">
        <edge id="4/1to3/1" sampledSeconds="9.00" CO_abs="0" CO2_abs="14162.894978" HC_abs="2.638754" PMx_abs="0.805729" NOx_abs="22.198487" fuel_abs="5.646530"
            CO_normed="0" CO2_normed="8704.468104" HC_normed="1.621770" PMx_normed="0.495198" NOx_normed="13.643116" fuel_normed="3.470339"
            traveltime="43.39" CO_perVeh="0" CO2_perVeh="68279.141839" HC_perVeh="12.721401" PMx_perVeh="3.884408" NOx_perVeh="107.018632" fuel_perVeh="27.221852"/>
    </interval>
    <interval begin="15.00" end="30.00" id="dump_all_15">
        <edge id="4/1to3/1" sampledSeconds="30.00" CO_abs="0" CO2_abs="48805.885010" HC_abs="8.810879" PMx_abs="2.812063" NOx_abs="76.982799" fuel_abs="19.458164"
            CO_normed="0" CO2_normed="29995.934449" HC_normed="5.415137" PMx_normed="1.728285" NOx_normed="47.313372" fuel_normed="11.958923"
            traveltime="41.11" CO_perVeh="0" CO2_perVeh="66872.624900" HC_perVeh="12.072450" PMx_perVeh="3.853020" NOx_perVeh="105.479940" fuel_perVeh="26.661099"/>
    </interval>
    <interval begin="15.00" end="30.00" id="dump_t1_15">
        <edge id="4/1to3/1" sampledSeconds="15.00" CO_abs="0" CO2_abs="25201.060047" HC_abs="4.412955" PMx_abs="1.469182" NOx_abs="39.985320" fuel_abs="10.047281"
            CO_normed="0" CO2_normed="15488.487609" HC_normed="2.712187" PMx_normed="0.902955" NOx_normed="24.574845" fuel_normed="6.175025"
            traveltime="39.05" CO_perVeh="0" CO2_perVeh="65606.759655" HC_perVeh="11.488393" PMx_perVeh="3.824771" NOx_perVeh="104.095116" fuel_perVeh="26.156421"/>
    </interval>
    <interval begin="15.00" end="30.00" id="dump_t2_15">
        <edge id="4/1to3/1" sampledSeconds="15.00" CO_abs="0" CO2_abs="23604.824964" HC_abs="4.397924" PMx_abs="1.342881" NOx_abs="36.997479" fuel_abs="9.410884"
            CO_normed="0" CO2_normed="14507.446841" HC_normed="2.702949" PMx_normed="0.825330" NOx_normed="22.738527" fuel_normed="5.783898"
            traveltime="43.39" CO_perVeh="0" CO2_perVeh="68279.141839" HC_perVeh="12.721401" PMx_perVeh="3.884408" NOx_perVeh="107.018632" fuel_perVeh="27.221852"/>
    </interval>
    <interval begin="30.00" end="45.00" id="dump_all_15">
        <edge id="3/1to2/1" sampledSeconds="21.67" CO_abs="0" CO2_abs="35695.515108" HC_abs="6.369167" PMx_abs="2.066095" NOx_abs="56.432387" fuel_abs="14.231260"
            CO_normed="0" CO2_normed="21938.344753" HC_normed="3.914469" PMx_normed="1.269815" NOx_normed="34.683157" fuel_normed="8.746485"
            traveltime="40.30" CO_perVeh="0" CO2_perVeh="66376.660237" HC_perVeh="11.843617" PMx_perVeh="3.841952" NOx_perVeh="104.937367" fuel_perVeh="26.463367"/>
        <edge id="4/1to3/1" sampledSeconds="8.96" CO_abs="0" CO2_abs="14138.942769" HC_abs="2.627703" PMx_abs="0.805194" NOx_abs="22.172284" fuel_abs="5.636981"
            CO_normed="0" CO2_normed="8689.747156" HC_normed="1.614977" PMx_normed="0.494870" NOx_normed="13.627012" fuel_normed="3.464470"
            traveltime="43.20" CO_perVeh="0" CO2_perVeh="68163.668535" HC_perVeh="12.668123" PMx_perVeh="3.881831" NOx_perVeh="106.892308" fuel_perVeh="27.175815"/>
    </interval>
    <interval begin="30.00" end="45.00" id="dump_t1_15">
        <edge id="3/1to2/1" sampledSeconds="14.95" CO_abs="0" CO2_abs="25117.056513" HC_abs="4.398245" PMx_abs="1.464285" NOx_abs="39.852036" fuel_abs="10.013790"
            CO_normed="0" CO2_normed="15436.859317" HC_normed="2.703147" PMx_normed="0.899945" NOx_normed="24.492928" fuel_normed="6.154442"
            traveltime="39.05" CO_perVeh="0" CO2_perVeh="65606.759655" HC_perVeh="11.488393" PMx_perVeh="3.824771" NOx_perVeh="104.095116" fuel_perVeh="26.156421"/>
        <edge id="4/1to3/1" sampledSeconds="0.35" CO_abs="0" CO2_abs="588.024734" HC_abs="0.102969" PMx_abs="0.034281" NOx_abs="0.932991" fuel_abs="0.234437"
            CO_normed="0" CO2_normed="361.398044" HC_normed="0.063284" PMx_normed="0.021069" NOx_normed="0.573413" fuel_normed="0.144084"
            traveltime="39.05" CO_perVeh="0" CO2_perVeh="65606.759655" HC_perVeh="11.488393" PMx_perVeh="3.824771" NOx_perVeh="104.095116" fuel_perVeh="26.156421"/>
    </interval>
    <interval begin="30.00" end="45.00" id="dump_t2_15">
        <edge id="3/1to2/1" sampledSeconds="6.72" CO_abs="0" CO2_abs="10578.458595" HC_abs="1.970921" PMx_abs="0.601810" NOx_abs="16.580352" fuel_abs="4.217470"
            CO_normed="0" CO2_normed="6501.485436" HC_normed="1.211322" PMx_normed="0.369870" NOx_normed="10.190229" fuel_normed="2.592043"
            traveltime="43.39" CO_perVeh="0" CO2_perVeh="68279.141839" HC_perVeh="12.721401" PMx_perVeh="3.884408" NOx_perVeh="107.018632" fuel_perVeh="27.221852"/>
        <edge id="4/1to3/1" sampledSeconds="8.61" CO_abs="0" CO2_abs="13550.918035" HC_abs="2.524734" PMx_abs="0.770913" NOx_abs="21.239293" fuel_abs="5.402544"
            CO_normed="0" CO2_normed="8328.349112" HC_normed="1.551693" PMx_normed="0.473801" NOx_normed="13.053599" fuel_normed="3.320386"
            traveltime="43.39" CO_perVeh="0" CO2_perVeh="68279.141839" HC_perVeh="12.721401" PMx_perVeh="3.884408" NOx_perVeh="107.018632" fuel_perVeh="27.221852"/>
    </interval>
    <interval begin="45.00" end="60.00" id="dump_all_15">
        <edge id="3/1to2/1" sampledSeconds="30.00" CO_abs="0" CO2_abs="48805.885010" HC_abs="8.810879" PMx_abs="2.812063" NOx_abs="76.982799" fuel_abs="19.458164"
            CO_normed="0" CO2_normed="29995.934449" HC_normed="5.415137" PMx_normed="1.728285" NOx_normed="47.313372" fuel_normed="11.958923"
            traveltime="41.11" CO_perVeh="0" CO2_perVeh="66872.624900" HC_perVeh="12.072450" PMx_perVeh="3.853020" NOx_perVeh="105.479940" fuel_perVeh="26.661099"/>
    </interval>
    <interval begin="45.00" end="60.00" id="dump_t1_15">
        <edge id="3/1to2/1" sampledSeconds="15.00" CO_abs="0" CO2_abs="25201.060047" HC_abs="4.412955" PMx_abs="1.469182" NOx_abs="39.985320" fuel_abs="10.047281"
            CO_normed="0" CO2_normed="15488.487609" HC_normed="2.712187" PMx_normed="0.902955" NOx_normed="24.574845" fuel_normed="6.175025"
            traveltime="39.05" CO_perVeh="0" CO2_perVeh="65606.759655" HC_perVeh="11.488393" PMx_perVeh="3.824771" NOx_perVeh="104.095116" fuel_perVeh="26.156421"/>
    </interval>
    <interval begin="45.00" end="60.00" id="dump_t2_15">
        <edge id="3/1to2/1" sampledSeconds="15.00" CO_abs="0" CO2_abs="23604.824964" HC_abs="4.397924" PMx_abs="1.342881" NOx_abs="36.997479" fuel_abs="9.410884"
            CO_normed="0" CO2_normed="14507.446841" HC_normed="2.702949" PMx_normed="0.825330" NOx_normed="22.738527" fuel_normed="5.783898"
            traveltime="43.39" CO_perVeh="0" CO2_perVeh="68279.141839" HC_perVeh="12.721401" PMx_perVeh="3.884408" NOx_perVeh="107.018632" fuel_perVeh="27.221852"/>
    </interval>
    <interval begin="60.00" end="75.00" id="dump_all_15">
        <edge id="2/1to1/1" sampledSeconds="5.90" CO_abs="0" CO2_abs="9912.416952" HC_abs="1.735762" PMx_abs="0.577878" NOx_abs="15.727559" fuel_abs="3.951930"
            CO_normed="0" CO2_normed="6092.138459" HC_normed="1.066794" PMx_normed="0.355162" NOx_normed="9.666106" fuel_normed="2.428843"
            traveltime="39.05" CO_perVeh="0" CO2_perVeh="65606.759655" HC_perVeh="11.488393" PMx_perVeh="3.824771" NOx_perVeh="104.095116" fuel_perVeh="26.156421"/>
        <edge id="3/1to2/1" sampledSeconds="24.40" CO_abs="0" CO2_abs="39397.489260" HC_abs="7.163375" PMx_abs="2.263569" NOx_abs="62.054946" fuel_abs="15.707180"
            CO_normed="0" CO2_normed="24213.565742" HC_normed="4.402587" PMx_normed="1.391182" NOx_normed="38.138763" fuel_normed="9.653580"
            traveltime="41.61" CO_perVeh="0" CO2_perVeh="67182.181467" HC_perVeh="12.215276" PMx_perVeh="3.859928" NOx_perVeh="105.818587" fuel_perVeh="26.784514"/>
    </interval>
    <interval begin="60.00" end="75.00" id="dump_t1_15">
        <edge id="2/1to1/1" sampledSeconds="5.90" CO_abs="0" CO2_abs="9912.416952" HC_abs="1.735762" PMx_abs="0.577878" NOx_abs="15.727559" fuel_abs="3.951930"
            CO_normed="0" CO2_normed="6092.138459" HC_normed="1.066794" PMx_normed="0.355162" NOx_normed="9.666106" fuel_normed="2.428843"
            traveltime="39.05" CO_perVeh="0" CO2_perVeh="65606.759655" HC_perVeh="11.488393" PMx_perVeh="3.824771" NOx_perVeh="104.095116" fuel_perVeh="26.156421"/>
        <edge id="3/1to2/1" sampledSeconds="9.40" CO_abs="0" CO2_abs="15792.664296" HC_abs="2.765452" PMx_abs="0.920688" NOx_abs="25.057467" fuel_abs="6.296296"
            CO_normed="0" CO2_normed="9706.118901" HC_normed="1.699637" PMx_normed="0.565852" NOx_normed="15.400236" fuel_normed="3.869683"
            traveltime="39.05" CO_perVeh="0" CO2_perVeh="65606.759655" HC_perVeh="11.488393" PMx_perVeh="3.824771" NOx_perVeh="104.095116" fuel_perVeh="26.156421"/>
    </interval>
    <interval begin="60.00" end="75.00" id="dump_t2_15">
        <edge id="3/1to2/1" sampledSeconds="15.00" CO_abs="0" CO2_abs="23604.824964" HC_abs="4.397924" PMx_abs="1.342881" NOx_abs="36.997479" fuel_abs="9.410884"
            CO_normed="0" CO2_normed="14507.446841" HC_normed="2.702949" PMx_normed="0.825330" NOx_normed="22.738527" fuel_normed="5.783898"
            traveltime="43.39" CO_perVeh="0" CO2_perVeh="68279.141839" HC_perVeh="12.721401" PMx_perVeh="3.884408" NOx_perVeh="107.018632" fuel_perVeh="27.221852"/>
    </interval>
    <interval begin="75.00" end="90.00" id="dump_all_15">
        <edge id="2/1to1/1" sampledSeconds="23.33" CO_abs="0" CO2_abs="38314.851693" HC_abs="6.856246" PMx_abs="2.215227" NOx_abs="60.539475" fuel_abs="15.275549"
            CO_normed="0" CO2_normed="23548.180298" HC_normed="4.213826" PMx_normed="1.361471" NOx_normed="37.207360" fuel_normed="9.388302"
            traveltime="40.50" CO_perVeh="0" CO2_perVeh="66497.553716" HC_perVeh="11.899396" PMx_perVeh="3.844650" NOx_perVeh="105.069622" fuel_perVeh="26.511565"/>
        <edge id="3/1to2/1" sampledSeconds="7.00" CO_abs="0" CO2_abs="11015.584983" HC_abs="2.052364" PMx_abs="0.626678" NOx_abs="17.265490" fuel_abs="4.391746"
            CO_normed="0" CO2_normed="6770.141859" HC_normed="1.261376" PMx_normed="0.385154" NOx_normed="10.611313" fuel_normed="2.699152"
            traveltime="43.39" CO_perVeh="0" CO2_perVeh="68279.141839" HC_perVeh="12.721401" PMx_perVeh="3.884408" NOx_perVeh="107.018632" fuel_perVeh="27.221852"/>
    </interval>
    <interval begin="75.00" end="90.00" id="dump_t1_15">
        <edge id="2/1to1/1" sampledSeconds="15.00" CO_abs="0" CO2_abs="25201.060047" HC_abs="4.412955" PMx_abs="1.469182" NOx_abs="39.985320" fuel_abs="10.047281"
            CO_normed="0" CO2_normed="15488.487609" HC_normed="2.712187" PMx_normed="0.902955" NOx_normed="24.574845" fuel_normed="6.175025"
            traveltime="39.05" CO_perVeh="0" CO2_perVeh="65606.759655" HC_perVeh="11.488393" PMx_perVeh="3.824771" NOx_perVeh="104.095116" fuel_perVeh="26.156421"/>
    </interval>
    <interval begin="75.00" end="90.00" id="dump_t2_15">
        <edge id="2/1to1/1" sampledSeconds="8.33" CO_abs="0" CO2_abs="13113.791646" HC_abs="2.443291" PMx_abs="0.746045" NOx_abs="20.554155" fuel_abs="5.228269"
            CO_normed="0" CO2_normed="8059.692689" HC_normed="1.501638" PMx_normed="0.458517" NOx_normed="12.632515" fuel_normed="3.213277"
            traveltime="43.39" CO_perVeh="0" CO2_perVeh="68279.141839" HC_perVeh="12.721401" PMx_perVeh="3.884408" NOx_perVeh="107.018632" fuel_perVeh="27.221852"/>
        <edge id="3/1to2/1" sampledSeconds="7.00" CO_abs="0" CO2_abs="11015.584983" HC_abs="2.052364" PMx_abs="0.626678" NOx_abs="17.265490" fuel_abs="4.391746"
            CO_normed="0" CO2_normed="6770.141859" HC_normed="1.261376" PMx_normed="0.385154" NOx_normed="10.611313" fuel_normed="2.699152"
            traveltime="43.39" CO_perVeh="0" CO2_perVeh="68279.141839" HC_perVeh="12.721401" PMx_perVeh="3.884408" NOx_perVeh="107.018632" fuel_perVeh="27.221852"/>
    </interval>
    <interval begin="90.00" end="105.00" id="dump_all_15">
        <edge id="2/1to1/1" sampledSeconds="30.00" CO_abs="0" CO2_abs="48805.885010" HC_abs="8.810879" PMx_abs="2.812063" NOx_abs="76.982799" fuel_abs="19.458164"
            CO_normed="0" CO2_normed="29995.934449" HC_normed="5.415137" PMx_normed="1.728285" NOx_normed="47.313372" fuel_normed="11.958923"
            traveltime="41.11" CO_perVeh="0" CO2_perVeh="66872.624900" HC_perVeh="12.072450" PMx_perVeh="3.853020" NOx_perVeh="105.479940" fuel_perVeh="26.661099"/>
    </interval>
    <interval begin="90.00" end="105.00" id="dump_t1_15">
        <edge id="2/1to1/1" sampledSeconds="15.00" CO_abs="0" CO2_abs="25201.060047" HC_abs="4.412955" PMx_abs="1.469182" NOx_abs="39.985320" fuel_abs="10.047281"
            CO_normed="0" CO2_normed="15488.487609" HC_normed="2.712187" PMx_normed="0.902955" NOx_normed="24.574845" fuel_normed="6.175025"
            traveltime="39.05" CO_perVeh="0" CO2_perVeh="65606.759655" HC_perVeh="11.488393" PMx_perVeh="3.824771" NOx_perVeh="104.095116" fuel_perVeh="26.156421"/>
    </interval>
    <interval begin="90.00" end="105.00" id="dump_t2_15">
        <edge id="2/1to1/1" sampledSeconds="15.00" CO_abs="0" CO2_abs="23604.824964" HC_abs="4.397924" PMx_abs="1.342881" NOx_abs="36.997479" fuel_abs="9.410884"
            CO_normed="0" CO2_normed="14507.446841" HC_normed="2.702949" PMx_normed="0.825330" NOx_normed="22.738527" fuel_normed="5.783898"
            traveltime="43.39" CO_perVeh="0" CO2_perVeh="68279.141839" HC_perVeh="12.721401" PMx_perVeh="3.884408" NOx_perVeh="107.018632" fuel_perVeh="27.221852"/>
    </interval>
    <interval begin="105.00" end="120.00" id="dump_all_15">
        <edge id="1/1to0/1" sampledSeconds="11.85" CO_abs="0" CO2_abs="19908.837437" HC_abs="3.486234" PMx_abs="1.160654" NOx_abs="31.588403" fuel_abs="7.937352"
            CO_normed="0" CO2_normed="12235.905211" HC_normed="2.142628" PMx_normed="0.713334" NOx_normed="19.414127" fuel_normed="4.878270"
            traveltime="39.05" CO_perVeh="0" CO2_perVeh="65606.759655" HC_perVeh="11.488393" PMx_perVeh="3.824771" NOx_perVeh="104.095116" fuel_perVeh="26.156421"/>
        <edge id="2/1to1/1" sampledSeconds="18.45" CO_abs="0" CO2_abs="29401.068774" HC_abs="5.412903" PMx_abs="1.680793" NOx_abs="46.194102" fuel_abs="11.721758"
            CO_normed="0" CO2_normed="18069.798991" HC_normed="3.326752" PMx_normed="1.033010" NOx_normed="28.390741" fuel_normed="7.204154"
            traveltime="42.51" CO_perVeh="0" CO2_perVeh="67735.205642" HC_perVeh="12.470435" PMx_perVeh="3.872269" NOx_perVeh="106.423581" fuel_perVeh="27.004995"/>
    </interval>
    <interval begin="105.00" end="120.00" id="dump_t1_15">
        <edge id="1/1to0/1" sampledSeconds="11.85" CO_abs="0" CO2_abs="19908.837437" HC_abs="3.486234" PMx_abs="1.160654" NOx_abs="31.588403" fuel_abs="7.937352"
            CO_normed="0" CO2_normed="12235.905211" HC_normed="2.142628" PMx_normed="0.713334" NOx_normed="19.414127" fuel_normed="4.878270"
            traveltime="39.05" CO_perVeh="0" CO2_perVeh="65606.759655" HC_perVeh="11.488393" PMx_perVeh="3.824771" NOx_perVeh="104.095116" fuel_perVeh="26.156421"/>
        <edge id="2/1to1/1" sampledSeconds="3.45" CO_abs="0" CO2_abs="5796.243811" HC_abs="1.014980" PMx_abs="0.337912" NOx_abs="9.196624" fuel_abs="2.310875"
            CO_normed="0" CO2_normed="3562.352150" HC_normed="0.623803" PMx_normed="0.207680" NOx_normed="5.652214" fuel_normed="1.420256"
            traveltime="39.05" CO_perVeh="0" CO2_perVeh="65606.759655" HC_perVeh="11.488393" PMx_perVeh="3.824771" NOx_perVeh="104.095116" fuel_perVeh="26.156421"/>
    </interval>
    <interval begin="105.00" end="120.00" id="dump_t2_15">
        <edge id="2/1to1/1" sampledSeconds="15.00" CO_abs="0" CO2_abs="23604.824964" HC_abs="4.397924" PMx_abs="1.342881" NOx_abs="36.997479" fuel_abs="9.410884"
            CO_normed="0" CO2_normed="14507.446841" HC_normed="2.702949" PMx_normed="0.825330" NOx_normed="22.738527" fuel_normed="5.783898"
            traveltime="43.39" CO_perVeh="0" CO2_perVeh="68279.141839" HC_perVeh="12.721401" PMx_perVeh="3.884408" NOx_perVeh="107.018632" fuel_perVeh="27.221852"/>
    </interval>
    <interval begin="120.00" end="135.00" id="dump_all_15">
        <edge id="1/1to0/1" sampledSeconds="24.94" CO_abs="0" CO2_abs="40850.184745" HC_abs="7.328616" PMx_abs="2.359463" NOx_abs="64.513278" fuel_abs="16.286348"
            CO_normed="0" CO2_normed="25106.387551" HC_normed="4.504143" PMx_normed="1.450118" NOx_normed="39.649646" fuel_normed="10.009535"
            traveltime="40.67" CO_perVeh="0" CO2_perVeh="66605.416045" HC_perVeh="11.949162" PMx_perVeh="3.847057" NOx_perVeh="105.187620" fuel_perVeh="26.554567"/>
        <edge id="2/1to1/1" sampledSeconds="5.39" CO_abs="0" CO2_abs="8480.251931" HC_abs="1.579995" PMx_abs="0.482442" NOx_abs="13.291687" fuel_abs="3.380947"
            CO_normed="0" CO2_normed="5211.934606" HC_normed="0.971060" PMx_normed="0.296508" NOx_normed="8.169026" fuel_normed="2.077919"
            traveltime="43.39" CO_perVeh="0" CO2_perVeh="68279.141839" HC_perVeh="12.721401" PMx_perVeh="3.884408" NOx_perVeh="107.018632" fuel_perVeh="27.221852"/>
    </interval>
    <interval begin="120.00" end="135.00" id="dump_t1_15">
        <edge id="1/1to0/1" sampledSeconds="15.00" CO_abs="0" CO2_abs="25201.060047" HC_abs="4.412955" PMx_abs="1.469182" NOx_abs="39.985320" fuel_abs="10.047281"
            CO_normed="0" CO2_normed="15488.487609" HC_normed="2.712187" PMx_normed="0.902955" NOx_normed="24.574845" fuel_normed="6.175025"
            traveltime="39.05" CO_perVeh="0" CO2_perVeh="65606.759655" HC_perVeh="11.488393" PMx_perVeh="3.824771" NOx_perVeh="104.095116" fuel_perVeh="26.156421"/>
    </interval>
    <interval begin="120.00" end="135.00" id="dump_t2_15">
        <edge id="1/1to0/1" sampledSeconds="9.94" CO_abs="0" CO2_abs="15649.124698" HC_abs="2.915661" PMx_abs="0.890280" NOx_abs="24.527958" fuel_abs="6.239067"
            CO_normed="0" CO2_normed="9617.899943" HC_normed="1.791955" PMx_normed="0.547163" NOx_normed="15.074801" fuel_normed="3.834510"
            traveltime="43.39" CO_perVeh="0" CO2_perVeh="68279.141839" HC_perVeh="12.721401" PMx_perVeh="3.884408" NOx_perVeh="107.018632" fuel_perVeh="27.221852"/>
        <edge id="2/1to1/1" sampledSeconds="5.39" CO_abs="0" CO2_abs="8480.251931" HC_abs="1.579995" PMx_abs="0.482442" NOx_abs="13.291687" fuel_abs="3.380947"
            CO_normed="0" CO2_normed="5211.934606" HC_normed="0.971060" PMx_normed="0.296508" NOx_normed="8.169026" fuel_normed="2.077919"
            traveltime="43.39" CO_perVeh="0" CO2_perVeh="68279.141839" HC_perVeh="12.721401" PMx_perVeh="3.884408" NOx_perVeh="107.018632" fuel_perVeh="27.221852"/>
    </interval>
    <interval begin="135.00" end="150.00" id="dump_all_15">
        <edge id="1/1to0/1" sampledSeconds="27.50" CO_abs="0" CO2_abs="44605.708336" HC_abs="8.075386" PMx_abs="2.567200" NOx_abs="70.318579" fuel_abs="17.783618"
            CO_normed="0" CO2_normed="27414.519848" HC_normed="4.963105" PMx_normed="1.577792" NOx_normed="43.217564" fuel_normed="10.929752"
            traveltime="41.30" CO_perVeh="0" CO2_perVeh="66994.342712" HC_perVeh="12.128609" PMx_perVeh="3.855736" NOx_perVeh="105.613096" fuel_perVeh="26.709626"/>
    </interval>
    <interval begin="135.00" end="150.00" id="dump_t1_15">
        <edge id="1/1to0/1" sampledSeconds="12.50" CO_abs="0" CO2_abs="21000.883372" HC_abs="3.677462" PMx_abs="1.224319" NOx_abs="33.321100" fuel_abs="8.372734"
            CO_normed="0" CO2_normed="12907.073007" HC_normed="2.260156" PMx_normed="0.752462" NOx_normed="20.479037" fuel_normed="5.145854"
            traveltime="39.05" CO_perVeh="0" CO2_perVeh="65606.759655" HC_perVeh="11.488393" PMx_perVeh="3.824771" NOx_perVeh="104.095116" fuel_perVeh="26.156421"/>
    </interval>
    <interval begin="135.00" end="150.00" id="dump_t2_15">
        <edge id="1/1to0/1" sampledSeconds="15.00" CO_abs="0" CO2_abs="23604.824964" HC_abs="4.397924" PMx_abs="1.342881" NOx_abs="36.997479" fuel_abs="9.410884"
            CO_normed="0" CO2_normed="14507.446841" HC_normed="2.702949" PMx_normed="0.825330" NOx_normed="22.738527" fuel_normed="5.783898"
            traveltime="43.39" CO_perVeh="0" CO2_perVeh="68279.141839" HC_perVeh="12.721401" PMx_perVeh="3.884408" NOx_perVeh="107.018632" fuel_perVeh="27.221852"/>
    </interval>
</meandata>
