<?xml version="1.0"?>

<!-- generated on Thu Jun 28 08:11:23 2012 by SUMO sumo Version dev-SVN-r12431
<?xml version="1.0" encoding="UTF-8"?>

<configuration xmlns:xsi="http://www.w3.org/2001/XMLSchema-instance" xsi:noNamespaceSchemaLocation="http://sumo.sf.net/xsd/sumoConfiguration.xsd">

    <input>
        <net-file value="net.net.xml"/>
        <route-files value="input_routes.rou.xml"/>
        <additional-files value="input_additional.add.xml"/>
    </input>

    <output>
        <vehroute-output value="vehroutes.xml"/>
    </output>

    <time>
        <end value="1200"/>
    </time>

    <report>
        <no-duration-log value="true"/>
        <no-step-log value="true"/>
    </report>

    <mesoscopic>
        <meso-junction-control value="true"/>
    </mesoscopic>

</configuration>
-->

<netstats>
    <interval begin="0.00" end="360.00" id="expect_300_vehs">
        <edge id="end" sampledSeconds="1259.75" traveltime="9.28" density="11.66" occupancy="5.83" waitingTime="0.00" speed="32.34" departed="0" arrived="16" entered="136" left="0" laneChangedFrom="0" laneChangedTo="0"/>
        <edge id="jam0" sampledSeconds="4214.69" traveltime="30.05" density="39.02" occupancy="19.51" waitingTime="1749.00" speed="9.98" departed="0" arrived="0" entered="140" left="136" laneChangedFrom="0" laneChangedTo="0"/>
        <edge id="jam1" sampledSeconds="2668.41" traveltime="18.40" density="37.06" occupancy="18.53" waitingTime="539.00" speed="10.87" departed="0" arrived="0" entered="143" left="140" laneChangedFrom="0" laneChangedTo="0"/>
        <edge id="jam2" sampledSeconds="1228.14" traveltime="8.15" density="34.11" occupancy="17.06" waitingTime="63.00" speed="12.27" departed="0" arrived="0" entered="144" left="143" laneChangedFrom="0" laneChangedTo="0"/>
        <edge id="start" sampledSeconds="1950.93" traveltime="13.33" density="18.06" occupancy="9.03" waitingTime="6.00" speed="22.50" departed="149" arrived="0" entered="0" left="144" laneChangedFrom="0" laneChangedTo="0"/>
    </interval>
    <interval begin="360.00" end="720.00" id="expect_300_vehs">
        <edge id="end" sampledSeconds="1549.17" traveltime="8.46" density="14.34" occupancy="7.17" waitingTime="0.00" speed="35.44" departed="0" arrived="1" entered="180" left="0" laneChangedFrom="0" laneChangedTo="0"/>
        <edge id="jam0" sampledSeconds="1549.06" traveltime="8.46" density="14.34" occupancy="7.17" waitingTime="0.00" speed="35.44" departed="0" arrived="0" entered="180" left="180" laneChangedFrom="0" laneChangedTo="0"/>
        <edge id="jam1" sampledSeconds="1040.98" traveltime="5.64" density="14.46" occupancy="7.23" waitingTime="0.00" speed="35.45" departed="0" arrived="0" entered="180" left="180" laneChangedFrom="0" laneChangedTo="0"/>
        <edge id="jam2" sampledSeconds="533.27" traveltime="2.82" density="14.81" occupancy="7.41" waitingTime="0.00" speed="35.45" departed="0" arrived="0" entered="180" left="180" laneChangedFrom="0" laneChangedTo="0"/>
        <edge id="start" sampledSeconds="1522.78" traveltime="8.46" density="14.10" occupancy="7.05" waitingTime="0.00" speed="35.45" departed="180" arrived="0" entered="0" left="180" laneChangedFrom="0" laneChangedTo="0"/>
    </interval>
    <interval begin="720.00" end="1080.00" id="expect_300_vehs">
        <edge id="end" sampledSeconds="1548.94" traveltime="8.46" density="14.34" occupancy="7.17" waitingTime="0.00" speed="35.44" departed="0" arrived="3" entered="180" left="0" laneChangedFrom="0" laneChangedTo="0"/>
        <edge id="jam0" sampledSeconds="1548.21" traveltime="8.46" density="14.34" occupancy="7.17" waitingTime="0.00" speed="35.46" departed="0" arrived="0" entered="180" left="180" laneChangedFrom="0" laneChangedTo="0"/>
        <edge id="jam1" sampledSeconds="1040.78" traveltime="5.64" density="14.46" occupancy="7.23" waitingTime="0.00" speed="35.45" departed="0" arrived="0" entered="180" left="180" laneChangedFrom="0" laneChangedTo="0"/>
        <edge id="jam2" sampledSeconds="533.33" traveltime="2.82" density="14.81" occupancy="7.41" waitingTime="0.00" speed="35.44" departed="0" arrived="0" entered="180" left="180" laneChangedFrom="0" laneChangedTo="0"/>
        <edge id="start" sampledSeconds="1522.96" traveltime="8.46" density="14.10" occupancy="7.05" waitingTime="0.00" speed="35.45" departed="180" arrived="0" entered="0" left="180" laneChangedFrom="0" laneChangedTo="0"/>
    </interval>
    <interval begin="1080.00" end="1200.00" id="expect_300_vehs">
        <edge id="end" sampledSeconds="516.64" traveltime="8.47" density="14.35" occupancy="7.18" waitingTime="0.00" speed="35.42" departed="0" arrived="0" entered="60" left="0" laneChangedFrom="0" laneChangedTo="0"/>
        <edge id="jam0" sampledSeconds="516.30" traveltime="8.47" density="14.34" occupancy="7.17" waitingTime="0.00" speed="35.44" departed="0" arrived="0" entered="60" left="60" laneChangedFrom="0" laneChangedTo="0"/>
        <edge id="jam1" sampledSeconds="347.15" traveltime="5.64" density="14.46" occupancy="7.23" waitingTime="0.00" speed="35.45" departed="0" arrived="0" entered="60" left="60" laneChangedFrom="0" laneChangedTo="0"/>
        <edge id="jam2" sampledSeconds="177.69" traveltime="2.82" density="14.81" occupancy="7.40" waitingTime="0.00" speed="35.45" departed="0" arrived="0" entered="60" left="60" laneChangedFrom="0" laneChangedTo="0"/>
        <edge id="start" sampledSeconds="507.44" traveltime="8.46" density="14.10" occupancy="7.05" waitingTime="0.00" speed="35.45" departed="60" arrived="0" entered="0" left="60" laneChangedFrom="0" laneChangedTo="0"/>
    </interval>
</netstats>
