<?xml version="1.0" encoding="UTF-8"?>

<!-- generated on 2025-04-22 10:44:43 by Eclipse SUMO sumo Version v1_22_0+1617-22b86256498
This data file and the accompanying materials
are made available under the terms of the Eclipse Public License v2.0
which accompanies this distribution, and is available at
http://www.eclipse.org/legal/epl-v20.html
This file may also be made available under the following Secondary
Licenses when the conditions for such availability set forth in the Eclipse
Public License 2.0 are satisfied: GNU General Public License, version 2
or later which is available at
https://www.gnu.org/licenses/old-licenses/gpl-2.0-standalone.html
SPDX-License-Identifier: EPL-2.0 OR GPL-2.0-or-later
<sumoConfiguration xmlns:xsi="http://www.w3.org/2001/XMLSchema-instance" xsi:noNamespaceSchemaLocation="http://sumo.dlr.de/xsd/sumoConfiguration.xsd">

    <input>
        <net-file value="net.net.xml"/>
        <additional-files value="input_routes.rou.xml,input_additional.add.xml"/>
    </input>

    <output>
        <write-license value="true"/>
    </output>

    <time>
        <begin value="0"/>
        <end value="150"/>
    </time>

    <processing>
        <default.speeddev value="0"/>
    </processing>

    <report>
        <xml-validation value="never"/>
        <duration-log.disable value="true"/>
        <no-step-log value="true"/>
    </report>

</sumoConfiguration>
-->

<meandata xmlns:xsi="http://www.w3.org/2001/XMLSchema-instance" xsi:noNamespaceSchemaLocation="http://sumo.dlr.de/xsd/meandata_file.xsd">
    <interval begin="0.00" end="15.00" id="dump_15">
        <edge id="beg" sampledSeconds="14.00" CO_abs="1920.051100" CO2_abs="145167.644687" HC_abs="12.771528" PMx_abs="11.027643" NOx_abs="56.735827" fuel_abs="47060.521911" electricity_abs="0"
            CO_normed="924.305012" CO2_normed="69883.130528" HC_normed="6.148163" PMx_normed="5.308664" NOx_normed="27.312403" fuel_normed="22654.749290" electricity_normed="0"
            traveltime="27.46" CO_perVeh="3765.702108" CO2_perVeh="284710.185912" HC_perVeh="25.048171" PMx_perVeh="21.627975" NOx_perVeh="111.273197" fuel_perVeh="92297.494881" electricity_perVeh="0"/>
    </interval>
    <interval begin="0.00" end="15.00" id="dump_15_internal">
        <edge id="beg" sampledSeconds="14.00" CO_abs="1920.051100" CO2_abs="145167.644687" HC_abs="12.771528" PMx_abs="11.027643" NOx_abs="56.735827" fuel_abs="47060.521911" electricity_abs="0"
            CO_normed="924.305012" CO2_normed="69883.130528" HC_normed="6.148163" PMx_normed="5.308664" NOx_normed="27.312403" fuel_normed="22654.749290" electricity_normed="0"
            traveltime="27.46" CO_perVeh="3765.702108" CO2_perVeh="284710.185912" HC_perVeh="25.048171" PMx_perVeh="21.627975" NOx_perVeh="111.273197" fuel_perVeh="92297.494881" electricity_perVeh="0"/>
    </interval>
    <interval begin="15.00" end="30.00" id="dump_15">
        <edge id="beg" sampledSeconds="9.27" CO_abs="402.245267" CO2_abs="28835.810330" HC_abs="2.825960" PMx_abs="6.433926" NOx_abs="11.186724" fuel_abs="9348.295282" electricity_abs="0"
            CO_normed="193.639282" CO2_normed="13881.445150" HC_normed="1.360406" PMx_normed="3.097266" NOx_normed="5.385245" fuel_normed="4500.232410" electricity_normed="0"
            traveltime="19.32" CO_perVeh="838.200116" CO2_perVeh="60088.164013" HC_perVeh="5.888745" PMx_perVeh="13.407037" NOx_perVeh="23.310936" fuel_perVeh="19480.010922" electricity_perVeh="0"/>
        <edge id="middle" sampledSeconds="5.28" CO_abs="41.076543" CO2_abs="10298.533591" HC_abs="0.286287" PMx_abs="1.994676" NOx_abs="3.795031" fuel_abs="3338.703053" electricity_abs="0"
            CO_normed="9.952923" CO2_normed="2495.353924" HC_normed="0.069368" PMx_normed="0.483314" NOx_normed="0.919543" fuel_normed="808.973985" electricity_normed="0"
            traveltime="71.26" CO_perVeh="553.932137" CO2_perVeh="138879.476125" HC_perVeh="3.860684" PMx_perVeh="26.898938" NOx_perVeh="51.177375" fuel_perVeh="45023.626598" electricity_perVeh="0"/>
    </interval>
    <interval begin="15.00" end="30.00" id="dump_15_internal">
        <edge id=":beg_0" sampledSeconds="0.45" CO_abs="0" CO2_abs="0" HC_abs="0" PMx_abs="0" NOx_abs="0" fuel_abs="0" electricity_abs="0"
            CO_normed="0" CO2_normed="0" HC_normed="0" PMx_normed="0" NOx_normed="0" fuel_normed="0" electricity_normed="0"
            traveltime="0.45" CO_perVeh="0" CO2_perVeh="0" HC_perVeh="0" PMx_perVeh="0" NOx_perVeh="0" fuel_perVeh="0" electricity_perVeh="0"/>
        <edge id="beg" sampledSeconds="9.27" CO_abs="402.245267" CO2_abs="28835.810330" HC_abs="2.825960" PMx_abs="6.433926" NOx_abs="11.186724" fuel_abs="9348.295282" electricity_abs="0"
            CO_normed="193.639282" CO2_normed="13881.445150" HC_normed="1.360406" PMx_normed="3.097266" NOx_normed="5.385245" fuel_normed="4500.232410" electricity_normed="0"
            traveltime="19.32" CO_perVeh="838.200116" CO2_perVeh="60088.164013" HC_perVeh="5.888745" PMx_perVeh="13.407037" NOx_perVeh="23.310936" fuel_perVeh="19480.010922" electricity_perVeh="0"/>
        <edge id="middle" sampledSeconds="5.28" CO_abs="41.076543" CO2_abs="10298.533591" HC_abs="0.286287" PMx_abs="1.994676" NOx_abs="3.795031" fuel_abs="3338.703053" electricity_abs="0"
            CO_normed="9.952923" CO2_normed="2495.353924" HC_normed="0.069368" PMx_normed="0.483314" NOx_normed="0.919543" fuel_normed="808.973985" electricity_normed="0"
            traveltime="71.26" CO_perVeh="553.932137" CO2_perVeh="138879.476125" HC_perVeh="3.860684" PMx_perVeh="26.898938" NOx_perVeh="51.177375" fuel_perVeh="45023.626598" electricity_perVeh="0"/>
    </interval>
    <interval begin="30.00" end="45.00" id="dump_15">
        <edge id="middle" sampledSeconds="15.00" CO_abs="123.229628" CO2_abs="30895.600772" HC_abs="0.858861" PMx_abs="5.984029" NOx_abs="11.385093" fuel_abs="10016.109158" electricity_abs="0"
            CO_normed="29.858769" CO2_normed="7486.061772" HC_normed="0.208104" PMx_normed="1.449941" NOx_normed="2.758629" fuel_normed="2426.921956" electricity_normed="0"
            traveltime="71.26" CO_perVeh="585.414611" CO2_perVeh="146772.626207" HC_perVeh="4.080104" PMx_perVeh="28.427726" NOx_perVeh="54.086017" fuel_perVeh="47582.523362" electricity_perVeh="0"/>
    </interval>
    <interval begin="30.00" end="45.00" id="dump_15_internal">
        <edge id="middle" sampledSeconds="15.00" CO_abs="123.229628" CO2_abs="30895.600772" HC_abs="0.858861" PMx_abs="5.984029" NOx_abs="11.385093" fuel_abs="10016.109158" electricity_abs="0"
            CO_normed="29.858769" CO2_normed="7486.061772" HC_normed="0.208104" PMx_normed="1.449941" NOx_normed="2.758629" fuel_normed="2426.921956" electricity_normed="0"
            traveltime="71.26" CO_perVeh="585.414611" CO2_perVeh="146772.626207" HC_perVeh="4.080104" PMx_perVeh="28.427726" NOx_perVeh="54.086017" fuel_perVeh="47582.523362" electricity_perVeh="0"/>
    </interval>
    <interval begin="45.00" end="60.00" id="dump_15">
        <edge id="middle" sampledSeconds="15.00" CO_abs="123.229628" CO2_abs="30895.600772" HC_abs="0.858861" PMx_abs="5.984029" NOx_abs="11.385093" fuel_abs="10016.109158" electricity_abs="0"
            CO_normed="29.858769" CO2_normed="7486.061772" HC_normed="0.208104" PMx_normed="1.449941" NOx_normed="2.758629" fuel_normed="2426.921956" electricity_normed="0"
            traveltime="71.26" CO_perVeh="585.414611" CO2_perVeh="146772.626207" HC_perVeh="4.080104" PMx_perVeh="28.427726" NOx_perVeh="54.086017" fuel_perVeh="47582.523362" electricity_perVeh="0"/>
    </interval>
    <interval begin="45.00" end="60.00" id="dump_15_internal">
        <edge id="middle" sampledSeconds="15.00" CO_abs="123.229628" CO2_abs="30895.600772" HC_abs="0.858861" PMx_abs="5.984029" NOx_abs="11.385093" fuel_abs="10016.109158" electricity_abs="0"
            CO_normed="29.858769" CO2_normed="7486.061772" HC_normed="0.208104" PMx_normed="1.449941" NOx_normed="2.758629" fuel_normed="2426.921956" electricity_normed="0"
            traveltime="71.26" CO_perVeh="585.414611" CO2_perVeh="146772.626207" HC_perVeh="4.080104" PMx_perVeh="28.427726" NOx_perVeh="54.086017" fuel_perVeh="47582.523362" electricity_perVeh="0"/>
    </interval>
    <interval begin="60.00" end="75.00" id="dump_15">
        <edge id="middle" sampledSeconds="15.00" CO_abs="123.229628" CO2_abs="30895.600772" HC_abs="0.858861" PMx_abs="5.984029" NOx_abs="11.385093" fuel_abs="10016.109158" electricity_abs="0"
            CO_normed="29.858769" CO2_normed="7486.061772" HC_normed="0.208104" PMx_normed="1.449941" NOx_normed="2.758629" fuel_normed="2426.921956" electricity_normed="0"
            traveltime="71.26" CO_perVeh="585.414611" CO2_perVeh="146772.626207" HC_perVeh="4.080104" PMx_perVeh="28.427726" NOx_perVeh="54.086017" fuel_perVeh="47582.523362" electricity_perVeh="0"/>
    </interval>
    <interval begin="60.00" end="75.00" id="dump_15_internal">
        <edge id="middle" sampledSeconds="15.00" CO_abs="123.229628" CO2_abs="30895.600772" HC_abs="0.858861" PMx_abs="5.984029" NOx_abs="11.385093" fuel_abs="10016.109158" electricity_abs="0"
            CO_normed="29.858769" CO2_normed="7486.061772" HC_normed="0.208104" PMx_normed="1.449941" NOx_normed="2.758629" fuel_normed="2426.921956" electricity_normed="0"
            traveltime="71.26" CO_perVeh="585.414611" CO2_perVeh="146772.626207" HC_perVeh="4.080104" PMx_perVeh="28.427726" NOx_perVeh="54.086017" fuel_perVeh="47582.523362" electricity_perVeh="0"/>
    </interval>
    <interval begin="75.00" end="90.00" id="dump_15">
        <edge id="middle" sampledSeconds="15.00" CO_abs="123.229628" CO2_abs="30895.600772" HC_abs="0.858861" PMx_abs="5.984029" NOx_abs="11.385093" fuel_abs="10016.109158" electricity_abs="0"
            CO_normed="29.858769" CO2_normed="7486.061772" HC_normed="0.208104" PMx_normed="1.449941" NOx_normed="2.758629" fuel_normed="2426.921956" electricity_normed="0"
            traveltime="71.26" CO_perVeh="585.414611" CO2_perVeh="146772.626207" HC_perVeh="4.080104" PMx_perVeh="28.427726" NOx_perVeh="54.086017" fuel_perVeh="47582.523362" electricity_perVeh="0"/>
    </interval>
    <interval begin="75.00" end="90.00" id="dump_15_internal">
        <edge id="middle" sampledSeconds="15.00" CO_abs="123.229628" CO2_abs="30895.600772" HC_abs="0.858861" PMx_abs="5.984029" NOx_abs="11.385093" fuel_abs="10016.109158" electricity_abs="0"
            CO_normed="29.858769" CO2_normed="7486.061772" HC_normed="0.208104" PMx_normed="1.449941" NOx_normed="2.758629" fuel_normed="2426.921956" electricity_normed="0"
            traveltime="71.26" CO_perVeh="585.414611" CO2_perVeh="146772.626207" HC_perVeh="4.080104" PMx_perVeh="28.427726" NOx_perVeh="54.086017" fuel_perVeh="47582.523362" electricity_perVeh="0"/>
    </interval>
    <interval begin="90.00" end="105.00" id="dump_15">
        <edge id="end" sampledSeconds="7.11" CO_abs="1271.372550" CO2_abs="95127.408194" HC_abs="8.401757" PMx_abs="5.993920" NOx_abs="37.695526" fuel_abs="30838.455700" electricity_abs="0"
            CO_normed="612.033722" CO2_normed="45793.958413" HC_normed="4.044573" PMx_normed="2.885449" NOx_normed="18.146477" fuel_normed="14845.510717" electricity_normed="0"
            traveltime="28.61" CO_perVeh="5115.358433" CO2_perVeh="382744.451951" HC_perVeh="33.804410" PMx_perVeh="24.116495" NOx_perVeh="151.667680" fuel_perVeh="124078.307715" electricity_perVeh="0"/>
        <edge id="middle" sampledSeconds="7.03" CO_abs="33.535442" CO2_abs="8407.034391" HC_abs="0.233465" PMx_abs="1.602110" NOx_abs="3.083407" fuel_abs="2725.492183" electricity_abs="0"
            CO_normed="8.125700" CO2_normed="2037.040135" HC_normed="0.056569" PMx_normed="0.388194" NOx_normed="0.747115" fuel_normed="660.391847" electricity_normed="0"
            traveltime="83.80" CO_perVeh="399.962132" CO2_perVeh="100266.918288" HC_perVeh="2.784436" PMx_perVeh="19.107647" NOx_perVeh="36.774405" fuel_perVeh="32505.719536" electricity_perVeh="0"/>
    </interval>
    <interval begin="90.00" end="105.00" id="dump_15_internal">
        <edge id=":end_1" sampledSeconds="0.86" CO_abs="22.204980" CO2_abs="5539.902323" HC_abs="0.146090" PMx_abs="0.209762" NOx_abs="1.560520" fuel_abs="1795.933040" electricity_abs="0"
            CO_normed="859.547603" CO2_normed="214447.831847" HC_normed="5.655099" PMx_normed="8.119824" NOx_normed="60.407223" fuel_normed="69519.988642" electricity_normed="0"
            traveltime="0.86" CO_perVeh="22.204980" CO2_perVeh="5539.902323" HC_perVeh="0.146090" PMx_perVeh="0.209762" NOx_perVeh="1.560520" fuel_perVeh="1795.933040" electricity_perVeh="0"/>
        <edge id="end" sampledSeconds="7.11" CO_abs="1271.372550" CO2_abs="95127.408194" HC_abs="8.401757" PMx_abs="5.993920" NOx_abs="37.695526" fuel_abs="30838.455700" electricity_abs="0"
            CO_normed="612.033722" CO2_normed="45793.958413" HC_normed="4.044573" PMx_normed="2.885449" NOx_normed="18.146477" fuel_normed="14845.510717" electricity_normed="0"
            traveltime="28.61" CO_perVeh="5115.358433" CO2_perVeh="382744.451951" HC_perVeh="33.804410" PMx_perVeh="24.116495" NOx_perVeh="151.667680" fuel_perVeh="124078.307715" electricity_perVeh="0"/>
        <edge id="middle" sampledSeconds="7.03" CO_abs="33.535442" CO2_abs="8407.034391" HC_abs="0.233465" PMx_abs="1.602110" NOx_abs="3.083407" fuel_abs="2725.492183" electricity_abs="0"
            CO_normed="8.125700" CO2_normed="2037.040135" HC_normed="0.056569" PMx_normed="0.388194" NOx_normed="0.747115" fuel_normed="660.391847" electricity_normed="0"
            traveltime="83.80" CO_perVeh="399.962132" CO2_perVeh="100266.918288" HC_perVeh="2.784436" PMx_perVeh="19.107647" NOx_perVeh="36.774405" fuel_perVeh="32505.719536" electricity_perVeh="0"/>
    </interval>
    <interval begin="105.00" end="120.00" id="dump_15">
        <edge id="end" sampledSeconds="13.48" CO_abs="1227.301085" CO2_abs="78021.270838" HC_abs="8.414261" PMx_abs="13.305969" NOx_abs="32.117986" fuel_abs="25293.369957" electricity_abs="0"
            CO_normed="590.817892" CO2_normed="37559.131483" HC_normed="4.050592" PMx_normed="6.405441" NOx_normed="15.461472" fuel_normed="12176.128351" electricity_normed="0"
            traveltime="17.93" CO_perVeh="1633.222687" CO2_perVeh="103826.282884" HC_perVeh="11.197222" PMx_perVeh="17.706829" NOx_perVeh="42.740794" fuel_perVeh="33658.982429" electricity_perVeh="0"/>
        <edge id="rend" sampledSeconds="1.52" CO_abs="99.907017" CO2_abs="6886.891694" HC_abs="0.696312" PMx_abs="1.424783" NOx_abs="2.721269" fuel_abs="2232.654471" electricity_abs="0"
            CO_normed="47.955368" CO2_normed="3305.708013" HC_normed="0.334230" PMx_normed="0.683896" NOx_normed="1.306209" fuel_normed="1071.674146" electricity_normed="0"
            traveltime="17.99" CO_perVeh="1182.058780" CO2_perVeh="81482.873108" HC_perVeh="8.238474" PMx_perVeh="16.857450" NOx_perVeh="32.196936" fuel_perVeh="26415.850436" electricity_perVeh="0"/>
    </interval>
    <interval begin="105.00" end="120.00" id="dump_15_internal">
        <edge id=":absEnd_0" sampledSeconds="0.00" CO_abs="0.236412" CO2_abs="16.296575" HC_abs="0.001648" PMx_abs="0.003371" NOx_abs="0.006439" fuel_abs="5.283170" electricity_abs="0"
            CO_normed="567.388214" CO2_normed="39111.779092" HC_normed="3.954468" PMx_normed="8.091576" NOx_normed="15.454529" fuel_normed="12679.608209" electricity_normed="0"
            traveltime="3.597122e-03" CO_perVeh="0.236412" CO2_perVeh="16.296575" HC_perVeh="0.001648" PMx_perVeh="0.003371" NOx_perVeh="0.006439" fuel_perVeh="5.283170" electricity_perVeh="0"/>
        <edge id="end" sampledSeconds="13.48" CO_abs="1227.301085" CO2_abs="78021.270838" HC_abs="8.414261" PMx_abs="13.305969" NOx_abs="32.117986" fuel_abs="25293.369957" electricity_abs="0"
            CO_normed="590.817892" CO2_normed="37559.131483" HC_normed="4.050592" PMx_normed="6.405441" NOx_normed="15.461472" fuel_normed="12176.128351" electricity_normed="0"
            traveltime="17.93" CO_perVeh="1633.222687" CO2_perVeh="103826.282884" HC_perVeh="11.197222" PMx_perVeh="17.706829" NOx_perVeh="42.740794" fuel_perVeh="33658.982429" electricity_perVeh="0"/>
        <edge id="rend" sampledSeconds="1.52" CO_abs="99.907017" CO2_abs="6886.891694" HC_abs="0.696312" PMx_abs="1.424783" NOx_abs="2.721269" fuel_abs="2232.654471" electricity_abs="0"
            CO_normed="47.955368" CO2_normed="3305.708013" HC_normed="0.334230" PMx_normed="0.683896" NOx_normed="1.306209" fuel_normed="1071.674146" electricity_normed="0"
            traveltime="17.99" CO_perVeh="1182.058780" CO2_perVeh="81482.873108" HC_perVeh="8.238474" PMx_perVeh="16.857450" NOx_perVeh="32.196936" fuel_perVeh="26415.850436" electricity_perVeh="0"/>
    </interval>
    <interval begin="120.00" end="135.00" id="dump_15">
        <edge id="rend" sampledSeconds="15.00" CO_abs="985.837023" CO2_abs="67956.716172" HC_abs="6.870888" PMx_abs="14.059113" NOx_abs="26.852244" fuel_abs="22030.819264" electricity_abs="0"
            CO_normed="473.201771" CO2_normed="32619.223763" HC_normed="3.298026" PMx_normed="6.748374" NOx_normed="12.889077" fuel_normed="10574.793247" electricity_normed="0"
            traveltime="17.99" CO_perVeh="1182.058780" CO2_perVeh="81482.873108" HC_perVeh="8.238474" PMx_perVeh="16.857450" NOx_perVeh="32.196936" fuel_perVeh="26415.850436" electricity_perVeh="0"/>
    </interval>
    <interval begin="120.00" end="135.00" id="dump_15_internal">
        <edge id="rend" sampledSeconds="15.00" CO_abs="985.837023" CO2_abs="67956.716172" HC_abs="6.870888" PMx_abs="14.059113" NOx_abs="26.852244" fuel_abs="22030.819264" electricity_abs="0"
            CO_normed="473.201771" CO2_normed="32619.223763" HC_normed="3.298026" PMx_normed="6.748374" NOx_normed="12.889077" fuel_normed="10574.793247" electricity_normed="0"
            traveltime="17.99" CO_perVeh="1182.058780" CO2_perVeh="81482.873108" HC_perVeh="8.238474" PMx_perVeh="16.857450" NOx_perVeh="32.196936" fuel_perVeh="26415.850436" electricity_perVeh="0"/>
    </interval>
    <interval begin="135.00" end="150.00" id="dump_15">
        <edge id="rend" sampledSeconds="1.47" CO_abs="96.314740" CO2_abs="6639.265242" HC_abs="0.671275" PMx_abs="1.373553" NOx_abs="2.623422" fuel_abs="2152.376701" electricity_abs="0"
            CO_normed="46.231075" CO2_normed="3186.847316" HC_normed="0.322212" PMx_normed="0.659306" NOx_normed="1.259243" fuel_normed="1033.140817" electricity_normed="0"
            traveltime="17.99" CO_perVeh="1182.058780" CO2_perVeh="81482.873108" HC_perVeh="8.238474" PMx_perVeh="16.857450" NOx_perVeh="32.196936" fuel_perVeh="26415.850436" electricity_perVeh="0"/>
    </interval>
    <interval begin="135.00" end="150.00" id="dump_15_internal">
        <edge id="rend" sampledSeconds="1.47" CO_abs="96.314740" CO2_abs="6639.265242" HC_abs="0.671275" PMx_abs="1.373553" NOx_abs="2.623422" fuel_abs="2152.376701" electricity_abs="0"
            CO_normed="46.231075" CO2_normed="3186.847316" HC_normed="0.322212" PMx_normed="0.659306" NOx_normed="1.259243" fuel_normed="1033.140817" electricity_normed="0"
            traveltime="17.99" CO_perVeh="1182.058780" CO2_perVeh="81482.873108" HC_perVeh="8.238474" PMx_perVeh="16.857450" NOx_perVeh="32.196936" fuel_perVeh="26415.850436" electricity_perVeh="0"/>
    </interval>
</meandata>
