<?xml version="1.0" encoding="UTF-8"?>

<!-- generated on Wed May  6 14:37:58 2020 by Eclipse SUMO Version v1_6_0+0116-fc17f5a0a5
This data file and the accompanying materials
are made available under the terms of the Eclipse Public License v2.0
which accompanies this distribution, and is available at
http://www.eclipse.org/legal/epl-v20.html
SPDX-License-Identifier: EPL-2.0
<configuration xmlns:xsi="http://www.w3.org/2001/XMLSchema-instance" xsi:noNamespaceSchemaLocation="http://sumo.dlr.de/xsd/sumoConfiguration.xsd">

    <input>
        <net-file value="net.net.xml"/>
        <route-files value="input_routes.rou.xml"/>
    </input>

    <output>
        <write-license value="true"/>
        <fcd-output value="fcd.xml"/>
        <railsignal-block-output value="railsignal_blocks.xml"/>
    </output>

    <time>
        <begin value="16250"/>
        <end value="16700"/>
    </time>

    <processing>
        <default.speeddev value="0"/>
        <pedestrian.model value="nonInteracting"/>
    </processing>

    <report>
        <xml-validation value="never"/>
        <duration-log.disable value="true"/>
        <no-step-log value="true"/>
    </report>

    <mesoscopic>
        <mesosim value="true"/>
    </mesoscopic>

</configuration>
-->

<fcd-export xmlns:xsi="http://www.w3.org/2001/XMLSchema-instance" xsi:noNamespaceSchemaLocation="http://sumo.dlr.de/xsd/fcd_file.xsd">
    <timestep time="16250.00">
        <vehicle id="RE1" x="-4649.17" y="-1481.29" angle="87.73" type="REDosto7" speed="44.44" pos="0.00" edge="gneE20" slope="0.00"/>
        <vehicle id="RE2" x="4780.18" y="-1293.18" angle="269.74" type="REDosto7" speed="44.45" pos="0.00" edge="gneE19" slope="0.00"/>
    </timestep>
    <timestep time="16251.00">
        <vehicle id="RE1" x="-4649.17" y="-1481.29" angle="87.73" type="REDosto7" speed="44.44" pos="0.00" edge="gneE20" slope="0.00"/>
        <vehicle id="RE2" x="4780.18" y="-1293.18" angle="269.74" type="REDosto7" speed="44.45" pos="0.00" edge="gneE19" slope="0.00"/>
    </timestep>
    <timestep time="16252.00">
        <vehicle id="RE1" x="-4649.17" y="-1481.29" angle="87.73" type="REDosto7" speed="44.44" pos="0.00" edge="gneE20" slope="0.00"/>
        <vehicle id="RE2" x="4780.18" y="-1293.18" angle="269.74" type="REDosto7" speed="44.45" pos="0.00" edge="gneE19" slope="0.00"/>
    </timestep>
    <timestep time="16253.00">
        <vehicle id="RE1" x="-4550.89" y="-1477.39" angle="87.73" type="REDosto7" speed="44.44" pos="98.35" edge="gneE20" slope="0.00"/>
        <vehicle id="RE2" x="4710.58" y="-1293.49" angle="269.74" type="REDosto7" speed="44.45" pos="98.36" edge="gneE19" slope="0.00"/>
    </timestep>
    <timestep time="16254.00">
        <vehicle id="RE1" x="-4550.89" y="-1477.39" angle="87.73" type="REDosto7" speed="44.44" pos="98.35" edge="gneE20" slope="0.00"/>
        <vehicle id="RE2" x="4710.58" y="-1293.49" angle="269.74" type="REDosto7" speed="44.45" pos="98.36" edge="gneE19" slope="0.00"/>
    </timestep>
    <timestep time="16255.00">
        <vehicle id="RE1" x="-4452.62" y="-1473.49" angle="87.73" type="REDosto7" speed="44.44" pos="196.71" edge="gneE20" slope="0.00"/>
        <vehicle id="RE2" x="4640.99" y="-1293.80" angle="269.74" type="REDosto7" speed="44.45" pos="196.72" edge="gneE19" slope="0.00"/>
    </timestep>
    <timestep time="16256.00">
        <vehicle id="RE1" x="-4452.62" y="-1473.49" angle="87.73" type="REDosto7" speed="44.44" pos="196.71" edge="gneE20" slope="0.00"/>
        <vehicle id="RE2" x="4640.99" y="-1293.80" angle="269.74" type="REDosto7" speed="44.45" pos="196.72" edge="gneE19" slope="0.00"/>
    </timestep>
    <timestep time="16257.00">
        <vehicle id="RE1" x="-4354.34" y="-1469.58" angle="87.73" type="REDosto7" speed="44.44" pos="295.06" edge="gneE20" slope="0.00"/>
        <vehicle id="RE2" x="4571.39" y="-1294.12" angle="269.74" type="REDosto7" speed="44.45" pos="295.08" edge="gneE19" slope="0.00"/>
    </timestep>
    <timestep time="16258.00">
        <vehicle id="RE1" x="-4354.34" y="-1469.58" angle="87.73" type="REDosto7" speed="44.44" pos="295.06" edge="gneE20" slope="0.00"/>
        <vehicle id="RE2" x="4571.39" y="-1294.12" angle="269.74" type="REDosto7" speed="44.45" pos="295.08" edge="gneE19" slope="0.00"/>
    </timestep>
    <timestep time="16259.00">
        <vehicle id="RE1" x="-4256.06" y="-1465.68" angle="87.73" type="REDosto7" speed="44.44" pos="393.42" edge="gneE20" slope="0.00"/>
        <vehicle id="RE2" x="4501.80" y="-1294.43" angle="269.74" type="REDosto7" speed="44.45" pos="393.44" edge="gneE19" slope="0.00"/>
    </timestep>
    <timestep time="16260.00">
        <vehicle id="RE1" x="-4256.06" y="-1465.68" angle="87.73" type="REDosto7" speed="44.44" pos="393.42" edge="gneE20" slope="0.00"/>
        <vehicle id="RE2" x="4501.80" y="-1294.43" angle="269.74" type="REDosto7" speed="44.45" pos="393.44" edge="gneE19" slope="0.00"/>
    </timestep>
    <timestep time="16261.00">
        <vehicle id="RE1" x="-4256.06" y="-1465.68" angle="87.73" type="REDosto7" speed="44.44" pos="393.42" edge="gneE20" slope="0.00"/>
        <vehicle id="RE2" x="4501.80" y="-1294.43" angle="269.74" type="REDosto7" speed="44.45" pos="393.44" edge="gneE19" slope="0.00"/>
    </timestep>
    <timestep time="16262.00">
        <vehicle id="RE1" x="-4157.79" y="-1461.78" angle="87.73" type="REDosto7" speed="44.44" pos="491.77" edge="gneE20" slope="0.00"/>
        <vehicle id="RE2" x="4432.20" y="-1294.74" angle="269.74" type="REDosto7" speed="44.45" pos="491.80" edge="gneE19" slope="0.00"/>
    </timestep>
    <timestep time="16263.00">
        <vehicle id="RE1" x="-4157.79" y="-1461.78" angle="87.73" type="REDosto7" speed="44.44" pos="491.77" edge="gneE20" slope="0.00"/>
        <vehicle id="RE2" x="4432.20" y="-1294.74" angle="269.74" type="REDosto7" speed="44.45" pos="491.80" edge="gneE19" slope="0.00"/>
    </timestep>
    <timestep time="16264.00">
        <vehicle id="RE1" x="-4059.51" y="-1457.88" angle="87.73" type="REDosto7" speed="44.44" pos="590.13" edge="gneE20" slope="0.00"/>
        <vehicle id="RE2" x="4362.60" y="-1295.05" angle="269.74" type="REDosto7" speed="44.45" pos="590.15" edge="gneE19" slope="0.00"/>
    </timestep>
    <timestep time="16265.00">
        <vehicle id="RE1" x="-4059.51" y="-1457.88" angle="87.73" type="REDosto7" speed="44.44" pos="590.13" edge="gneE20" slope="0.00"/>
        <vehicle id="RE2" x="4362.60" y="-1295.05" angle="269.74" type="REDosto7" speed="44.45" pos="590.15" edge="gneE19" slope="0.00"/>
    </timestep>
    <timestep time="16266.00">
        <vehicle id="RE1" x="-3961.23" y="-1453.97" angle="87.73" type="REDosto7" speed="44.44" pos="688.48" edge="gneE20" slope="0.00"/>
        <vehicle id="RE2" x="4293.01" y="-1295.36" angle="269.74" type="REDosto7" speed="44.45" pos="688.51" edge="gneE19" slope="0.00"/>
    </timestep>
    <timestep time="16267.00">
        <vehicle id="RE1" x="-3961.23" y="-1453.97" angle="87.73" type="REDosto7" speed="44.44" pos="688.48" edge="gneE20" slope="0.00"/>
        <vehicle id="RE2" x="4293.01" y="-1295.36" angle="269.74" type="REDosto7" speed="44.45" pos="688.51" edge="gneE19" slope="0.00"/>
    </timestep>
    <timestep time="16268.00">
        <vehicle id="RE1" x="-3862.96" y="-1450.07" angle="87.73" type="REDosto7" speed="44.44" pos="786.83" edge="gneE20" slope="0.00"/>
        <vehicle id="RE2" x="4223.41" y="-1295.68" angle="269.74" type="REDosto7" speed="44.45" pos="786.87" edge="gneE19" slope="0.00"/>
    </timestep>
    <timestep time="16269.00">
        <vehicle id="RE1" x="-3862.96" y="-1450.07" angle="87.73" type="REDosto7" speed="44.44" pos="786.83" edge="gneE20" slope="0.00"/>
        <vehicle id="RE2" x="4223.41" y="-1295.68" angle="269.74" type="REDosto7" speed="44.45" pos="786.87" edge="gneE19" slope="0.00"/>
    </timestep>
    <timestep time="16270.00">
        <vehicle id="RE1" x="-3764.68" y="-1446.17" angle="87.73" type="REDosto7" speed="44.44" pos="885.19" edge="gneE20" slope="0.00"/>
        <vehicle id="RE2" x="4153.81" y="-1295.99" angle="269.74" type="REDosto7" speed="44.45" pos="885.23" edge="gneE19" slope="0.00"/>
    </timestep>
    <timestep time="16271.00">
        <vehicle id="RE1" x="-3764.68" y="-1446.17" angle="87.73" type="REDosto7" speed="44.44" pos="885.19" edge="gneE20" slope="0.00"/>
        <vehicle id="RE2" x="4153.81" y="-1295.99" angle="269.74" type="REDosto7" speed="44.45" pos="885.23" edge="gneE19" slope="0.00"/>
    </timestep>
    <timestep time="16272.00">
        <vehicle id="RE1" x="-3764.68" y="-1446.17" angle="87.73" type="REDosto7" speed="44.44" pos="885.19" edge="gneE20" slope="0.00"/>
        <vehicle id="RE2" x="4153.81" y="-1295.99" angle="269.74" type="REDosto7" speed="44.45" pos="885.23" edge="gneE19" slope="0.00"/>
    </timestep>
    <timestep time="16273.00">
        <vehicle id="RE1" x="-3666.40" y="-1442.27" angle="87.73" type="REDosto7" speed="44.44" pos="983.54" edge="gneE20" slope="0.00"/>
        <vehicle id="RE2" x="4084.22" y="-1296.30" angle="269.74" type="REDosto7" speed="44.45" pos="983.59" edge="gneE19" slope="0.00"/>
    </timestep>
    <timestep time="16274.00">
        <vehicle id="RE1" x="-3666.40" y="-1442.27" angle="87.73" type="REDosto7" speed="44.44" pos="983.54" edge="gneE20" slope="0.00"/>
        <vehicle id="RE2" x="4084.22" y="-1296.30" angle="269.74" type="REDosto7" speed="44.45" pos="983.59" edge="gneE19" slope="0.00"/>
    </timestep>
    <timestep time="16275.00">
        <vehicle id="RE1" x="-3568.13" y="-1438.36" angle="87.73" type="REDosto7" speed="44.44" pos="1081.90" edge="gneE20" slope="0.00"/>
        <vehicle id="RE2" x="4014.62" y="-1296.61" angle="269.74" type="REDosto7" speed="44.45" pos="1081.95" edge="gneE19" slope="0.00"/>
    </timestep>
    <timestep time="16276.00">
        <vehicle id="RE1" x="-3568.13" y="-1438.36" angle="87.73" type="REDosto7" speed="44.44" pos="1081.90" edge="gneE20" slope="0.00"/>
        <vehicle id="RE2" x="4014.62" y="-1296.61" angle="269.74" type="REDosto7" speed="44.45" pos="1081.95" edge="gneE19" slope="0.00"/>
    </timestep>
    <timestep time="16277.00">
        <vehicle id="RE1" x="-3469.85" y="-1434.46" angle="87.73" type="REDosto7" speed="44.44" pos="1180.25" edge="gneE20" slope="0.00"/>
        <vehicle id="RE2" x="3945.03" y="-1296.92" angle="269.74" type="REDosto7" speed="44.45" pos="1180.31" edge="gneE19" slope="0.00"/>
    </timestep>
    <timestep time="16278.00">
        <vehicle id="RE1" x="-3469.85" y="-1434.46" angle="87.73" type="REDosto7" speed="44.44" pos="1180.25" edge="gneE20" slope="0.00"/>
        <vehicle id="RE2" x="3945.03" y="-1296.92" angle="269.74" type="REDosto7" speed="44.45" pos="1180.31" edge="gneE19" slope="0.00"/>
    </timestep>
    <timestep time="16279.00">
        <vehicle id="RE1" x="-3371.57" y="-1430.56" angle="87.73" type="REDosto7" speed="44.44" pos="1278.61" edge="gneE20" slope="0.00"/>
        <vehicle id="RE2" x="3875.43" y="-1297.23" angle="269.74" type="REDosto7" speed="44.45" pos="1278.67" edge="gneE19" slope="0.00"/>
    </timestep>
    <timestep time="16280.00">
        <vehicle id="RE1" x="-3371.57" y="-1430.56" angle="87.73" type="REDosto7" speed="44.44" pos="1278.61" edge="gneE20" slope="0.00"/>
        <vehicle id="RE2" x="3875.43" y="-1297.23" angle="269.74" type="REDosto7" speed="44.45" pos="1278.67" edge="gneE19" slope="0.00"/>
    </timestep>
    <timestep time="16281.00">
        <vehicle id="RE1" x="-3273.30" y="-1426.66" angle="87.73" type="REDosto7" speed="44.44" pos="1376.96" edge="gneE20" slope="0.00"/>
        <vehicle id="RE2" x="3805.83" y="-1297.55" angle="269.74" type="REDosto7" speed="44.45" pos="1377.03" edge="gneE19" slope="0.00"/>
    </timestep>
    <timestep time="16282.00">
        <vehicle id="RE1" x="-3273.30" y="-1426.66" angle="87.73" type="REDosto7" speed="44.44" pos="1376.96" edge="gneE20" slope="0.00"/>
        <vehicle id="RE2" x="3805.83" y="-1297.55" angle="269.74" type="REDosto7" speed="44.45" pos="1377.03" edge="gneE19" slope="0.00"/>
    </timestep>
    <timestep time="16283.00">
        <vehicle id="RE1" x="-3273.30" y="-1426.66" angle="87.73" type="REDosto7" speed="44.44" pos="1376.96" edge="gneE20" slope="0.00"/>
        <vehicle id="RE2" x="3805.83" y="-1297.55" angle="269.74" type="REDosto7" speed="44.45" pos="1377.03" edge="gneE19" slope="0.00"/>
    </timestep>
    <timestep time="16284.00">
        <vehicle id="RE1" x="-3175.02" y="-1422.75" angle="87.73" type="REDosto7" speed="44.44" pos="1475.31" edge="gneE20" slope="0.00"/>
        <vehicle id="RE2" x="3736.24" y="-1297.86" angle="269.74" type="REDosto7" speed="44.45" pos="1475.39" edge="gneE19" slope="0.00"/>
    </timestep>
    <timestep time="16285.00">
        <vehicle id="RE1" x="-3175.02" y="-1422.75" angle="87.73" type="REDosto7" speed="44.44" pos="1475.31" edge="gneE20" slope="0.00"/>
        <vehicle id="RE2" x="3736.24" y="-1297.86" angle="269.74" type="REDosto7" speed="44.45" pos="1475.39" edge="gneE19" slope="0.00"/>
    </timestep>
    <timestep time="16286.00">
        <vehicle id="RE1" x="-3076.74" y="-1418.85" angle="87.73" type="REDosto7" speed="44.44" pos="1573.67" edge="gneE20" slope="0.00"/>
        <vehicle id="RE2" x="3666.64" y="-1298.17" angle="269.74" type="REDosto7" speed="44.45" pos="1573.74" edge="gneE19" slope="0.00"/>
    </timestep>
    <timestep time="16287.00">
        <vehicle id="RE1" x="-3076.74" y="-1418.85" angle="87.73" type="REDosto7" speed="44.44" pos="1573.67" edge="gneE20" slope="0.00"/>
        <vehicle id="RE2" x="3666.64" y="-1298.17" angle="269.74" type="REDosto7" speed="44.45" pos="1573.74" edge="gneE19" slope="0.00"/>
    </timestep>
    <timestep time="16288.00">
        <vehicle id="RE1" x="-2978.47" y="-1414.95" angle="87.73" type="REDosto7" speed="44.44" pos="1672.02" edge="gneE20" slope="0.00"/>
        <vehicle id="RE2" x="3597.04" y="-1298.48" angle="269.74" type="REDosto7" speed="44.45" pos="1672.10" edge="gneE19" slope="0.00"/>
    </timestep>
    <timestep time="16289.00">
        <vehicle id="RE1" x="-2978.47" y="-1414.95" angle="87.73" type="REDosto7" speed="44.44" pos="1672.02" edge="gneE20" slope="0.00"/>
        <vehicle id="RE2" x="3597.04" y="-1298.48" angle="269.74" type="REDosto7" speed="44.45" pos="1672.10" edge="gneE19" slope="0.00"/>
    </timestep>
    <timestep time="16290.00">
        <vehicle id="RE1" x="-2880.19" y="-1411.05" angle="87.73" type="REDosto7" speed="44.44" pos="1770.38" edge="gneE20" slope="0.00"/>
        <vehicle id="RE2" x="3527.45" y="-1298.79" angle="269.74" type="REDosto7" speed="44.45" pos="1770.46" edge="gneE19" slope="0.00"/>
    </timestep>
    <timestep time="16291.00">
        <vehicle id="RE1" x="-2880.19" y="-1411.05" angle="87.73" type="REDosto7" speed="44.44" pos="1770.38" edge="gneE20" slope="0.00"/>
        <vehicle id="RE2" x="3527.45" y="-1298.79" angle="269.74" type="REDosto7" speed="44.45" pos="1770.46" edge="gneE19" slope="0.00"/>
    </timestep>
    <timestep time="16292.00">
        <vehicle id="RE1" x="-2880.19" y="-1411.05" angle="87.73" type="REDosto7" speed="44.44" pos="1770.38" edge="gneE20" slope="0.00"/>
        <vehicle id="RE2" x="3527.45" y="-1298.79" angle="269.74" type="REDosto7" speed="44.45" pos="1770.46" edge="gneE19" slope="0.00"/>
    </timestep>
    <timestep time="16293.00">
        <vehicle id="RE1" x="-2781.91" y="-1407.14" angle="87.73" type="REDosto7" speed="44.44" pos="1868.73" edge="gneE20" slope="0.00"/>
        <vehicle id="RE2" x="3457.85" y="-1299.11" angle="269.74" type="REDosto7" speed="44.45" pos="1868.82" edge="gneE19" slope="0.00"/>
    </timestep>
    <timestep time="16294.00">
        <vehicle id="RE1" x="-2781.91" y="-1407.14" angle="87.73" type="REDosto7" speed="44.44" pos="1868.73" edge="gneE20" slope="0.00"/>
        <vehicle id="RE2" x="3457.85" y="-1299.11" angle="269.74" type="REDosto7" speed="44.45" pos="1868.82" edge="gneE19" slope="0.00"/>
    </timestep>
    <timestep time="16295.00">
        <vehicle id="RE1" x="-2683.64" y="-1403.24" angle="87.73" type="REDosto7" speed="44.44" pos="1967.09" edge="gneE20" slope="0.00"/>
        <vehicle id="RE2" x="3388.26" y="-1299.42" angle="269.74" type="REDosto7" speed="44.45" pos="1967.18" edge="gneE19" slope="0.00"/>
    </timestep>
    <timestep time="16296.00">
        <vehicle id="RE1" x="-2683.64" y="-1403.24" angle="87.73" type="REDosto7" speed="44.44" pos="1967.09" edge="gneE20" slope="0.00"/>
        <vehicle id="RE2" x="3388.26" y="-1299.42" angle="269.74" type="REDosto7" speed="44.45" pos="1967.18" edge="gneE19" slope="0.00"/>
    </timestep>
    <timestep time="16297.00">
        <vehicle id="RE1" x="-2585.27" y="-1399.34" angle="90.96" type="REDosto7" speed="44.44" pos="0.00" edge="gneE14" slope="0.00"/>
        <vehicle id="RE2" x="3318.38" y="-1299.73" angle="268.78" type="REDosto7" speed="44.43" pos="0.00" edge="gneE18" slope="0.00"/>
    </timestep>
    <timestep time="16298.00">
        <vehicle id="RE1" x="-2585.27" y="-1399.34" angle="90.96" type="REDosto7" speed="44.44" pos="0.00" edge="gneE14" slope="0.00"/>
        <vehicle id="RE2" x="3318.38" y="-1299.73" angle="268.78" type="REDosto7" speed="44.43" pos="0.00" edge="gneE18" slope="0.00"/>
    </timestep>
    <timestep time="16299.00">
        <vehicle id="RE1" x="-2489.12" y="-1400.96" angle="90.96" type="REDosto7" speed="44.44" pos="96.16" edge="gneE14" slope="0.00"/>
        <vehicle id="RE2" x="3221.96" y="-1301.78" angle="268.78" type="REDosto7" speed="44.43" pos="95.98" edge="gneE18" slope="0.00"/>
    </timestep>
    <timestep time="16300.00">
        <vehicle id="RE1" x="-2489.12" y="-1400.96" angle="90.96" type="REDosto7" speed="44.44" pos="96.16" edge="gneE14" slope="0.00"/>
        <vehicle id="RE2" x="3221.96" y="-1301.78" angle="268.78" type="REDosto7" speed="44.43" pos="95.98" edge="gneE18" slope="0.00"/>
    </timestep>
    <timestep time="16301.00">
        <vehicle id="RE1" x="-2392.98" y="-1402.57" angle="90.96" type="REDosto7" speed="44.44" pos="192.32" edge="gneE14" slope="0.00"/>
        <vehicle id="RE2" x="3125.55" y="-1303.83" angle="268.78" type="REDosto7" speed="44.43" pos="191.96" edge="gneE18" slope="0.00"/>
    </timestep>
    <timestep time="16302.00">
        <vehicle id="RE1" x="-2392.98" y="-1402.57" angle="90.96" type="REDosto7" speed="44.44" pos="192.32" edge="gneE14" slope="0.00"/>
        <vehicle id="RE2" x="3125.55" y="-1303.83" angle="268.78" type="REDosto7" speed="44.43" pos="191.96" edge="gneE18" slope="0.00"/>
    </timestep>
    <timestep time="16303.00">
        <vehicle id="RE1" x="-2296.83" y="-1404.19" angle="90.96" type="REDosto7" speed="44.44" pos="288.48" edge="gneE14" slope="0.00"/>
        <vehicle id="RE2" x="3029.13" y="-1305.87" angle="268.78" type="REDosto7" speed="44.43" pos="287.93" edge="gneE18" slope="0.00"/>
    </timestep>
    <timestep time="16304.00">
        <vehicle id="RE1" x="-2296.83" y="-1404.19" angle="90.96" type="REDosto7" speed="44.44" pos="288.48" edge="gneE14" slope="0.00"/>
        <vehicle id="RE2" x="3029.13" y="-1305.87" angle="268.78" type="REDosto7" speed="44.43" pos="287.93" edge="gneE18" slope="0.00"/>
    </timestep>
    <timestep time="16305.00">
        <vehicle id="RE1" x="-2296.83" y="-1404.19" angle="90.96" type="REDosto7" speed="44.44" pos="288.48" edge="gneE14" slope="0.00"/>
        <vehicle id="RE2" x="3029.13" y="-1305.87" angle="268.78" type="REDosto7" speed="44.43" pos="287.93" edge="gneE18" slope="0.00"/>
    </timestep>
    <timestep time="16306.00">
        <vehicle id="RE1" x="-2200.68" y="-1405.81" angle="90.96" type="REDosto7" speed="44.44" pos="384.64" edge="gneE14" slope="0.00"/>
        <vehicle id="RE2" x="2932.71" y="-1307.92" angle="268.78" type="REDosto7" speed="44.43" pos="383.91" edge="gneE18" slope="0.00"/>
    </timestep>
    <timestep time="16307.00">
        <vehicle id="RE1" x="-2200.68" y="-1405.81" angle="90.96" type="REDosto7" speed="44.44" pos="384.64" edge="gneE14" slope="0.00"/>
        <vehicle id="RE2" x="2932.71" y="-1307.92" angle="268.78" type="REDosto7" speed="44.43" pos="383.91" edge="gneE18" slope="0.00"/>
    </timestep>
    <timestep time="16308.00">
        <vehicle id="RE1" x="-2104.54" y="-1407.42" angle="90.96" type="REDosto7" speed="44.44" pos="480.80" edge="gneE14" slope="0.00"/>
        <vehicle id="RE2" x="2836.29" y="-1309.97" angle="268.78" type="REDosto7" speed="44.43" pos="479.89" edge="gneE18" slope="0.00"/>
    </timestep>
    <timestep time="16309.00">
        <vehicle id="RE1" x="-2104.54" y="-1407.42" angle="90.96" type="REDosto7" speed="44.44" pos="480.80" edge="gneE14" slope="0.00"/>
        <vehicle id="RE2" x="2836.29" y="-1309.97" angle="268.78" type="REDosto7" speed="44.43" pos="479.89" edge="gneE18" slope="0.00"/>
    </timestep>
    <timestep time="16310.00">
        <vehicle id="RE1" x="-2008.39" y="-1409.04" angle="90.96" type="REDosto7" speed="44.44" pos="576.96" edge="gneE14" slope="0.00"/>
        <vehicle id="RE2" x="2739.88" y="-1312.02" angle="268.78" type="REDosto7" speed="44.43" pos="575.87" edge="gneE18" slope="0.00"/>
    </timestep>
    <timestep time="16311.00">
        <vehicle id="RE1" x="-2008.39" y="-1409.04" angle="90.96" type="REDosto7" speed="44.44" pos="576.96" edge="gneE14" slope="0.00"/>
        <vehicle id="RE2" x="2739.88" y="-1312.02" angle="268.78" type="REDosto7" speed="44.43" pos="575.87" edge="gneE18" slope="0.00"/>
    </timestep>
    <timestep time="16312.00">
        <vehicle id="RE1" x="-1912.25" y="-1410.66" angle="90.96" type="REDosto7" speed="44.44" pos="673.12" edge="gneE14" slope="0.00"/>
        <vehicle id="RE2" x="2643.46" y="-1314.06" angle="268.78" type="REDosto7" speed="44.43" pos="671.85" edge="gneE18" slope="0.00"/>
    </timestep>
    <timestep time="16313.00">
        <vehicle id="RE1" x="-1912.25" y="-1410.66" angle="90.96" type="REDosto7" speed="44.44" pos="673.12" edge="gneE14" slope="0.00"/>
        <vehicle id="RE2" x="2643.46" y="-1314.06" angle="268.78" type="REDosto7" speed="44.43" pos="671.85" edge="gneE18" slope="0.00"/>
    </timestep>
    <timestep time="16314.00">
        <vehicle id="RE1" x="-1816.10" y="-1412.27" angle="90.96" type="REDosto7" speed="44.44" pos="769.28" edge="gneE14" slope="0.00"/>
        <vehicle id="RE2" x="2547.04" y="-1316.11" angle="268.78" type="REDosto7" speed="44.43" pos="767.83" edge="gneE18" slope="0.00"/>
    </timestep>
    <timestep time="16315.00">
        <vehicle id="RE1" x="-1816.10" y="-1412.27" angle="90.96" type="REDosto7" speed="44.44" pos="769.28" edge="gneE14" slope="0.00"/>
        <vehicle id="RE2" x="2547.04" y="-1316.11" angle="268.78" type="REDosto7" speed="44.43" pos="767.83" edge="gneE18" slope="0.00"/>
    </timestep>
    <timestep time="16316.00">
        <vehicle id="RE1" x="-1719.95" y="-1413.89" angle="90.96" type="REDosto7" speed="44.44" pos="865.44" edge="gneE14" slope="0.00"/>
        <vehicle id="RE2" x="2450.62" y="-1318.16" angle="268.78" type="REDosto7" speed="44.43" pos="863.80" edge="gneE18" slope="0.00"/>
    </timestep>
    <timestep time="16317.00">
        <vehicle id="RE1" x="-1719.95" y="-1413.89" angle="90.96" type="REDosto7" speed="44.44" pos="865.44" edge="gneE14" slope="0.00"/>
        <vehicle id="RE2" x="2450.62" y="-1318.16" angle="268.78" type="REDosto7" speed="44.43" pos="863.80" edge="gneE18" slope="0.00"/>
    </timestep>
    <timestep time="16318.00">
        <vehicle id="RE1" x="-1719.95" y="-1413.89" angle="90.96" type="REDosto7" speed="44.44" pos="865.44" edge="gneE14" slope="0.00"/>
        <vehicle id="RE2" x="2450.62" y="-1318.16" angle="268.78" type="REDosto7" speed="44.43" pos="863.80" edge="gneE18" slope="0.00"/>
    </timestep>
    <timestep time="16319.00">
        <vehicle id="RE1" x="-1623.81" y="-1415.51" angle="90.96" type="REDosto7" speed="44.44" pos="961.60" edge="gneE14" slope="0.00"/>
        <vehicle id="RE2" x="2354.21" y="-1320.21" angle="268.78" type="REDosto7" speed="44.43" pos="959.78" edge="gneE18" slope="0.00"/>
    </timestep>
    <timestep time="16320.00">
        <vehicle id="RE1" x="-1623.81" y="-1415.51" angle="90.96" type="REDosto7" speed="44.44" pos="961.60" edge="gneE14" slope="0.00"/>
        <vehicle id="RE2" x="2354.21" y="-1320.21" angle="268.78" type="REDosto7" speed="44.43" pos="959.78" edge="gneE18" slope="0.00"/>
    </timestep>
    <timestep time="16321.00">
        <vehicle id="RE1" x="-1527.66" y="-1417.12" angle="90.96" type="REDosto7" speed="44.44" pos="1057.76" edge="gneE14" slope="0.00"/>
        <vehicle id="RE2" x="2257.79" y="-1322.26" angle="268.78" type="REDosto7" speed="44.43" pos="1055.76" edge="gneE18" slope="0.00"/>
    </timestep>
    <timestep time="16322.00">
        <vehicle id="RE1" x="-1527.66" y="-1417.12" angle="90.96" type="REDosto7" speed="44.44" pos="1057.76" edge="gneE14" slope="0.00"/>
        <vehicle id="RE2" x="2257.79" y="-1322.26" angle="268.78" type="REDosto7" speed="44.43" pos="1055.76" edge="gneE18" slope="0.00"/>
    </timestep>
    <timestep time="16323.00">
        <vehicle id="RE1" x="-1431.51" y="-1418.74" angle="90.96" type="REDosto7" speed="44.44" pos="1153.92" edge="gneE14" slope="0.00"/>
        <vehicle id="RE2" x="2161.37" y="-1324.30" angle="268.78" type="REDosto7" speed="44.43" pos="1151.74" edge="gneE18" slope="0.00"/>
    </timestep>
    <timestep time="16324.00">
        <vehicle id="RE1" x="-1431.51" y="-1418.74" angle="90.96" type="REDosto7" speed="44.44" pos="1153.92" edge="gneE14" slope="0.00"/>
        <vehicle id="RE2" x="2161.37" y="-1324.30" angle="268.78" type="REDosto7" speed="44.43" pos="1151.74" edge="gneE18" slope="0.00"/>
    </timestep>
    <timestep time="16325.00">
        <vehicle id="RE1" x="-1335.37" y="-1420.36" angle="90.96" type="REDosto7" speed="44.44" pos="1250.08" edge="gneE14" slope="0.00"/>
        <vehicle id="RE2" x="2064.95" y="-1326.35" angle="268.78" type="REDosto7" speed="44.43" pos="1247.72" edge="gneE18" slope="0.00"/>
    </timestep>
    <timestep time="16326.00">
        <vehicle id="RE1" x="-1335.37" y="-1420.36" angle="90.96" type="REDosto7" speed="44.44" pos="1250.08" edge="gneE14" slope="0.00"/>
        <vehicle id="RE2" x="2064.95" y="-1326.35" angle="268.78" type="REDosto7" speed="44.43" pos="1247.72" edge="gneE18" slope="0.00"/>
    </timestep>
    <timestep time="16327.00">
        <vehicle id="RE1" x="-1239.22" y="-1421.98" angle="90.96" type="REDosto7" speed="44.44" pos="1346.24" edge="gneE14" slope="0.00"/>
        <vehicle id="RE2" x="1968.54" y="-1328.40" angle="268.78" type="REDosto7" speed="44.43" pos="1343.70" edge="gneE18" slope="0.00"/>
    </timestep>
    <timestep time="16328.00">
        <vehicle id="RE1" x="-1239.22" y="-1421.98" angle="90.96" type="REDosto7" speed="44.44" pos="1346.24" edge="gneE14" slope="0.00"/>
        <vehicle id="RE2" x="1968.54" y="-1328.40" angle="268.78" type="REDosto7" speed="44.43" pos="1343.70" edge="gneE18" slope="0.00"/>
    </timestep>
    <timestep time="16329.00">
        <vehicle id="RE1" x="-1143.07" y="-1423.59" angle="90.96" type="REDosto7" speed="44.44" pos="1442.40" edge="gneE14" slope="0.00"/>
        <vehicle id="RE2" x="1872.12" y="-1330.45" angle="268.78" type="REDosto7" speed="44.43" pos="1439.67" edge="gneE18" slope="0.00"/>
    </timestep>
    <timestep time="16330.00">
        <vehicle id="RE1" x="-1143.07" y="-1423.59" angle="90.96" type="REDosto7" speed="44.44" pos="1442.40" edge="gneE14" slope="0.00"/>
        <vehicle id="RE2" x="1872.12" y="-1330.45" angle="268.78" type="REDosto7" speed="44.43" pos="1439.67" edge="gneE18" slope="0.00"/>
    </timestep>
    <timestep time="16331.00">
        <vehicle id="RE1" x="-1143.07" y="-1423.59" angle="90.96" type="REDosto7" speed="44.44" pos="1442.40" edge="gneE14" slope="0.00"/>
        <vehicle id="RE2" x="1872.12" y="-1330.45" angle="268.78" type="REDosto7" speed="44.43" pos="1439.67" edge="gneE18" slope="0.00"/>
    </timestep>
    <timestep time="16332.00">
        <vehicle id="RE1" x="-1046.93" y="-1425.21" angle="90.96" type="REDosto7" speed="44.44" pos="1538.56" edge="gneE14" slope="0.00"/>
        <vehicle id="RE2" x="1775.70" y="-1332.49" angle="268.78" type="REDosto7" speed="44.43" pos="1535.65" edge="gneE18" slope="0.00"/>
    </timestep>
    <timestep time="16333.00">
        <vehicle id="RE1" x="-1046.93" y="-1425.21" angle="90.96" type="REDosto7" speed="44.44" pos="1538.56" edge="gneE14" slope="0.00"/>
        <vehicle id="RE2" x="1775.70" y="-1332.49" angle="268.78" type="REDosto7" speed="44.43" pos="1535.65" edge="gneE18" slope="0.00"/>
    </timestep>
    <timestep time="16334.00">
        <vehicle id="RE1" x="-950.78" y="-1426.83" angle="90.96" type="REDosto7" speed="44.44" pos="1634.72" edge="gneE14" slope="0.00"/>
        <vehicle id="RE2" x="1679.28" y="-1334.54" angle="268.78" type="REDosto7" speed="44.43" pos="1631.63" edge="gneE18" slope="0.00"/>
    </timestep>
    <timestep time="16335.00">
        <vehicle id="RE1" x="-950.78" y="-1426.83" angle="90.96" type="REDosto7" speed="44.44" pos="1634.72" edge="gneE14" slope="0.00"/>
        <vehicle id="RE2" x="1679.28" y="-1334.54" angle="268.78" type="REDosto7" speed="44.43" pos="1631.63" edge="gneE18" slope="0.00"/>
    </timestep>
    <timestep time="16336.00">
        <vehicle id="RE1" x="-854.63" y="-1428.44" angle="90.96" type="REDosto7" speed="44.44" pos="1730.88" edge="gneE14" slope="0.00"/>
        <vehicle id="RE2" x="1582.87" y="-1336.59" angle="268.78" type="REDosto7" speed="44.43" pos="1727.61" edge="gneE18" slope="0.00"/>
    </timestep>
    <timestep time="16337.00">
        <vehicle id="RE1" x="-854.63" y="-1428.44" angle="90.96" type="REDosto7" speed="44.44" pos="1730.88" edge="gneE14" slope="0.00"/>
        <vehicle id="RE2" x="1582.87" y="-1336.59" angle="268.78" type="REDosto7" speed="44.43" pos="1727.61" edge="gneE18" slope="0.00"/>
    </timestep>
    <timestep time="16338.00">