<?xml version="1.0" encoding="UTF-8"?>

<!-- generated on 2023-05-02 09:30:49 by Eclipse SUMO sumo Version v1_15_0+2216-04c786d205d
<configuration xmlns:xsi="http://www.w3.org/2001/XMLSchema-instance" xsi:noNamespaceSchemaLocation="http://sumo.dlr.de/xsd/sumoConfiguration.xsd">

    <input>
        <net-file value="net.net.xml"/>
        <route-files value="input_routes2.rou.xml,input_routes.rou.xml"/>
    </input>

    <output>
        <tripinfo-output value="tripinfos.xml"/>
        <tripinfo-output.write-unfinished value="true"/>
        <statistic-output value="stats.xml"/>
    </output>

    <report>
        <no-step-log value="true"/>
    </report>

    <taxi_device>
        <device.taxi.dispatch-algorithm value="traci"/>
    </taxi_device>

    <traci_server>
        <remote-port value="63314"/>
    </traci_server>

</configuration>
-->

<tripinfos xmlns:xsi="http://www.w3.org/2001/XMLSchema-instance" xsi:noNamespaceSchemaLocation="http://sumo.dlr.de/xsd/tripinfo_file.xsd">
    <personinfo id="8" depart="0.00" type="DEFAULT_PEDTYPE" speedFactor="0.94">
        <ride waitingTime="30.00" vehicle="v0" depart="30.00" arrival="201.00" arrivalPos="85.60" duration="171.00" routeLength="1070.86" timeLoss="33.34"/>
    </personinfo>
    <personinfo id="3" depart="0.00" type="DEFAULT_PEDTYPE" speedFactor="1.08">
        <ride waitingTime="44.00" vehicle="v0" depart="44.00" arrival="202.00" arrivalPos="85.60" duration="158.00" routeLength="971.06" timeLoss="27.90"/>
    </personinfo>
    <personinfo id="0" depart="0.00" type="DEFAULT_PEDTYPE" speedFactor="1.06">
        <ride waitingTime="71.00" vehicle="v1" depart="71.00" arrival="221.00" arrivalPos="285.60" duration="150.00" routeLength="865.12" timeLoss="26.03"/>
    </personinfo>
    <personinfo id="2" depart="0.00" type="DEFAULT_PEDTYPE" speedFactor="1.01">
        <ride waitingTime="243.00" vehicle="v0" depart="243.00" arrival="398.00" arrivalPos="85.60" duration="155.00" routeLength="974.62" timeLoss="25.33"/>
    </personinfo>
    <personinfo id="9" depart="0.00" type="DEFAULT_PEDTYPE" speedFactor="0.86">
        <ride waitingTime="98.00" vehicle="v1" depart="98.00" arrival="409.00" arrivalPos="285.60" duration="311.00" routeLength="1963.90" timeLoss="44.84"/>
    </personinfo>
    <personinfo id="4" depart="0.00" type="DEFAULT_PEDTYPE" speedFactor="1.03">
        <ride waitingTime="75.00" vehicle="v0" depart="75.00" arrival="476.00" arrivalPos="85.60" duration="401.00" routeLength="2135.13" timeLoss="64.75"/>
    </personinfo>
    <personinfo id="7" depart="0.00" type="DEFAULT_PEDTYPE" speedFactor="0.89">
        <ride waitingTime="255.00" vehicle="v1" depart="255.00" arrival="510.00" arrivalPos="85.60" duration="255.00" routeLength="1359.14" timeLoss="34.61"/>
    </personinfo>
    <personinfo id="5" depart="0.00" type="DEFAULT_PEDTYPE" speedFactor="0.83">
        <ride waitingTime="290.00" vehicle="v0" depart="290.00" arrival="577.00" arrivalPos="87.60" duration="287.00" routeLength="961.72" timeLoss="36.69"/>
    </personinfo>
    <personinfo id="1" depart="0.00" type="DEFAULT_PEDTYPE" speedFactor="0.94">
        <ride waitingTime="32.00" vehicle="v1" depart="32.00" arrival="614.00" arrivalPos="285.60" duration="582.00" routeLength="3337.60" timeLoss="90.95"/>
    </personinfo>
    <personinfo id="6" depart="0.00" type="DEFAULT_PEDTYPE" speedFactor="1.05">
        <ride waitingTime="278.00" vehicle="v1" depart="278.00" arrival="615.00" arrivalPos="285.60" duration="337.00" routeLength="1559.14" timeLoss="41.86"/>
    </personinfo>
    <tripinfo id="v0" depart="0.00" departLane="A0B0_1" departPos="5.10" departSpeed="0.00" departDelay="0.00" arrival="-1.00" arrivalLane="" arrivalPos="-1.00" arrivalSpeed="-1.00" duration="930.00" routeLength="3232.73" waitingTime="15.00" waitingCount="4" stopTime="601.00" timeLoss="96.23" rerouteNo="2" devices="tripinfo_v0 taxi_v0 person_v0" vType="taxi" speedFactor="1.05" vaporized="">
        <taxi customers="5" occupiedDistance="2931.09" occupiedTime="310.00"/>
    </tripinfo>
    <tripinfo id="v1" depart="0.00" departLane="A2B2_1" departPos="5.10" departSpeed="0.00" departDelay="0.00" arrival="-1.00" arrivalLane="" arrivalPos="-1.00" arrivalSpeed="-1.00" duration="930.00" routeLength="3634.13" waitingTime="15.00" waitingCount="4" stopTime="564.00" timeLoss="99.43" rerouteNo="2" devices="tripinfo_v1 taxi_v1 person_v1" vType="taxi" speedFactor="1.01" vaporized="">
        <taxi customers="5" occupiedDistance="3337.60" occupiedTime="345.00"/>
    </tripinfo>
</tripinfos>
