<?xml version="1.0" encoding="UTF-8"?>

<!-- generated on 2026-04-23T14:31:14.782782+01:00 by Eclipse SUMO sumo v1_26_0+1357-4cb6fe19152
<sumoConfiguration xmlns:xsi="http://www.w3.org/2001/XMLSchema-instance" xsi:noNamespaceSchemaLocation="http://sumo.dlr.de/xsd/sumoConfiguration.xsd">

    <input>
        <net-file value="net.net.xml"/>
        <route-files value="input_routes2.rou.xml,input_routes.rou.xml"/>
    </input>

    <output>
        <tripinfo-output value="tripinfos.xml"/>
        <tripinfo-output.write-unfinished value="true"/>
        <statistic-output value="stats.xml"/>
    </output>

    <processing>
        <default.departspeed value="0"/>
    </processing>

    <report>
        <no-step-log value="true"/>
    </report>

    <taxi_device>
        <device.taxi.dispatch-algorithm value="traci"/>
    </taxi_device>

    <traci_server>
        <remote-port value="38755"/>
    </traci_server>

</sumoConfiguration>
-->

<tripinfos xmlns:xsi="http://www.w3.org/2001/XMLSchema-instance" xsi:noNamespaceSchemaLocation="http://sumo.dlr.de/xsd/tripinfo_file.xsd">
    <personinfo id="8" depart="0.00" type="DEFAULT_PEDTYPE" speedFactor="0.94" duration="201.00" waitingTime="30.00" timeLoss="21.05" traveltime="171.00">
        <ride waitingTime="30.00" vehicle="v0" depart="30.00" arrival="201.00" arrivalPos="85.60" duration="171.00" routeLength="1070.86" timeLoss="21.05"/>
    </personinfo>
    <personinfo id="3" depart="0.00" type="DEFAULT_PEDTYPE" speedFactor="1.08" duration="202.00" waitingTime="44.00" timeLoss="18.67" traveltime="158.00">
        <ride waitingTime="44.00" vehicle="v0" depart="44.00" arrival="202.00" arrivalPos="85.60" duration="158.00" routeLength="971.06" timeLoss="18.67"/>
    </personinfo>
    <personinfo id="0" depart="0.00" type="DEFAULT_PEDTYPE" speedFactor="1.06" duration="226.00" waitingTime="71.00" timeLoss="18.60" traveltime="155.00">
        <ride waitingTime="71.00" vehicle="v1" depart="71.00" arrival="226.00" arrivalPos="285.60" duration="155.00" routeLength="865.12" timeLoss="18.60"/>
    </personinfo>
    <personinfo id="1" depart="0.00" type="DEFAULT_PEDTYPE" speedFactor="0.94" duration="336.00" waitingTime="32.00" timeLoss="32.60" traveltime="304.00">
        <ride waitingTime="32.00" vehicle="v1" depart="32.00" arrival="336.00" arrivalPos="285.60" duration="304.00" routeLength="1759.08" timeLoss="32.60"/>
    </personinfo>
    <personinfo id="4" depart="0.00" type="DEFAULT_PEDTYPE" speedFactor="1.03" duration="381.00" waitingTime="75.00" timeLoss="32.84" traveltime="306.00">
        <ride waitingTime="75.00" vehicle="v0" depart="75.00" arrival="381.00" arrivalPos="85.60" duration="306.00" routeLength="1960.16" timeLoss="32.84"/>
    </personinfo>
    <personinfo id="2" depart="0.00" type="DEFAULT_PEDTYPE" speedFactor="1.01" duration="454.00" waitingTime="86.00" timeLoss="37.10" traveltime="368.00">
        <ride waitingTime="86.00" vehicle="v1" depart="86.00" arrival="454.00" arrivalPos="85.60" duration="368.00" routeLength="1754.20" timeLoss="37.10"/>
    </personinfo>
    <personinfo id="5" depart="0.00" type="DEFAULT_PEDTYPE" speedFactor="0.83" duration="483.00" waitingTime="265.00" timeLoss="20.01" traveltime="218.00">
        <ride waitingTime="265.00" vehicle="v0" depart="265.00" arrival="483.00" arrivalPos="87.60" duration="218.00" routeLength="966.30" timeLoss="20.01"/>
    </personinfo>
    <personinfo id="9" depart="0.00" type="DEFAULT_PEDTYPE" speedFactor="0.86" duration="565.00" waitingTime="103.00" timeLoss="42.15" traveltime="462.00">
        <ride waitingTime="103.00" vehicle="v1" depart="103.00" arrival="565.00" arrivalPos="285.60" duration="462.00" routeLength="2144.45" timeLoss="42.15"/>
    </personinfo>
    <personinfo id="7" depart="0.00" type="DEFAULT_PEDTYPE" speedFactor="0.89" duration="692.00" waitingTime="573.00" timeLoss="12.03" traveltime="119.00">
        <ride waitingTime="573.00" vehicle="v1" depart="573.00" arrival="692.00" arrivalPos="85.60" duration="119.00" routeLength="570.46" timeLoss="12.03"/>
    </personinfo>
    <personinfo id="6" depart="0.00" type="DEFAULT_PEDTYPE" speedFactor="1.05" duration="794.00" waitingTime="344.00" timeLoss="43.22" traveltime="450.00">
        <ride waitingTime="344.00" vehicle="v1" depart="344.00" arrival="794.00" arrivalPos="285.60" duration="450.00" routeLength="1929.59" timeLoss="43.22"/>
    </personinfo>
    <tripinfo id="v0" depart="0.00" departLane="A0B0_1" departPos="5.10" departSpeed="0.00" departDelay="0.00" arrival="-1.00" arrivalLane="" arrivalPos="-1.00" arrivalSpeed="-1.00" duration="930.00" routeLength="3057.76" waitingTime="10.00" waitingCount="3" stopTime="633.00" timeLoss="52.70" rerouteNo="2" devices="tripinfo_v0 taxi_v0 person_v0" vType="taxi" speedFactor="1.05" vaporized="">
        <taxi customers="4" occupiedDistance="2756.12" occupiedTime="276.00"/>
    </tripinfo>
    <tripinfo id="v1" depart="0.00" departLane="A2B2_1" departPos="5.10" departSpeed="0.00" departDelay="0.00" arrival="-1.00" arrivalLane="" arrivalPos="-1.00" arrivalSpeed="-1.00" duration="930.00" routeLength="4004.53" waitingTime="16.00" waitingCount="7" stopTime="507.00" timeLoss="83.41" rerouteNo="2" devices="tripinfo_v1 taxi_v1 person_v1" vType="taxi" speedFactor="1.01" vaporized="">
        <taxi customers="6" occupiedDistance="3708.00" occupiedTime="405.00"/>
    </tripinfo>
</tripinfos>
