<?xml version="1.0" encoding="UTF-8"?>

<!-- generated on 2022-01-18 18:12:29 by Eclipse SUMO sumo Version v1_11_0+1254-f7b2781
This data file and the accompanying materials
are made available under the terms of the Eclipse Public License v2.0
which accompanies this distribution, and is available at
http://www.eclipse.org/legal/epl-v20.html
SPDX-License-Identifier: EPL-2.0
<configuration xmlns:xsi="http://www.w3.org/2001/XMLSchema-instance" xsi:noNamespaceSchemaLocation="http://sumo.dlr.de/xsd/sumoConfiguration.xsd">

    <input>
        <net-file value="net.net.xml"/>
        <route-files value="input_routes.rou.xml"/>
    </input>

    <output>
        <write-license value="true"/>
        <tripinfo-output value="tripinfos.xml"/>
        <vehroute-output value="vehroutes.xml"/>
        <vehroute-output.exit-times value="true"/>
        <lanechange-output value="lanechanges.xml"/>
    </output>

    <processing>
        <default.speeddev value="0"/>
    </processing>

    <report>
        <xml-validation value="never"/>
        <xml-validation.routes value="never"/>
        <no-step-log value="true"/>
    </report>

</configuration>
-->

<lanechanges>
    <change id="ego" type="DEFAULT_VEHTYPE" time="1.00" from="a_0" to="-a_2" dir="1" speed="2.60" pos="2.60" reason="strategic|urgent" leaderGap="None" leaderSecureGap="None" leaderSpeed="None" followerGap="None" followerSecureGap="None" followerSpeed="None" origLeaderGap="None" origLeaderSecureGap="None" origLeaderSpeed="None"/>
    <change id="ego" type="DEFAULT_VEHTYPE" time="19.00" from="-a_2" to="a_0" dir="-1" speed="2.60" pos="137.40" reason="strategic|urgent" leaderGap="None" leaderSecureGap="None" leaderSpeed="None" followerGap="None" followerSecureGap="None" followerSpeed="None" origLeaderGap="None" origLeaderSecureGap="None" origLeaderSpeed="None"/>
</lanechanges>
