<?xml version="1.0"?>

<!-- generated on 11/23/10 18:38:24 by SUMO sumo Version dev-SVN-r9400
<?xml version="1.0" encoding="iso-8859-1"?>

<configuration xmlns:xsi="http://www.w3.org/2001/XMLSchema-instance" xsi:noNamespaceSchemaLocation="http://sumo.sf.net/xsd/sumoConfiguration.xsd">

    <input>
        <net-file value="net.net.xml"/>
        <additional-files value="input_districts.net.xml,input_trips.trips.xml"/>
    </input>

    <output>
        <vehroute-output value="vehroutes.xml"/>
    </output>

    <time>
        <begin value="0"/>
    </time>

    <report>
        <no-duration-log value="true"/>
        <no-step-log value="true"/>
    </report>

    <routing>
        <device.routing.probability value="1"/>
        <device.routing.with-taz value="true"/>
    </routing>

    <mesoscopic>
        <mesosim value="true"/>
    </mesoscopic>

</configuration>
-->

<routes>
    <vehicle id="0" depart="0.00" arrival="72.00" fromtaz="1" totaz="2">
        <routeDistribution>
            <route replacedOnEdge="" replacedAtTime="0.00" probability="0" edges="beg rend"/>
            <route edges="beg2left left left2end end"/>
        </routeDistribution>
    </vehicle>

    <vehicle id="1" depart="20.00" arrival="92.00" fromtaz="1" totaz="2">
        <routeDistribution>
            <route replacedOnEdge="" replacedAtTime="20.00" probability="0" edges="beg rend"/>
            <route edges="beg2left left left2end end"/>
        </routeDistribution>
    </vehicle>

    <vehicle id="2" depart="40.00" arrival="112.00" fromtaz="1" totaz="2">
        <routeDistribution>
            <route replacedOnEdge="" replacedAtTime="40.00" probability="0" edges="beg rend"/>
            <route edges="beg2left left left2end end"/>
        </routeDistribution>
    </vehicle>

    <vehicle id="3" depart="60.00" arrival="132.00" fromtaz="1" totaz="2">
        <routeDistribution>
            <route replacedOnEdge="" replacedAtTime="60.00" probability="0" edges="beg rend"/>
            <route edges="beg2left left left2end end"/>
        </routeDistribution>
    </vehicle>

    <vehicle id="4" depart="80.00" arrival="152.00" fromtaz="1" totaz="2">
        <routeDistribution>
            <route replacedOnEdge="" replacedAtTime="80.00" probability="0" edges="beg rend"/>
            <route edges="beg2left left left2end end"/>
        </routeDistribution>
    </vehicle>

    <vehicle id="5" depart="100.00" arrival="172.00" fromtaz="1" totaz="2">
        <routeDistribution>
            <route replacedOnEdge="" replacedAtTime="100.00" probability="0" edges="beg rend"/>
            <route edges="beg2left left left2end end"/>
        </routeDistribution>
    </vehicle>

    <vehicle id="6" depart="120.00" arrival="192.00" fromtaz="1" totaz="2">
        <routeDistribution>
            <route replacedOnEdge="" replacedAtTime="120.00" probability="0" edges="beg rend"/>
            <route edges="beg2left left left2end end"/>
        </routeDistribution>
    </vehicle>

    <vehicle id="7" depart="140.00" arrival="212.00" fromtaz="1" totaz="2">
        <routeDistribution>
            <route replacedOnEdge="" replacedAtTime="140.00" probability="0" edges="beg rend"/>
            <route edges="beg2left left left2end end"/>
        </routeDistribution>
    </vehicle>

    <vehicle id="8" depart="160.00" arrival="232.00" fromtaz="1" totaz="2">
        <routeDistribution>
            <route replacedOnEdge="" replacedAtTime="160.00" probability="0" edges="beg rend"/>
            <route edges="beg2left left left2end end"/>
        </routeDistribution>
    </vehicle>

    <vehicle id="9" depart="180.00" arrival="252.00" fromtaz="1" totaz="2">
        <routeDistribution>
            <route replacedOnEdge="" replacedAtTime="180.00" probability="0" edges="beg rend"/>
            <route edges="beg2left left left2end end"/>
        </routeDistribution>
    </vehicle>

</routes>
