<?xml version="1.0"?>

<!-- generated on 10/07/09 14:28:30 by SUMO sumo Version dev-SVN-r7822
<configuration>

    <input>
        <net-file value="three_split.net.xml"/>
        <additional-files value="input_routes.rou.xml,input_additional.add.xml"/>
    </input>

    <output>
        <vehroute-output value="vehroutes.xml"/>
    </output>

    <time>
        <begin value="0"/>
    </time>

    <report>
        <no-duration-log value="true"/>
        <no-step-log value="true"/>
    </report>

</configuration>
-->

<routes>
    <vehicle id="emitter_0_0" depart="0" arrival="71">
        <route edges="beg middle end rend"/>
   </vehicle>

    <vehicle id="emitter_20_1" depart="20" arrival="91">
        <route edges="beg middle end rend"/>
   </vehicle>

    <vehicle id="emitter_40_2" depart="40" arrival="111">
        <route edges="beg middle end rend"/>
   </vehicle>

    <vehicle id="emitter_120_6" depart="120" arrival="191">
        <route edges="beg middle end rend"/>
   </vehicle>

    <vehicle id="emitter_140_7" depart="140" arrival="211">
        <route edges="beg middle end rend"/>
   </vehicle>

    <vehicle id="emitter_160_8" depart="160" arrival="231">
        <route edges="beg middle end rend"/>
   </vehicle>

    <vehicle id="emitter_60_3" depart="60" arrival="241">
        <replacedRoute replacedOnEdge="beg" replacedAtTime="60" edges="beg middle end rend"/>
        <route edges="beg beg2left left left2end end rend"/>
   </vehicle>

    <vehicle id="emitter_180_9" depart="180" arrival="251">
        <route edges="beg middle end rend"/>
   </vehicle>

    <vehicle id="emitter_80_4" depart="80" arrival="261">
        <replacedRoute replacedOnEdge="beg" replacedAtTime="80" edges="beg middle end rend"/>
        <route edges="beg beg2left left left2end end rend"/>
   </vehicle>

    <vehicle id="emitter_100_5" depart="100" arrival="281">
        <replacedRoute replacedOnEdge="beg" replacedAtTime="100" edges="beg middle end rend"/>
        <route edges="beg beg2left left left2end end rend"/>
   </vehicle>

</routes>
