<?xml version="1.0" encoding="UTF-8"?>

<!-- generated on Wed May 30 09:52:08 2018 by Eclipse SUMO Version b2daee9
This data file and the accompanying materials
are made available under the terms of the Eclipse Public License v2.0
which accompanies this distribution, and is available at
http://www.eclipse.org/legal/epl-v20.html
SPDX-License-Identifier: EPL-2.0
<configuration xmlns:xsi="http://www.w3.org/2001/XMLSchema-instance" xsi:noNamespaceSchemaLocation="http://sumo.dlr.de/xsd/sumoConfiguration.xsd">

    <input>
        <net-file value="net.net.xml"/>
        <route-files value="input_routes.rou.xml"/>
    </input>

    <output>
        <write-license value="true"/>
        <tripinfo-output value="tripinfos.xml"/>
        <vehroute-output value="vehroutes.xml"/>
    </output>

    <processing>
        <lateral-resolution value="0.8"/>
    </processing>

    <routing>
        <routing-algorithm value="astar"/>
        <device.rerouting.probability value="1"/>
        <device.rerouting.period value="240"/>
        <device.rerouting.adaptation-interval value="1"/>
    </routing>

    <report>
        <xml-validation value="never"/>
        <no-step-log value="true"/>
    </report>

</configuration>
-->

<routes xmlns:xsi="http://www.w3.org/2001/XMLSchema-instance" xsi:noNamespaceSchemaLocation="http://sumo.dlr.de/xsd/routes_file.xsd">
    <vehicle id="type1.0" type="car" depart="0.00" color="yellow" arrival="116.00">
        <routeDistribution>
            <route replacedOnEdge="" replacedAtTime="0.00" probability="0" edges="gneE0 gneE1"/>
            <route edges="gneE0 0/0to0/1 0/1to1/1 1/1to1/2 1/2to2/2 gneE1"/>
        </routeDistribution>
    </vehicle>

    <vehicle id="type1.1" type="car" depart="3.00" color="yellow" arrival="186.00">
        <routeDistribution>
            <route replacedOnEdge="" replacedAtTime="1.00" probability="0" edges="gneE0 gneE1"/>
            <route edges="gneE0 0/0to0/1 0/1to1/1 1/1to1/2 1/2to2/2 gneE1"/>
        </routeDistribution>
    </vehicle>

    <vehicle id="type1.2" type="car" depart="6.00" color="yellow" arrival="187.00">
        <routeDistribution>
            <route replacedOnEdge="" replacedAtTime="2.00" probability="0" edges="gneE0 gneE1"/>
            <route edges="gneE0 0/0to0/1 0/1to1/1 1/1to1/2 1/2to2/2 gneE1"/>
        </routeDistribution>
    </vehicle>

    <vehicle id="type1.3" type="car" depart="9.00" color="yellow" arrival="189.00">
        <routeDistribution>
            <route replacedOnEdge="" replacedAtTime="3.00" probability="0" edges="gneE0 gneE1"/>
            <route edges="gneE0 0/0to0/1 0/1to1/1 1/1to1/2 1/2to2/2 gneE1"/>
        </routeDistribution>
    </vehicle>

    <vehicle id="type1.4" type="car" depart="12.00" color="yellow" arrival="190.00">
        <routeDistribution>
            <route replacedOnEdge="" replacedAtTime="4.00" probability="0" edges="gneE0 gneE1"/>
            <route edges="gneE0 0/0to0/1 0/1to1/1 1/1to1/2 1/2to2/2 gneE1"/>
        </routeDistribution>
    </vehicle>

    <vehicle id="type1.5" type="car" depart="15.00" color="yellow" arrival="191.00">
        <routeDistribution>
            <route replacedOnEdge="" replacedAtTime="5.00" probability="0" edges="gneE0 gneE1"/>
            <route edges="gneE0 0/0to0/1 0/1to1/1 1/1to1/2 1/2to2/2 gneE1"/>
        </routeDistribution>
    </vehicle>

    <vehicle id="type1.6" type="car" depart="18.00" color="yellow" arrival="193.00">
        <routeDistribution>
            <route replacedOnEdge="" replacedAtTime="6.00" probability="0" edges="gneE0 gneE1"/>
            <route edges="gneE0 0/0to0/1 0/1to1/1 1/1to1/2 1/2to2/2 gneE1"/>
        </routeDistribution>
    </vehicle>

    <vehicle id="type1.7" type="car" depart="21.00" color="yellow" arrival="194.00">
        <routeDistribution>
            <route replacedOnEdge="" replacedAtTime="7.00" probability="0" edges="gneE0 gneE1"/>
            <route edges="gneE0 0/0to0/1 0/1to1/1 1/1to1/2 1/2to2/2 gneE1"/>
        </routeDistribution>
    </vehicle>

    <vehicle id="type1.8" type="car" depart="24.00" color="yellow" arrival="196.00">
        <routeDistribution>
            <route replacedOnEdge="" replacedAtTime="8.00" probability="0" edges="gneE0 gneE1"/>
            <route edges="gneE0 0/0to0/1 0/1to1/1 1/1to1/2 1/2to2/2 gneE1"/>
        </routeDistribution>
    </vehicle>

    <vehicle id="type1.9" type="car" depart="27.00" color="yellow" arrival="197.00">
        <routeDistribution>
            <route replacedOnEdge="" replacedAtTime="9.00" probability="0" edges="gneE0 gneE1"/>
            <route edges="gneE0 0/0to0/1 0/1to1/1 1/1to1/2 1/2to2/2 gneE1"/>
        </routeDistribution>
    </vehicle>

    <vehicle id="type1.10" type="car" depart="30.00" color="yellow" arrival="199.00">
        <routeDistribution>
            <route replacedOnEdge="" replacedAtTime="10.00" probability="0" edges="gneE0 gneE1"/>
            <route edges="gneE0 0/0to0/1 0/1to1/1 1/1to1/2 1/2to2/2 gneE1"/>
        </routeDistribution>
    </vehicle>

    <vehicle id="type1.11" type="car" depart="33.00" color="yellow" arrival="200.00">
        <routeDistribution>
            <route replacedOnEdge="" replacedAtTime="11.00" probability="0" edges="gneE0 gneE1"/>
            <route edges="gneE0 0/0to0/1 0/1to1/1 1/1to1/2 1/2to2/2 gneE1"/>
        </routeDistribution>
    </vehicle>

    <vehicle id="type1.12" type="car" depart="36.00" color="yellow" arrival="201.00">
        <routeDistribution>
            <route replacedOnEdge="" replacedAtTime="12.00" probability="0" edges="gneE0 gneE1"/>
            <route edges="gneE0 0/0to0/1 0/1to1/1 1/1to1/2 1/2to2/2 gneE1"/>
        </routeDistribution>
    </vehicle>

    <vehicle id="type1.13" type="car" depart="39.00" color="yellow" arrival="203.00">
        <routeDistribution>
            <route replacedOnEdge="" replacedAtTime="13.00" probability="0" edges="gneE0 gneE1"/>
            <route edges="gneE0 0/0to0/1 0/1to1/1 1/1to1/2 1/2to2/2 gneE1"/>
        </routeDistribution>
    </vehicle>

    <vehicle id="type1.14" type="car" depart="42.00" color="yellow" arrival="204.00">
        <routeDistribution>
            <route replacedOnEdge="" replacedAtTime="14.00" probability="0" edges="gneE0 gneE1"/>
            <route edges="gneE0 0/0to1/0 1/0to1/1 1/1to1/2 1/2to2/2 gneE1"/>
        </routeDistribution>
    </vehicle>

    <vehicle id="type1.15" type="car" depart="45.00" color="yellow" arrival="206.00">
        <routeDistribution>
            <route replacedOnEdge="" replacedAtTime="15.00" probability="0" edges="gneE0 gneE1"/>
            <route edges="gneE0 0/0to1/0 1/0to1/1 1/1to1/2 1/2to2/2 gneE1"/>
        </routeDistribution>
    </vehicle>

    <vehicle id="type1.16" type="car" depart="48.00" color="yellow" arrival="207.00">
        <routeDistribution>
            <route replacedOnEdge="" replacedAtTime="16.00" probability="0" edges="gneE0 gneE1"/>
            <route edges="gneE0 0/0to1/0 1/0to1/1 1/1to1/2 1/2to2/2 gneE1"/>
        </routeDistribution>
    </vehicle>

    <vehicle id="type1.17" type="car" depart="51.00" color="yellow" arrival="209.00">
        <routeDistribution>
            <route replacedOnEdge="" replacedAtTime="17.00" probability="0" edges="gneE0 gneE1"/>
            <route edges="gneE0 0/0to1/0 1/0to1/1 1/1to1/2 1/2to2/2 gneE1"/>
        </routeDistribution>
    </vehicle>

    <vehicle id="type1.18" type="car" depart="54.00" color="yellow" arrival="256.00">
        <routeDistribution>
            <route replacedOnEdge="" replacedAtTime="18.00" probability="0" edges="gneE0 gneE1"/>
            <route edges="gneE0 0/0to1/0 1/0to1/1 1/1to1/2 1/2to2/2 gneE1"/>
        </routeDistribution>
    </vehicle>

    <vehicle id="type1.19" type="car" depart="57.00" color="yellow" arrival="257.00">
        <routeDistribution>
            <route replacedOnEdge="" replacedAtTime="19.00" probability="0" edges="gneE0 gneE1"/>
            <route edges="gneE0 0/0to1/0 1/0to1/1 1/1to1/2 1/2to2/2 gneE1"/>
        </routeDistribution>
    </vehicle>

    <vehicle id="type1.20" type="car" depart="60.00" color="yellow" arrival="259.00">
        <routeDistribution>
            <route replacedOnEdge="" replacedAtTime="20.00" probability="0" edges="gneE0 gneE1"/>
            <route edges="gneE0 0/0to1/0 1/0to1/1 1/1to1/2 1/2to2/2 gneE1"/>
        </routeDistribution>
    </vehicle>

    <vehicle id="type1.21" type="car" depart="63.00" color="yellow" arrival="260.00">
        <routeDistribution>
            <route replacedOnEdge="" replacedAtTime="21.00" probability="0" edges="gneE0 gneE1"/>
            <route edges="gneE0 0/0to1/0 1/0to1/1 1/1to1/2 1/2to2/2 gneE1"/>
        </routeDistribution>
    </vehicle>

    <vehicle id="type1.22" type="car" depart="66.00" color="yellow" arrival="261.00">
        <routeDistribution>
            <route replacedOnEdge="" replacedAtTime="22.00" probability="0" edges="gneE0 gneE1"/>
            <route edges="gneE0 0/0to1/0 1/0to1/1 1/1to1/2 1/2to2/2 gneE1"/>
        </routeDistribution>
    </vehicle>

    <vehicle id="type1.23" type="car" depart="69.00" color="yellow" arrival="263.00">
        <routeDistribution>
            <route replacedOnEdge="" replacedAtTime="23.00" probability="0" edges="gneE0 gneE1"/>
            <route edges="gneE0 0/0to1/0 1/0to1/1 1/1to1/2 1/2to2/2 gneE1"/>
        </routeDistribution>
    </vehicle>

    <vehicle id="type1.24" type="car" depart="72.00" color="yellow" arrival="264.00">
        <routeDistribution>
            <route replacedOnEdge="" replacedAtTime="24.00" probability="0" edges="gneE0 gneE1"/>
            <route edges="gneE0 0/0to1/0 1/0to1/1 1/1to1/2 1/2to2/2 gneE1"/>
        </routeDistribution>
    </vehicle>

    <vehicle id="type1.25" type="car" depart="75.00" color="yellow" arrival="266.00">
        <routeDistribution>
            <route replacedOnEdge="" replacedAtTime="25.00" probability="0" edges="gneE0 gneE1"/>
            <route edges="gneE0 0/0to1/0 1/0to1/1 1/1to1/2 1/2to2/2 gneE1"/>
        </routeDistribution>
    </vehicle>

    <vehicle id="type1.26" type="car" depart="78.00" color="yellow" arrival="267.00">
        <routeDistribution>
            <route replacedOnEdge="" replacedAtTime="27.00" probability="0" edges="gneE0 gneE1"/>
            <route edges="gneE0 0/0to1/0 1/0to1/1 1/1to1/2 1/2to2/2 gneE1"/>
        </routeDistribution>
    </vehicle>

    <vehicle id="type1.47" type="car" depart="147.00" color="yellow" arrival="269.00">
        <routeDistribution>
            <route replacedOnEdge="" replacedAtTime="47.00" probability="0" edges="gneE0 gneE1"/>
            <route replacedOnEdge="" replacedAtTime="107.00" probability="0" edges="gneE0 0/0to1/0 1/0to1/1 1/1to2/1 2/1to2/2 gneE1"/>
            <route edges="gneE0 0/0to0/1 0/1to0/2 0/2to1/2 1/2to2/2 gneE1"/>
        </routeDistribution>
    </vehicle>

    <vehicle id="type1.48" type="car" depart="150.00" color="yellow" arrival="270.00">
        <routeDistribution>
            <route replacedOnEdge="" replacedAtTime="48.00" probability="0" edges="gneE0 gneE1"/>
            <route replacedOnEdge="" replacedAtTime="108.00" probability="0" edges="gneE0 0/0to1/0 1/0to1/1 1/1to2/1 2/1to2/2 gneE1"/>
            <route edges="gneE0 0/0to0/1 0/1to0/2 0/2to1/2 1/2to2/2 gneE1"/>
        </routeDistribution>
    </vehicle>

    <vehicle id="type1.49" type="car" depart="155.00" color="yellow" arrival="271.00">
        <routeDistribution>
            <route replacedOnEdge="" replacedAtTime="49.00" probability="0" edges="gneE0 gneE1"/>
            <route replacedOnEdge="" replacedAtTime="109.00" probability="0" edges="gneE0 0/0to1/0 1/0to1/1 1/1to2/1 2/1to2/2 gneE1"/>
            <route edges="gneE0 0/0to0/1 0/1to0/2 0/2to1/2 1/2to2/2 gneE1"/>
        </routeDistribution>
    </vehicle>

    <vehicle id="type1.40" type="car" depart="126.00" color="yellow" arrival="295.00">
        <routeDistribution>
            <route replacedOnEdge="" replacedAtTime="40.00" probability="0" edges="gneE0 gneE1"/>
            <route replacedOnEdge="" replacedAtTime="100.00" probability="0" edges="gneE0 0/0to1/0 1/0to1/1 1/1to1/2 1/2to2/2 gneE1"/>
            <route edges="gneE0 0/0to1/0 1/0to2/0 2/0to2/1 2/1to2/2 gneE1"/>
        </routeDistribution>
    </vehicle>

    <vehicle id="type1.30" type="car" depart="96.00" color="yellow" arrival="310.00">
        <routeDistribution>
            <route replacedOnEdge="" replacedAtTime="30.00" probability="0" edges="gneE0 gneE1"/>
            <route replacedOnEdge="" replacedAtTime="90.00" probability="0" edges="gneE0 0/0to1/0 1/0to1/1 1/1to1/2 1/2to2/2 gneE1"/>
            <route edges="gneE0 0/0to1/0 1/0to1/1 1/1to2/1 2/1to2/2 gneE1"/>
        </routeDistribution>
    </vehicle>

    <vehicle id="type1.31" type="car" depart="99.00" color="yellow" arrival="311.00">
        <routeDistribution>
            <route replacedOnEdge="" replacedAtTime="31.00" probability="0" edges="gneE0 gneE1"/>
            <route replacedOnEdge="" replacedAtTime="91.00" probability="0" edges="gneE0 0/0to1/0 1/0to1/1 1/1to1/2 1/2to2/2 gneE1"/>
            <route edges="gneE0 0/0to1/0 1/0to1/1 1/1to2/1 2/1to2/2 gneE1"/>
        </routeDistribution>
    </vehicle>

    <vehicle id="type1.32" type="car" depart="102.00" color="yellow" arrival="313.00">
        <routeDistribution>
            <route replacedOnEdge="" replacedAtTime="33.00" probability="0" edges="gneE0 gneE1"/>
            <route replacedOnEdge="" replacedAtTime="93.00" probability="0" edges="gneE0 0/0to1/0 1/0to1/1 1/1to1/2 1/2to2/2 gneE1"/>
            <route edges="gneE0 0/0to1/0 1/0to1/1 1/1to2/1 2/1to2/2 gneE1"/>
        </routeDistribution>
    </vehicle>

    <vehicle id="type1.33" type="car" depart="105.00" color="yellow" arrival="314.00">
        <routeDistribution>
            <route replacedOnEdge="" replacedAtTime="33.00" probability="0" edges="gneE0 gneE1"/>
            <route replacedOnEdge="" replacedAtTime="93.00" probability="0" edges="gneE0 0/0to1/0 1/0to1/1 1/1to1/2 1/2to2/2 gneE1"/>
            <route edges="gneE0 0/0to1/0 1/0to1/1 1/1to2/1 2/1to2/2 gneE1"/>
        </routeDistribution>
    </vehicle>

    <vehicle id="type1.34" type="car" depart="108.00" color="yellow" arrival="316.00">
        <routeDistribution>
            <route replacedOnEdge="" replacedAtTime="34.00" probability="0" edges="gneE0 gneE1"/>
            <route replacedOnEdge="" replacedAtTime="94.00" probability="0" edges="gneE0 0/0to1/0 1/0to1/1 1/1to1/2 1/2to2/2 gneE1"/>
            <route edges="gneE0 0/0to1/0 1/0to1/1 1/1to2/1 2/1to2/2 gneE1"/>
        </routeDistribution>
    </vehicle>

    <vehicle id="type1.35" type="car" depart="111.00" color="yellow" arrival="317.00">
        <routeDistribution>
            <route replacedOnEdge="" replacedAtTime="36.00" probability="0" edges="gneE0 gneE1"/>
            <route replacedOnEdge="" replacedAtTime="96.00" probability="0" edges="gneE0 0/0to1/0 1/0to1/1 1/1to1/2 1/2to2/2 gneE1"/>
            <route edges="gneE0 0/0to1/0 1/0to1/1 1/1to2/1 2/1to2/2 gneE1"/>
        </routeDistribution>
    </vehicle>

    <vehicle id="type1.36" type="car" depart="114.00" color="yellow" arrival="319.00">
        <routeDistribution>
            <route replacedOnEdge="" replacedAtTime="36.00" probability="0" edges="gneE0 gneE1"/>
            <route replacedOnEdge="" replacedAtTime="96.00" probability="0" edges="gneE0 0/0to1/0 1/0to1/1 1/1to1/2 1/2to2/2 gneE1"/>
            <route edges="gneE0 0/0to1/0 1/0to1/1 1/1to2/1 2/1to2/2 gneE1"/>
        </routeDistribution>
    </vehicle>

    <vehicle id="type1.37" type="car" depart="117.00" color="yellow" arrival="325.00">
        <routeDistribution>
            <route replacedOnEdge="" replacedAtTime="37.00" probability="0" edges="gneE0 gneE1"/>
            <route replacedOnEdge="" replacedAtTime="97.00" probability="0" edges="gneE0 0/0to1/0 1/0to1/1 1/1to1/2 1/2to2/2 gneE1"/>
            <route edges="gneE0 0/0to1/0 1/0to1/1 1/1to2/1 2/1to2/2 gneE1"/>
        </routeDistribution>
    </vehicle>

    <vehicle id="type1.50" type="car" depart="160.00" color="yellow" arrival="326.00">
        <routeDistribution>
            <route replacedOnEdge="" replacedAtTime="50.00" probability="0" edges="gneE0 gneE1"/>
            <route replacedOnEdge="" replacedAtTime="110.00" probability="0" edges="gneE0 0/0to1/0 1/0to1/1 1/1to2/1 2/1to2/2 gneE1"/>
            <route edges="gneE0 0/0to0/1 0/1to0/2 0/2to1/2 1/2to2/2 gneE1"/>
        </routeDistribution>
    </vehicle>

    <vehicle id="type1.38" type="car" depart="120.00" color="yellow" arrival="326.00">
        <routeDistribution>
            <route replacedOnEdge="" replacedAtTime="39.00" probability="0" edges="gneE0 gneE1"/>
            <route replacedOnEdge="" replacedAtTime="99.00" probability="0" edges="gneE0 0/0to1/0 1/0to1/1 1/1to1/2 1/2to2/2 gneE1"/>
            <route edges="gneE0 0/0to1/0 1/0to1/1 1/1to2/1 2/1to2/2 gneE1"/>
        </routeDistribution>
    </vehicle>

    <vehicle id="type1.27" type="car" depart="81.00" color="yellow" arrival="327.00">
        <routeDistribution>
            <route replacedOnEdge="" replacedAtTime="27.00" probability="0" edges="gneE0 gneE1"/>
            <route edges="gneE0 0/0to1/0 1/0to1/1 1/1to1/2 1/2to2/2 gneE1"/>
        </routeDistribution>
    </vehicle>

    <vehicle id="type1.39" type="car" depart="123.00" color="yellow" arrival="328.00">
        <routeDistribution>
            <route replacedOnEdge="" replacedAtTime="39.00" probability="0" edges="gneE0 gneE1"/>
            <route replacedOnEdge="" replacedAtTime="99.00" probability="0" edges="gneE0 0/0to1/0 1/0to1/1 1/1to1/2 1/2to2/2 gneE1"/>
            <route edges="gneE0 0/0to1/0 1/0to1/1 1/1to2/1 2/1to2/2 gneE1"/>
        </routeDistribution>
    </vehicle>

    <vehicle id="type1.28" type="car" depart="84.00" color="yellow" arrival="329.00">
        <routeDistribution>
            <route replacedOnEdge="" replacedAtTime="28.00" probability="0" edges="gneE0 gneE1"/>
            <route edges="gneE0 0/0to1/0 1/0to1/1 1/1to1/2 1/2to2/2 gneE1"/>
        </routeDistribution>
    </vehicle>

    <vehicle id="type1.53" type="car" depart="175.00" color="yellow" arrival="329.00">
        <routeDistribution>
            <route replacedOnEdge="" replacedAtTime="53.00" probability="0" edges="gneE0 gneE1"/>
            <route replacedOnEdge="" replacedAtTime="113.00" probability="0" edges="gneE0 0/0to1/0 1/0to1/1 1/1to2/1 2/1to2/2 gneE1"/>
            <route replacedOnEdge="" replacedAtTime="173.00" probability="0" edges="gneE0 0/0to0/1 0/1to0/2 0/2to1/2 1/2to2/2 gneE1"/>
            <route edges="gneE0 0/0to0/1 0/1to1/1 1/1to2/1 2/1to2/2 gneE1"/>
        </routeDistribution>
    </vehicle>

    <vehicle id="type1.29" type="car" depart="87.00" color="yellow" arrival="330.00">
        <routeDistribution>
            <route replacedOnEdge="" replacedAtTime="30.00" probability="0" edges="gneE0 gneE1"/>
            <route edges="gneE0 0/0to1/0 1/0to1/1 1/1to1/2 1/2to2/2 gneE1"/>
        </routeDistribution>
    </vehicle>

    <vehicle id="type1.58" type="car" depart="191.00" color="yellow" arrival="331.00">
        <routeDistribution>
            <route replacedOnEdge="" replacedAtTime="58.00" probability="0" edges="gneE0 gneE1"/>
            <route replacedOnEdge="" replacedAtTime="118.00" probability="0" edges="gneE0 0/0to1/0 1/0to1/1 1/1to2/1 2/1to2/2 gneE1"/>
            <route replacedOnEdge="" replacedAtTime="179.00" probability="0" edges="gneE0 0/0to0/1 0/1to0/2 0/2to1/2 1/2to2/2 gneE1"/>
            <route edges="gneE0 0/0to0/1 0/1to1/1 1/1to2/1 2/1to2/2 gneE1"/>
        </routeDistribution>
    </vehicle>

    <vehicle id="type1.59" type="car" depart="195.00" color="yellow" arrival="332.00">
        <routeDistribution>
            <route replacedOnEdge="" replacedAtTime="59.00" probability="0" edges="gneE0 gneE1"/>
            <route replacedOnEdge="" replacedAtTime="119.00" probability="0" edges="gneE0 0/0to1/0 1/0to1/1 1/1to2/1 2/1to2/2 gneE1"/>
            <route replacedOnEdge="" replacedAtTime="179.00" probability="0" edges="gneE0 0/0to0/1 0/1to0/2 0/2to1/2 1/2to2/2 gneE1"/>
            <route edges="gneE0 0/0to0/1 0/1to1/1 1/1to2/1 2/1to2/2 gneE1"/>
        </routeDistribution>
    </vehicle>

    <vehicle id="type1.60" type="car" depart="199.00" color="yellow" arrival="334.00">
        <routeDistribution>
            <route replacedOnEdge="" replacedAtTime="60.00" probability="0" edges="gneE0 gneE1"/>
            <route replacedOnEdge="" replacedAtTime="120.00" probability="0" edges="gneE0 0/0to1/0 1/0to1/1 1/1to2/1 2/1to2/2 gneE1"/>
            <route edges="gneE0 0/0to0/1 0/1to1/1 1/1to2/1 2/1to2/2 gneE1"/>
        </routeDistribution>
    </vehicle>

    <vehicle id="type1.61" type="car" depart="203.00" color="yellow" arrival="335.00">
        <routeDistribution>
            <route replacedOnEdge="" replacedAtTime="61.00" probability="0" edges="gneE0 gneE1"/>
            <route replacedOnEdge="" replacedAtTime="121.00" probability="0" edges="gneE0 0/0to1/0 1/0to1/1 1/1to2/1 2/1to2/2 gneE1"/>
            <route edges="gneE0 0/0to0/1 0/1to1/1 1/1to2/1 2/1to2/2 gneE1"/>
        </routeDistribution>
    </vehicle>

    <vehicle id="type1.62" type="car" depart="207.00" color="yellow" arrival="336.00">
        <routeDistribution>
            <route replacedOnEdge="" replacedAtTime="62.00" probability="0" edges="gneE0 gneE1"/>
            <route replacedOnEdge="" replacedAtTime="122.00" probability="0" edges="gneE0 0/0to1/0 1/0to1/1 1/1to2/1 2/1to2/2 gneE1"/>
            <route edges="gneE0 0/0to0/1 0/1to1/1 1/1to2/1 2/1to2/2 gneE1"/>
        </routeDistribution>
    </vehicle>

    <vehicle id="type1.63" type="car" depart="210.00" color="yellow" arrival="338.00">
        <routeDistribution>
            <route replacedOnEdge="" replacedAtTime="63.00" probability="0" edges="gneE0 gneE1"/>
            <route replacedOnEdge="" replacedAtTime="123.00" probability="0" edges="gneE0 0/0to1/0 1/0to1/1 1/1to2/1 2/1to2/2 gneE1"/>
            <route edges="gneE0 0/0to0/1 0/1to1/1 1/1to2/1 2/1to2/2 gneE1"/>
        </routeDistribution>
    </vehicle>

    <vehicle id="type1.64" type="car" depart="213.00" color="yellow" arrival="339.00">
        <routeDistribution>
            <route replacedOnEdge="" replacedAtTime="64.00" probability="0" edges="gneE0 gneE1"/>
            <route replacedOnEdge="" replacedAtTime="124.00" probability="0" edges="gneE0 0/0to1/0 1/0to1/1 1/1to2/1 2/1to2/2 gneE1"/>
            <route edges="gneE0 0/0to0/1 0/1to1/1 1/1to2/1 2/1to2/2 gneE1"/>
        </routeDistribution>
    </vehicle>

    <vehicle id="type1.65" type="car" depart="216.00" color="yellow" arrival="341.00">
        <routeDistribution>
            <route replacedOnEdge="" replacedAtTime="65.00" probability="0" edges="gneE0 gneE1"/>
            <route replacedOnEdge="" replacedAtTime="125.00" probability="0" edges="gneE0 0/0to1/0 1/0to1/1 1/1to2/1 2/1to2/2 gneE1"/>
            <route edges="gneE0 0/0to0/1 0/1to1/1 1/1to2/1 2/1to2/2 gneE1"/>
        </routeDistribution>
    </vehicle>

    <vehicle id="type1.66" type="car" depart="219.00" color="yellow" arrival="342.00">
        <routeDistribution>
            <route replacedOnEdge="" replacedAtTime="66.00" probability="0" edges="gneE0 gneE1"/>
            <route replacedOnEdge="" replacedAtTime="126.00" probability="0" edges="gneE0 0/0to1/0 1/0to1/1 1/1to2/1 2/1to2/2 gneE1"/>
            <route edges="gneE0 0/0to0/1 0/1to1/1 1/1to2/1 2/1to2/2 gneE1"/>
        </routeDistribution>
    </vehicle>

    <vehicle id="type1.67" type="car" depart="222.00" color="yellow" arrival="344.00">
        <routeDistribution>
            <route replacedOnEdge="" replacedAtTime="67.00" probability="0" edges="gneE0 gneE1"/>
            <route replacedOnEdge="" replacedAtTime="127.00" probability="0" edges="gneE0 0/0to1/0 1/0to1/1 1/1to2/1 2/1to2/2 gneE1"/>
            <route edges="gneE0 0/0to0/1 0/1to1/1 1/1to2/1 2/1to2/2 gneE1"/>
        </routeDistribution>
    </vehicle>

    <vehicle id="type1.51" type="car" depart="165.00" color="yellow" arrival="345.00">
        <routeDistribution>
            <route replacedOnEdge="" replacedAtTime="51.00" probability="0" edges="gneE0 gneE1"/>
            <route replacedOnEdge="" replacedAtTime="111.00" probability="0" edges="gneE0 0/0to1/0 1/0to1/1 1/1to2/1 2/1to2/2 gneE1"/>
            <route edges="gneE0 0/0to0/1 0/1to0/2 0/2to1/2 1/2to2/2 gneE1"/>
        </routeDistribution>
    </vehicle>

    <vehicle id="type1.41" type="car" depart="129.00" color="yellow" arrival="345.00">
        <routeDistribution>
            <route replacedOnEdge="" replacedAtTime="42.00" probability="0" edges="gneE0 gneE1"/>
            <route replacedOnEdge="" replacedAtTime="102.00" probability="0" edges="gneE0 0/0to1/0 1/0to1/1 1/1to1/2 1/2to2/2 gneE1"/>
            <route edges="gneE0 0/0to1/0 1/0to2/0 2/0to2/1 2/1to2/2 gneE1"/>
        </routeDistribution>
    </vehicle>

    <vehicle id="type1.52" type="car" depart="170.00" color="yellow" arrival="347.00">
        <routeDistribution>
            <route replacedOnEdge="" replacedAtTime="52.00" probability="0" edges="gneE0 gneE1"/>
            <route replacedOnEdge="" replacedAtTime="112.00" probability="0" edges="gneE0 0/0to1/0 1/0to1/1 1/1to2/1 2/1to2/2 gneE1"/>
            <route edges="gneE0 0/0to0/1 0/1to0/2 0/2to1/2 1/2to2/2 gneE1"/>
        </routeDistribution>
    </vehicle>

    <vehicle id="type1.42" type="car" depart="132.00" color="yellow" arrival="347.00">
        <routeDistribution>
            <route replacedOnEdge="" replacedAtTime="42.00" probability="0" edges="gneE0 gneE1"/>
            <route replacedOnEdge="" replacedAtTime="102.00" probability="0" edges="gneE0 0/0to1/0 1/0to1/1 1/1to1/2 1/2to2/2 gneE1"/>
            <route edges="gneE0 0/0to1/0 1/0to2/0 2/0to2/1 2/1to2/2 gneE1"/>
        </routeDistribution>
    </vehicle>

    <vehicle id="type1.43" type="car" depart="135.00" color="yellow" arrival="348.00">
        <routeDistribution>
            <route replacedOnEdge="" replacedAtTime="43.00" probability="0" edges="gneE0 gneE1"/>
            <route replacedOnEdge="" replacedAtTime="103.00" probability="0" edges="gneE0 0/0to1/0 1/0to1/1 1/1to2/1 2/1to2/2 gneE1"/>
            <route edges="gneE0 0/0to1/0 1/0to2/0 2/0to2/1 2/1to2/2 gneE1"/>
        </routeDistribution>
    </vehicle>

    <vehicle id="type1.44" type="car" depart="138.00" color="yellow" arrival="350.00">
        <routeDistribution>
            <route replacedOnEdge="" replacedAtTime="44.00" probability="0" edges="gneE0 gneE1"/>
            <route replacedOnEdge="" replacedAtTime="104.00" probability="0" edges="gneE0 0/0to1/0 1/0to1/1 1/1to2/1 2/1to2/2 gneE1"/>
            <route edges="gneE0 0/0to1/0 1/0to2/0 2/0to2/1 2/1to2/2 gneE1"/>
        </routeDistribution>
    </vehicle>

    <vehicle id="type1.45" type="car" depart="141.00" color="yellow" arrival="351.00">
        <routeDistribution>
            <route replacedOnEdge="" replacedAtTime="45.00" probability="0" edges="gneE0 gneE1"/>
            <route replacedOnEdge="" replacedAtTime="105.00" probability="0" edges="gneE0 0/0to1/0 1/0to1/1 1/1to2/1 2/1to2/2 gneE1"/>
            <route edges="gneE0 0/0to1/0 1/0to2/0 2/0to2/1 2/1to2/2 gneE1"/>
        </routeDistribution>
    </vehicle>

    <vehicle id="type1.46" type="car" depart="144.00" color="yellow" arrival="353.00">
        <routeDistribution>
            <route replacedOnEdge="" replacedAtTime="46.00" probability="0" edges="gneE0 gneE1"/>
            <route replacedOnEdge="" replacedAtTime="106.00" probability="0" edges="gneE0 0/0to1/0 1/0to1/1 1/1to2/1 2/1to2/2 gneE1"/>
            <route edges="gneE0 0/0to1/0 1/0to2/0 2/0to2/1 2/1to2/2 gneE1"/>
        </routeDistribution>
    </vehicle>

    <vehicle id="type1.54" type="car" depart="179.00" color="yellow" arrival="395.00">
        <routeDistribution>
            <route replacedOnEdge="" replacedAtTime="54.00" probability="0" edges="gneE0 gneE1"/>
            <route replacedOnEdge="" replacedAtTime="114.00" probability="0" edges="gneE0 0/0to1/0 1/0to1/1 1/1to2/1 2/1to2/2 gneE1"/>
            <route replacedOnEdge="" replacedAtTime="175.00" probability="0" edges="gneE0 0/0to0/1 0/1to0/2 0/2to1/2 1/2to2/2 gneE1"/>
            <route edges="gneE0 0/0to1/0 1/0to1/1 1/1to2/1 2/1to2/2 gneE1"/>
        </routeDistribution>
    </vehicle>

    <vehicle id="type1.55" type="car" depart="182.00" color="yellow" arrival="396.00">
        <routeDistribution>
            <route replacedOnEdge="" replacedAtTime="55.00" probability="0" edges="gneE0 gneE1"/>
            <route replacedOnEdge="" replacedAtTime="115.00" probability="0" edges="gneE0 0/0to1/0 1/0to1/1 1/1to2/1 2/1to2/2 gneE1"/>
            <route replacedOnEdge="" replacedAtTime="175.00" probability="0" edges="gneE0 0/0to0/1 0/1to0/2 0/2to1/2 1/2to2/2 gneE1"/>
            <route edges="gneE0 0/0to1/0 1/0to1/1 1/1to2/1 2/1to2/2 gneE1"/>
        </routeDistribution>
    </vehicle>

    <vehicle id="type1.56" type="car" depart="185.00" color="yellow" arrival="398.00">
        <routeDistribution>
            <route replacedOnEdge="" replacedAtTime="56.00" probability="0" edges="gneE0 gneE1"/>
            <route replacedOnEdge="" replacedAtTime="116.00" probability="0" edges="gneE0 0/0to1/0 1/0to1/1 1/1to2/1 2/1to2/2 gneE1"/>
            <route replacedOnEdge="" replacedAtTime="176.00" probability="0" edges="gneE0 0/0to0/1 0/1to0/2 0/2to1/2 1/2to2/2 gneE1"/>
            <route edges="gneE0 0/0to1/0 1/0to1/1 1/1to2/1 2/1to2/2 gneE1"/>
        </routeDistribution>
    </vehicle>

    <vehicle id="type1.57" type="car" depart="188.00" color="yellow" arrival="399.00">
        <routeDistribution>
            <route replacedOnEdge="" replacedAtTime="57.00" probability="0" edges="gneE0 gneE1"/>
            <route replacedOnEdge="" replacedAtTime="117.00" probability="0" edges="gneE0 0/0to1/0 1/0to1/1 1/1to2/1 2/1to2/2 gneE1"/>