<?xml version="1.0" encoding="UTF-8"?>

<!-- generated on 2022-09-01 08:13:15 by Eclipse SUMO sumo Version v1_14_1+0740-0a959d4
This data file and the accompanying materials
are made available under the terms of the Eclipse Public License v2.0
which accompanies this distribution, and is available at
http://www.eclipse.org/legal/epl-v20.html
This file may also be made available under the following Secondary
Licenses when the conditions for such availability set forth in the Eclipse
Public License 2.0 are satisfied: GNU General Public License, version 2
or later which is available at
https://www.gnu.org/licenses/old-licenses/gpl-2.0-standalone.html
SPDX-License-Identifier: EPL-2.0 OR GPL-2.0-or-later
<configuration xmlns:xsi="http://www.w3.org/2001/XMLSchema-instance" xsi:noNamespaceSchemaLocation="http://sumo.dlr.de/xsd/sumoConfiguration.xsd">

    <input>
        <net-file value="net.net.xml"/>
        <route-files value="input_routes.rou.xml"/>
        <additional-files value="input_additional.add.xml,input_additional2.add.xml"/>
    </input>

    <output>
        <write-license value="true"/>
        <tripinfo-output.write-unfinished value="true"/>
    </output>

    <time>
        <begin value="0"/>
        <end value="3000"/>
    </time>

    <processing>
        <default.speeddev value="0"/>
    </processing>

    <report>
        <xml-validation value="never"/>
        <duration-log.statistics value="true"/>
        <no-step-log value="true"/>
    </report>

</configuration>
-->

<meandata xmlns:xsi="http://www.w3.org/2001/XMLSchema-instance" xsi:noNamespaceSchemaLocation="http://sumo.dlr.de/xsd/meandata_file.xsd">
    <interval begin="0.00" end="60.00" id="dump_60">
        <edge id="1/1to2/1" sampledSeconds="1301.56" traveltime="847.58" overlapTraveltime="812.87" density="22.14" laneDensity="22.14" occupancy="11.04" waitingTime="551.00" timeLoss="1221.10" speed="1.21" speedRelative="0.06" departed="60" arrived="0" entered="0" left="16" laneChangedFrom="0" laneChangedTo="0"/>
        <edge id="2/1to3/1" sampledSeconds="464.00" traveltime="50.74" overlapTraveltime="51.00" density="7.89" laneDensity="7.89" occupancy="3.92" waitingTime="0.00" timeLoss="6.80" speed="19.31" speedRelative="0.99" departed="0" arrived="0" entered="16" left="2" laneChangedFrom="0" laneChangedTo="0"/>
        <edge id="3/1to4/1" sampledSeconds="7.03" traveltime="50.00" overlapTraveltime="50.25" density="0.12" laneDensity="0.12" occupancy="0.06" waitingTime="0.00" timeLoss="0.00" speed="19.60" speedRelative="1.00" departed="0" arrived="0" entered="2" left="0" laneChangedFrom="0" laneChangedTo="0"/>
    </interval>
    <interval begin="60.00" end="120.00" id="dump_60">
        <edge id="1/1to2/1" sampledSeconds="3824.18" traveltime="749.04" overlapTraveltime="740.43" density="65.04" laneDensity="65.04" occupancy="32.50" waitingTime="1734.00" timeLoss="3564.64" speed="1.33" speedRelative="0.07" departed="51" arrived="0" entered="0" left="18" laneChangedFrom="0" laneChangedTo="0"/>
        <edge id="2/1to3/1" sampledSeconds="880.18" traveltime="50.00" overlapTraveltime="50.25" density="14.97" laneDensity="14.97" occupancy="7.45" waitingTime="0.00" timeLoss="0.00" speed="19.60" speedRelative="1.00" departed="0" arrived="0" entered="18" left="17" laneChangedFrom="0" laneChangedTo="0"/>
        <edge id="3/1to4/1" sampledSeconds="594.87" traveltime="50.00" overlapTraveltime="50.25" density="10.12" laneDensity="10.12" occupancy="5.03" waitingTime="0.00" timeLoss="0.00" speed="19.60" speedRelative="1.00" departed="0" arrived="0" entered="17" left="5" laneChangedFrom="0" laneChangedTo="0"/>
        <edge id="4/1to5/1" sampledSeconds="38.80" traveltime="50.00" overlapTraveltime="50.25" density="0.66" laneDensity="0.66" occupancy="0.32" waitingTime="0.00" timeLoss="0.00" speed="19.60" speedRelative="1.00" departed="0" arrived="0" entered="5" left="0" laneChangedFrom="0" laneChangedTo="0"/>
    </interval>
    <interval begin="120.00" end="180.00" id="dump_60">
        <edge id="1/1to2/1" sampledSeconds="4165.25" traveltime="509.55" overlapTraveltime="507.29" density="70.84" laneDensity="70.84" occupancy="35.24" waitingTime="1842.00" timeLoss="3752.65" speed="1.94" speedRelative="0.10" departed="2" arrived="0" entered="0" left="17" laneChangedFrom="0" laneChangedTo="0"/>
        <edge id="2/1to3/1" sampledSeconds="879.42" traveltime="50.00" overlapTraveltime="50.25" density="14.96" laneDensity="14.96" occupancy="7.44" waitingTime="0.00" timeLoss="0.00" speed="19.60" speedRelative="1.00" departed="0" arrived="0" entered="17" left="18" laneChangedFrom="0" laneChangedTo="0"/>
        <edge id="3/1to4/1" sampledSeconds="879.74" traveltime="50.00" overlapTraveltime="50.25" density="14.96" laneDensity="14.96" occupancy="7.44" waitingTime="0.00" timeLoss="0.00" speed="19.60" speedRelative="1.00" departed="0" arrived="0" entered="18" left="17" laneChangedFrom="0" laneChangedTo="0"/>
        <edge id="4/1to5/1" sampledSeconds="707.80" traveltime="50.00" overlapTraveltime="50.25" density="12.04" laneDensity="12.04" occupancy="5.99" waitingTime="0.00" timeLoss="0.00" speed="19.60" speedRelative="1.00" departed="0" arrived="0" entered="17" left="8" laneChangedFrom="0" laneChangedTo="0"/>
        <edge id="5/1to6/1" sampledSeconds="98.82" traveltime="50.00" overlapTraveltime="50.25" density="1.68" laneDensity="1.68" occupancy="0.83" waitingTime="0.00" timeLoss="0.00" speed="19.60" speedRelative="1.00" departed="0" arrived="0" entered="8" left="0" laneChangedFrom="0" laneChangedTo="0"/>
    </interval>
    <interval begin="180.00" end="240.00" id="dump_60">
        <edge id="1/1to2/1" sampledSeconds="3214.19" traveltime="295.88" overlapTraveltime="295.31" density="54.67" laneDensity="54.67" occupancy="27.19" waitingTime="1292.00" timeLoss="2667.24" speed="3.34" speedRelative="0.17" departed="2" arrived="0" entered="0" left="18" laneChangedFrom="0" laneChangedTo="0"/>
        <edge id="2/1to3/1" sampledSeconds="880.23" traveltime="50.00" overlapTraveltime="50.25" density="14.97" laneDensity="14.97" occupancy="7.45" waitingTime="0.00" timeLoss="0.00" speed="19.60" speedRelative="1.00" departed="0" arrived="0" entered="18" left="17" laneChangedFrom="0" laneChangedTo="0"/>
        <edge id="3/1to4/1" sampledSeconds="879.85" traveltime="50.00" overlapTraveltime="50.25" density="14.96" laneDensity="14.96" occupancy="7.44" waitingTime="0.00" timeLoss="0.00" speed="19.60" speedRelative="1.00" departed="0" arrived="0" entered="17" left="18" laneChangedFrom="0" laneChangedTo="0"/>
        <edge id="4/1to5/1" sampledSeconds="879.31" traveltime="50.00" overlapTraveltime="50.25" density="14.96" laneDensity="14.96" occupancy="7.44" waitingTime="0.00" timeLoss="0.00" speed="19.60" speedRelative="1.00" departed="0" arrived="0" entered="18" left="17" laneChangedFrom="0" laneChangedTo="0"/>
        <edge id="5/1to6/1" sampledSeconds="792.12" traveltime="50.00" overlapTraveltime="50.25" density="13.47" laneDensity="13.47" occupancy="6.71" waitingTime="0.00" timeLoss="0.00" speed="19.60" speedRelative="1.00" departed="0" arrived="0" entered="17" left="10" laneChangedFrom="0" laneChangedTo="0"/>
        <edge id="6/1to7/1" sampledSeconds="187.35" traveltime="50.00" overlapTraveltime="50.25" density="3.19" laneDensity="3.19" occupancy="1.58" waitingTime="0.00" timeLoss="0.00" speed="19.60" speedRelative="1.00" departed="0" arrived="0" entered="10" left="0" laneChangedFrom="0" laneChangedTo="0"/>
    </interval>
    <interval begin="240.00" end="300.00" id="dump_60">
        <edge id="1/1to2/1" sampledSeconds="2269.32" traveltime="166.98" overlapTraveltime="167.07" density="38.60" laneDensity="38.60" occupancy="19.15" waitingTime="745.00" timeLoss="1586.76" speed="5.90" speedRelative="0.30" departed="1" arrived="0" entered="0" left="18" laneChangedFrom="0" laneChangedTo="0"/>
        <edge id="2/1to3/1" sampledSeconds="879.36" traveltime="50.00" overlapTraveltime="50.25" density="14.96" laneDensity="14.96" occupancy="7.44" waitingTime="0.00" timeLoss="0.00" speed="19.60" speedRelative="1.00" departed="0" arrived="0" entered="17" left="18" laneChangedFrom="0" laneChangedTo="0"/>
        <edge id="3/1to4/1" sampledSeconds="879.80" traveltime="50.00" overlapTraveltime="50.25" density="14.96" laneDensity="14.96" occupancy="7.44" waitingTime="0.00" timeLoss="0.00" speed="19.60" speedRelative="1.00" departed="0" arrived="0" entered="18" left="17" laneChangedFrom="0" laneChangedTo="0"/>
        <edge id="4/1to5/1" sampledSeconds="880.28" traveltime="50.00" overlapTraveltime="50.25" density="14.97" laneDensity="14.97" occupancy="7.45" waitingTime="0.00" timeLoss="0.00" speed="19.60" speedRelative="1.00" departed="0" arrived="0" entered="17" left="18" laneChangedFrom="0" laneChangedTo="0"/>
        <edge id="5/1to6/1" sampledSeconds="879.25" traveltime="50.00" overlapTraveltime="50.25" density="14.95" laneDensity="14.95" occupancy="7.44" waitingTime="0.00" timeLoss="0.00" speed="19.60" speedRelative="1.00" departed="0" arrived="0" entered="18" left="18" laneChangedFrom="0" laneChangedTo="0"/>
        <edge id="6/1to7/1" sampledSeconds="847.85" traveltime="50.00" overlapTraveltime="50.25" density="14.42" laneDensity="14.42" occupancy="7.18" waitingTime="0.00" timeLoss="0.00" speed="19.60" speedRelative="1.00" departed="0" arrived="0" entered="18" left="13" laneChangedFrom="0" laneChangedTo="0"/>
        <edge id="7/1to8/1" sampledSeconds="304.29" traveltime="50.00" overlapTraveltime="50.25" density="5.18" laneDensity="5.18" occupancy="2.57" waitingTime="0.00" timeLoss="0.00" speed="19.60" speedRelative="1.00" departed="0" arrived="0" entered="13" left="0" laneChangedFrom="0" laneChangedTo="0"/>
    </interval>
    <interval begin="300.00" end="360.00" id="dump_60">
        <edge id="1/1to2/1" sampledSeconds="1325.19" traveltime="81.34" overlapTraveltime="81.58" density="22.54" laneDensity="22.54" occupancy="11.11" waitingTime="200.00" timeLoss="508.86" speed="12.07" speedRelative="0.62" departed="4" arrived="0" entered="0" left="17" laneChangedFrom="0" laneChangedTo="0"/>
        <edge id="2/1to3/1" sampledSeconds="880.29" traveltime="50.00" overlapTraveltime="50.25" density="14.97" laneDensity="14.97" occupancy="7.45" waitingTime="0.00" timeLoss="0.00" speed="19.60" speedRelative="1.00" departed="0" arrived="0" entered="18" left="17" laneChangedFrom="0" laneChangedTo="0"/>
        <edge id="3/1to4/1" sampledSeconds="879.79" traveltime="50.00" overlapTraveltime="50.25" density="14.96" laneDensity="14.96" occupancy="7.44" waitingTime="0.00" timeLoss="0.00" speed="19.60" speedRelative="1.00" departed="0" arrived="0" entered="17" left="18" laneChangedFrom="0" laneChangedTo="0"/>
        <edge id="4/1to5/1" sampledSeconds="879.37" traveltime="50.00" overlapTraveltime="50.25" density="14.96" laneDensity="14.96" occupancy="7.44" waitingTime="0.00" timeLoss="0.00" speed="19.60" speedRelative="1.00" departed="0" arrived="0" entered="18" left="17" laneChangedFrom="0" laneChangedTo="0"/>
        <edge id="5/1to6/1" sampledSeconds="880.40" traveltime="50.00" overlapTraveltime="50.25" density="14.97" laneDensity="14.97" occupancy="7.45" waitingTime="0.00" timeLoss="0.00" speed="19.60" speedRelative="1.00" departed="0" arrived="0" entered="17" left="17" laneChangedFrom="0" laneChangedTo="0"/>
        <edge id="6/1to7/1" sampledSeconds="879.46" traveltime="50.00" overlapTraveltime="50.25" density="14.96" laneDensity="14.96" occupancy="7.44" waitingTime="0.00" timeLoss="0.00" speed="19.60" speedRelative="1.00" departed="0" arrived="0" entered="17" left="18" laneChangedFrom="0" laneChangedTo="0"/>
        <edge id="7/1to8/1" sampledSeconds="875.18" traveltime="50.00" overlapTraveltime="50.25" density="14.88" laneDensity="14.88" occupancy="7.41" waitingTime="0.00" timeLoss="0.00" speed="19.60" speedRelative="1.00" departed="0" arrived="0" entered="18" left="16" laneChangedFrom="0" laneChangedTo="0"/>
        <edge id="8/1to9/1" sampledSeconds="444.47" traveltime="50.00" overlapTraveltime="50.25" density="7.56" laneDensity="7.56" occupancy="3.76" waitingTime="0.00" timeLoss="0.00" speed="19.60" speedRelative="1.00" departed="0" arrived="0" entered="16" left="2" laneChangedFrom="0" laneChangedTo="0"/>
        <edge id="9/1to10/1" sampledSeconds="5.21" traveltime="50.00" overlapTraveltime="50.25" density="0.09" laneDensity="0.09" occupancy="0.04" waitingTime="0.00" timeLoss="0.00" speed="19.60" speedRelative="1.00" departed="0" arrived="0" entered="2" left="0" laneChangedFrom="0" laneChangedTo="0"/>
    </interval>
    <interval begin="360.00" end="420.00" id="dump_60">
        <edge id="1/1to2/1" sampledSeconds="880.52" traveltime="54.92" overlapTraveltime="55.18" density="14.98" laneDensity="14.98" occupancy="7.36" waitingTime="0.00" timeLoss="78.61" speed="17.85" speedRelative="0.91" departed="15" arrived="0" entered="0" left="17" laneChangedFrom="0" laneChangedTo="0"/>
        <edge id="10/1to1/1" sampledSeconds="34.57" traveltime="50.00" overlapTraveltime="50.25" density="0.59" laneDensity="0.59" occupancy="0.29" waitingTime="0.00" timeLoss="0.00" speed="19.60" speedRelative="1.00" departed="0" arrived="0" entered="4" left="0" laneChangedFrom="0" laneChangedTo="0"/>
        <edge id="2/1to3/1" sampledSeconds="877.16" traveltime="50.00" overlapTraveltime="50.25" density="14.92" laneDensity="14.92" occupancy="7.42" waitingTime="0.00" timeLoss="0.00" speed="19.60" speedRelative="1.00" departed="0" arrived="0" entered="17" left="18" laneChangedFrom="0" laneChangedTo="0"/>
        <edge id="3/1to4/1" sampledSeconds="879.85" traveltime="50.00" overlapTraveltime="50.25" density="14.96" laneDensity="14.96" occupancy="7.44" waitingTime="0.00" timeLoss="0.00" speed="19.60" speedRelative="1.00" departed="0" arrived="0" entered="18" left="17" laneChangedFrom="0" laneChangedTo="0"/>
        <edge id="4/1to5/1" sampledSeconds="880.23" traveltime="50.00" overlapTraveltime="50.25" density="14.97" laneDensity="14.97" occupancy="7.45" waitingTime="0.00" timeLoss="0.00" speed="19.60" speedRelative="1.00" departed="0" arrived="0" entered="17" left="18" laneChangedFrom="0" laneChangedTo="0"/>
        <edge id="5/1to6/1" sampledSeconds="879.25" traveltime="50.00" overlapTraveltime="50.25" density="14.95" laneDensity="14.95" occupancy="7.44" waitingTime="0.00" timeLoss="0.00" speed="19.60" speedRelative="1.00" departed="0" arrived="0" entered="18" left="18" laneChangedFrom="0" laneChangedTo="0"/>
        <edge id="6/1to7/1" sampledSeconds="880.19" traveltime="50.00" overlapTraveltime="50.25" density="14.97" laneDensity="14.97" occupancy="7.45" waitingTime="0.00" timeLoss="0.00" speed="19.60" speedRelative="1.00" departed="0" arrived="0" entered="18" left="17" laneChangedFrom="0" laneChangedTo="0"/>
        <edge id="7/1to8/1" sampledSeconds="879.89" traveltime="50.00" overlapTraveltime="50.25" density="14.97" laneDensity="14.97" occupancy="7.44" waitingTime="0.00" timeLoss="0.00" speed="19.60" speedRelative="1.00" departed="0" arrived="0" entered="17" left="18" laneChangedFrom="0" laneChangedTo="0"/>
        <edge id="8/1to9/1" sampledSeconds="879.27" traveltime="50.00" overlapTraveltime="50.25" density="14.95" laneDensity="14.95" occupancy="7.44" waitingTime="0.00" timeLoss="0.00" speed="19.60" speedRelative="1.00" departed="0" arrived="0" entered="18" left="17" laneChangedFrom="0" laneChangedTo="0"/>
        <edge id="9/1to10/1" sampledSeconds="583.54" traveltime="50.00" overlapTraveltime="50.25" density="9.92" laneDensity="9.92" occupancy="4.94" waitingTime="0.00" timeLoss="0.00" speed="19.60" speedRelative="1.00" departed="0" arrived="0" entered="17" left="4" laneChangedFrom="0" laneChangedTo="0"/>
    </interval>
    <interval begin="420.00" end="480.00" id="dump_60">
        <edge id="1/1to2/1" sampledSeconds="831.54" traveltime="55.46" overlapTraveltime="55.72" density="14.14" laneDensity="14.14" occupancy="6.95" waitingTime="2.00" timeLoss="81.57" speed="17.68" speedRelative="0.90" departed="14" arrived="0" entered="2" left="15" laneChangedFrom="0" laneChangedTo="0"/>
        <edge id="10/1to1/1" sampledSeconds="779.58" traveltime="57.33" overlapTraveltime="58.12" density="13.26" laneDensity="13.26" occupancy="6.58" waitingTime="5.00" timeLoss="105.54" speed="16.95" speedRelative="0.86" departed="0" arrived="0" entered="18" left="2" laneChangedFrom="0" laneChangedTo="0"/>
        <edge id="2/1to3/1" sampledSeconds="786.64" traveltime="50.00" overlapTraveltime="50.25" density="13.38" laneDensity="13.38" occupancy="6.66" waitingTime="0.00" timeLoss="0.00" speed="19.60" speedRelative="1.00" departed="0" arrived="0" entered="15" left="17" laneChangedFrom="0" laneChangedTo="0"/>
        <edge id="3/1to4/1" sampledSeconds="870.41" traveltime="50.00" overlapTraveltime="50.25" density="14.80" laneDensity="14.80" occupancy="7.37" waitingTime="0.00" timeLoss="0.00" speed="19.60" speedRelative="1.00" departed="0" arrived="0" entered="16" left="18" laneChangedFrom="0" laneChangedTo="0"/>
        <edge id="4/1to5/1" sampledSeconds="879.42" traveltime="50.00" overlapTraveltime="50.25" density="14.96" laneDensity="14.96" occupancy="7.44" waitingTime="0.00" timeLoss="0.00" speed="19.60" speedRelative="1.00" departed="0" arrived="0" entered="18" left="17" laneChangedFrom="0" laneChangedTo="0"/>
        <edge id="5/1to6/1" sampledSeconds="880.40" traveltime="50.00" overlapTraveltime="50.25" density="14.97" laneDensity="14.97" occupancy="7.45" waitingTime="0.00" timeLoss="0.00" speed="19.60" speedRelative="1.00" departed="0" arrived="0" entered="17" left="17" laneChangedFrom="0" laneChangedTo="0"/>
        <edge id="6/1to7/1" sampledSeconds="879.41" traveltime="50.00" overlapTraveltime="50.25" density="14.96" laneDensity="14.96" occupancy="7.44" waitingTime="0.00" timeLoss="0.00" speed="19.60" speedRelative="1.00" departed="0" arrived="0" entered="17" left="18" laneChangedFrom="0" laneChangedTo="0"/>
        <edge id="7/1to8/1" sampledSeconds="879.75" traveltime="50.00" overlapTraveltime="50.25" density="14.96" laneDensity="14.96" occupancy="7.44" waitingTime="0.00" timeLoss="0.00" speed="19.60" speedRelative="1.00" departed="0" arrived="0" entered="18" left="17" laneChangedFrom="0" laneChangedTo="0"/>
        <edge id="8/1to9/1" sampledSeconds="880.33" traveltime="50.00" overlapTraveltime="50.25" density="14.97" laneDensity="14.97" occupancy="7.45" waitingTime="0.00" timeLoss="0.00" speed="19.60" speedRelative="1.00" departed="0" arrived="0" entered="17" left="18" laneChangedFrom="0" laneChangedTo="0"/>
        <edge id="9/1to10/1" sampledSeconds="879.25" traveltime="50.00" overlapTraveltime="50.25" density="14.95" laneDensity="14.95" occupancy="7.44" waitingTime="0.00" timeLoss="0.00" speed="19.60" speedRelative="1.00" departed="0" arrived="0" entered="18" left="18" laneChangedFrom="0" laneChangedTo="0"/>
    </interval>
    <interval begin="480.00" end="540.00" id="dump_60">
        <edge id="1/1to2/1" sampledSeconds="859.81" traveltime="55.04" overlapTraveltime="55.29" density="14.62" laneDensity="14.62" occupancy="7.21" waitingTime="2.00" timeLoss="78.37" speed="17.81" speedRelative="0.91" departed="8" arrived="0" entered="7" left="15" laneChangedFrom="0" laneChangedTo="0"/>
        <edge id="10/1to1/1" sampledSeconds="1543.99" traveltime="107.17" overlapTraveltime="108.49" density="26.26" laneDensity="26.26" occupancy="13.04" waitingTime="70.00" timeLoss="828.79" speed="9.08" speedRelative="0.46" departed="0" arrived="0" entered="17" left="7" laneChangedFrom="0" laneChangedTo="0"/>
        <edge id="2/1to3/1" sampledSeconds="754.56" traveltime="50.00" overlapTraveltime="50.25" density="12.83" laneDensity="12.83" occupancy="6.38" waitingTime="0.00" timeLoss="0.00" speed="19.60" speedRelative="1.00" departed="0" arrived="0" entered="15" left="15" laneChangedFrom="0" laneChangedTo="0"/>
        <edge id="3/1to4/1" sampledSeconds="772.06" traveltime="50.00" overlapTraveltime="50.25" density="13.13" laneDensity="13.13" occupancy="6.53" waitingTime="0.00" timeLoss="0.00" speed="19.60" speedRelative="1.00" departed="0" arrived="0" entered="16" left="16" laneChangedFrom="0" laneChangedTo="0"/>
        <edge id="4/1to5/1" sampledSeconds="860.59" traveltime="50.00" overlapTraveltime="50.25" density="14.64" laneDensity="14.64" occupancy="7.28" waitingTime="0.00" timeLoss="0.00" speed="19.60" speedRelative="1.00" departed="0" arrived="0" entered="16" left="18" laneChangedFrom="0" laneChangedTo="0"/>
        <edge id="5/1to6/1" sampledSeconds="879.25" traveltime="50.00" overlapTraveltime="50.25" density="14.95" laneDensity="14.95" occupancy="7.44" waitingTime="0.00" timeLoss="0.00" speed="19.60" speedRelative="1.00" departed="0" arrived="0" entered="18" left="18" laneChangedFrom="0" laneChangedTo="0"/>
        <edge id="6/1to7/1" sampledSeconds="880.24" traveltime="50.00" overlapTraveltime="50.25" density="14.97" laneDensity="14.97" occupancy="7.45" waitingTime="0.00" timeLoss="0.00" speed="19.60" speedRelative="1.00" departed="0" arrived="0" entered="18" left="17" laneChangedFrom="0" laneChangedTo="0"/>
        <edge id="7/1to8/1" sampledSeconds="879.84" traveltime="50.00" overlapTraveltime="50.25" density="14.96" laneDensity="14.96" occupancy="7.44" waitingTime="0.00" timeLoss="0.00" speed="19.60" speedRelative="1.00" departed="0" arrived="0" entered="17" left="18" laneChangedFrom="0" laneChangedTo="0"/>
        <edge id="8/1to9/1" sampledSeconds="879.32" traveltime="50.00" overlapTraveltime="50.25" density="14.96" laneDensity="14.96" occupancy="7.44" waitingTime="0.00" timeLoss="0.00" speed="19.60" speedRelative="1.00" departed="0" arrived="0" entered="18" left="17" laneChangedFrom="0" laneChangedTo="0"/>
        <edge id="9/1to10/1" sampledSeconds="880.40" traveltime="50.00" overlapTraveltime="50.25" density="14.97" laneDensity="14.97" occupancy="7.45" waitingTime="0.00" timeLoss="0.00" speed="19.60" speedRelative="1.00" departed="0" arrived="0" entered="17" left="17" laneChangedFrom="0" laneChangedTo="0"/>
    </interval>
    <interval begin="540.00" end="600.00" id="dump_60">
        <edge id="1/1to2/1" sampledSeconds="892.13" traveltime="54.61" overlapTraveltime="54.86" density="15.17" laneDensity="15.17" occupancy="7.49" waitingTime="0.00" timeLoss="74.98" speed="17.95" speedRelative="0.92" departed="7" arrived="0" entered="9" left="16" laneChangedFrom="0" laneChangedTo="0"/>
        <edge id="10/1to1/1" sampledSeconds="2056.90" traveltime="159.04" overlapTraveltime="160.77" density="34.98" laneDensity="34.98" occupancy="17.39" waitingTime="71.00" timeLoss="1413.98" speed="6.13" speedRelative="0.31" departed="0" arrived="0" entered="18" left="9" laneChangedFrom="0" laneChangedTo="0"/>
        <edge id="2/1to3/1" sampledSeconds="798.02" traveltime="50.00" overlapTraveltime="50.25" density="13.57" laneDensity="13.57" occupancy="6.75" waitingTime="0.00" timeLoss="0.00" speed="19.60" speedRelative="1.00" departed="0" arrived="0" entered="16" left="15" laneChangedFrom="0" laneChangedTo="0"/>
        <edge id="3/1to4/1" sampledSeconds="756.14" traveltime="50.00" overlapTraveltime="50.25" density="12.86" laneDensity="12.86" occupancy="6.40" waitingTime="0.00" timeLoss="0.00" speed="19.60" speedRelative="1.00" departed="0" arrived="0" entered="15" left="15" laneChangedFrom="0" laneChangedTo="0"/>
        <edge id="4/1to5/1" sampledSeconds="762.13" traveltime="50.00" overlapTraveltime="50.25" density="12.96" laneDensity="12.96" occupancy="6.45" waitingTime="0.00" timeLoss="0.00" speed="19.60" speedRelative="1.00" departed="0" arrived="0" entered="15" left="15" laneChangedFrom="0" laneChangedTo="0"/>
        <edge id="5/1to6/1" sampledSeconds="845.83" traveltime="50.00" overlapTraveltime="50.25" density="14.39" laneDensity="14.39" occupancy="7.16" waitingTime="0.00" timeLoss="0.00" speed="19.60" speedRelative="1.00" departed="0" arrived="0" entered="15" left="18" laneChangedFrom="0" laneChangedTo="0"/>
        <edge id="6/1to7/1" sampledSeconds="879.35" traveltime="50.00" overlapTraveltime="50.25" density="14.96" laneDensity="14.96" occupancy="7.44" waitingTime="0.00" timeLoss="0.00" speed="19.60" speedRelative="1.00" departed="0" arrived="0" entered="17" left="18" laneChangedFrom="0" laneChangedTo="0"/>
        <edge id="7/1to8/1" sampledSeconds="879.81" traveltime="50.00" overlapTraveltime="50.25" density="14.96" laneDensity="14.96" occupancy="7.44" waitingTime="0.00" timeLoss="0.00" speed="19.60" speedRelative="1.00" departed="0" arrived="0" entered="18" left="17" laneChangedFrom="0" laneChangedTo="0"/>
        <edge id="8/1to9/1" sampledSeconds="880.27" traveltime="50.00" overlapTraveltime="50.25" density="14.97" laneDensity="14.97" occupancy="7.45" waitingTime="0.00" timeLoss="0.00" speed="19.60" speedRelative="1.00" departed="0" arrived="0" entered="17" left="18" laneChangedFrom="0" laneChangedTo="0"/>
        <edge id="9/1to10/1" sampledSeconds="879.25" traveltime="50.00" overlapTraveltime="50.25" density="14.95" laneDensity="14.95" occupancy="7.44" waitingTime="0.00" timeLoss="0.00" speed="19.60" speedRelative="1.00" departed="0" arrived="0" entered="18" left="18" laneChangedFrom="0" laneChangedTo="0"/>
    </interval>
    <interval begin="600.00" end="660.00" id="dump_60">
        <edge id="1/1to2/1" sampledSeconds="1037.27" traveltime="51.96" overlapTraveltime="52.22" density="17.64" laneDensity="17.64" occupancy="8.76" waitingTime="0.00" timeLoss="39.10" speed="18.86" speedRelative="0.96" departed="0" arrived="0" entered="25" left="17" laneChangedFrom="0" laneChangedTo="0"/>
        <edge id="10/1to1/1" sampledSeconds="2207.57" traveltime="132.69" overlapTraveltime="132.96" density="37.55" laneDensity="37.55" occupancy="18.71" waitingTime="42.00" timeLoss="1373.23" speed="7.41" speedRelative="0.38" departed="0" arrived="0" entered="17" left="25" laneChangedFrom="0" laneChangedTo="0"/>
        <edge id="2/1to3/1" sampledSeconds="819.87" traveltime="50.00" overlapTraveltime="50.25" density="13.94" laneDensity="13.94" occupancy="6.94" waitingTime="0.00" timeLoss="0.00" speed="19.60" speedRelative="1.00" departed="0" arrived="0" entered="17" left="16" laneChangedFrom="0" laneChangedTo="0"/>
        <edge id="3/1to4/1" sampledSeconds="810.38" traveltime="50.00" overlapTraveltime="50.25" density="13.78" laneDensity="13.78" occupancy="6.86" waitingTime="0.00" timeLoss="0.00" speed="19.60" speedRelative="1.00" departed="0" arrived="0" entered="16" left="15" laneChangedFrom="0" laneChangedTo="0"/>
        <edge id="4/1to5/1" sampledSeconds="758.64" traveltime="50.00" overlapTraveltime="50.25" density="12.90" laneDensity="12.90" occupancy="6.42" waitingTime="0.00" timeLoss="0.00" speed="19.60" speedRelative="1.00" departed="0" arrived="0" entered="15" left="15" laneChangedFrom="0" laneChangedTo="0"/>
        <edge id="5/1to6/1" sampledSeconds="755.70" traveltime="50.00" overlapTraveltime="50.25" density="12.85" laneDensity="12.85" occupancy="6.39" waitingTime="0.00" timeLoss="0.00" speed="19.60" speedRelative="1.00" departed="0" arrived="0" entered="15" left="15" laneChangedFrom="0" laneChangedTo="0"/>
        <edge id="6/1to7/1" sampledSeconds="827.41" traveltime="50.00" overlapTraveltime="50.25" density="14.07" laneDensity="14.07" occupancy="7.00" waitingTime="0.00" timeLoss="0.00" speed="19.60" speedRelative="1.00" departed="0" arrived="0" entered="16" left="17" laneChangedFrom="0" laneChangedTo="0"/>
        <edge id="7/1to8/1" sampledSeconds="879.78" traveltime="50.00" overlapTraveltime="50.25" density="14.96" laneDensity="14.96" occupancy="7.44" waitingTime="0.00" timeLoss="0.00" speed="19.60" speedRelative="1.00" departed="0" arrived="0" entered="17" left="18" laneChangedFrom="0" laneChangedTo="0"/>
        <edge id="8/1to9/1" sampledSeconds="879.38" traveltime="50.00" overlapTraveltime="50.25" density="14.96" laneDensity="14.96" occupancy="7.44" waitingTime="0.00" timeLoss="0.00" speed="19.60" speedRelative="1.00" departed="0" arrived="0" entered="18" left="17" laneChangedFrom="0" laneChangedTo="0"/>
        <edge id="9/1to10/1" sampledSeconds="882.98" traveltime="50.15" overlapTraveltime="50.42" density="15.02" laneDensity="15.02" occupancy="7.47" waitingTime="0.00" timeLoss="3.00" speed="19.53" speedRelative="1.00" departed="0" arrived="0" entered="17" left="17" laneChangedFrom="0" laneChangedTo="0"/>
    </interval>
    <interval begin="660.00" end="720.00" id="dump_60">
        <edge id="1/1to2/1" sampledSeconds="1476.12" traveltime="50.84" overlapTraveltime="51.10" density="25.11" laneDensity="25.11" occupancy="12.49" waitingTime="0.00" timeLoss="24.41" speed="19.28" speedRelative="0.98" departed="0" arrived="0" entered="29" left="27" laneChangedFrom="0" laneChangedTo="0"/>
        <edge id="10/1to1/1" sampledSeconds="1574.00" traveltime="60.94" overlapTraveltime="61.20" density="26.77" laneDensity="26.77" occupancy="13.33" waitingTime="0.00" timeLoss="281.64" speed="16.09" speedRelative="0.82" departed="0" arrived="0" entered="18" left="29" laneChangedFrom="0" laneChangedTo="0"/>
        <edge id="2/1to3/1" sampledSeconds="1083.80" traveltime="50.00" overlapTraveltime="50.25" density="18.43" laneDensity="18.43" occupancy="9.17" waitingTime="0.00" timeLoss="0.00" speed="19.60" speedRelative="1.00" departed="0" arrived="0" entered="27" left="17" laneChangedFrom="0" laneChangedTo="0"/>
        <edge id="3/1to4/1" sampledSeconds="818.11" traveltime="50.00" overlapTraveltime="50.25" density="13.91" laneDensity="13.91" occupancy="6.92" waitingTime="0.00" timeLoss="0.00" speed="19.60" speedRelative="1.00" departed="0" arrived="0" entered="17" left="17" laneChangedFrom="0" laneChangedTo="0"/>
        <edge id="4/1to5/1" sampledSeconds="822.61" traveltime="50.00" overlapTraveltime="50.25" density="13.99" laneDensity="13.99" occupancy="6.96" waitingTime="0.00" timeLoss="0.00" speed="19.60" speedRelative="1.00" departed="0" arrived="0" entered="17" left="16" laneChangedFrom="0" laneChangedTo="0"/>