<?xml version="1.0" encoding="UTF-8"?>

<!-- generated on Wed Jan 30 07:50:29 2019 by Eclipse SUMO Version v1_0_1+0645-93703db
This data file and the accompanying materials
are made available under the terms of the Eclipse Public License v2.0
which accompanies this distribution, and is available at
http://www.eclipse.org/legal/epl-v20.html
SPDX-License-Identifier: EPL-2.0
<configuration xmlns:xsi="http://www.w3.org/2001/XMLSchema-instance" xsi:noNamespaceSchemaLocation="http://sumo.dlr.de/xsd/sumoConfiguration.xsd">

    <input>
        <net-file value="net.net.xml"/>
        <route-files value="input_routes.rou.xml"/>
        <additional-files value="input_additional.add.xml,input_additional2.add.xml"/>
    </input>

    <output>
        <write-license value="true"/>
    </output>

    <time>
        <begin value="0"/>
        <end value="3000"/>
    </time>

    <processing>
        <default.speeddev value="0"/>
    </processing>

    <report>
        <verbose value="true"/>
        <xml-validation value="never"/>
        <duration-log.statistics value="true"/>
        <no-step-log value="true"/>
    </report>

</configuration>
-->

<meandata xmlns:xsi="http://www.w3.org/2001/XMLSchema-instance" xsi:noNamespaceSchemaLocation="http://sumo.dlr.de/xsd/meandata_file.xsd">
    <interval begin="0.00" end="60.00" id="dump_60">
        <edge id="1/1to2/1" sampledSeconds="1284.52" traveltime="1198.67" overlapTraveltime="1120.36" density="21.85" occupancy="10.89" waitingTime="1141.00" speed="0.88" departed="60" arrived="0" entered="0" left="17" laneChangedFrom="0" laneChangedTo="0"/>
        <edge id="2/1to3/1" sampledSeconds="481.25" traveltime="50.80" overlapTraveltime="51.06" density="8.18" occupancy="4.06" waitingTime="0.00" speed="19.29" departed="0" arrived="0" entered="17" left="2" laneChangedFrom="0" laneChangedTo="0"/>
        <edge id="3/1to4/1" sampledSeconds="7.03" traveltime="50.00" overlapTraveltime="50.25" density="0.12" occupancy="0.06" waitingTime="0.00" speed="19.60" departed="0" arrived="0" entered="2" left="0" laneChangedFrom="0" laneChangedTo="0"/>
    </interval>
    <interval begin="60.00" end="120.00" id="dump_60">
        <edge id="1/1to2/1" sampledSeconds="3822.59" traveltime="1052.86" overlapTraveltime="1033.33" density="65.01" occupancy="32.49" waitingTime="3540.00" speed="0.95" departed="60" arrived="0" entered="0" left="18" laneChangedFrom="0" laneChangedTo="0"/>
        <edge id="2/1to3/1" sampledSeconds="896.73" traveltime="50.00" overlapTraveltime="50.25" density="15.25" occupancy="7.59" waitingTime="0.00" speed="19.60" departed="0" arrived="0" entered="18" left="18" laneChangedFrom="0" laneChangedTo="0"/>
        <edge id="3/1to4/1" sampledSeconds="613.83" traveltime="50.00" overlapTraveltime="50.25" density="10.44" occupancy="5.20" waitingTime="0.00" speed="19.60" departed="0" arrived="0" entered="18" left="5" laneChangedFrom="0" laneChangedTo="0"/>
        <edge id="4/1to5/1" sampledSeconds="40.97" traveltime="50.00" overlapTraveltime="50.25" density="0.70" occupancy="0.34" waitingTime="0.00" speed="19.60" departed="0" arrived="0" entered="5" left="0" laneChangedFrom="0" laneChangedTo="0"/>
    </interval>
    <interval begin="120.00" end="180.00" id="dump_60">
        <edge id="1/1to2/1" sampledSeconds="5531.96" traveltime="889.53" overlapTraveltime="881.78" density="94.09" occupancy="46.86" waitingTime="5120.00" speed="1.12" departed="19" arrived="0" entered="0" left="18" laneChangedFrom="0" laneChangedTo="0"/>
        <edge id="2/1to3/1" sampledSeconds="896.73" traveltime="50.00" overlapTraveltime="50.25" density="15.25" occupancy="7.59" waitingTime="0.00" speed="19.60" departed="0" arrived="0" entered="18" left="18" laneChangedFrom="0" laneChangedTo="0"/>
        <edge id="3/1to4/1" sampledSeconds="896.73" traveltime="50.00" overlapTraveltime="50.25" density="15.25" occupancy="7.59" waitingTime="0.00" speed="19.60" departed="0" arrived="0" entered="18" left="18" laneChangedFrom="0" laneChangedTo="0"/>
        <edge id="4/1to5/1" sampledSeconds="727.07" traveltime="50.00" overlapTraveltime="50.25" density="12.37" occupancy="6.15" waitingTime="0.00" speed="19.60" departed="0" arrived="0" entered="18" left="8" laneChangedFrom="0" laneChangedTo="0"/>
        <edge id="5/1to6/1" sampledSeconds="103.74" traveltime="50.00" overlapTraveltime="50.25" density="1.76" occupancy="0.87" waitingTime="0.00" speed="19.60" departed="0" arrived="0" entered="8" left="0" laneChangedFrom="0" laneChangedTo="0"/>
    </interval>
    <interval begin="180.00" end="240.00" id="dump_60">
        <edge id="1/1to2/1" sampledSeconds="4651.01" traveltime="528.03" overlapTraveltime="526.03" density="79.10" occupancy="39.29" waitingTime="4110.00" speed="1.87" departed="0" arrived="0" entered="0" left="17" laneChangedFrom="0" laneChangedTo="0"/>
        <edge id="2/1to3/1" sampledSeconds="896.91" traveltime="50.00" overlapTraveltime="50.25" density="15.25" occupancy="7.59" waitingTime="0.00" speed="19.60" departed="0" arrived="0" entered="17" left="18" laneChangedFrom="0" laneChangedTo="0"/>
        <edge id="3/1to4/1" sampledSeconds="896.73" traveltime="50.00" overlapTraveltime="50.25" density="15.25" occupancy="7.59" waitingTime="0.00" speed="19.60" departed="0" arrived="0" entered="18" left="18" laneChangedFrom="0" laneChangedTo="0"/>
        <edge id="4/1to5/1" sampledSeconds="896.73" traveltime="50.00" overlapTraveltime="50.25" density="15.25" occupancy="7.59" waitingTime="0.00" speed="19.60" departed="0" arrived="0" entered="18" left="18" laneChangedFrom="0" laneChangedTo="0"/>
        <edge id="5/1to6/1" sampledSeconds="811.48" traveltime="50.00" overlapTraveltime="50.25" density="13.80" occupancy="6.87" waitingTime="0.00" speed="19.60" departed="0" arrived="0" entered="18" left="11" laneChangedFrom="0" laneChangedTo="0"/>
        <edge id="6/1to7/1" sampledSeconds="195.35" traveltime="50.00" overlapTraveltime="50.25" density="3.32" occupancy="1.65" waitingTime="0.00" speed="19.60" departed="0" arrived="0" entered="11" left="0" laneChangedFrom="0" laneChangedTo="0"/>
    </interval>
    <interval begin="240.00" end="300.00" id="dump_60">
        <edge id="1/1to2/1" sampledSeconds="3580.17" traveltime="314.24" overlapTraveltime="313.72" density="60.89" occupancy="30.19" waitingTime="2910.00" speed="3.14" departed="0" arrived="0" entered="0" left="18" laneChangedFrom="0" laneChangedTo="0"/>
        <edge id="2/1to3/1" sampledSeconds="896.73" traveltime="50.00" overlapTraveltime="50.25" density="15.25" occupancy="7.59" waitingTime="0.00" speed="19.60" departed="0" arrived="0" entered="18" left="17" laneChangedFrom="0" laneChangedTo="0"/>
        <edge id="3/1to4/1" sampledSeconds="896.91" traveltime="50.00" overlapTraveltime="50.25" density="15.25" occupancy="7.59" waitingTime="0.00" speed="19.60" departed="0" arrived="0" entered="17" left="17" laneChangedFrom="0" laneChangedTo="0"/>
        <edge id="4/1to5/1" sampledSeconds="896.91" traveltime="50.00" overlapTraveltime="50.25" density="15.25" occupancy="7.59" waitingTime="0.00" speed="19.60" departed="0" arrived="0" entered="17" left="18" laneChangedFrom="0" laneChangedTo="0"/>
        <edge id="5/1to6/1" sampledSeconds="896.73" traveltime="50.00" overlapTraveltime="50.25" density="15.25" occupancy="7.59" waitingTime="0.00" speed="19.60" departed="0" arrived="0" entered="18" left="18" laneChangedFrom="0" laneChangedTo="0"/>
        <edge id="6/1to7/1" sampledSeconds="867.06" traveltime="50.00" overlapTraveltime="50.25" density="14.75" occupancy="7.34" waitingTime="0.00" speed="19.60" departed="0" arrived="0" entered="18" left="14" laneChangedFrom="0" laneChangedTo="0"/>
        <edge id="7/1to8/1" sampledSeconds="315.78" traveltime="50.00" overlapTraveltime="50.25" density="5.37" occupancy="2.67" waitingTime="0.00" speed="19.60" departed="0" arrived="0" entered="14" left="0" laneChangedFrom="0" laneChangedTo="0"/>
    </interval>
    <interval begin="300.00" end="360.00" id="dump_60">
        <edge id="1/1to2/1" sampledSeconds="2509.54" traveltime="179.36" overlapTraveltime="179.43" density="42.68" occupancy="21.08" waitingTime="1710.00" speed="5.49" departed="0" arrived="0" entered="0" left="18" laneChangedFrom="0" laneChangedTo="0"/>
        <edge id="2/1to3/1" sampledSeconds="896.73" traveltime="50.00" overlapTraveltime="50.25" density="15.25" occupancy="7.59" waitingTime="0.00" speed="19.60" departed="0" arrived="0" entered="18" left="18" laneChangedFrom="0" laneChangedTo="0"/>
        <edge id="3/1to4/1" sampledSeconds="896.73" traveltime="50.00" overlapTraveltime="50.25" density="15.25" occupancy="7.59" waitingTime="0.00" speed="19.60" departed="0" arrived="0" entered="18" left="18" laneChangedFrom="0" laneChangedTo="0"/>
        <edge id="4/1to5/1" sampledSeconds="896.74" traveltime="50.00" overlapTraveltime="50.25" density="15.25" occupancy="7.59" waitingTime="0.00" speed="19.60" departed="0" arrived="0" entered="18" left="17" laneChangedFrom="0" laneChangedTo="0"/>
        <edge id="5/1to6/1" sampledSeconds="896.91" traveltime="50.00" overlapTraveltime="50.25" density="15.25" occupancy="7.59" waitingTime="0.00" speed="19.60" departed="0" arrived="0" entered="17" left="18" laneChangedFrom="0" laneChangedTo="0"/>
        <edge id="6/1to7/1" sampledSeconds="896.86" traveltime="50.00" overlapTraveltime="50.25" density="15.25" occupancy="7.59" waitingTime="0.00" speed="19.60" departed="0" arrived="0" entered="17" left="18" laneChangedFrom="0" laneChangedTo="0"/>
        <edge id="7/1to8/1" sampledSeconds="893.81" traveltime="50.00" overlapTraveltime="50.25" density="15.20" occupancy="7.56" waitingTime="0.00" speed="19.60" departed="0" arrived="0" entered="18" left="17" laneChangedFrom="0" laneChangedTo="0"/>
        <edge id="8/1to9/1" sampledSeconds="460.04" traveltime="50.00" overlapTraveltime="50.25" density="7.82" occupancy="3.89" waitingTime="0.00" speed="19.60" departed="0" arrived="0" entered="17" left="2" laneChangedFrom="0" laneChangedTo="0"/>
        <edge id="9/1to10/1" sampledSeconds="5.21" traveltime="50.00" overlapTraveltime="50.25" density="0.09" occupancy="0.04" waitingTime="0.00" speed="19.60" departed="0" arrived="0" entered="2" left="0" laneChangedFrom="0" laneChangedTo="0"/>
    </interval>
    <interval begin="360.00" end="420.00" id="dump_60">
        <edge id="1/1to2/1" sampledSeconds="1441.91" traveltime="86.85" overlapTraveltime="87.09" density="24.52" occupancy="12.00" waitingTime="514.00" speed="11.31" departed="1" arrived="0" entered="0" left="18" laneChangedFrom="0" laneChangedTo="0"/>
        <edge id="10/1to1/1" sampledSeconds="36.42" traveltime="50.00" overlapTraveltime="50.25" density="0.62" occupancy="0.30" waitingTime="0.00" speed="19.60" departed="0" arrived="0" entered="5" left="0" laneChangedFrom="0" laneChangedTo="0"/>
        <edge id="2/1to3/1" sampledSeconds="896.73" traveltime="50.00" overlapTraveltime="50.25" density="15.25" occupancy="7.59" waitingTime="0.00" speed="19.60" departed="0" arrived="0" entered="18" left="18" laneChangedFrom="0" laneChangedTo="0"/>
        <edge id="3/1to4/1" sampledSeconds="896.73" traveltime="50.00" overlapTraveltime="50.25" density="15.25" occupancy="7.59" waitingTime="0.00" speed="19.60" departed="0" arrived="0" entered="18" left="18" laneChangedFrom="0" laneChangedTo="0"/>
        <edge id="4/1to5/1" sampledSeconds="896.73" traveltime="50.00" overlapTraveltime="50.25" density="15.25" occupancy="7.59" waitingTime="0.00" speed="19.60" departed="0" arrived="0" entered="18" left="18" laneChangedFrom="0" laneChangedTo="0"/>
        <edge id="5/1to6/1" sampledSeconds="896.73" traveltime="50.00" overlapTraveltime="50.25" density="15.25" occupancy="7.59" waitingTime="0.00" speed="19.60" departed="0" arrived="0" entered="18" left="17" laneChangedFrom="0" laneChangedTo="0"/>
        <edge id="6/1to7/1" sampledSeconds="896.78" traveltime="50.00" overlapTraveltime="50.25" density="15.25" occupancy="7.59" waitingTime="0.00" speed="19.60" departed="0" arrived="0" entered="18" left="17" laneChangedFrom="0" laneChangedTo="0"/>
        <edge id="7/1to8/1" sampledSeconds="896.91" traveltime="50.00" overlapTraveltime="50.25" density="15.25" occupancy="7.59" waitingTime="0.00" speed="19.60" departed="0" arrived="0" entered="17" left="18" laneChangedFrom="0" laneChangedTo="0"/>
        <edge id="8/1to9/1" sampledSeconds="896.82" traveltime="50.00" overlapTraveltime="50.25" density="15.25" occupancy="7.59" waitingTime="0.00" speed="19.60" departed="0" arrived="0" entered="17" left="18" laneChangedFrom="0" laneChangedTo="0"/>
        <edge id="9/1to10/1" sampledSeconds="602.01" traveltime="50.00" overlapTraveltime="50.25" density="10.24" occupancy="5.09" waitingTime="0.00" speed="19.60" departed="0" arrived="0" entered="18" left="5" laneChangedFrom="0" laneChangedTo="0"/>
    </interval>
    <interval begin="420.00" end="480.00" id="dump_60">
        <edge id="1/1to2/1" sampledSeconds="889.36" traveltime="55.10" overlapTraveltime="55.36" density="15.13" occupancy="7.41" waitingTime="15.00" speed="17.79" departed="15" arrived="0" entered="0" left="17" laneChangedFrom="0" laneChangedTo="0"/>
        <edge id="10/1to1/1" sampledSeconds="813.69" traveltime="59.15" overlapTraveltime="59.45" density="13.84" occupancy="6.90" waitingTime="12.00" speed="16.57" departed="0" arrived="0" entered="17" left="0" laneChangedFrom="0" laneChangedTo="0"/>
        <edge id="2/1to3/1" sampledSeconds="893.54" traveltime="50.00" overlapTraveltime="50.25" density="15.20" occupancy="7.56" waitingTime="0.00" speed="19.60" departed="0" arrived="0" entered="17" left="18" laneChangedFrom="0" laneChangedTo="0"/>
        <edge id="3/1to4/1" sampledSeconds="896.73" traveltime="50.00" overlapTraveltime="50.25" density="15.25" occupancy="7.59" waitingTime="0.00" speed="19.60" departed="0" arrived="0" entered="18" left="18" laneChangedFrom="0" laneChangedTo="0"/>
        <edge id="4/1to5/1" sampledSeconds="896.73" traveltime="50.00" overlapTraveltime="50.25" density="15.25" occupancy="7.59" waitingTime="0.00" speed="19.60" departed="0" arrived="0" entered="18" left="18" laneChangedFrom="0" laneChangedTo="0"/>
        <edge id="5/1to6/1" sampledSeconds="896.73" traveltime="50.00" overlapTraveltime="50.25" density="15.25" occupancy="7.59" waitingTime="0.00" speed="19.60" departed="0" arrived="0" entered="18" left="18" laneChangedFrom="0" laneChangedTo="0"/>
        <edge id="6/1to7/1" sampledSeconds="896.73" traveltime="50.00" overlapTraveltime="50.25" density="15.25" occupancy="7.59" waitingTime="0.00" speed="19.60" departed="0" arrived="0" entered="18" left="18" laneChangedFrom="0" laneChangedTo="0"/>
        <edge id="7/1to8/1" sampledSeconds="896.73" traveltime="50.00" overlapTraveltime="50.25" density="15.25" occupancy="7.59" waitingTime="0.00" speed="19.60" departed="0" arrived="0" entered="18" left="17" laneChangedFrom="0" laneChangedTo="0"/>
        <edge id="8/1to9/1" sampledSeconds="896.82" traveltime="50.00" overlapTraveltime="50.25" density="15.25" occupancy="7.59" waitingTime="0.00" speed="19.60" departed="0" arrived="0" entered="18" left="17" laneChangedFrom="0" laneChangedTo="0"/>
        <edge id="9/1to10/1" sampledSeconds="896.91" traveltime="50.00" overlapTraveltime="50.25" density="15.25" occupancy="7.59" waitingTime="0.00" speed="19.60" departed="0" arrived="0" entered="17" left="18" laneChangedFrom="0" laneChangedTo="0"/>
    </interval>
    <interval begin="480.00" end="540.00" id="dump_60">
        <edge id="1/1to2/1" sampledSeconds="844.47" traveltime="55.54" overlapTraveltime="55.79" density="14.36" occupancy="7.08" waitingTime="15.00" speed="17.65" departed="14" arrived="0" entered="2" left="15" laneChangedFrom="0" laneChangedTo="0"/>
        <edge id="10/1to1/1" sampledSeconds="1841.83" traveltime="133.85" overlapTraveltime="136.73" density="31.33" occupancy="15.54" waitingTime="309.00" speed="7.20" departed="0" arrived="0" entered="18" left="2" laneChangedFrom="0" laneChangedTo="0"/>
        <edge id="2/1to3/1" sampledSeconds="789.54" traveltime="50.00" overlapTraveltime="50.25" density="13.43" occupancy="6.68" waitingTime="0.00" speed="19.60" departed="0" arrived="0" entered="15" left="17" laneChangedFrom="0" laneChangedTo="0"/>
        <edge id="3/1to4/1" sampledSeconds="886.00" traveltime="50.00" overlapTraveltime="50.25" density="15.07" occupancy="7.50" waitingTime="0.00" speed="19.60" departed="0" arrived="0" entered="17" left="18" laneChangedFrom="0" laneChangedTo="0"/>
        <edge id="4/1to5/1" sampledSeconds="896.73" traveltime="50.00" overlapTraveltime="50.25" density="15.25" occupancy="7.59" waitingTime="0.00" speed="19.60" departed="0" arrived="0" entered="18" left="18" laneChangedFrom="0" laneChangedTo="0"/>
        <edge id="5/1to6/1" sampledSeconds="896.73" traveltime="50.00" overlapTraveltime="50.25" density="15.25" occupancy="7.59" waitingTime="0.00" speed="19.60" departed="0" arrived="0" entered="18" left="18" laneChangedFrom="0" laneChangedTo="0"/>
        <edge id="6/1to7/1" sampledSeconds="896.73" traveltime="50.00" overlapTraveltime="50.25" density="15.25" occupancy="7.59" waitingTime="0.00" speed="19.60" departed="0" arrived="0" entered="18" left="18" laneChangedFrom="0" laneChangedTo="0"/>
        <edge id="7/1to8/1" sampledSeconds="896.73" traveltime="50.00" overlapTraveltime="50.25" density="15.25" occupancy="7.59" waitingTime="0.00" speed="19.60" departed="0" arrived="0" entered="18" left="18" laneChangedFrom="0" laneChangedTo="0"/>
        <edge id="8/1to9/1" sampledSeconds="896.73" traveltime="50.00" overlapTraveltime="50.25" density="15.25" occupancy="7.59" waitingTime="0.00" speed="19.60" departed="0" arrived="0" entered="18" left="18" laneChangedFrom="0" laneChangedTo="0"/>
        <edge id="9/1to10/1" sampledSeconds="896.73" traveltime="50.00" overlapTraveltime="50.25" density="15.25" occupancy="7.59" waitingTime="0.00" speed="19.60" departed="0" arrived="0" entered="18" left="17" laneChangedFrom="0" laneChangedTo="0"/>
    </interval>
    <interval begin="540.00" end="600.00" id="dump_60">
        <edge id="1/1to2/1" sampledSeconds="852.19" traveltime="55.39" overlapTraveltime="55.64" density="14.49" occupancy="7.13" waitingTime="16.00" speed="17.70" departed="14" arrived="0" entered="1" left="16" laneChangedFrom="0" laneChangedTo="0"/>
        <edge id="10/1to1/1" sampledSeconds="2812.51" traveltime="308.23" overlapTraveltime="311.30" density="47.83" occupancy="23.85" waitingTime="771.00" speed="3.16" departed="0" arrived="0" entered="18" left="1" laneChangedFrom="0" laneChangedTo="0"/>
        <edge id="2/1to3/1" sampledSeconds="769.44" traveltime="50.00" overlapTraveltime="50.25" density="13.09" occupancy="6.51" waitingTime="0.00" speed="19.60" departed="0" arrived="0" entered="16" left="15" laneChangedFrom="0" laneChangedTo="0"/>
        <edge id="3/1to4/1" sampledSeconds="774.31" traveltime="50.00" overlapTraveltime="50.25" density="13.17" occupancy="6.55" waitingTime="0.00" speed="19.60" departed="0" arrived="0" entered="15" left="16" laneChangedFrom="0" laneChangedTo="0"/>
        <edge id="4/1to5/1" sampledSeconds="873.78" traveltime="50.00" overlapTraveltime="50.25" density="14.86" occupancy="7.39" waitingTime="0.00" speed="19.60" departed="0" arrived="0" entered="16" left="18" laneChangedFrom="0" laneChangedTo="0"/>
        <edge id="5/1to6/1" sampledSeconds="896.73" traveltime="50.00" overlapTraveltime="50.25" density="15.25" occupancy="7.59" waitingTime="0.00" speed="19.60" departed="0" arrived="0" entered="18" left="18" laneChangedFrom="0" laneChangedTo="0"/>
        <edge id="6/1to7/1" sampledSeconds="896.73" traveltime="50.00" overlapTraveltime="50.25" density="15.25" occupancy="7.59" waitingTime="0.00" speed="19.60" departed="0" arrived="0" entered="18" left="18" laneChangedFrom="0" laneChangedTo="0"/>
        <edge id="7/1to8/1" sampledSeconds="896.73" traveltime="50.00" overlapTraveltime="50.25" density="15.25" occupancy="7.59" waitingTime="0.00" speed="19.60" departed="0" arrived="0" entered="18" left="18" laneChangedFrom="0" laneChangedTo="0"/>
        <edge id="8/1to9/1" sampledSeconds="896.73" traveltime="50.00" overlapTraveltime="50.25" density="15.25" occupancy="7.59" waitingTime="0.00" speed="19.60" departed="0" arrived="0" entered="18" left="18" laneChangedFrom="0" laneChangedTo="0"/>
        <edge id="9/1to10/1" sampledSeconds="896.73" traveltime="50.00" overlapTraveltime="50.25" density="15.25" occupancy="7.59" waitingTime="0.00" speed="19.60" departed="0" arrived="0" entered="18" left="18" laneChangedFrom="0" laneChangedTo="0"/>
    </interval>
    <interval begin="600.00" end="660.00" id="dump_60">
        <edge id="1/1to2/1" sampledSeconds="850.94" traveltime="55.38" overlapTraveltime="55.64" density="14.47" occupancy="7.14" waitingTime="14.00" speed="17.70" departed="14" arrived="0" entered="2" left="15" laneChangedFrom="0" laneChangedTo="0"/>
        <edge id="10/1to1/1" sampledSeconds="3776.79" traveltime="785.65" overlapTraveltime="793.09" density="64.23" occupancy="32.00" waitingTime="1261.00" speed="1.24" departed="0" arrived="0" entered="16" left="2" laneChangedFrom="0" laneChangedTo="0"/>
        <edge id="2/1to3/1" sampledSeconds="772.13" traveltime="50.00" overlapTraveltime="50.25" density="13.13" occupancy="6.53" waitingTime="0.00" speed="19.60" departed="0" arrived="0" entered="15" left="15" laneChangedFrom="0" laneChangedTo="0"/>
        <edge id="3/1to4/1" sampledSeconds="771.69" traveltime="50.00" overlapTraveltime="50.25" density="13.12" occupancy="6.53" waitingTime="0.00" speed="19.60" departed="0" arrived="0" entered="15" left="15" laneChangedFrom="0" laneChangedTo="0"/>
        <edge id="4/1to5/1" sampledSeconds="765.20" traveltime="50.00" overlapTraveltime="50.25" density="13.01" occupancy="6.47" waitingTime="0.00" speed="19.60" departed="0" arrived="0" entered="15" left="16" laneChangedFrom="0" laneChangedTo="0"/>
        <edge id="5/1to6/1" sampledSeconds="856.88" traveltime="50.00" overlapTraveltime="50.25" density="14.57" occupancy="7.25" waitingTime="0.00" speed="19.60" departed="0" arrived="0" entered="16" left="18" laneChangedFrom="0" laneChangedTo="0"/>
        <edge id="6/1to7/1" sampledSeconds="896.73" traveltime="50.00" overlapTraveltime="50.25" density="15.25" occupancy="7.59" waitingTime="0.00" speed="19.60" departed="0" arrived="0" entered="18" left="18" laneChangedFrom="0" laneChangedTo="0"/>
        <edge id="7/1to8/1" sampledSeconds="896.73" traveltime="50.00" overlapTraveltime="50.25" density="15.25" occupancy="7.59" waitingTime="0.00" speed="19.60" departed="0" arrived="0" entered="18" left="18" laneChangedFrom="0" laneChangedTo="0"/>
        <edge id="8/1to9/1" sampledSeconds="896.73" traveltime="50.00" overlapTraveltime="50.25" density="15.25" occupancy="7.59" waitingTime="0.00" speed="19.60" departed="0" arrived="0" entered="18" left="18" laneChangedFrom="0" laneChangedTo="0"/>
        <edge id="9/1to10/1" sampledSeconds="913.85" traveltime="51.13" overlapTraveltime="51.53" density="15.54" occupancy="7.72" waitingTime="1.00" speed="19.11" departed="0" arrived="0" entered="18" left="16" laneChangedFrom="0" laneChangedTo="0"/>
    </interval>
    <interval begin="660.00" end="720.00" id="dump_60">
        <edge id="1/1to2/1" sampledSeconds="850.51" traveltime="55.38" overlapTraveltime="55.64" density="14.47" occupancy="7.12" waitingTime="14.00" speed="17.70" departed="14" arrived="0" entered="1" left="16" laneChangedFrom="0" laneChangedTo="0"/>
        <edge id="10/1to1/1" sampledSeconds="4277.13" traveltime="1643.63" overlapTraveltime="1654.07" density="72.74" occupancy="36.26" waitingTime="1591.00" speed="0.60" departed="0" arrived="0" entered="5" left="1" laneChangedFrom="0" laneChangedTo="0"/>
        <edge id="2/1to3/1" sampledSeconds="773.79" traveltime="50.00" overlapTraveltime="50.25" density="13.16" occupancy="6.55" waitingTime="0.00" speed="19.60" departed="0" arrived="0" entered="16" left="16" laneChangedFrom="0" laneChangedTo="0"/>
        <edge id="3/1to4/1" sampledSeconds="772.30" traveltime="50.00" overlapTraveltime="50.25" density="13.14" occupancy="6.53" waitingTime="0.00" speed="19.60" departed="0" arrived="0" entered="16" left="16" laneChangedFrom="0" laneChangedTo="0"/>
        <edge id="4/1to5/1" sampledSeconds="771.96" traveltime="50.00" overlapTraveltime="50.25" density="13.13" occupancy="6.53" waitingTime="0.00" speed="19.60" departed="0" arrived="0" entered="16" left="15" laneChangedFrom="0" laneChangedTo="0"/>
        <edge id="5/1to6/1" sampledSeconds="761.35" traveltime="50.00" overlapTraveltime="50.25" density="12.95" occupancy="6.44" waitingTime="0.00" speed="19.60" departed="0" arrived="0" entered="15" left="15" laneChangedFrom="0" laneChangedTo="0"/>
        <edge id="6/1to7/1" sampledSeconds="835.62" traveltime="50.00" overlapTraveltime="50.25" density="14.21" occupancy="7.07" waitingTime="0.00" speed="19.60" departed="0" arrived="0" entered="15" left="18" laneChangedFrom="0" laneChangedTo="0"/>
        <edge id="7/1to8/1" sampledSeconds="896.73" traveltime="50.00" overlapTraveltime="50.25" density="15.25" occupancy="7.59" waitingTime="0.00" speed="19.60" departed="0" arrived="0" entered="18" left="18" laneChangedFrom="0" laneChangedTo="0"/>
        <edge id="8/1to9/1" sampledSeconds="896.73" traveltime="50.00" overlapTraveltime="50.25" density="15.25" occupancy="7.59" waitingTime="0.00" speed="19.60" departed="0" arrived="0" entered="18" left="18" laneChangedFrom="0" laneChangedTo="0"/>
        <edge id="9/1to10/1" sampledSeconds="1397.28" traveltime="89.08" overlapTraveltime="90.34" density="23.76" occupancy="11.80" waitingTime="104.00" speed="10.90" departed="0" arrived="0" entered="18" left="5" laneChangedFrom="0" laneChangedTo="0"/>
    </interval>
    <interval begin="720.00" end="780.00" id="dump_60">
        <edge id="1/1to2/1" sampledSeconds="849.09" traveltime="55.46" overlapTraveltime="55.71" density="14.44" occupancy="7.13" waitingTime="15.00" speed="17.68" departed="13" arrived="0" entered="2" left="15" laneChangedFrom="0" laneChangedTo="0"/>
        <edge id="10/1to1/1" sampledSeconds="4490.74" traveltime="2213.67" overlapTraveltime="2227.96" density="76.38" occupancy="38.02" waitingTime="1835.00" speed="0.44" departed="0" arrived="0" entered="4" left="2" laneChangedFrom="0" laneChangedTo="0"/>
        <edge id="2/1to3/1" sampledSeconds="770.39" traveltime="50.00" overlapTraveltime="50.25" density="13.10" occupancy="6.52" waitingTime="0.00" speed="19.60" departed="0" arrived="0" entered="15" left="15" laneChangedFrom="0" laneChangedTo="0"/>
        <edge id="3/1to4/1" sampledSeconds="773.60" traveltime="50.00" overlapTraveltime="50.25" density="13.16" occupancy="6.55" waitingTime="0.00" speed="19.60" departed="0" arrived="0" entered="15" left="15" laneChangedFrom="0" laneChangedTo="0"/>
        <edge id="4/1to5/1" sampledSeconds="774.15" traveltime="50.00" overlapTraveltime="50.25" density="13.17" occupancy="6.55" waitingTime="0.00" speed="19.60" departed="0" arrived="0" entered="15" left="15" laneChangedFrom="0" laneChangedTo="0"/>
        <edge id="5/1to6/1" sampledSeconds="772.36" traveltime="50.00" overlapTraveltime="50.25" density="13.14" occupancy="6.54" waitingTime="0.00" speed="19.60" departed="0" arrived="0" entered="15" left="15" laneChangedFrom="0" laneChangedTo="0"/>
        <edge id="6/1to7/1" sampledSeconds="761.88" traveltime="50.00" overlapTraveltime="50.25" density="12.96" occupancy="6.45" waitingTime="0.00" speed="19.60" departed="0" arrived="0" entered="15" left="15" laneChangedFrom="0" laneChangedTo="0"/>
        <edge id="7/1to8/1" sampledSeconds="811.55" traveltime="50.00" overlapTraveltime="50.25" density="13.80" occupancy="6.87" waitingTime="0.00" speed="19.60" departed="0" arrived="0" entered="15" left="17" laneChangedFrom="0" laneChangedTo="0"/>
        <edge id="8/1to9/1" sampledSeconds="894.45" traveltime="50.00" overlapTraveltime="50.25" density="15.21" occupancy="7.57" waitingTime="0.00" speed="19.60" departed="0" arrived="0" entered="17" left="18" laneChangedFrom="0" laneChangedTo="0"/>
        <edge id="9/1to10/1" sampledSeconds="2183.03" traveltime="186.37" overlapTraveltime="188.52" density="37.13" occupancy="18.47" waitingTime="415.00" speed="5.22" departed="0" arrived="0" entered="18" left="5" laneChangedFrom="0" laneChangedTo="0"/>
    </interval>
    <interval begin="780.00" end="840.00" id="dump_60">
        <edge id="1/1to2/1" sampledSeconds="851.27" traveltime="55.41" overlapTraveltime="55.67" density="14.48" occupancy="7.15" waitingTime="14.00" speed="17.69" departed="14" arrived="0" entered="1" left="15" laneChangedFrom="0" laneChangedTo="0"/>
        <edge id="10/1to1/1" sampledSeconds="4593.85" traveltime="2580.14" overlapTraveltime="2597.65" density="78.13" occupancy="38.91" waitingTime="1973.00" speed="0.38" departed="0" arrived="0" entered="3" left="1" laneChangedFrom="0" laneChangedTo="0"/>
        <edge id="2/1to3/1" sampledSeconds="771.85" traveltime="50.00" overlapTraveltime="50.25" density="13.13" occupancy="6.53" waitingTime="0.00" speed="19.60" departed="0" arrived="0" entered="15" left="15" laneChangedFrom="0" laneChangedTo="0"/>
        <edge id="3/1to4/1" sampledSeconds="770.27" traveltime="50.00" overlapTraveltime="50.25" density="13.10" occupancy="6.52" waitingTime="0.00" speed="19.60" departed="0" arrived="0" entered="15" left="16" laneChangedFrom="0" laneChangedTo="0"/>
        <edge id="4/1to5/1" sampledSeconds="771.74" traveltime="50.00" overlapTraveltime="50.25" density="13.13" occupancy="6.53" waitingTime="0.00" speed="19.60" departed="0" arrived="0" entered="15" left="16" laneChangedFrom="0" laneChangedTo="0"/>
        <edge id="5/1to6/1" sampledSeconds="773.43" traveltime="50.00" overlapTraveltime="50.25" density="13.15" occupancy="6.54" waitingTime="0.00" speed="19.60" departed="0" arrived="0" entered="16" left="16" laneChangedFrom="0" laneChangedTo="0"/>