<?xml version="1.0" encoding="UTF-8"?>

<!-- generated on Mon Oct 17 16:26:39 2016 by SUMO Version dev-SVN-r21661
<?xml version="1.0" encoding="UTF-8"?>

<configuration xmlns:xsi="http://www.w3.org/2001/XMLSchema-instance" xsi:noNamespaceSchemaLocation="http://sumo.dlr.de/xsd/sumoConfiguration.xsd">

    <input>
        <net-file value="net.net.xml"/>
        <route-files value="input_routes.rou.xml"/>
        <additional-files value="input_additional.add.xml"/>
    </input>

    <time>
        <end value="1440"/>
    </time>

    <report>
        <verbose value="true"/>
        <xml-validation value="never"/>
        <no-step-log value="true"/>
    </report>

</configuration>
-->

<meandata xmlns:xsi="http://www.w3.org/2001/XMLSchema-instance" xsi:noNamespaceSchemaLocation="http://sumo.dlr.de/xsd/meandata_file.xsd">
    <interval begin="0.00" end="1440.00" id="expect_300_vehs">
        <edge id="in1" sampledSeconds="89250.72" traveltime="2147.14" overlapTraveltime="2165.04" density="125.77" occupancy="31.44" waitingTime="79094.00" speed="0.23" departed="74" arrived="0" entered="0" left="9" laneChangedFrom="34" laneChangedTo="34"/>
        <edge id="in2" sampledSeconds="27855.27" traveltime="40.73" overlapTraveltime="41.12" density="39.36" occupancy="9.84" waitingTime="0.00" speed="12.07" departed="696" arrived="0" entered="0" left="675" laneChangedFrom="659" laneChangedTo="659"/>
        <edge id="out" sampledSeconds="25731.54" traveltime="37.84" overlapTraveltime="38.22" density="35.85" occupancy="17.92" waitingTime="0.00" speed="13.17" departed="0" arrived="665" entered="684" left="1" laneChangedFrom="0" laneChangedTo="0"/>
    </interval>
</meandata>
