<?xml version="1.0" encoding="UTF-8"?>

<!-- generated on Tue Mar 31 12:21:31 2020 by Eclipse SUMO Version v1_5_0+1025-83bc0d0af0
This data file and the accompanying materials
are made available under the terms of the Eclipse Public License v2.0
which accompanies this distribution, and is available at
http://www.eclipse.org/legal/epl-v20.html
SPDX-License-Identifier: EPL-2.0
<configuration xmlns:xsi="http://www.w3.org/2001/XMLSchema-instance" xsi:noNamespaceSchemaLocation="http://sumo.dlr.de/xsd/sumoConfiguration.xsd">

    <input>
        <net-file value="net.net.xml"/>
        <additional-files value="input_routes.rou.xml,input_additional.add.xml,input_additional2.add.xml"/>
    </input>

    <output>
        <write-license value="true"/>
    </output>

    <time>
        <begin value="0"/>
        <end value="150"/>
        <step-length value="0.1"/>
    </time>

    <processing>
        <default.speeddev value="0"/>
        <pedestrian.model value="nonInteracting"/>
    </processing>

    <report>
        <xml-validation value="never"/>
        <duration-log.disable value="true"/>
        <no-step-log value="true"/>
    </report>

    <mesoscopic>
        <mesosim value="true"/>
    </mesoscopic>

    <gui_only>
        <tracker-interval value="0.1"/>
    </gui_only>

</configuration>
-->

<meandata xmlns:xsi="http://www.w3.org/2001/XMLSchema-instance" xsi:noNamespaceSchemaLocation="http://sumo.dlr.de/xsd/meandata_file.xsd">
    <interval begin="0.00" end="60.00" id="dump_60">
        <edge id="3/1to2/1" sampledSeconds="18.90" traveltime="40.00" overlapTraveltime="40.30" density="0.79" laneDensity="0.79" occupancy="0.24" waitingTime="0.00" speed="10.00" departed="0" arrived="0" entered="1" left="0" laneChangedFrom="0" laneChangedTo="0"/>
        <edge id="4/1to3/1" sampledSeconds="40.00" traveltime="40.00" overlapTraveltime="40.30" density="1.67" laneDensity="1.67" occupancy="0.50" waitingTime="0.00" speed="10.00" departed="1" arrived="0" entered="0" left="1" laneChangedFrom="0" laneChangedTo="0"/>
    </interval>
    <interval begin="60.00" end="120.00" id="dump_60">
        <edge id="2/1to1/1" sampledSeconds="38.90" traveltime="40.00" overlapTraveltime="40.30" density="1.62" laneDensity="1.62" occupancy="0.49" waitingTime="0.00" speed="10.00" departed="0" arrived="0" entered="1" left="0" laneChangedFrom="0" laneChangedTo="0"/>
        <edge id="3/1to2/1" sampledSeconds="21.10" traveltime="40.00" overlapTraveltime="40.30" density="0.88" laneDensity="0.88" occupancy="0.26" waitingTime="0.00" speed="10.00" departed="0" arrived="0" entered="0" left="1" laneChangedFrom="0" laneChangedTo="0"/>
    </interval>
    <interval begin="120.00" end="150.00" id="dump_60">
        <edge id="1/1to0/1" sampledSeconds="29.00" traveltime="40.00" overlapTraveltime="40.30" density="2.42" laneDensity="2.42" occupancy="0.72" waitingTime="0.00" speed="10.00" departed="0" arrived="0" entered="1" left="0" laneChangedFrom="0" laneChangedTo="0"/>
        <edge id="2/1to1/1" sampledSeconds="1.10" traveltime="40.00" overlapTraveltime="40.30" density="0.09" laneDensity="0.09" occupancy="0.03" waitingTime="0.00" speed="10.00" departed="0" arrived="0" entered="0" left="1" laneChangedFrom="0" laneChangedTo="0"/>
    </interval>
</meandata>
