<?xml version="1.0" encoding="UTF-8"?>

<!-- generated on Tue Mar 31 12:21:58 2020 by Eclipse SUMO Version v1_5_0+1025-83bc0d0af0
This data file and the accompanying materials
are made available under the terms of the Eclipse Public License v2.0
which accompanies this distribution, and is available at
http://www.eclipse.org/legal/epl-v20.html
SPDX-License-Identifier: EPL-2.0
<configuration xmlns:xsi="http://www.w3.org/2001/XMLSchema-instance" xsi:noNamespaceSchemaLocation="http://sumo.dlr.de/xsd/sumoConfiguration.xsd">

    <input>
        <net-file value="net.net.xml"/>
        <route-files value="input_routes.rou.xml"/>
        <additional-files value="input_additional.add.xml"/>
    </input>

    <output>
        <write-license value="true"/>
    </output>

    <time>
        <step-length value="2"/>
    </time>

    <processing>
        <time-to-teleport value="180"/>
        <max-depart-delay value="0"/>
        <default.speeddev value="0"/>
        <pedestrian.model value="nonInteracting"/>
    </processing>

    <report>
        <xml-validation value="never"/>
        <no-step-log value="true"/>
    </report>

    <mesoscopic>
        <mesosim value="true"/>
        <meso-junction-control value="true"/>
        <meso-recheck value="2"/>
    </mesoscopic>

    <gui_only>
        <tracker-interval value="2"/>
    </gui_only>

</configuration>
-->

<meandata xmlns:xsi="http://www.w3.org/2001/XMLSchema-instance" xsi:noNamespaceSchemaLocation="http://sumo.dlr.de/xsd/meandata_file.xsd">
    <interval begin="0.00" end="180.00" id="test">
        <edge id="-gneE0" sampledSeconds="391.90" traveltime="8.21" overlapTraveltime="8.58" density="19.26" laneDensity="9.63" occupancy="4.82" waitingTime="0.00" speed="13.76" departed="19" arrived="6" entered="30" left="41" laneChangedFrom="0" laneChangedTo="0"/>
        <edge id="-gneE1" sampledSeconds="10.56" traveltime="0.24" overlapTraveltime="0.64" density="19.56" laneDensity="9.78" occupancy="4.89" waitingTime="0.00" speed="12.50" departed="25" arrived="14" entered="19" left="30" laneChangedFrom="0" laneChangedTo="0"/>
        <edge id="-gneE2" sampledSeconds="297.16" traveltime="7.23" overlapTraveltime="7.59" density="16.51" laneDensity="8.25" occupancy="4.13" waitingTime="0.00" speed="13.83" departed="15" arrived="11" entered="27" left="30" laneChangedFrom="0" laneChangedTo="0"/>
        <edge id="-gneE3" sampledSeconds="279.65" traveltime="7.21" overlapTraveltime="7.57" density="15.54" laneDensity="7.77" occupancy="3.88" waitingTime="0.00" speed="13.87" departed="12" arrived="11" entered="27" left="27" laneChangedFrom="0" laneChangedTo="0"/>
        <edge id="-gneE4" sampledSeconds="320.61" traveltime="7.20" overlapTraveltime="7.56" density="17.81" laneDensity="8.91" occupancy="4.45" waitingTime="0.00" speed="13.88" departed="17" arrived="8" entered="29" left="36" laneChangedFrom="0" laneChangedTo="0"/>
        <edge id="-gneE5" sampledSeconds="244.84" traveltime="7.24" overlapTraveltime="7.60" density="13.60" laneDensity="6.80" occupancy="3.40" waitingTime="0.00" speed="13.82" departed="19" arrived="4" entered="15" left="29" laneChangedFrom="0" laneChangedTo="0"/>
        <edge id="-gneE6" sampledSeconds="311.86" traveltime="7.44" overlapTraveltime="7.82" density="17.33" laneDensity="8.66" occupancy="4.33" waitingTime="0.00" speed="13.43" departed="15" arrived="6" entered="27" left="35" laneChangedFrom="0" laneChangedTo="0"/>
        <edge id="-gneE7" sampledSeconds="285.17" traveltime="7.61" overlapTraveltime="7.97" density="15.14" laneDensity="7.57" occupancy="3.79" waitingTime="0.00" speed="13.75" departed="13" arrived="10" entered="26" left="27" laneChangedFrom="0" laneChangedTo="0"/>
        <edge id="CE" sampledSeconds="1061.32" traveltime="17.80" overlapTraveltime="18.69" density="58.96" laneDensity="29.48" occupancy="14.74" waitingTime="0.00" speed="5.62" departed="16" arrived="7" entered="45" left="47" laneChangedFrom="0" laneChangedTo="0"/>
        <edge id="CN" sampledSeconds="416.85" traveltime="9.57" overlapTraveltime="10.05" density="23.16" laneDensity="11.58" occupancy="5.79" waitingTime="0.00" speed="10.45" departed="9" arrived="10" entered="35" left="33" laneChangedFrom="0" laneChangedTo="0"/>
        <edge id="CS" sampledSeconds="1517.10" traveltime="29.68" overlapTraveltime="31.17" density="84.28" laneDensity="42.14" occupancy="21.07" waitingTime="0.00" speed="3.37" departed="22" arrived="10" entered="33" left="27" laneChangedFrom="0" laneChangedTo="0"/>
        <edge id="CW" sampledSeconds="1170.09" traveltime="22.36" overlapTraveltime="23.69" density="77.47" laneDensity="38.73" occupancy="19.37" waitingTime="0.00" speed="3.75" departed="12" arrived="5" entered="43" left="36" laneChangedFrom="0" laneChangedTo="0"/>
        <edge id="EC" sampledSeconds="1779.20" traveltime="27.63" overlapTraveltime="29.01" density="98.84" laneDensity="49.42" occupancy="24.71" waitingTime="0.00" speed="3.62" departed="13" arrived="11" entered="56" left="38" laneChangedFrom="0" laneChangedTo="0"/>
        <edge id="NC" sampledSeconds="1959.83" traveltime="32.92" overlapTraveltime="34.57" density="108.88" laneDensity="54.44" occupancy="27.22" waitingTime="0.00" speed="3.04" departed="17" arrived="5" entered="48" left="36" laneChangedFrom="0" laneChangedTo="0"/>
        <edge id="SC" sampledSeconds="2566.91" traveltime="38.98" overlapTraveltime="40.93" density="142.61" laneDensity="71.30" occupancy="35.65" waitingTime="0.00" speed="2.57" departed="9" arrived="5" entered="60" left="38" laneChangedFrom="0" laneChangedTo="0"/>
        <edge id="WC" sampledSeconds="1463.55" traveltime="25.40" overlapTraveltime="26.91" density="96.90" laneDensity="48.45" occupancy="24.22" waitingTime="0.00" speed="3.30" departed="8" arrived="4" entered="53" left="44" laneChangedFrom="0" laneChangedTo="0"/>
        <edge id="gneE0" sampledSeconds="259.92" traveltime="8.32" overlapTraveltime="8.69" density="12.78" laneDensity="6.39" occupancy="3.19" waitingTime="0.00" speed="13.58" departed="15" arrived="9" entered="17" left="21" laneChangedFrom="0" laneChangedTo="0"/>
        <edge id="gneE1" sampledSeconds="7.06" traveltime="0.24" overlapTraveltime="0.65" density="13.08" laneDensity="6.54" occupancy="3.27" waitingTime="0.00" speed="12.32" departed="8" arrived="6" entered="21" left="23" laneChangedFrom="0" laneChangedTo="0"/>
        <edge id="gneE2" sampledSeconds="210.87" traveltime="7.27" overlapTraveltime="7.64" density="11.72" laneDensity="5.86" occupancy="2.93" waitingTime="0.00" speed="13.75" departed="10" arrived="8" entered="19" left="21" laneChangedFrom="0" laneChangedTo="0"/>
        <edge id="gneE3" sampledSeconds="251.30" traveltime="7.25" overlapTraveltime="7.61" density="13.96" laneDensity="6.98" occupancy="3.49" waitingTime="0.00" speed="13.80" departed="15" arrived="12" entered="21" left="22" laneChangedFrom="0" laneChangedTo="0"/>
        <edge id="gneE4" sampledSeconds="282.33" traveltime="7.24" overlapTraveltime="7.60" density="15.68" laneDensity="7.84" occupancy="3.92" waitingTime="0.00" speed="13.81" departed="17" arrived="12" entered="22" left="27" laneChangedFrom="0" laneChangedTo="0"/>
        <edge id="gneE5" sampledSeconds="347.89" traveltime="8.11" overlapTraveltime="8.51" density="19.33" laneDensity="9.66" occupancy="4.83" waitingTime="0.00" speed="12.34" departed="17" arrived="11" entered="27" left="28" laneChangedFrom="0" laneChangedTo="0"/>
        <edge id="gneE6" sampledSeconds="189.11" traveltime="7.25" overlapTraveltime="7.61" density="10.51" laneDensity="5.25" occupancy="2.63" waitingTime="0.00" speed="13.80" departed="12" arrived="5" entered="15" left="20" laneChangedFrom="0" laneChangedTo="0"/>
        <edge id="gneE7" sampledSeconds="243.21" traveltime="7.67" overlapTraveltime="8.04" density="12.91" laneDensity="6.46" occupancy="3.23" waitingTime="0.00" speed="13.64" departed="12" arrived="11" entered="20" left="19" laneChangedFrom="0" laneChangedTo="0"/>
    </interval>
    <interval begin="180.00" end="360.00" id="test">
        <edge id="-gneE0" sampledSeconds="1349.10" traveltime="34.21" overlapTraveltime="35.72" density="66.32" laneDensity="33.16" occupancy="16.58" waitingTime="0.00" speed="3.30" departed="14" arrived="10" entered="28" left="18" laneChangedFrom="0" laneChangedTo="0"/>
        <edge id="-gneE1" sampledSeconds="9.01" traveltime="0.24" overlapTraveltime="0.63" density="16.69" laneDensity="8.34" occupancy="4.17" waitingTime="0.00" speed="12.65" departed="15" arrived="10" entered="23" left="28" laneChangedFrom="0" laneChangedTo="0"/>
        <edge id="-gneE2" sampledSeconds="785.39" traveltime="21.61" overlapTraveltime="22.69" density="43.63" laneDensity="21.82" occupancy="10.91" waitingTime="0.00" speed="4.63" departed="19" arrived="4" entered="19" left="26" laneChangedFrom="0" laneChangedTo="0"/>
        <edge id="-gneE3" sampledSeconds="206.78" traveltime="7.33" overlapTraveltime="7.69" density="11.49" laneDensity="5.74" occupancy="2.87" waitingTime="0.00" speed="13.65" departed="15" arrived="10" entered="14" left="19" laneChangedFrom="0" laneChangedTo="0"/>
        <edge id="-gneE4" sampledSeconds="1011.46" traveltime="27.81" overlapTraveltime="29.20" density="56.19" laneDensity="28.10" occupancy="14.05" waitingTime="0.00" speed="3.60" departed="11" arrived="12" entered="29" left="13" laneChangedFrom="0" laneChangedTo="0"/>
        <edge id="-gneE5" sampledSeconds="252.44" traveltime="7.20" overlapTraveltime="7.56" density="14.02" laneDensity="7.01" occupancy="3.51" waitingTime="0.00" speed="13.89" departed="15" arrived="5" entered="21" left="29" laneChangedFrom="0" laneChangedTo="0"/>
        <edge id="-gneE6" sampledSeconds="826.81" traveltime="21.09" overlapTraveltime="22.15" density="45.93" laneDensity="22.97" occupancy="11.48" waitingTime="0.00" speed="4.74" departed="15" arrived="3" entered="28" left="27" laneChangedFrom="0" laneChangedTo="0"/>
        <edge id="-gneE7" sampledSeconds="231.41" traveltime="7.58" overlapTraveltime="7.94" density="12.29" laneDensity="6.14" occupancy="3.07" waitingTime="0.00" speed="13.80" departed="19" arrived="3" entered="10" left="28" laneChangedFrom="0" laneChangedTo="0"/>
        <edge id="CE" sampledSeconds="2224.08" traveltime="58.35" overlapTraveltime="61.27" density="123.56" laneDensity="61.78" occupancy="30.89" waitingTime="8.03" speed="1.71" departed="14" arrived="6" entered="27" left="20" laneChangedFrom="0" laneChangedTo="0"/>
        <edge id="CN" sampledSeconds="1633.04" traveltime="37.06" overlapTraveltime="38.91" density="90.72" laneDensity="45.36" occupancy="22.68" waitingTime="0.00" speed="2.70" departed="17" arrived="14" entered="29" left="16" laneChangedFrom="0" laneChangedTo="0"/>
        <edge id="CS" sampledSeconds="4008.76" traveltime="131.09" overlapTraveltime="137.65" density="222.71" laneDensity="111.35" occupancy="55.68" waitingTime="354.56" speed="0.76" departed="13" arrived="5" entered="17" left="17" laneChangedFrom="0" laneChangedTo="0"/>
        <edge id="CW" sampledSeconds="3439.53" traveltime="169.82" overlapTraveltime="179.94" density="227.73" laneDensity="113.86" occupancy="56.93" waitingTime="1332.49" speed="0.49" departed="8" arrived="7" entered="11" left="4" laneChangedFrom="0" laneChangedTo="0"/>
        <edge id="EC" sampledSeconds="4553.14" traveltime="204.12" overlapTraveltime="214.32" density="252.95" laneDensity="126.48" occupancy="63.24" waitingTime="957.99" speed="0.49" departed="1" arrived="4" entered="20" left="11" laneChangedFrom="0" laneChangedTo="0"/>
        <edge id="NC" sampledSeconds="4421.21" traveltime="152.63" overlapTraveltime="160.26" density="245.62" laneDensity="122.81" occupancy="61.41" waitingTime="556.18" speed="0.66" departed="4" arrived="2" entered="21" left="21" laneChangedFrom="0" laneChangedTo="0"/>
        <edge id="SC" sampledSeconds="4362.72" traveltime="105.60" overlapTraveltime="110.88" density="242.37" laneDensity="121.19" occupancy="60.59" waitingTime="1379.41" speed="0.95" departed="8" arrived="4" entered="32" left="36" laneChangedFrom="0" laneChangedTo="0"/>
        <edge id="WC" sampledSeconds="3842.69" traveltime="146.04" overlapTraveltime="154.74" density="254.42" laneDensity="127.21" occupancy="63.60" waitingTime="383.89" speed="0.57" departed="3" arrived="0" entered="22" left="16" laneChangedFrom="0" laneChangedTo="0"/>
        <edge id="gneE0" sampledSeconds="430.47" traveltime="25.58" overlapTraveltime="26.71" density="21.16" laneDensity="10.58" occupancy="5.29" waitingTime="0.00" speed="4.42" departed="13" arrived="3" entered="4" left="9" laneChangedFrom="0" laneChangedTo="0"/>
        <edge id="gneE1" sampledSeconds="113.86" traveltime="10.37" overlapTraveltime="27.66" density="210.84" laneDensity="105.42" occupancy="52.71" waitingTime="106.08" speed="0.29" departed="2" arrived="2" entered="9" left="8" laneChangedFrom="0" laneChangedTo="0"/>
        <edge id="gneE2" sampledSeconds="168.44" traveltime="7.23" overlapTraveltime="7.60" density="9.36" laneDensity="4.68" occupancy="2.34" waitingTime="0.00" speed="13.82" departed="18" arrived="6" entered="6" left="17" laneChangedFrom="0" laneChangedTo="0"/>
        <edge id="gneE3" sampledSeconds="1295.58" traveltime="50.24" overlapTraveltime="52.75" density="71.98" laneDensity="35.99" occupancy="17.99" waitingTime="0.00" speed="1.99" departed="12" arrived="4" entered="17" left="13" laneChangedFrom="0" laneChangedTo="0"/>
        <edge id="gneE4" sampledSeconds="157.33" traveltime="7.21" overlapTraveltime="7.57" density="8.74" laneDensity="4.37" occupancy="2.19" waitingTime="0.00" speed="13.88" departed="10" arrived="6" entered="12" left="15" laneChangedFrom="0" laneChangedTo="0"/>
        <edge id="gneE5" sampledSeconds="538.82" traveltime="20.43" overlapTraveltime="21.45" density="29.93" laneDensity="14.97" occupancy="7.48" waitingTime="0.00" speed="4.90" departed="11" arrived="7" entered="15" left="16" laneChangedFrom="0" laneChangedTo="0"/>
        <edge id="gneE6" sampledSeconds="179.18" traveltime="7.32" overlapTraveltime="7.69" density="9.95" laneDensity="4.98" occupancy="2.49" waitingTime="0.00" speed="13.66" departed="17" arrived="5" entered="7" left="20" laneChangedFrom="0" laneChangedTo="0"/>
        <edge id="gneE7" sampledSeconds="1302.76" traveltime="49.47" overlapTraveltime="51.83" density="69.18" laneDensity="34.59" occupancy="17.29" waitingTime="0.00" speed="2.11" departed="12" arrived="1" entered="20" left="14" laneChangedFrom="0" laneChangedTo="0"/>
    </interval>
    <interval begin="360.00" end="540.00" id="test">
        <edge id="-gneE0" sampledSeconds="4586.93" traveltime="179.17" overlapTraveltime="187.09" density="225.47" laneDensity="112.74" occupancy="56.37" waitingTime="1615.57" speed="0.63" departed="8" arrived="3" entered="17" left="8" laneChangedFrom="0" laneChangedTo="0"/>
        <edge id="-gneE1" sampledSeconds="55.22" traveltime="2.91" overlapTraveltime="7.76" density="102.27" laneDensity="51.13" occupancy="25.57" waitingTime="50.80" speed="1.03" departed="12" arrived="1" entered="7" left="17" laneChangedFrom="0" laneChangedTo="0"/>
        <edge id="-gneE2" sampledSeconds="3276.42" traveltime="124.79" overlapTraveltime="131.03" density="182.02" laneDensity="91.01" occupancy="45.51" waitingTime="1006.02" speed="0.80" departed="13" arrived="2" entered="14" left="8" laneChangedFrom="0" laneChangedTo="0"/>
        <edge id="-gneE3" sampledSeconds="133.98" traveltime="8.40" overlapTraveltime="8.82" density="7.44" laneDensity="3.72" occupancy="1.86" waitingTime="0.00" speed="11.91" departed="10" arrived="1" entered="5" left="14" laneChangedFrom="0" laneChangedTo="0"/>
        <edge id="-gneE4" sampledSeconds="4349.71" traveltime="212.45" overlapTraveltime="223.07" density="241.65" laneDensity="120.83" occupancy="60.41" waitingTime="1528.59" speed="0.47" departed="4" arrived="2" entered="13" left="6" laneChangedFrom="0" laneChangedTo="0"/>
        <edge id="-gneE5" sampledSeconds="899.84" traveltime="39.10" overlapTraveltime="41.06" density="49.99" laneDensity="25.00" occupancy="12.50" waitingTime="0.00" speed="2.56" departed="19" arrived="1" entered="6" left="13" laneChangedFrom="0" laneChangedTo="0"/>
        <edge id="-gneE6" sampledSeconds="4101.87" traveltime="158.64" overlapTraveltime="166.57" density="227.88" laneDensity="113.94" occupancy="56.97" waitingTime="1193.94" speed="0.63" departed="9" arrived="4" entered="15" left="8" laneChangedFrom="0" laneChangedTo="0"/>
        <edge id="-gneE7" sampledSeconds="660.57" traveltime="25.49" overlapTraveltime="26.70" density="35.08" laneDensity="17.54" occupancy="8.77" waitingTime="0.00" speed="4.11" departed="20" arrived="2" entered="7" left="15" laneChangedFrom="0" laneChangedTo="0"/>
        <edge id="CE" sampledSeconds="4551.35" traveltime="402.48" overlapTraveltime="422.61" density="252.85" laneDensity="126.43" occupancy="63.21" waitingTime="2221.76" speed="0.25" departed="5" arrived="2" entered="4" left="3" laneChangedFrom="0" laneChangedTo="0"/>
        <edge id="CN" sampledSeconds="4191.55" traveltime="248.76" overlapTraveltime="261.20" density="232.86" laneDensity="116.43" occupancy="58.22" waitingTime="2006.35" speed="0.40" departed="8" arrived="2" entered="8" left="5" laneChangedFrom="0" laneChangedTo="0"/>
        <edge id="CS" sampledSeconds="4652.37" traveltime="694.13" overlapTraveltime="728.84" density="258.47" laneDensity="129.23" occupancy="64.62" waitingTime="3698.56" speed="0.14" departed="2" arrived="2" entered="3" left="3" laneChangedFrom="0" laneChangedTo="0"/>
        <edge id="CW" sampledSeconds="3959.98" traveltime="1809.60" overlapTraveltime="1917.43" density="262.18" laneDensity="131.09" occupancy="65.55" waitingTime="3840.91" speed="0.05" departed="0" arrived="0" entered="2" left="2" laneChangedFrom="0" laneChangedTo="0"/>
        <edge id="EC" sampledSeconds="4678.20" traveltime="797.33" overlapTraveltime="837.20" density="259.90" laneDensity="129.95" occupancy="64.97" waitingTime="3824.55" speed="0.13" departed="1" arrived="0" entered="2" left="3" laneChangedFrom="0" laneChangedTo="0"/>
        <edge id="NC" sampledSeconds="4675.66" traveltime="763.05" overlapTraveltime="801.20" density="259.76" laneDensity="129.88" occupancy="64.94" waitingTime="3783.59" speed="0.13" departed="0" arrived="0" entered="5" left="5" laneChangedFrom="0" laneChangedTo="0"/>
        <edge id="SC" sampledSeconds="4676.75" traveltime="640.94" overlapTraveltime="672.99" density="259.82" laneDensity="129.91" occupancy="64.95" waitingTime="3883.01" speed="0.16" departed="0" arrived="0" entered="6" left="6" laneChangedFrom="0" laneChangedTo="0"/>
        <edge id="WC" sampledSeconds="3957.34" traveltime="938.40" overlapTraveltime="994.32" density="262.01" laneDensity="131.00" occupancy="65.50" waitingTime="3156.43" speed="0.09" departed="1" arrived="0" entered="5" left="4" laneChangedFrom="0" laneChangedTo="0"/>
        <edge id="gneE0" sampledSeconds="1844.56" traveltime="183.90" overlapTraveltime="192.04" density="90.67" laneDensity="45.34" occupancy="22.67" waitingTime="403.81" speed="0.61" departed="11" arrived="0" entered="1" left="2" laneChangedFrom="0" laneChangedTo="0"/>
        <edge id="gneE1" sampledSeconds="178.32" traveltime="88.48" overlapTraveltime="235.94" density="266.67" laneDensity="133.33" occupancy="82.55" waitingTime="178.32" speed="0.03" departed="0" arrived="0" entered="2" left="2" laneChangedFrom="0" laneChangedTo="0"/>
        <edge id="gneE2" sampledSeconds="1102.63" traveltime="52.49" overlapTraveltime="55.12" density="61.26" laneDensity="30.63" occupancy="15.31" waitingTime="0.00" speed="1.90" departed="20" arrived="1" entered="3" left="8" laneChangedFrom="0" laneChangedTo="0"/>
        <edge id="gneE3" sampledSeconds="4456.44" traveltime="294.46" overlapTraveltime="309.18" density="247.58" laneDensity="123.79" occupancy="61.89" waitingTime="900.00" speed="0.34" departed="4" arrived="0" entered="8" left="0" laneChangedFrom="0" laneChangedTo="0"/>
        <edge id="gneE4" sampledSeconds="231.59" traveltime="13.93" overlapTraveltime="14.63" density="12.87" laneDensity="6.43" occupancy="3.22" waitingTime="0.00" speed="7.18" departed="16" arrived="2" entered="2" left="11" laneChangedFrom="0" laneChangedTo="0"/>
        <edge id="gneE5" sampledSeconds="3343.18" traveltime="160.62" overlapTraveltime="168.65" density="185.73" laneDensity="92.87" occupancy="46.43" waitingTime="1033.58" speed="0.62" departed="12" arrived="0" entered="11" left="5" laneChangedFrom="0" laneChangedTo="0"/>
        <edge id="gneE6" sampledSeconds="645.55" traveltime="38.93" overlapTraveltime="40.88" density="35.86" laneDensity="17.93" occupancy="8.97" waitingTime="0.00" speed="2.57" departed="14" arrived="0" entered="4" left="9" laneChangedFrom="0" laneChangedTo="0"/>
        <edge id="gneE7" sampledSeconds="4580.78" traveltime="296.32" overlapTraveltime="310.48" density="243.25" laneDensity="121.62" occupancy="60.81" waitingTime="540.00" speed="0.35" departed="2" arrived="1" entered="9" left="2" laneChangedFrom="0" laneChangedTo="0"/>
    </interval>
    <interval begin="540.00" end="720.00" id="test">
        <edge id="-gneE0" sampledSeconds="5398.00" traveltime="931.06" overlapTraveltime="972.25" density="265.34" laneDensity="132.67" occupancy="66.34" waitingTime="4290.32" speed="0.12" departed="1" arrived="1" entered="3" left="3" laneChangedFrom="0" laneChangedTo="0"/>
        <edge id="-gneE1" sampledSeconds="156.79" traveltime="46.92" overlapTraveltime="125.11" density="266.67" laneDensity="133.33" occupancy="72.59" waitingTime="148.32" speed="0.06" departed="3" arrived="1" entered="1" left="3" laneChangedFrom="0" laneChangedTo="0"/>
        <edge id="-gneE2" sampledSeconds="4678.49" traveltime="1229.97" overlapTraveltime="1291.47" density="259.92" laneDensity="129.96" occupancy="64.98" waitingTime="3517.69" speed="0.08" departed="0" arrived="0" entered="1" left="1" laneChangedFrom="0" laneChangedTo="0"/>
        <edge id="-gneE3" sampledSeconds="2355.77" traveltime="115.42" overlapTraveltime="121.19" density="130.88" laneDensity="65.44" occupancy="32.72" waitingTime="99.20" speed="0.87" departed="21" arrived="0" entered="3" left="1" laneChangedFrom="0" laneChangedTo="0"/>
        <edge id="-gneE4" sampledSeconds="4679.11" traveltime="2054.30" overlapTraveltime="2157.02" density="259.95" laneDensity="129.98" occupancy="64.99" waitingTime="4605.87" speed="0.05" departed="0" arrived="0" entered="2" left="2" laneChangedFrom="0" laneChangedTo="0"/>
        <edge id="-gneE5" sampledSeconds="3419.53" traveltime="244.60" overlapTraveltime="256.83" density="189.97" laneDensity="94.99" occupancy="47.49" waitingTime="1277.53" speed="0.41" departed="14" arrived="0" entered="1" left="2" laneChangedFrom="0" laneChangedTo="0"/>
        <edge id="-gneE6" sampledSeconds="4662.67" traveltime="1055.78" overlapTraveltime="1108.57" density="259.04" laneDensity="129.52" occupancy="64.76" waitingTime="4165.04" speed="0.09" departed="1" arrived="1" entered="2" left="2" laneChangedFrom="0" laneChangedTo="0"/>
        <edge id="-gneE7" sampledSeconds="3405.79" traveltime="208.02" overlapTraveltime="217.96" density="180.86" laneDensity="90.43" occupancy="45.21" waitingTime="1285.85" speed="0.50" departed="18" arrived="0" entered="1" left="2" laneChangedFrom="0" laneChangedTo="0"/>
        <edge id="CE" sampledSeconds="4673.12" traveltime="1332.79" overlapTraveltime="1399.43" density="259.62" laneDensity="129.81" occupancy="64.90" waitingTime="4473.93" speed="0.08" departed="2" arrived="1" entered="3" left="4" laneChangedFrom="0" laneChangedTo="0"/>
        <edge id="CN" sampledSeconds="4675.03" traveltime="1553.43" overlapTraveltime="1631.10" density="259.72" laneDensity="129.86" occupancy="64.93" waitingTime="4290.16" speed="0.06" departed="0" arrived="0" entered="3" left="3" laneChangedFrom="0" laneChangedTo="0"/>
        <edge id="CS" sampledSeconds="4679.21" traveltime="2006.57" overlapTraveltime="2106.90" density="259.96" laneDensity="129.98" occupancy="64.99" waitingTime="4588.83" speed="0.05" departed="0" arrived="0" entered="8" left="3" laneChangedFrom="0" laneChangedTo="0"/>
        <edge id="CW" sampledSeconds="3956.10" traveltime="977.27" overlapTraveltime="1035.50" density="261.93" laneDensity="130.96" occupancy="65.48" waitingTime="3840.91" speed="0.09" departed="0" arrived="1" entered="5" left="4" laneChangedFrom="0" laneChangedTo="0"/>
        <edge id="EC" sampledSeconds="4678.90" traveltime="678.71" overlapTraveltime="712.65" density="259.94" laneDensity="129.97" occupancy="64.98" waitingTime="3922.82" speed="0.15" departed="2" arrived="3" entered="9" left="5" laneChangedFrom="0" laneChangedTo="0"/>
        <edge id="NC" sampledSeconds="4677.44" traveltime="1533.15" overlapTraveltime="1609.81" density="259.86" laneDensity="129.93" occupancy="64.96" waitingTime="4400.51" speed="0.07" departed="0" arrived="0" entered="7" left="4" laneChangedFrom="0" laneChangedTo="0"/>
        <edge id="SC" sampledSeconds="4677.97" traveltime="1542.40" overlapTraveltime="1619.52" density="259.89" laneDensity="129.94" occupancy="64.97" waitingTime="4336.73" speed="0.06" departed="0" arrived="0" entered="5" left="4" laneChangedFrom="0" laneChangedTo="0"/>
        <edge id="WC" sampledSeconds="3956.57" traveltime="1347.49" overlapTraveltime="1427.79" density="261.96" laneDensity="130.98" occupancy="65.49" waitingTime="3566.89" speed="0.06" departed="0" arrived="0" entered="6" left="3" laneChangedFrom="0" laneChangedTo="0"/>
        <edge id="gneE0" sampledSeconds="4013.98" traveltime="256.75" overlapTraveltime="268.11" density="197.31" laneDensity="98.65" occupancy="49.33" waitingTime="1431.44" speed="0.44" departed="15" arrived="2" entered="2" left="4" laneChangedFrom="0" laneChangedTo="0"/>
        <edge id="gneE1" sampledSeconds="176.63" traveltime="44.21" overlapTraveltime="117.90" density="266.67" laneDensity="133.33" occupancy="81.77" waitingTime="161.98" speed="0.07" departed="0" arrived="0" entered="4" left="4" laneChangedFrom="0" laneChangedTo="0"/>
        <edge id="gneE2" sampledSeconds="3643.38" traveltime="248.27" overlapTraveltime="260.69" density="202.41" laneDensity="101.20" occupancy="50.60" waitingTime="1296.49" speed="0.40" departed="13" arrived="0" entered="2" left="4" laneChangedFrom="0" laneChangedTo="0"/>
        <edge id="gneE3" sampledSeconds="4675.72" traveltime="988.03" overlapTraveltime="1037.43" density="259.76" laneDensity="129.88" occupancy="64.94" waitingTime="4172.21" speed="0.10" departed="0" arrived="0" entered="4" left="4" laneChangedFrom="0" laneChangedTo="0"/>
        <edge id="gneE4" sampledSeconds="2261.20" traveltime="179.67" overlapTraveltime="188.66" density="125.62" laneDensity="62.81" occupancy="31.41" waitingTime="645.20" speed="0.56" departed="13" arrived="0" entered="0" left="1" laneChangedFrom="0" laneChangedTo="0"/>
        <edge id="gneE5" sampledSeconds="4679.51" traveltime="1372.71" overlapTraveltime="1441.35" density="259.97" laneDensity="129.99" occupancy="64.99" waitingTime="3524.71" speed="0.07" departed="0" arrived="0" entered="1" left="1" laneChangedFrom="0" laneChangedTo="0"/>
        <edge id="gneE6" sampledSeconds="2650.70" traveltime="174.20" overlapTraveltime="182.91" density="147.26" laneDensity="73.63" occupancy="36.82" waitingTime="921.60" speed="0.57" departed="16" arrived="1" entered="2" left="2" laneChangedFrom="0" laneChangedTo="0"/>
        <edge id="gneE7" sampledSeconds="4859.16" traveltime="2216.39" overlapTraveltime="2322.32" density="258.03" laneDensity="129.02" occupancy="64.51" waitingTime="4754.36" speed="0.05" departed="0" arrived="0" entered="4" left="1" laneChangedFrom="0" laneChangedTo="0"/>
    </interval>
    <interval begin="720.00" end="900.00" id="test">
        <edge id="-gneE0" sampledSeconds="5396.20" traveltime="1823.26" overlapTraveltime="1903.92" density="265.25" laneDensity="132.63" occupancy="66.31" waitingTime="4860.00" speed="0.06" departed="1" arrived="1" entered="1" left="1" laneChangedFrom="0" laneChangedTo="0"/>
        <edge id="-gneE1" sampledSeconds="156.35" traveltime="93.11" overlapTraveltime="248.29" density="266.67" laneDensity="133.33" occupancy="72.39" waitingTime="156.35" speed="0.03" departed="1" arrived="0" entered="0" left="1" laneChangedFrom="0" laneChangedTo="0"/>
        <edge id="-gneE2" sampledSeconds="4678.97" traveltime="3847.24" overlapTraveltime="4039.60" density="259.94" laneDensity="129.97" occupancy="64.99" waitingTime="4424.97" speed="0.03" departed="1" arrived="0" entered="4" left="1" laneChangedFrom="0" laneChangedTo="0"/>
        <edge id="-gneE3" sampledSeconds="4629.95" traveltime="787.46" overlapTraveltime="826.84" density="257.22" laneDensity="128.61" occupancy="64.30" waitingTime="3176.48" speed="0.13" departed="2" arrived="0" entered="1" left="1" laneChangedFrom="0" laneChangedTo="0"/>
        <edge id="-gneE4" sampledSeconds="4668.81" traveltime="1201.27" overlapTraveltime="1261.33" density="259.38" laneDensity="129.69" occupancy="64.84" waitingTime="4325.03" speed="0.08" departed="1" arrived="1" entered="3" left="3" laneChangedFrom="0" laneChangedTo="0"/>
        <edge id="-gneE5" sampledSeconds="4659.99" traveltime="908.03" overlapTraveltime="953.43" density="258.89" laneDensity="129.44" occupancy="64.72" waitingTime="3189.99" speed="0.11" departed="3" arrived="0" entered="0" left="3" laneChangedFrom="0" laneChangedTo="0"/>
        <edge id="-gneE6" sampledSeconds="4678.97" traveltime="3545.13" overlapTraveltime="3722.39" density="259.94" laneDensity="129.97" occupancy="64.99" waitingTime="4258.83" speed="0.03" departed="0" arrived="0" entered="1" left="1" laneChangedFrom="0" laneChangedTo="0"/>
        <edge id="-gneE7" sampledSeconds="4859.50" traveltime="1183.25" overlapTraveltime="1239.80" density="258.05" laneDensity="129.03" occupancy="64.51" waitingTime="3539.85" speed="0.09" departed="0" arrived="0" entered="1" left="1" laneChangedFrom="0" laneChangedTo="0"/>