<?xml version="1.0" encoding="UTF-8"?>

<!-- generated on Wed Mar 11 22:22:48 2020 by Eclipse SUMO Version v1_5_0+0662-a598ecae47
This data file and the accompanying materials
are made available under the terms of the Eclipse Public License v2.0
which accompanies this distribution, and is available at
http://www.eclipse.org/legal/epl-v20.html
SPDX-License-Identifier: EPL-2.0
<configuration xmlns:xsi="http://www.w3.org/2001/XMLSchema-instance" xsi:noNamespaceSchemaLocation="http://sumo.dlr.de/xsd/sumoConfiguration.xsd">

    <input>
        <net-file value="net.net.xml"/>
        <route-files value="input_routes.rou.xml"/>
    </input>

    <output>
        <write-license value="true"/>
        <fcd-output value="fcd.xml"/>
    </output>

    <processing>
        <default.speeddev value="0"/>
    </processing>

    <report>
        <xml-validation value="never"/>
        <duration-log.disable value="true"/>
        <no-step-log value="true"/>
    </report>

</configuration>
-->

<fcd-export xmlns:xsi="http://www.w3.org/2001/XMLSchema-instance" xsi:noNamespaceSchemaLocation="http://sumo.dlr.de/xsd/fcd_file.xsd">
    <timestep time="0.00"/>
    <timestep time="1.00">
        <vehicle id="veh0" x="0.00" y="-1.65" angle="90.00" type="Car" speed="0.00" pos="0.00" lane="1to2_0" slope="0.00"/>
    </timestep>
    <timestep time="2.00">
        <vehicle id="veh0" x="2.60" y="-1.65" angle="90.00" type="Car" speed="2.60" pos="2.60" lane="1to2_0" slope="0.00"/>
    </timestep>
    <timestep time="3.00">
        <vehicle id="veh0" x="4.00" y="-1.65" angle="90.00" type="Car" speed="1.40" pos="4.00" lane="1to2_0" slope="0.00"/>
    </timestep>
    <timestep time="4.00">
        <vehicle id="veh0" x="4.00" y="-4.85" angle="90.00" type="Car" speed="0.00" pos="4.00" lane="1to2_0" slope="0.00"/>
    </timestep>
    <timestep time="5.00">
        <vehicle id="veh0" x="4.00" y="-4.85" angle="90.00" type="Car" speed="0.00" pos="4.00" lane="1to2_0" slope="0.00"/>
    </timestep>
    <timestep time="6.00">
        <vehicle id="veh0" x="4.00" y="-4.85" angle="90.00" type="Car" speed="0.00" pos="4.00" lane="1to2_0" slope="0.00"/>
    </timestep>
    <timestep time="7.00">
        <vehicle id="veh0" x="4.00" y="-4.85" angle="90.00" type="Car" speed="0.00" pos="4.00" lane="1to2_0" slope="0.00"/>
    </timestep>
    <timestep time="8.00">
        <vehicle id="veh0" x="4.00" y="-4.85" angle="90.00" type="Car" speed="0.00" pos="4.00" lane="1to2_0" slope="0.00"/>
    </timestep>
    <timestep time="9.00">
        <vehicle id="veh0" x="4.00" y="-4.85" angle="90.00" type="Car" speed="0.00" pos="4.00" lane="1to2_0" slope="0.00"/>
    </timestep>
    <timestep time="10.00">
        <vehicle id="veh0" x="4.00" y="-4.85" angle="90.00" type="Car" speed="0.00" pos="4.00" lane="1to2_0" slope="0.00"/>
        <vehicle id="veh1" x="0.00" y="-1.65" angle="90.00" type="Car" speed="0.00" pos="0.00" lane="1to2_0" slope="0.00"/>
    </timestep>
    <timestep time="11.00">
        <vehicle id="veh0" x="4.00" y="-4.85" angle="90.00" type="Car" speed="0.00" pos="4.00" lane="1to2_0" slope="0.00"/>
        <vehicle id="veh1" x="2.60" y="-1.65" angle="90.00" type="Car" speed="2.60" pos="2.60" lane="1to2_0" slope="0.00"/>
    </timestep>
    <timestep time="12.00">
        <vehicle id="veh0" x="4.00" y="-4.85" angle="90.00" type="Car" speed="0.00" pos="4.00" lane="1to2_0" slope="0.00"/>
        <vehicle id="veh1" x="4.00" y="-1.65" angle="90.00" type="Car" speed="1.40" pos="4.00" lane="1to2_0" slope="0.00"/>
    </timestep>
    <timestep time="13.00">
        <vehicle id="veh0" x="4.00" y="-4.85" angle="90.00" type="Car" speed="0.00" pos="4.00" lane="1to2_0" slope="0.00"/>
        <vehicle id="veh1" x="4.00" y="-1.65" angle="90.00" type="Car" speed="0.00" pos="4.00" lane="1to2_0" slope="0.00"/>
    </timestep>
    <timestep time="14.00">
        <vehicle id="veh0" x="4.00" y="-4.85" angle="90.00" type="Car" speed="0.00" pos="4.00" lane="1to2_0" slope="0.00"/>
        <vehicle id="veh1" x="4.00" y="-1.65" angle="90.00" type="Car" speed="0.00" pos="4.00" lane="1to2_0" slope="0.00"/>
    </timestep>
    <timestep time="15.00">
        <vehicle id="veh0" x="4.00" y="-4.85" angle="90.00" type="Car" speed="0.00" pos="4.00" lane="1to2_0" slope="0.00"/>
        <vehicle id="veh1" x="4.00" y="-1.65" angle="90.00" type="Car" speed="0.00" pos="4.00" lane="1to2_0" slope="0.00"/>
    </timestep>
    <timestep time="16.00">
        <vehicle id="veh0" x="4.00" y="-4.85" angle="90.00" type="Car" speed="0.00" pos="4.00" lane="1to2_0" slope="0.00"/>
        <vehicle id="veh1" x="4.00" y="-1.65" angle="90.00" type="Car" speed="0.00" pos="4.00" lane="1to2_0" slope="0.00"/>
    </timestep>
    <timestep time="17.00">
        <vehicle id="veh0" x="4.00" y="-4.85" angle="90.00" type="Car" speed="0.00" pos="4.00" lane="1to2_0" slope="0.00"/>
        <vehicle id="veh1" x="4.00" y="-1.65" angle="90.00" type="Car" speed="0.00" pos="4.00" lane="1to2_0" slope="0.00"/>
    </timestep>
    <timestep time="18.00">
        <vehicle id="veh0" x="4.00" y="-4.85" angle="90.00" type="Car" speed="0.00" pos="4.00" lane="1to2_0" slope="0.00"/>
        <vehicle id="veh1" x="4.00" y="-1.65" angle="90.00" type="Car" speed="0.00" pos="4.00" lane="1to2_0" slope="0.00"/>
    </timestep>
    <timestep time="19.00">
        <vehicle id="veh0" x="4.00" y="-4.85" angle="90.00" type="Car" speed="0.00" pos="4.00" lane="1to2_0" slope="0.00"/>
        <vehicle id="veh1" x="4.00" y="-1.65" angle="90.00" type="Car" speed="0.00" pos="4.00" lane="1to2_0" slope="0.00"/>
    </timestep>
    <timestep time="20.00">
        <vehicle id="veh0" x="4.00" y="-4.85" angle="90.00" type="Car" speed="0.00" pos="4.00" lane="1to2_0" slope="0.00"/>
        <vehicle id="veh1" x="4.00" y="-1.65" angle="90.00" type="Car" speed="0.00" pos="4.00" lane="1to2_0" slope="0.00"/>
    </timestep>
    <timestep time="21.00">
        <vehicle id="veh0" x="4.00" y="-4.85" angle="90.00" type="Car" speed="0.00" pos="4.00" lane="1to2_0" slope="0.00"/>
        <vehicle id="veh1" x="4.00" y="-1.65" angle="90.00" type="Car" speed="0.00" pos="4.00" lane="1to2_0" slope="0.00"/>
    </timestep>
    <timestep time="22.00">
        <vehicle id="veh0" x="4.00" y="-4.85" angle="90.00" type="Car" speed="0.00" pos="4.00" lane="1to2_0" slope="0.00"/>
        <vehicle id="veh1" x="4.00" y="-1.65" angle="90.00" type="Car" speed="0.00" pos="4.00" lane="1to2_0" slope="0.00"/>
    </timestep>
    <timestep time="23.00">
        <vehicle id="veh0" x="4.00" y="-4.85" angle="90.00" type="Car" speed="0.00" pos="4.00" lane="1to2_0" slope="0.00"/>
        <vehicle id="veh1" x="4.00" y="-1.65" angle="90.00" type="Car" speed="0.00" pos="4.00" lane="1to2_0" slope="0.00"/>
    </timestep>
    <timestep time="24.00">
        <vehicle id="veh0" x="4.00" y="-4.85" angle="90.00" type="Car" speed="0.00" pos="4.00" lane="1to2_0" slope="0.00"/>
        <vehicle id="veh1" x="4.00" y="-1.65" angle="90.00" type="Car" speed="0.00" pos="4.00" lane="1to2_0" slope="0.00"/>
    </timestep>
    <timestep time="25.00">
        <vehicle id="veh0" x="4.00" y="-4.85" angle="90.00" type="Car" speed="0.00" pos="4.00" lane="1to2_0" slope="0.00"/>
        <vehicle id="veh1" x="4.00" y="-1.65" angle="90.00" type="Car" speed="0.00" pos="4.00" lane="1to2_0" slope="0.00"/>
    </timestep>
    <timestep time="26.00">
        <vehicle id="veh0" x="4.00" y="-4.85" angle="90.00" type="Car" speed="0.00" pos="4.00" lane="1to2_0" slope="0.00"/>
        <vehicle id="veh1" x="4.00" y="-1.65" angle="90.00" type="Car" speed="0.00" pos="4.00" lane="1to2_0" slope="0.00"/>
    </timestep>
    <timestep time="27.00">
        <vehicle id="veh0" x="4.00" y="-4.85" angle="90.00" type="Car" speed="0.00" pos="4.00" lane="1to2_0" slope="0.00"/>
        <vehicle id="veh1" x="4.00" y="-1.65" angle="90.00" type="Car" speed="0.00" pos="4.00" lane="1to2_0" slope="0.00"/>
    </timestep>
    <timestep time="28.00">
        <vehicle id="veh0" x="4.00" y="-4.85" angle="90.00" type="Car" speed="0.00" pos="4.00" lane="1to2_0" slope="0.00"/>
        <vehicle id="veh1" x="4.00" y="-1.65" angle="90.00" type="Car" speed="0.00" pos="4.00" lane="1to2_0" slope="0.00"/>
    </timestep>
    <timestep time="29.00">
        <vehicle id="veh0" x="4.00" y="-4.85" angle="90.00" type="Car" speed="0.00" pos="4.00" lane="1to2_0" slope="0.00"/>
        <vehicle id="veh1" x="4.00" y="-1.65" angle="90.00" type="Car" speed="0.00" pos="4.00" lane="1to2_0" slope="0.00"/>
    </timestep>
    <timestep time="30.00">
        <vehicle id="veh0" x="4.00" y="-4.85" angle="90.00" type="Car" speed="0.00" pos="4.00" lane="1to2_0" slope="0.00"/>
        <vehicle id="veh1" x="4.00" y="-1.65" angle="90.00" type="Car" speed="0.00" pos="4.00" lane="1to2_0" slope="0.00"/>
    </timestep>
    <timestep time="31.00">
        <vehicle id="veh0" x="4.00" y="-4.85" angle="90.00" type="Car" speed="0.00" pos="4.00" lane="1to2_0" slope="0.00"/>
        <vehicle id="veh1" x="4.00" y="-1.65" angle="90.00" type="Car" speed="0.00" pos="4.00" lane="1to2_0" slope="0.00"/>
    </timestep>
    <timestep time="32.00">
        <vehicle id="veh0" x="4.00" y="-4.85" angle="90.00" type="Car" speed="0.00" pos="4.00" lane="1to2_0" slope="0.00"/>
        <vehicle id="veh1" x="4.00" y="-1.65" angle="90.00" type="Car" speed="0.00" pos="4.00" lane="1to2_0" slope="0.00"/>
    </timestep>
    <timestep time="33.00">
        <vehicle id="veh0" x="4.00" y="-4.85" angle="90.00" type="Car" speed="0.00" pos="4.00" lane="1to2_0" slope="0.00"/>
        <vehicle id="veh1" x="5.00" y="-1.65" angle="90.00" type="Car" speed="1.00" pos="5.00" lane="1to2_0" slope="0.00"/>
    </timestep>
    <timestep time="34.00">
        <vehicle id="veh0" x="4.00" y="-4.85" angle="90.00" type="Car" speed="0.00" pos="4.00" lane="1to2_0" slope="0.00"/>
    </timestep>
    <timestep time="35.00">
        <vehicle id="veh0" x="5.00" y="-1.65" angle="90.00" type="Car" speed="1.00" pos="5.00" lane="1to2_0" slope="0.00"/>
    </timestep>
    <timestep time="36.00"/>
</fcd-export>
