<?xml version="1.0" encoding="UTF-8"?>

<!-- generated on Wed Sep  4 15:29:10 2013 by SUMO sumo Version dev-SVN-r14576
<?xml version="1.0" encoding="UTF-8"?>

<configuration xmlns:xsi="http://www.w3.org/2001/XMLSchema-instance" xsi:noNamespaceSchemaLocation="http://sumo-sim.org/xsd/sumoConfiguration.xsd">

    <input>
        <net-file value="three_split.net.xml"/>
        <route-files value="input_routes.rou.xml"/>
        <additional-files value="input_additional.add.xml"/>
    </input>

    <output>
        <tripinfo-output value="tripinfos.xml"/>
    </output>

    <time>
        <end value="300"/>
    </time>

    <report>
        <no-duration-log value="true"/>
        <no-step-log value="true"/>
    </report>

</configuration>
-->

<tripinfos>
    <tripinfo id="priority.0" depart="0.00" departLane="middle_0" departPos="800.00" departSpeed="27.38" departDelay="0.00" arrival="26.00" arrivalLane="end_0" arrivalPos="495.25" arrivalSpeed="27.38" duration="26.00" routeLength="685.75" waitSteps="0" rerouteNo="0" devices="tripinfo_priority.0" vType="tflow" vaporized=""/>
    <tripinfo id="priority.1" depart="3.00" departLane="middle_0" departPos="800.00" departSpeed="29.59" departDelay="0.00" arrival="27.00" arrivalLane="end_0" arrivalPos="495.25" arrivalSpeed="29.59" duration="24.00" routeLength="685.75" waitSteps="0" rerouteNo="0" devices="tripinfo_priority.1" vType="tflow" vaporized=""/>
    <tripinfo id="priority.2" depart="6.00" departLane="middle_0" departPos="800.00" departSpeed="27.84" departDelay="0.00" arrival="31.00" arrivalLane="end_0" arrivalPos="495.25" arrivalSpeed="27.84" duration="25.00" routeLength="685.75" waitSteps="0" rerouteNo="0" devices="tripinfo_priority.2" vType="tflow" vaporized=""/>
    <tripinfo id="priority.3" depart="9.00" departLane="middle_0" departPos="800.00" departSpeed="27.75" departDelay="0.00" arrival="34.00" arrivalLane="end_0" arrivalPos="495.25" arrivalSpeed="27.75" duration="25.00" routeLength="685.75" waitSteps="0" rerouteNo="0" devices="tripinfo_priority.3" vType="tflow" vaporized=""/>
    <tripinfo id="priority.4" depart="12.00" departLane="middle_0" departPos="800.00" departSpeed="27.73" departDelay="0.00" arrival="37.00" arrivalLane="end_0" arrivalPos="495.25" arrivalSpeed="27.73" duration="25.00" routeLength="685.75" waitSteps="0" rerouteNo="0" devices="tripinfo_priority.4" vType="tflow" vaporized=""/>
    <tripinfo id="priority.5" depart="15.00" departLane="middle_0" departPos="800.00" departSpeed="26.31" departDelay="0.00" arrival="42.00" arrivalLane="end_0" arrivalPos="495.25" arrivalSpeed="26.31" duration="27.00" routeLength="685.75" waitSteps="0" rerouteNo="0" devices="tripinfo_priority.5" vType="tflow" vaporized=""/>
    <tripinfo id="priority.6" depart="18.00" departLane="middle_0" departPos="800.00" departSpeed="27.64" departDelay="0.00" arrival="43.00" arrivalLane="end_0" arrivalPos="495.25" arrivalSpeed="27.64" duration="25.00" routeLength="685.75" waitSteps="0" rerouteNo="0" devices="tripinfo_priority.6" vType="tflow" vaporized=""/>
    <tripinfo id="priority.7" depart="21.00" departLane="middle_0" departPos="800.00" departSpeed="28.15" departDelay="0.00" arrival="46.00" arrivalLane="end_0" arrivalPos="495.25" arrivalSpeed="28.15" duration="25.00" routeLength="685.75" waitSteps="0" rerouteNo="0" devices="tripinfo_priority.7" vType="tflow" vaporized=""/>
    <tripinfo id="priority.8" depart="24.00" departLane="middle_0" departPos="800.00" departSpeed="27.30" departDelay="0.00" arrival="50.00" arrivalLane="end_0" arrivalPos="495.25" arrivalSpeed="27.30" duration="26.00" routeLength="685.75" waitSteps="0" rerouteNo="0" devices="tripinfo_priority.8" vType="tflow" vaporized=""/>
    <tripinfo id="priority.9" depart="27.00" departLane="middle_0" departPos="800.00" departSpeed="27.37" departDelay="0.00" arrival="53.00" arrivalLane="end_0" arrivalPos="495.25" arrivalSpeed="27.37" duration="26.00" routeLength="685.75" waitSteps="0" rerouteNo="0" devices="tripinfo_priority.9" vType="tflow" vaporized=""/>
    <tripinfo id="priority.10" depart="30.00" departLane="middle_0" departPos="800.00" departSpeed="27.00" departDelay="0.00" arrival="56.00" arrivalLane="end_0" arrivalPos="495.25" arrivalSpeed="27.00" duration="26.00" routeLength="685.75" waitSteps="0" rerouteNo="0" devices="tripinfo_priority.10" vType="tflow" vaporized=""/>
    <tripinfo id="priority.11" depart="33.00" departLane="middle_0" departPos="800.00" departSpeed="29.28" departDelay="0.00" arrival="57.00" arrivalLane="end_0" arrivalPos="495.25" arrivalSpeed="29.28" duration="24.00" routeLength="685.75" waitSteps="0" rerouteNo="0" devices="tripinfo_priority.11" vType="tflow" vaporized=""/>
    <tripinfo id="priority.12" depart="36.00" departLane="middle_0" departPos="800.00" departSpeed="25.49" departDelay="0.00" arrival="63.00" arrivalLane="end_0" arrivalPos="495.25" arrivalSpeed="25.49" duration="27.00" routeLength="685.75" waitSteps="0" rerouteNo="0" devices="tripinfo_priority.12" vType="tflow" vaporized=""/>
    <tripinfo id="priority.13" depart="39.00" departLane="middle_0" departPos="800.00" departSpeed="27.95" departDelay="0.00" arrival="65.00" arrivalLane="end_0" arrivalPos="495.25" arrivalSpeed="27.95" duration="26.00" routeLength="685.75" waitSteps="0" rerouteNo="0" devices="tripinfo_priority.13" vType="tflow" vaporized=""/>
    <tripinfo id="priority.14" depart="42.00" departLane="middle_0" departPos="800.00" departSpeed="27.69" departDelay="0.00" arrival="67.00" arrivalLane="end_0" arrivalPos="495.25" arrivalSpeed="27.69" duration="25.00" routeLength="685.75" waitSteps="0" rerouteNo="0" devices="tripinfo_priority.14" vType="tflow" vaporized=""/>
    <tripinfo id="priority.15" depart="45.00" departLane="middle_0" departPos="800.00" departSpeed="29.08" departDelay="0.00" arrival="69.00" arrivalLane="end_0" arrivalPos="495.25" arrivalSpeed="29.08" duration="24.00" routeLength="685.75" waitSteps="0" rerouteNo="0" devices="tripinfo_priority.15" vType="tflow" vaporized=""/>
    <tripinfo id="priority.16" depart="48.00" departLane="middle_0" departPos="800.00" departSpeed="30.58" departDelay="0.00" arrival="71.00" arrivalLane="end_0" arrivalPos="495.25" arrivalSpeed="30.58" duration="23.00" routeLength="685.75" waitSteps="0" rerouteNo="0" devices="tripinfo_priority.16" vType="tflow" vaporized=""/>
    <tripinfo id="priority.17" depart="51.00" departLane="middle_0" departPos="800.00" departSpeed="26.77" departDelay="0.00" arrival="77.00" arrivalLane="end_0" arrivalPos="495.25" arrivalSpeed="26.77" duration="26.00" routeLength="685.75" waitSteps="0" rerouteNo="0" devices="tripinfo_priority.17" vType="tflow" vaporized=""/>
    <tripinfo id="priority.18" depart="54.00" departLane="middle_0" departPos="800.00" departSpeed="28.32" departDelay="0.00" arrival="79.00" arrivalLane="end_0" arrivalPos="495.25" arrivalSpeed="28.32" duration="25.00" routeLength="685.75" waitSteps="0" rerouteNo="0" devices="tripinfo_priority.18" vType="tflow" vaporized=""/>
    <tripinfo id="priority.19" depart="57.00" departLane="middle_0" departPos="800.00" departSpeed="29.20" departDelay="0.00" arrival="81.00" arrivalLane="end_0" arrivalPos="495.25" arrivalSpeed="29.20" duration="24.00" routeLength="685.75" waitSteps="0" rerouteNo="0" devices="tripinfo_priority.19" vType="tflow" vaporized=""/>
    <tripinfo id="priority.20" depart="60.00" departLane="middle_0" departPos="800.00" departSpeed="27.98" departDelay="0.00" arrival="85.00" arrivalLane="end_0" arrivalPos="495.25" arrivalSpeed="27.98" duration="25.00" routeLength="685.75" waitSteps="0" rerouteNo="0" devices="tripinfo_priority.20" vType="tflow" vaporized=""/>
    <tripinfo id="priority.21" depart="63.00" departLane="middle_0" departPos="800.00" departSpeed="27.04" departDelay="0.00" arrival="89.00" arrivalLane="end_0" arrivalPos="495.25" arrivalSpeed="27.04" duration="26.00" routeLength="685.75" waitSteps="0" rerouteNo="0" devices="tripinfo_priority.21" vType="tflow" vaporized=""/>
    <tripinfo id="priority.22" depart="66.00" departLane="middle_0" departPos="800.00" departSpeed="28.19" departDelay="0.00" arrival="91.00" arrivalLane="end_0" arrivalPos="495.25" arrivalSpeed="28.19" duration="25.00" routeLength="685.75" waitSteps="0" rerouteNo="0" devices="tripinfo_priority.22" vType="tflow" vaporized=""/>
    <tripinfo id="priority.23" depart="69.00" departLane="middle_0" departPos="800.00" departSpeed="27.50" departDelay="0.00" arrival="94.00" arrivalLane="end_0" arrivalPos="495.25" arrivalSpeed="27.50" duration="25.00" routeLength="685.75" waitSteps="0" rerouteNo="0" devices="tripinfo_priority.23" vType="tflow" vaporized=""/>
    <tripinfo id="priority.24" depart="72.00" departLane="middle_0" departPos="800.00" departSpeed="25.99" departDelay="0.00" arrival="99.00" arrivalLane="end_0" arrivalPos="495.25" arrivalSpeed="25.99" duration="27.00" routeLength="685.75" waitSteps="0" rerouteNo="0" devices="tripinfo_priority.24" vType="tflow" vaporized=""/>
    <tripinfo id="priority.25" depart="75.00" departLane="middle_0" departPos="800.00" departSpeed="29.76" departDelay="0.00" arrival="100.00" arrivalLane="end_0" arrivalPos="495.25" arrivalSpeed="28.78" duration="25.00" routeLength="685.75" waitSteps="0" rerouteNo="0" devices="tripinfo_priority.25" vType="tflow" vaporized=""/>
    <tripinfo id="priority.26" depart="78.00" departLane="middle_0" departPos="800.00" departSpeed="26.55" departDelay="0.00" arrival="104.00" arrivalLane="end_0" arrivalPos="495.25" arrivalSpeed="26.55" duration="26.00" routeLength="685.75" waitSteps="0" rerouteNo="0" devices="tripinfo_priority.26" vType="tflow" vaporized=""/>
    <tripinfo id="priority.27" depart="81.00" departLane="middle_0" departPos="800.00" departSpeed="26.38" departDelay="0.00" arrival="107.00" arrivalLane="end_0" arrivalPos="495.25" arrivalSpeed="26.38" duration="26.00" routeLength="685.75" waitSteps="0" rerouteNo="0" devices="tripinfo_priority.27" vType="tflow" vaporized=""/>
    <tripinfo id="priority.28" depart="84.00" departLane="middle_0" departPos="800.00" departSpeed="28.61" departDelay="0.00" arrival="109.00" arrivalLane="end_0" arrivalPos="495.25" arrivalSpeed="28.61" duration="25.00" routeLength="685.75" waitSteps="0" rerouteNo="0" devices="tripinfo_priority.28" vType="tflow" vaporized=""/>
    <tripinfo id="priority.29" depart="87.00" departLane="middle_0" departPos="800.00" departSpeed="27.24" departDelay="0.00" arrival="113.00" arrivalLane="end_0" arrivalPos="495.25" arrivalSpeed="27.24" duration="26.00" routeLength="685.75" waitSteps="0" rerouteNo="0" devices="tripinfo_priority.29" vType="tflow" vaporized=""/>
    <tripinfo id="priority.30" depart="90.00" departLane="middle_0" departPos="800.00" departSpeed="28.59" departDelay="0.00" arrival="114.00" arrivalLane="end_0" arrivalPos="495.25" arrivalSpeed="28.59" duration="24.00" routeLength="685.75" waitSteps="0" rerouteNo="0" devices="tripinfo_priority.30" vType="tflow" vaporized=""/>
    <tripinfo id="priority.31" depart="93.00" departLane="middle_0" departPos="800.00" departSpeed="26.72" departDelay="0.00" arrival="119.00" arrivalLane="end_0" arrivalPos="495.25" arrivalSpeed="26.72" duration="26.00" routeLength="685.75" waitSteps="0" rerouteNo="0" devices="tripinfo_priority.31" vType="tflow" vaporized=""/>
    <tripinfo id="priority.32" depart="96.00" departLane="middle_0" departPos="800.00" departSpeed="30.58" departDelay="0.00" arrival="120.00" arrivalLane="end_0" arrivalPos="495.25" arrivalSpeed="29.57" duration="24.00" routeLength="685.75" waitSteps="0" rerouteNo="0" devices="tripinfo_priority.32" vType="tflow" vaporized=""/>
    <tripinfo id="priority.33" depart="99.00" departLane="middle_0" departPos="800.00" departSpeed="28.67" departDelay="0.00" arrival="123.00" arrivalLane="end_0" arrivalPos="495.25" arrivalSpeed="28.67" duration="24.00" routeLength="685.75" waitSteps="0" rerouteNo="0" devices="tripinfo_priority.33" vType="tflow" vaporized=""/>
    <tripinfo id="priority.34" depart="102.00" departLane="middle_0" departPos="800.00" departSpeed="27.16" departDelay="0.00" arrival="128.00" arrivalLane="end_0" arrivalPos="495.25" arrivalSpeed="27.16" duration="26.00" routeLength="685.75" waitSteps="0" rerouteNo="0" devices="tripinfo_priority.34" vType="tflow" vaporized=""/>
    <tripinfo id="priority.35" depart="105.00" departLane="middle_0" departPos="800.00" departSpeed="27.26" departDelay="0.00" arrival="131.00" arrivalLane="end_0" arrivalPos="495.25" arrivalSpeed="27.26" duration="26.00" routeLength="685.75" waitSteps="0" rerouteNo="0" devices="tripinfo_priority.35" vType="tflow" vaporized=""/>
    <tripinfo id="priority.36" depart="108.00" departLane="middle_0" departPos="800.00" departSpeed="28.20" departDelay="0.00" arrival="133.00" arrivalLane="end_0" arrivalPos="495.25" arrivalSpeed="28.20" duration="25.00" routeLength="685.75" waitSteps="0" rerouteNo="0" devices="tripinfo_priority.36" vType="tflow" vaporized=""/>
    <tripinfo id="priority.37" depart="111.00" departLane="middle_0" departPos="800.00" departSpeed="28.18" departDelay="0.00" arrival="136.00" arrivalLane="end_0" arrivalPos="495.25" arrivalSpeed="28.18" duration="25.00" routeLength="685.75" waitSteps="0" rerouteNo="0" devices="tripinfo_priority.37" vType="tflow" vaporized=""/>
    <tripinfo id="priority.38" depart="114.00" departLane="middle_0" departPos="800.00" departSpeed="26.47" departDelay="0.00" arrival="140.00" arrivalLane="end_0" arrivalPos="495.25" arrivalSpeed="26.47" duration="26.00" routeLength="685.75" waitSteps="0" rerouteNo="0" devices="tripinfo_priority.38" vType="tflow" vaporized=""/>
    <tripinfo id="priority.39" depart="117.00" departLane="middle_0" departPos="800.00" departSpeed="28.07" departDelay="0.00" arrival="142.00" arrivalLane="end_0" arrivalPos="495.25" arrivalSpeed="28.07" duration="25.00" routeLength="685.75" waitSteps="0" rerouteNo="0" devices="tripinfo_priority.39" vType="tflow" vaporized=""/>
    <tripinfo id="priority.40" depart="120.00" departLane="middle_0" departPos="800.00" departSpeed="25.94" departDelay="0.00" arrival="147.00" arrivalLane="end_0" arrivalPos="495.25" arrivalSpeed="25.94" duration="27.00" routeLength="685.75" waitSteps="0" rerouteNo="0" devices="tripinfo_priority.40" vType="tflow" vaporized=""/>
    <tripinfo id="priority.41" depart="123.00" departLane="middle_0" departPos="800.00" departSpeed="26.32" departDelay="0.00" arrival="150.00" arrivalLane="end_0" arrivalPos="495.25" arrivalSpeed="26.32" duration="27.00" routeLength="685.75" waitSteps="0" rerouteNo="0" devices="tripinfo_priority.41" vType="tflow" vaporized=""/>
    <tripinfo id="priority.42" depart="126.00" departLane="middle_0" departPos="800.00" departSpeed="28.56" departDelay="0.00" arrival="151.00" arrivalLane="end_0" arrivalPos="495.25" arrivalSpeed="28.56" duration="25.00" routeLength="685.75" waitSteps="0" rerouteNo="0" devices="tripinfo_priority.42" vType="tflow" vaporized=""/>
    <tripinfo id="priority.43" depart="129.00" departLane="middle_0" departPos="800.00" departSpeed="26.20" departDelay="0.00" arrival="156.00" arrivalLane="end_0" arrivalPos="495.25" arrivalSpeed="26.20" duration="27.00" routeLength="685.75" waitSteps="0" rerouteNo="0" devices="tripinfo_priority.43" vType="tflow" vaporized=""/>
    <tripinfo id="priority.44" depart="132.00" departLane="middle_0" departPos="800.00" departSpeed="29.11" departDelay="0.00" arrival="157.00" arrivalLane="end_0" arrivalPos="495.25" arrivalSpeed="29.07" duration="25.00" routeLength="685.75" waitSteps="0" rerouteNo="0" devices="tripinfo_priority.44" vType="tflow" vaporized=""/>
    <tripinfo id="priority.45" depart="135.00" departLane="middle_0" departPos="800.00" departSpeed="27.70" departDelay="0.00" arrival="160.00" arrivalLane="end_0" arrivalPos="495.25" arrivalSpeed="27.70" duration="25.00" routeLength="685.75" waitSteps="0" rerouteNo="0" devices="tripinfo_priority.45" vType="tflow" vaporized=""/>
    <tripinfo id="priority.46" depart="138.00" departLane="middle_0" departPos="800.00" departSpeed="28.26" departDelay="0.00" arrival="163.00" arrivalLane="end_0" arrivalPos="495.25" arrivalSpeed="28.26" duration="25.00" routeLength="685.75" waitSteps="0" rerouteNo="0" devices="tripinfo_priority.46" vType="tflow" vaporized=""/>
    <tripinfo id="priority.47" depart="141.00" departLane="middle_0" departPos="800.00" departSpeed="29.53" departDelay="0.00" arrival="165.00" arrivalLane="end_0" arrivalPos="495.25" arrivalSpeed="29.53" duration="24.00" routeLength="685.75" waitSteps="0" rerouteNo="0" devices="tripinfo_priority.47" vType="tflow" vaporized=""/>
    <tripinfo id="priority.48" depart="144.00" departLane="middle_0" departPos="800.00" departSpeed="26.36" departDelay="0.00" arrival="171.00" arrivalLane="end_0" arrivalPos="495.25" arrivalSpeed="26.36" duration="27.00" routeLength="685.75" waitSteps="0" rerouteNo="0" devices="tripinfo_priority.48" vType="tflow" vaporized=""/>
    <tripinfo id="priority.49" depart="147.00" departLane="middle_0" departPos="800.00" departSpeed="25.69" departDelay="0.00" arrival="174.00" arrivalLane="end_0" arrivalPos="495.25" arrivalSpeed="25.69" duration="27.00" routeLength="685.75" waitSteps="0" rerouteNo="0" devices="tripinfo_priority.49" vType="tflow" vaporized=""/>
    <tripinfo id="priority.50" depart="150.00" departLane="middle_0" departPos="800.00" departSpeed="25.27" departDelay="0.00" arrival="178.00" arrivalLane="end_0" arrivalPos="495.25" arrivalSpeed="25.27" duration="28.00" routeLength="685.75" waitSteps="0" rerouteNo="0" devices="tripinfo_priority.50" vType="tflow" vaporized=""/>
    <tripinfo id="priority.51" depart="153.00" departLane="middle_0" departPos="800.00" departSpeed="26.74" departDelay="0.00" arrival="179.00" arrivalLane="end_0" arrivalPos="495.25" arrivalSpeed="26.74" duration="26.00" routeLength="685.75" waitSteps="0" rerouteNo="0" devices="tripinfo_priority.51" vType="tflow" vaporized=""/>
    <tripinfo id="priority.52" depart="156.00" departLane="middle_0" departPos="800.00" departSpeed="27.01" departDelay="0.00" arrival="182.00" arrivalLane="end_0" arrivalPos="495.25" arrivalSpeed="27.01" duration="26.00" routeLength="685.75" waitSteps="0" rerouteNo="0" devices="tripinfo_priority.52" vType="tflow" vaporized=""/>
    <tripinfo id="priority.53" depart="159.00" departLane="middle_0" departPos="800.00" departSpeed="29.53" departDelay="0.00" arrival="183.00" arrivalLane="end_0" arrivalPos="495.25" arrivalSpeed="29.53" duration="24.00" routeLength="685.75" waitSteps="0" rerouteNo="0" devices="tripinfo_priority.53" vType="tflow" vaporized=""/>
    <tripinfo id="priority.54" depart="162.00" departLane="middle_0" departPos="800.00" departSpeed="26.98" departDelay="0.00" arrival="188.00" arrivalLane="end_0" arrivalPos="495.25" arrivalSpeed="26.98" duration="26.00" routeLength="685.75" waitSteps="0" rerouteNo="0" devices="tripinfo_priority.54" vType="tflow" vaporized=""/>
    <tripinfo id="priority.55" depart="165.00" departLane="middle_0" departPos="800.00" departSpeed="27.33" departDelay="0.00" arrival="191.00" arrivalLane="end_0" arrivalPos="495.25" arrivalSpeed="27.33" duration="26.00" routeLength="685.75" waitSteps="0" rerouteNo="0" devices="tripinfo_priority.55" vType="tflow" vaporized=""/>
    <tripinfo id="priority.56" depart="168.00" departLane="middle_0" departPos="800.00" departSpeed="29.36" departDelay="0.00" arrival="192.00" arrivalLane="end_0" arrivalPos="495.25" arrivalSpeed="29.36" duration="24.00" routeLength="685.75" waitSteps="0" rerouteNo="0" devices="tripinfo_priority.56" vType="tflow" vaporized=""/>
    <tripinfo id="priority.57" depart="171.00" departLane="middle_0" departPos="800.00" departSpeed="29.19" departDelay="0.00" arrival="195.00" arrivalLane="end_0" arrivalPos="495.25" arrivalSpeed="29.19" duration="24.00" routeLength="685.75" waitSteps="0" rerouteNo="0" devices="tripinfo_priority.57" vType="tflow" vaporized=""/>
    <tripinfo id="priority.58" depart="174.00" departLane="middle_0" departPos="800.00" departSpeed="25.81" departDelay="0.00" arrival="201.00" arrivalLane="end_0" arrivalPos="495.25" arrivalSpeed="25.81" duration="27.00" routeLength="685.75" waitSteps="0" rerouteNo="0" devices="tripinfo_priority.58" vType="tflow" vaporized=""/>
    <tripinfo id="priority.59" depart="177.00" departLane="middle_0" departPos="800.00" departSpeed="29.33" departDelay="0.00" arrival="202.00" arrivalLane="end_0" arrivalPos="495.25" arrivalSpeed="28.61" duration="25.00" routeLength="685.75" waitSteps="0" rerouteNo="0" devices="tripinfo_priority.59" vType="tflow" vaporized=""/>
    <tripinfo id="priority.60" depart="180.00" departLane="middle_0" departPos="800.00" departSpeed="27.17" departDelay="0.00" arrival="206.00" arrivalLane="end_0" arrivalPos="495.25" arrivalSpeed="27.17" duration="26.00" routeLength="685.75" waitSteps="0" rerouteNo="0" devices="tripinfo_priority.60" vType="tflow" vaporized=""/>
    <tripinfo id="priority.61" depart="183.00" departLane="middle_0" departPos="800.00" departSpeed="29.97" departDelay="0.00" arrival="207.00" arrivalLane="end_0" arrivalPos="495.25" arrivalSpeed="29.97" duration="24.00" routeLength="685.75" waitSteps="0" rerouteNo="0" devices="tripinfo_priority.61" vType="tflow" vaporized=""/>
    <tripinfo id="priority.62" depart="186.00" departLane="middle_0" departPos="800.00" departSpeed="28.46" departDelay="0.00" arrival="211.00" arrivalLane="end_0" arrivalPos="495.25" arrivalSpeed="28.46" duration="25.00" routeLength="685.75" waitSteps="0" rerouteNo="0" devices="tripinfo_priority.62" vType="tflow" vaporized=""/>
    <tripinfo id="priority.63" depart="189.00" departLane="middle_0" departPos="800.00" departSpeed="27.14" departDelay="0.00" arrival="215.00" arrivalLane="end_0" arrivalPos="495.25" arrivalSpeed="27.14" duration="26.00" routeLength="685.75" waitSteps="0" rerouteNo="0" devices="tripinfo_priority.63" vType="tflow" vaporized=""/>
    <tripinfo id="priority.64" depart="192.00" departLane="middle_0" departPos="800.00" departSpeed="26.55" departDelay="0.00" arrival="218.00" arrivalLane="end_0" arrivalPos="495.25" arrivalSpeed="26.55" duration="26.00" routeLength="685.75" waitSteps="0" rerouteNo="0" devices="tripinfo_priority.64" vType="tflow" vaporized=""/>
    <tripinfo id="priority.65" depart="195.00" departLane="middle_0" departPos="800.00" departSpeed="26.99" departDelay="0.00" arrival="221.00" arrivalLane="end_0" arrivalPos="495.25" arrivalSpeed="26.99" duration="26.00" routeLength="685.75" waitSteps="0" rerouteNo="0" devices="tripinfo_priority.65" vType="tflow" vaporized=""/>
    <tripinfo id="priority.66" depart="198.00" departLane="middle_0" departPos="800.00" departSpeed="26.05" departDelay="0.00" arrival="225.00" arrivalLane="end_0" arrivalPos="495.25" arrivalSpeed="26.05" duration="27.00" routeLength="685.75" waitSteps="0" rerouteNo="0" devices="tripinfo_priority.66" vType="tflow" vaporized=""/>
    <tripinfo id="priority.67" depart="201.00" departLane="middle_0" departPos="800.00" departSpeed="29.25" departDelay="0.00" arrival="226.00" arrivalLane="end_0" arrivalPos="495.25" arrivalSpeed="28.88" duration="25.00" routeLength="685.75" waitSteps="0" rerouteNo="0" devices="tripinfo_priority.67" vType="tflow" vaporized=""/>
    <tripinfo id="priority.68" depart="204.00" departLane="middle_0" departPos="800.00" departSpeed="26.07" departDelay="0.00" arrival="231.00" arrivalLane="end_0" arrivalPos="495.25" arrivalSpeed="26.07" duration="27.00" routeLength="685.75" waitSteps="0" rerouteNo="0" devices="tripinfo_priority.68" vType="tflow" vaporized=""/>
    <tripinfo id="priority.69" depart="207.00" departLane="middle_0" departPos="800.00" departSpeed="30.23" departDelay="0.00" arrival="232.00" arrivalLane="end_0" arrivalPos="495.25" arrivalSpeed="28.85" duration="25.00" routeLength="685.75" waitSteps="0" rerouteNo="0" devices="tripinfo_priority.69" vType="tflow" vaporized=""/>
    <tripinfo id="priority.70" depart="210.00" departLane="middle_0" departPos="800.00" departSpeed="29.55" departDelay="0.00" arrival="234.00" arrivalLane="end_0" arrivalPos="495.25" arrivalSpeed="29.55" duration="24.00" routeLength="685.75" waitSteps="0" rerouteNo="0" devices="tripinfo_priority.70" vType="tflow" vaporized=""/>
    <tripinfo id="priority.71" depart="213.00" departLane="middle_0" departPos="800.00" departSpeed="30.58" departDelay="0.00" arrival="236.00" arrivalLane="end_0" arrivalPos="495.25" arrivalSpeed="30.58" duration="23.00" routeLength="685.75" waitSteps="0" rerouteNo="0" devices="tripinfo_priority.71" vType="tflow" vaporized=""/>
    <tripinfo id="priority.72" depart="216.00" departLane="middle_0" departPos="800.00" departSpeed="29.11" departDelay="0.00" arrival="240.00" arrivalLane="end_0" arrivalPos="495.25" arrivalSpeed="29.11" duration="24.00" routeLength="685.75" waitSteps="0" rerouteNo="0" devices="tripinfo_priority.72" vType="tflow" vaporized=""/>
    <tripinfo id="priority.73" depart="219.00" departLane="middle_0" departPos="800.00" departSpeed="27.32" departDelay="0.00" arrival="245.00" arrivalLane="end_0" arrivalPos="495.25" arrivalSpeed="27.32" duration="26.00" routeLength="685.75" waitSteps="0" rerouteNo="0" devices="tripinfo_priority.73" vType="tflow" vaporized=""/>
    <tripinfo id="priority.74" depart="222.00" departLane="middle_0" departPos="800.00" departSpeed="25.36" departDelay="0.00" arrival="250.00" arrivalLane="end_0" arrivalPos="495.25" arrivalSpeed="25.36" duration="28.00" routeLength="685.75" waitSteps="0" rerouteNo="0" devices="tripinfo_priority.74" vType="tflow" vaporized=""/>
    <tripinfo id="priority.75" depart="225.00" departLane="middle_0" departPos="800.00" departSpeed="29.06" departDelay="0.00" arrival="251.00" arrivalLane="end_0" arrivalPos="495.25" arrivalSpeed="28.10" duration="26.00" routeLength="685.75" waitSteps="0" rerouteNo="0" devices="tripinfo_priority.75" vType="tflow" vaporized=""/>
    <tripinfo id="priority.76" depart="228.00" departLane="middle_0" departPos="800.00" departSpeed="29.58" departDelay="0.00" arrival="252.00" arrivalLane="end_0" arrivalPos="495.25" arrivalSpeed="29.04" duration="24.00" routeLength="685.75" waitSteps="0" rerouteNo="0" devices="tripinfo_priority.76" vType="tflow" vaporized=""/>
    <tripinfo id="priority.77" depart="231.00" departLane="middle_0" departPos="800.00" departSpeed="27.59" departDelay="0.00" arrival="256.00" arrivalLane="end_0" arrivalPos="495.25" arrivalSpeed="27.59" duration="25.00" routeLength="685.75" waitSteps="0" rerouteNo="0" devices="tripinfo_priority.77" vType="tflow" vaporized=""/>
    <tripinfo id="priority.78" depart="234.00" departLane="middle_0" departPos="800.00" departSpeed="25.21" departDelay="0.00" arrival="262.00" arrivalLane="end_0" arrivalPos="495.25" arrivalSpeed="25.21" duration="28.00" routeLength="685.75" waitSteps="0" rerouteNo="0" devices="tripinfo_priority.78" vType="tflow" vaporized=""/>
    <tripinfo id="priority.79" depart="237.00" departLane="middle_0" departPos="800.00" departSpeed="28.21" departDelay="0.00" arrival="263.00" arrivalLane="end_0" arrivalPos="495.25" arrivalSpeed="27.99" duration="26.00" routeLength="685.75" waitSteps="0" rerouteNo="0" devices="tripinfo_priority.79" vType="tflow" vaporized=""/>
    <tripinfo id="priority.80" depart="240.00" departLane="middle_0" departPos="800.00" departSpeed="25.78" departDelay="0.00" arrival="267.00" arrivalLane="end_0" arrivalPos="495.25" arrivalSpeed="25.78" duration="27.00" routeLength="685.75" waitSteps="0" rerouteNo="0" devices="tripinfo_priority.80" vType="tflow" vaporized=""/>
    <tripinfo id="priority.81" depart="243.00" departLane="middle_0" departPos="800.00" departSpeed="23.11" departDelay="0.00" arrival="273.00" arrivalLane="end_0" arrivalPos="495.25" arrivalSpeed="23.11" duration="30.00" routeLength="685.75" waitSteps="0" rerouteNo="0" devices="tripinfo_priority.81" vType="tflow" vaporized=""/>
    <tripinfo id="priority.82" depart="246.00" departLane="middle_0" departPos="800.00" departSpeed="28.49" departDelay="0.00" arrival="274.00" arrivalLane="end_0" arrivalPos="495.25" arrivalSpeed="25.76" duration="28.00" routeLength="685.75" waitSteps="0" rerouteNo="0" devices="tripinfo_priority.82" vType="tflow" vaporized=""/>
    <tripinfo id="priority.83" depart="249.00" departLane="middle_0" departPos="800.00" departSpeed="28.66" departDelay="0.00" arrival="276.00" arrivalLane="end_0" arrivalPos="495.25" arrivalSpeed="28.59" duration="27.00" routeLength="685.75" waitSteps="0" rerouteNo="0" devices="tripinfo_priority.83" vType="tflow" vaporized=""/>
    <tripinfo id="priority.84" depart="252.00" departLane="middle_0" departPos="800.00" departSpeed="28.13" departDelay="0.00" arrival="277.00" arrivalLane="end_0" arrivalPos="495.25" arrivalSpeed="28.13" duration="25.00" routeLength="685.75" waitSteps="0" rerouteNo="0" devices="tripinfo_priority.84" vType="tflow" vaporized=""/>
    <tripinfo id="priority.85" depart="255.00" departLane="middle_0" departPos="800.00" departSpeed="27.04" departDelay="0.00" arrival="281.00" arrivalLane="end_0" arrivalPos="495.25" arrivalSpeed="27.04" duration="26.00" routeLength="685.75" waitSteps="0" rerouteNo="0" devices="tripinfo_priority.85" vType="tflow" vaporized=""/>
    <tripinfo id="priority.86" depart="258.00" departLane="middle_0" departPos="800.00" departSpeed="27.59" departDelay="0.00" arrival="283.00" arrivalLane="end_0" arrivalPos="495.25" arrivalSpeed="27.59" duration="25.00" routeLength="685.75" waitSteps="0" rerouteNo="0" devices="tripinfo_priority.86" vType="tflow" vaporized=""/>
    <tripinfo id="priority.87" depart="261.00" departLane="middle_0" departPos="800.00" departSpeed="26.79" departDelay="0.00" arrival="287.00" arrivalLane="end_0" arrivalPos="495.25" arrivalSpeed="26.79" duration="26.00" routeLength="685.75" waitSteps="0" rerouteNo="0" devices="tripinfo_priority.87" vType="tflow" vaporized=""/>