<?xml version="1.0" encoding="UTF-8"?>

<!-- generated on 2022-11-28 16:38:34 by Eclipse SUMO sumo Version v1_15_0+0645-8eb20fe
This data file and the accompanying materials
are made available under the terms of the Eclipse Public License v2.0
which accompanies this distribution, and is available at
http://www.eclipse.org/legal/epl-v20.html
This file may also be made available under the following Secondary
Licenses when the conditions for such availability set forth in the Eclipse
Public License 2.0 are satisfied: GNU General Public License, version 2
or later which is available at
https://www.gnu.org/licenses/old-licenses/gpl-2.0-standalone.html
SPDX-License-Identifier: EPL-2.0 OR GPL-2.0-or-later
<configuration xmlns:xsi="http://www.w3.org/2001/XMLSchema-instance" xsi:noNamespaceSchemaLocation="http://sumo.dlr.de/xsd/sumoConfiguration.xsd">

    <input>
        <net-file value="net.net.xml"/>
        <route-files value="input_routes.rou.xml"/>
    </input>

    <output>
        <write-license value="true"/>
        <tripinfo-output value="tripinfos.xml"/>
        <railsignal-block-output value="railsignal_blocks.xml"/>
    </output>

    <processing>
        <default.speeddev value="0"/>
    </processing>

    <report>
        <xml-validation value="never"/>
        <duration-log.disable value="true"/>
        <no-step-log value="true"/>
    </report>

    <mesoscopic>
        <mesosim value="true"/>
    </mesoscopic>

</configuration>
-->

<tripinfos xmlns:xsi="http://www.w3.org/2001/XMLSchema-instance" xsi:noNamespaceSchemaLocation="http://sumo.dlr.de/xsd/tripinfo_file.xsd">
    <tripinfo id="t_0" depart="0.00" departLane="" departPos="0.00" departSpeed="13.89" departDelay="0.00" arrival="72.00" arrivalLane="" arrivalPos="200.00" arrivalSpeed="13.89" duration="72.00" routeLength="989.84" waitingTime="0.00" waitingCount="0" stopTime="0.00" timeLoss="0.00" rerouteNo="1" devices="tripinfo_t_0 routing_t_0" vType="t_0" speedFactor="1.00" vaporized=""/>
    <tripinfo id="t_1" depart="1.00" departLane="" departPos="0.00" departSpeed="13.89" departDelay="0.00" arrival="73.00" arrivalLane="" arrivalPos="200.00" arrivalSpeed="13.89" duration="72.00" routeLength="989.84" waitingTime="0.00" waitingCount="0" stopTime="0.00" timeLoss="0.00" rerouteNo="1" devices="tripinfo_t_1 routing_t_1" vType="t_0" speedFactor="1.00" vaporized=""/>
</tripinfos>
