<?xml version="1.0" encoding="UTF-8"?>

<!-- generated on 05/02/13 14:13:24 by SUMO sumo Version 0.17.0
<?xml version="1.0" encoding="UTF-8"?>

<configuration xmlns:xsi="http://www.w3.org/2001/XMLSchema-instance" xsi:noNamespaceSchemaLocation="http://sumo-sim.org/xsd/sumoConfiguration.xsd">

    <input>
        <net-file value="net.net.xml"/>
        <additional-files value="input_routes.rou.xml,input_additional.add.xml,input_additional2.add.xml"/>
    </input>

    <time>
        <begin value="0"/>
        <end value="150"/>
    </time>

    <report>
        <no-duration-log value="true"/>
        <no-step-log value="true"/>
    </report>

</configuration>
-->

<meandata xmlns:xsi="http://www.w3.org/2001/XMLSchema-instance" xsi:noNamespaceSchemaLocation="http://sumo-sim.org/xsd/meandata_file.xsd">
    <interval begin="0.00" end="60.00" id="dump_60">
        <edge id="3/1to2/1">
            <lane id="3/1to2/1_0" sampledSeconds="29.95" traveltime="39.05" density="1.28" occupancy="0.38" waitingTime="0.00" speed="10.00" departed="0" arrived="0" entered="1" left="0" laneChangedFrom="0" laneChangedTo="0"/>
        </edge>
        <edge id="4/1to3/1">
            <lane id="4/1to3/1_0" sampledSeconds="29.35" traveltime="39.05" density="1.25" occupancy="0.38" waitingTime="0.00" speed="10.00" departed="1" arrived="0" entered="0" left="1" laneChangedFrom="0" laneChangedTo="0"/>
        </edge>
    </interval>
    <interval begin="60.00" end="120.00" id="dump_60">
        <edge id="1/1to0/1">
            <lane id="1/1to0/1_0" sampledSeconds="11.85" traveltime="39.05" density="0.51" occupancy="0.15" waitingTime="0.00" speed="10.00" departed="0" arrived="0" entered="1" left="0" laneChangedFrom="0" laneChangedTo="0"/>
        </edge>
        <edge id="2/1to1/1">
            <lane id="2/1to1/1_0" sampledSeconds="39.35" traveltime="39.05" density="1.68" occupancy="0.50" waitingTime="0.00" speed="10.00" departed="0" arrived="0" entered="1" left="1" laneChangedFrom="0" laneChangedTo="0"/>
        </edge>
        <edge id="3/1to2/1">
            <lane id="3/1to2/1_0" sampledSeconds="9.40" traveltime="39.05" density="0.40" occupancy="0.12" waitingTime="0.00" speed="10.00" departed="0" arrived="0" entered="0" left="1" laneChangedFrom="0" laneChangedTo="0"/>
        </edge>
    </interval>
    <interval begin="120.00" end="150.00" id="dump_60">
        <edge id="1/1to0/1">
            <lane id="1/1to0/1_0" sampledSeconds="27.50" traveltime="39.05" density="2.35" occupancy="0.70" waitingTime="0.00" speed="10.00" departed="0" arrived="1" entered="0" left="0" laneChangedFrom="0" laneChangedTo="0"/>
        </edge>
    </interval>
</meandata>
