<?xml version="1.0" encoding="UTF-8"?>

<!-- generated on 2022-02-08 11:24:23 by Eclipse SUMO sumo Version v1_12_0+0353-0cd4bcd
<configuration xmlns:xsi="http://www.w3.org/2001/XMLSchema-instance" xsi:noNamespaceSchemaLocation="http://sumo.dlr.de/xsd/sumoConfiguration.xsd">

    <input>
        <net-file value="input_net.net.xml"/>
        <route-files value="input_routes.rou.xml"/>
        <additional-files value="input_additional.add.xml"/>
    </input>

    <output>
        <fcd-output value="fcd.xml"/>
    </output>

    <report>
        <no-step-log value="true"/>
    </report>

    <traci_server>
        <remote-port value="44344"/>
    </traci_server>

</configuration>
-->

<fcd-export xmlns:xsi="http://www.w3.org/2001/XMLSchema-instance" xsi:noNamespaceSchemaLocation="http://sumo.dlr.de/xsd/fcd_file.xsd">
    <timestep time="0.00">
        <vehicle id="ToC_veh" x="2879.26" y="2446.67" angle="342.00" type="automated" speed="0.00" pos="981.99" lane="1/1to2/1_0" slope="0.00"/>
    </timestep>
    <timestep time="1.00">
        <vehicle id="ToC_veh" x="2877.10" y="2449.47" angle="330.28" type="automated" speed="2.60" pos="0.43" lane="2/1to3/1_0" slope="0.00"/>
    </timestep>
    <timestep time="2.00">
        <vehicle id="ToC_veh" x="2875.00" y="2451.00" angle="314.36" type="automated@ToC_veh" speed="2.60" pos="3.03" lane="2/1to3/1_0" slope="0.00"/>
    </timestep>
    <timestep time="3.00">
        <vehicle id="ToC_veh" x="2873.87" y="2451.82" angle="306.24" type="automated@ToC_veh" speed="1.40" pos="4.43" lane="2/1to3/1_0" slope="0.00"/>
    </timestep>
    <timestep time="4.00">
        <vehicle id="ToC_veh" x="2873.70" y="2451.94" angle="306.16" type="automated@ToC_veh" speed="0.20" pos="4.63" lane="2/1to3/1_0" slope="0.00"/>
    </timestep>
    <timestep time="5.00">
        <vehicle id="ToC_veh" x="2873.70" y="2451.94" angle="306.16" type="automated@ToC_veh" speed="0.00" pos="4.63" lane="2/1to3/1_0" slope="0.00"/>
    </timestep>
    <timestep time="6.00">
        <vehicle id="ToC_veh" x="2873.70" y="2451.94" angle="306.16" type="automated@ToC_veh" speed="0.00" pos="4.63" lane="2/1to3/1_0" slope="0.00"/>
    </timestep>
    <timestep time="7.00">
        <vehicle id="ToC_veh" x="2873.70" y="2451.94" angle="306.16" type="automated@ToC_veh" speed="0.00" pos="4.63" lane="2/1to3/1_0" slope="0.00"/>
    </timestep>
    <timestep time="8.00">
        <vehicle id="ToC_veh" x="2873.70" y="2451.94" angle="306.16" type="automated@ToC_veh" speed="0.00" pos="4.63" lane="2/1to3/1_0" slope="0.00"/>
    </timestep>
    <timestep time="9.00">
        <vehicle id="ToC_veh" x="2873.70" y="2451.94" angle="306.16" type="automated@ToC_veh" speed="0.00" pos="4.63" lane="2/1to3/1_0" slope="0.00"/>
    </timestep>
    <timestep time="10.00">
        <vehicle id="ToC_veh" x="2873.70" y="2451.94" angle="306.16" type="automated@ToC_veh" speed="0.00" pos="4.63" lane="2/1to3/1_0" slope="0.00"/>
    </timestep>
    <timestep time="11.00">
        <vehicle id="ToC_veh" x="2873.70" y="2451.94" angle="306.16" type="automated@ToC_veh" speed="0.00" pos="4.63" lane="2/1to3/1_0" slope="0.00"/>
    </timestep>
    <timestep time="12.00">
        <vehicle id="ToC_veh" x="2873.70" y="2451.94" angle="306.16" type="automated@ToC_veh" speed="0.00" pos="4.63" lane="2/1to3/1_0" slope="0.00"/>
    </timestep>
    <timestep time="13.00">
        <vehicle id="ToC_veh" x="2873.70" y="2451.94" angle="306.16" type="automated@ToC_veh" speed="0.00" pos="4.63" lane="2/1to3/1_0" slope="0.00"/>
    </timestep>
    <timestep time="14.00">
        <vehicle id="ToC_veh" x="2873.70" y="2451.94" angle="306.16" type="automated@ToC_veh" speed="0.00" pos="4.63" lane="2/1to3/1_0" slope="0.00"/>
    </timestep>
    <timestep time="15.00">
        <vehicle id="ToC_veh" x="2873.70" y="2451.94" angle="306.16" type="automated@ToC_veh" speed="0.00" pos="4.63" lane="2/1to3/1_0" slope="0.00"/>
    </timestep>
    <timestep time="16.00">
        <vehicle id="ToC_veh" x="2873.70" y="2451.94" angle="306.16" type="automated@ToC_veh" speed="0.00" pos="4.63" lane="2/1to3/1_0" slope="0.00"/>
    </timestep>
    <timestep time="17.00">
        <vehicle id="ToC_veh" x="2873.70" y="2451.94" angle="306.16" type="automated@ToC_veh" speed="0.00" pos="4.63" lane="2/1to3/1_0" slope="0.00"/>
    </timestep>
    <timestep time="18.00">
        <vehicle id="ToC_veh" x="2873.70" y="2451.94" angle="306.16" type="automated@ToC_veh" speed="0.00" pos="4.63" lane="2/1to3/1_0" slope="0.00"/>
    </timestep>
    <timestep time="19.00">
        <vehicle id="ToC_veh" x="2873.70" y="2451.94" angle="306.16" type="automated@ToC_veh" speed="0.00" pos="4.63" lane="2/1to3/1_0" slope="0.00"/>
    </timestep>
    <timestep time="20.00">
        <vehicle id="ToC_veh" x="2873.70" y="2451.94" angle="306.16" type="automated@ToC_veh" speed="0.00" pos="4.63" lane="2/1to3/1_0" slope="0.00"/>
    </timestep>
    <timestep time="21.00">
        <vehicle id="ToC_veh" x="2873.70" y="2451.94" angle="306.16" type="automated@ToC_veh" speed="0.00" pos="4.63" lane="2/1to3/1_0" slope="0.00"/>
    </timestep>
    <timestep time="22.00">
        <vehicle id="ToC_veh" x="2873.70" y="2451.94" angle="306.16" type="automated@ToC_veh" speed="0.00" pos="4.63" lane="2/1to3/1_0" slope="0.00"/>
    </timestep>
    <timestep time="23.00">
        <vehicle id="ToC_veh" x="2873.70" y="2451.94" angle="306.16" type="automated@ToC_veh" speed="0.00" pos="4.63" lane="2/1to3/1_0" slope="0.00"/>
    </timestep>
    <timestep time="24.00">
        <vehicle id="ToC_veh" x="2873.70" y="2451.94" angle="306.16" type="automated@ToC_veh" speed="0.00" pos="4.63" lane="2/1to3/1_0" slope="0.00"/>
    </timestep>
    <timestep time="25.00">
        <vehicle id="ToC_veh" x="2872.63" y="2452.72" angle="306.00" type="manual" speed="1.33" pos="5.96" lane="2/1to3/1_0" slope="0.00"/>
    </timestep>
    <timestep time="26.00">
        <vehicle id="ToC_veh" x="2869.91" y="2454.70" angle="306.00" type="manual" speed="3.37" pos="9.32" lane="2/1to3/1_0" slope="0.00"/>
    </timestep>
    <timestep time="27.00">
        <vehicle id="ToC_veh" x="2865.85" y="2457.65" angle="306.00" type="manual" speed="5.02" pos="14.34" lane="2/1to3/1_0" slope="0.00"/>
    </timestep>
    <timestep time="28.00">
        <vehicle id="ToC_veh" x="2860.62" y="2461.45" angle="306.00" type="manual" speed="6.46" pos="20.81" lane="2/1to3/1_0" slope="0.00"/>
    </timestep>
    <timestep time="29.00">
        <vehicle id="ToC_veh" x="2853.69" y="2466.48" angle="306.00" type="manual" speed="8.56" pos="29.37" lane="2/1to3/1_0" slope="0.00"/>
    </timestep>
    <timestep time="30.00">
        <vehicle id="ToC_veh" x="2845.38" y="2472.52" angle="306.00" type="manual" speed="10.27" pos="39.64" lane="2/1to3/1_0" slope="0.00"/>
    </timestep>
    <timestep time="31.00">
        <vehicle id="ToC_veh" x="2835.01" y="2480.05" angle="306.00" type="manual" speed="12.81" pos="52.45" lane="2/1to3/1_0" slope="0.00"/>
    </timestep>
    <timestep time="32.00">
        <vehicle id="ToC_veh" x="2822.60" y="2489.07" angle="306.00" type="manual" speed="15.35" pos="67.80" lane="2/1to3/1_0" slope="0.00"/>
    </timestep>
    <timestep time="33.00">
        <vehicle id="ToC_veh" x="2809.07" y="2498.90" angle="306.00" type="manual" speed="16.72" pos="84.52" lane="2/1to3/1_0" slope="0.00"/>
    </timestep>
    <timestep time="34.00">
        <vehicle id="ToC_veh" x="2793.86" y="2509.95" angle="306.00" type="manual" speed="18.80" pos="103.32" lane="2/1to3/1_0" slope="0.00"/>
    </timestep>
    <timestep time="35.00">
        <vehicle id="ToC_veh" x="2778.07" y="2521.42" angle="306.00" type="manual" speed="19.52" pos="122.84" lane="2/1to3/1_0" slope="0.00"/>
    </timestep>
    <timestep time="36.00">
        <vehicle id="ToC_veh" x="2761.38" y="2533.55" angle="306.00" type="manual" speed="20.63" pos="143.47" lane="2/1to3/1_0" slope="0.00"/>
    </timestep>
    <timestep time="37.00">
        <vehicle id="ToC_veh" x="2744.69" y="2545.68" angle="306.00" type="manual" speed="20.63" pos="164.10" lane="2/1to3/1_0" slope="0.00"/>
    </timestep>
    <timestep time="38.00">
        <vehicle id="ToC_veh" x="2727.90" y="2557.87" angle="306.00" type="manual" speed="20.75" pos="184.85" lane="2/1to3/1_0" slope="0.00"/>
    </timestep>
    <timestep time="39.00">
        <vehicle id="ToC_veh" x="2711.11" y="2570.07" angle="306.00" type="manual" speed="20.76" pos="205.61" lane="2/1to3/1_0" slope="0.00"/>
    </timestep>
    <timestep time="40.00">
        <vehicle id="ToC_veh" x="2694.56" y="2582.10" angle="306.00" type="manual" speed="20.46" pos="226.07" lane="2/1to3/1_0" slope="0.00"/>
    </timestep>
    <timestep time="41.00">
        <vehicle id="ToC_veh" x="2677.91" y="2594.19" angle="306.00" type="manual" speed="20.58" pos="246.65" lane="2/1to3/1_0" slope="0.00"/>
    </timestep>
    <timestep time="42.00">
        <vehicle id="ToC_veh" x="2661.73" y="2605.95" angle="306.00" type="manual" speed="20.01" pos="266.65" lane="2/1to3/1_0" slope="0.00"/>
    </timestep>
    <timestep time="43.00">
        <vehicle id="ToC_veh" x="2645.16" y="2617.99" angle="306.00" type="manual" speed="20.47" pos="287.13" lane="2/1to3/1_0" slope="0.00"/>
    </timestep>
    <timestep time="44.00">
        <vehicle id="ToC_veh" x="2628.46" y="2630.12" angle="306.00" type="manual" speed="20.65" pos="307.78" lane="2/1to3/1_0" slope="0.00"/>
    </timestep>
    <timestep time="45.00">
        <vehicle id="ToC_veh" x="2612.63" y="2641.62" angle="306.00" type="manual" speed="19.57" pos="327.34" lane="2/1to3/1_0" slope="0.00"/>
    </timestep>
    <timestep time="46.00">
        <vehicle id="ToC_veh" x="2596.11" y="2653.62" angle="306.00" type="manual" speed="20.42" pos="347.76" lane="2/1to3/1_0" slope="0.00"/>
    </timestep>
    <timestep time="47.00">
        <vehicle id="ToC_veh" x="2580.28" y="2665.12" angle="306.00" type="manual" speed="19.57" pos="367.32" lane="2/1to3/1_0" slope="0.00"/>
    </timestep>
    <timestep time="48.00">
        <vehicle id="ToC_veh" x="2563.62" y="2677.23" angle="306.00" type="manual" speed="20.59" pos="387.92" lane="2/1to3/1_0" slope="0.00"/>
    </timestep>
    <timestep time="49.00">
        <vehicle id="ToC_veh" x="2547.31" y="2689.08" angle="306.00" type="manual" speed="20.16" pos="408.08" lane="2/1to3/1_0" slope="0.00"/>
    </timestep>
    <timestep time="50.00">
        <vehicle id="ToC_veh" x="2531.06" y="2700.88" angle="306.00" type="manual" speed="20.08" pos="428.16" lane="2/1to3/1_0" slope="0.00"/>
    </timestep>
    <timestep time="51.00">
        <vehicle id="ToC_veh" x="2514.59" y="2712.85" angle="306.00" type="manual" speed="20.36" pos="448.53" lane="2/1to3/1_0" slope="0.00"/>
    </timestep>
    <timestep time="52.00">
        <vehicle id="ToC_veh" x="2498.05" y="2724.87" angle="306.00" type="manual" speed="20.44" pos="468.97" lane="2/1to3/1_0" slope="0.00"/>
    </timestep>
    <timestep time="53.00">
        <vehicle id="ToC_veh" x="2481.29" y="2737.05" angle="306.00" type="manual" speed="20.72" pos="489.69" lane="2/1to3/1_0" slope="0.00"/>
    </timestep>
    <timestep time="54.00">
        <vehicle id="ToC_veh" x="2465.27" y="2748.68" angle="306.00" type="manual" speed="19.80" pos="509.49" lane="2/1to3/1_0" slope="0.00"/>
    </timestep>
    <timestep time="55.00">
        <vehicle id="ToC_veh" x="2448.70" y="2760.72" angle="306.00" type="manual" speed="20.48" pos="529.97" lane="2/1to3/1_0" slope="0.00"/>
    </timestep>
    <timestep time="56.00">
        <vehicle id="ToC_veh" x="2432.20" y="2772.71" angle="306.00" type="manual" speed="20.40" pos="550.36" lane="2/1to3/1_0" slope="0.00"/>
    </timestep>
    <timestep time="57.00">
        <vehicle id="ToC_veh" x="2416.21" y="2784.33" angle="306.00" type="manual" speed="19.76" pos="570.13" lane="2/1to3/1_0" slope="0.00"/>
    </timestep>
    <timestep time="58.00">
        <vehicle id="ToC_veh" x="2399.49" y="2796.48" angle="306.00" type="manual" speed="20.68" pos="590.80" lane="2/1to3/1_0" slope="0.00"/>
    </timestep>
    <timestep time="59.00">
        <vehicle id="ToC_veh" x="2383.48" y="2808.11" angle="306.00" type="manual" speed="19.78" pos="610.58" lane="2/1to3/1_0" slope="0.00"/>
    </timestep>
    <timestep time="60.00">
        <vehicle id="ToC_veh" x="2367.43" y="2819.77" angle="306.00" type="manual" speed="19.84" pos="630.42" lane="2/1to3/1_0" slope="0.00"/>
    </timestep>
    <timestep time="61.00">
        <vehicle id="ToC_veh" x="2351.15" y="2831.60" angle="306.00" type="manual" speed="20.13" pos="650.55" lane="2/1to3/1_0" slope="0.00"/>
    </timestep>
    <timestep time="62.00">
        <vehicle id="ToC_veh" x="2334.51" y="2843.68" angle="306.00" type="manual" speed="20.56" pos="671.11" lane="2/1to3/1_0" slope="0.00"/>
    </timestep>
    <timestep time="63.00">
        <vehicle id="ToC_veh" x="2318.58" y="2855.26" angle="306.00" type="manual" speed="19.70" pos="690.81" lane="2/1to3/1_0" slope="0.00"/>
    </timestep>
    <timestep time="64.00">
        <vehicle id="ToC_veh" x="2302.07" y="2867.26" angle="306.00" type="manual" speed="20.41" pos="711.22" lane="2/1to3/1_0" slope="0.00"/>
    </timestep>
    <timestep time="65.00">
        <vehicle id="ToC_veh" x="2285.42" y="2879.35" angle="306.00" type="manual" speed="20.58" pos="731.80" lane="2/1to3/1_0" slope="0.00"/>
    </timestep>
    <timestep time="66.00">
        <vehicle id="ToC_veh" x="2269.48" y="2890.94" angle="306.00" type="manual" speed="19.70" pos="751.50" lane="2/1to3/1_0" slope="0.00"/>
    </timestep>
    <timestep time="67.00">
        <vehicle id="ToC_veh" x="2253.15" y="2902.80" angle="306.00" type="manual" speed="20.18" pos="771.68" lane="2/1to3/1_0" slope="0.00"/>
    </timestep>
    <timestep time="68.00">
        <vehicle id="ToC_veh" x="2237.11" y="2914.45" angle="306.00" type="manual" speed="19.82" pos="791.51" lane="2/1to3/1_0" slope="0.00"/>
    </timestep>
    <timestep time="69.00">
        <vehicle id="ToC_veh" x="2220.77" y="2926.33" angle="306.00" type="manual" speed="20.21" pos="811.71" lane="2/1to3/1_0" slope="0.00"/>
    </timestep>
    <timestep time="70.00">
        <vehicle id="ToC_veh" x="2204.80" y="2937.93" angle="306.00" type="manual" speed="19.74" pos="831.45" lane="2/1to3/1_0" slope="0.00"/>
    </timestep>
    <timestep time="71.00">
        <vehicle id="ToC_veh" x="2188.40" y="2949.84" angle="306.00" type="manual" speed="20.27" pos="851.72" lane="2/1to3/1_0" slope="0.00"/>
    </timestep>
    <timestep time="72.00">
        <vehicle id="ToC_veh" x="2172.52" y="2961.38" angle="306.00" type="manual" speed="19.63" pos="871.35" lane="2/1to3/1_0" slope="0.00"/>
    </timestep>
    <timestep time="73.00">
        <vehicle id="ToC_veh" x="2156.50" y="2973.02" angle="306.00" type="manual" speed="19.81" pos="891.15" lane="2/1to3/1_0" slope="0.00"/>
    </timestep>
    <timestep time="74.00">
        <vehicle id="ToC_veh" x="2139.69" y="2985.23" angle="306.00" type="manual" speed="20.77" pos="911.93" lane="2/1to3/1_0" slope="0.00"/>
    </timestep>
    <timestep time="75.00">
        <vehicle id="ToC_veh" x="2123.23" y="2997.19" angle="306.00" type="manual" speed="20.34" pos="932.27" lane="2/1to3/1_0" slope="0.00"/>
    </timestep>
    <timestep time="76.00">
        <vehicle id="ToC_veh" x="2106.53" y="3009.32" angle="306.00" type="manual" speed="20.64" pos="952.92" lane="2/1to3/1_0" slope="0.00"/>
    </timestep>
    <timestep time="77.00">
        <vehicle id="ToC_veh" x="2089.84" y="3021.45" angle="306.00" type="manual" speed="20.63" pos="973.55" lane="2/1to3/1_0" slope="0.00"/>
    </timestep>
    <timestep time="78.00">
        <vehicle id="ToC_veh" x="2070.31" y="3027.41" angle="270.00" type="manual" speed="20.35" pos="9.74" lane="3/1to4/1_0" slope="0.00"/>
    </timestep>
    <timestep time="79.00">
        <vehicle id="ToC_veh" x="2049.75" y="3027.41" angle="270.00" type="manual" speed="20.57" pos="30.30" lane="3/1to4/1_0" slope="0.00"/>
    </timestep>
    <timestep time="80.00">
        <vehicle id="ToC_veh" x="2030.23" y="3027.41" angle="270.00" type="manual" speed="19.52" pos="49.82" lane="3/1to4/1_0" slope="0.00"/>
    </timestep>
    <timestep time="81.00">
        <vehicle id="ToC_veh" x="2010.26" y="3027.41" angle="270.00" type="manual" speed="19.96" pos="69.78" lane="3/1to4/1_0" slope="0.00"/>
    </timestep>
    <timestep time="82.00">
        <vehicle id="ToC_veh" x="1989.99" y="3027.41" angle="270.00" type="manual" speed="20.27" pos="90.05" lane="3/1to4/1_0" slope="0.00"/>
    </timestep>
    <timestep time="83.00">
        <vehicle id="ToC_veh" x="1970.30" y="3027.41" angle="270.00" type="manual" speed="19.69" pos="109.74" lane="3/1to4/1_0" slope="0.00"/>
    </timestep>
    <timestep time="84.00">
        <vehicle id="ToC_veh" x="1949.57" y="3027.41" angle="270.00" type="manual" speed="20.73" pos="130.48" lane="3/1to4/1_0" slope="0.00"/>
    </timestep>
    <timestep time="85.00">
        <vehicle id="ToC_veh" x="1930.09" y="3027.41" angle="270.00" type="manual" speed="19.48" pos="149.96" lane="3/1to4/1_0" slope="0.00"/>
    </timestep>
    <timestep time="86.00">
        <vehicle id="ToC_veh" x="1909.45" y="3027.41" angle="270.00" type="manual" speed="20.64" pos="170.60" lane="3/1to4/1_0" slope="0.00"/>
    </timestep>
    <timestep time="87.00">
        <vehicle id="ToC_veh" x="1889.38" y="3027.41" angle="270.00" type="manual" speed="20.07" pos="190.66" lane="3/1to4/1_0" slope="0.00"/>
    </timestep>
    <timestep time="88.00">
        <vehicle id="ToC_veh" x="1869.49" y="3027.41" angle="270.00" type="manual" speed="19.90" pos="210.56" lane="3/1to4/1_0" slope="0.00"/>
    </timestep>
    <timestep time="89.00">
        <vehicle id="ToC_veh" x="1849.14" y="3027.41" angle="270.00" type="manual" speed="20.35" pos="230.91" lane="3/1to4/1_0" slope="0.00"/>
    </timestep>
    <timestep time="90.00">
        <vehicle id="ToC_veh" x="1828.96" y="3027.41" angle="270.00" type="manual" speed="20.18" pos="251.09" lane="3/1to4/1_0" slope="0.00"/>
    </timestep>
    <timestep time="91.00">
        <vehicle id="ToC_veh" x="1809.35" y="3027.41" angle="270.00" type="manual" speed="19.61" pos="270.70" lane="3/1to4/1_0" slope="0.00"/>
    </timestep>
    <timestep time="92.00">
        <vehicle id="ToC_veh" x="1788.60" y="3027.41" angle="270.00" type="manual" speed="20.75" pos="291.45" lane="3/1to4/1_0" slope="0.00"/>
    </timestep>
    <timestep time="93.00">
        <vehicle id="ToC_veh" x="1768.44" y="3027.41" angle="270.00" type="manual" speed="20.16" pos="311.61" lane="3/1to4/1_0" slope="0.00"/>
    </timestep>
    <timestep time="94.00">
        <vehicle id="ToC_veh" x="1748.30" y="3027.41" angle="270.00" type="manual" speed="20.14" pos="331.75" lane="3/1to4/1_0" slope="0.00"/>
    </timestep>
    <timestep time="95.00">
        <vehicle id="ToC_veh" x="1727.57" y="3027.41" angle="270.00" type="manual" speed="20.73" pos="352.48" lane="3/1to4/1_0" slope="0.00"/>
    </timestep>
    <timestep time="96.00">
        <vehicle id="ToC_veh" x="1707.92" y="3027.41" angle="270.00" type="manual" speed="19.64" pos="372.12" lane="3/1to4/1_0" slope="0.00"/>
    </timestep>
    <timestep time="97.00">
        <vehicle id="ToC_veh" x="1687.23" y="3027.41" angle="270.00" type="manual" speed="20.69" pos="392.82" lane="3/1to4/1_0" slope="0.00"/>
    </timestep>
    <timestep time="98.00">
        <vehicle id="ToC_veh" x="1667.06" y="3027.41" angle="270.00" type="manual" speed="20.17" pos="412.99" lane="3/1to4/1_0" slope="0.00"/>
    </timestep>
    <timestep time="99.00">
        <vehicle id="ToC_veh" x="1646.60" y="3027.41" angle="270.00" type="manual" speed="20.45" pos="433.44" lane="3/1to4/1_0" slope="0.00"/>
    </timestep>
    <timestep time="100.00">
        <vehicle id="ToC_veh" x="1625.97" y="3027.41" angle="270.00" type="manual" speed="20.63" pos="454.07" lane="3/1to4/1_0" slope="0.00"/>
    </timestep>
    <timestep time="101.00">
        <vehicle id="ToC_veh" x="1605.40" y="3027.41" angle="270.00" type="manual" speed="20.58" pos="474.65" lane="3/1to4/1_0" slope="0.00"/>
    </timestep>
    <timestep time="102.00">
        <vehicle id="ToC_veh" x="1585.17" y="3027.41" angle="270.00" type="manual" speed="20.22" pos="494.87" lane="3/1to4/1_0" slope="0.00"/>
    </timestep>
    <timestep time="103.00">
        <vehicle id="ToC_veh" x="1565.44" y="3027.41" angle="270.00" type="manual" speed="19.73" pos="514.60" lane="3/1to4/1_0" slope="0.00"/>
    </timestep>
    <timestep time="104.00">
        <vehicle id="ToC_veh" x="1545.32" y="3027.41" angle="270.00" type="manual" speed="20.12" pos="534.73" lane="3/1to4/1_0" slope="0.00"/>
    </timestep>
    <timestep time="105.00">
        <vehicle id="ToC_veh" x="1525.80" y="3027.41" angle="270.00" type="manual" speed="19.52" pos="554.25" lane="3/1to4/1_0" slope="0.00"/>
    </timestep>
    <timestep time="106.00">
        <vehicle id="ToC_veh" x="1506.03" y="3027.41" angle="270.00" type="manual" speed="19.76" pos="574.01" lane="3/1to4/1_0" slope="0.00"/>
    </timestep>
    <timestep time="107.00">
        <vehicle id="ToC_veh" x="1486.28" y="3027.41" angle="270.00" type="manual" speed="19.75" pos="593.76" lane="3/1to4/1_0" slope="0.00"/>
    </timestep>
    <timestep time="108.00">
        <vehicle id="ToC_veh" x="1466.61" y="3027.41" angle="270.00" type="manual" speed="19.68" pos="613.44" lane="3/1to4/1_0" slope="0.00"/>
    </timestep>
    <timestep time="109.00">
        <vehicle id="ToC_veh" x="1445.84" y="3027.41" angle="270.00" type="manual" speed="20.77" pos="634.20" lane="3/1to4/1_0" slope="0.00"/>
    </timestep>
    <timestep time="110.00">
        <vehicle id="ToC_veh" x="1425.22" y="3027.41" angle="270.00" type="manual" speed="20.62" pos="654.82" lane="3/1to4/1_0" slope="0.00"/>
    </timestep>
    <timestep time="111.00">
        <vehicle id="ToC_veh" x="1405.56" y="3027.41" angle="270.00" type="manual" speed="19.65" pos="674.48" lane="3/1to4/1_0" slope="0.00"/>
    </timestep>
    <timestep time="112.00">
        <vehicle id="ToC_veh" x="1385.00" y="3027.41" angle="270.00" type="manual" speed="20.56" pos="695.04" lane="3/1to4/1_0" slope="0.00"/>
    </timestep>
    <timestep time="113.00">
        <vehicle id="ToC_veh" x="1365.25" y="3027.41" angle="270.00" type="manual" speed="19.75" pos="714.79" lane="3/1to4/1_0" slope="0.00"/>
    </timestep>
    <timestep time="114.00">
        <vehicle id="ToC_veh" x="1344.84" y="3027.41" angle="270.00" type="manual" speed="20.41" pos="735.20" lane="3/1to4/1_0" slope="0.00"/>
    </timestep>
    <timestep time="115.00">
        <vehicle id="ToC_veh" x="1324.86" y="3027.41" angle="270.00" type="manual" speed="19.98" pos="755.18" lane="3/1to4/1_0" slope="0.00"/>
    </timestep>
    <timestep time="116.00">
        <vehicle id="ToC_veh" x="1304.22" y="3027.41" angle="270.00" type="manual" speed="20.64" pos="775.83" lane="3/1to4/1_0" slope="0.00"/>
    </timestep>
    <timestep time="117.00">
        <vehicle id="ToC_veh" x="1284.37" y="3027.41" angle="270.00" type="manual" speed="19.85" pos="795.67" lane="3/1to4/1_0" slope="0.00"/>
    </timestep>
    <timestep time="118.00">
        <vehicle id="ToC_veh" x="1264.48" y="3027.41" angle="270.00" type="manual" speed="19.88" pos="815.56" lane="3/1to4/1_0" slope="0.00"/>
    </timestep>
    <timestep time="119.00">
        <vehicle id="ToC_veh" x="1244.94" y="3027.41" angle="270.00" type="manual" speed="19.54" pos="835.10" lane="3/1to4/1_0" slope="0.00"/>
    </timestep>
    <timestep time="120.00">
        <vehicle id="ToC_veh" x="1225.28" y="3027.41" angle="270.00" type="manual" speed="19.66" pos="854.76" lane="3/1to4/1_0" slope="0.00"/>
    </timestep>
    <timestep time="121.00">
        <vehicle id="ToC_veh" x="1204.80" y="3027.41" angle="270.00" type="manual" speed="20.48" pos="875.24" lane="3/1to4/1_0" slope="0.00"/>
    </timestep>
    <timestep time="122.00">
        <vehicle id="ToC_veh" x="1184.52" y="3027.41" angle="270.00" type="manual" speed="20.28" pos="895.52" lane="3/1to4/1_0" slope="0.00"/>
    </timestep>
    <timestep time="123.00">
        <vehicle id="ToC_veh" x="1163.92" y="3027.41" angle="270.00" type="manual" speed="20.61" pos="916.12" lane="3/1to4/1_0" slope="0.00"/>
    </timestep>
    <timestep time="124.00">
        <vehicle id="ToC_veh" x="1143.68" y="3027.41" angle="270.00" type="manual" speed="20.24" pos="936.36" lane="3/1to4/1_0" slope="0.00"/>
    </timestep>
    <timestep time="125.00">
        <vehicle id="ToC_veh" x="1123.57" y="3027.41" angle="270.00" type="manual" speed="20.11" pos="956.47" lane="3/1to4/1_0" slope="0.00"/>
    </timestep>
    <timestep time="126.00">
        <vehicle id="ToC_veh" x="1103.35" y="3027.41" angle="270.00" type="manual" speed="20.22" pos="976.69" lane="3/1to4/1_0" slope="0.00"/>
    </timestep>
    <timestep time="127.00">
        <vehicle id="ToC_veh" x="1084.31" y="3018.65" angle="234.00" type="automated" speed="20.78" pos="13.30" lane="4/1to5/1_0" slope="0.00"/>
    </timestep>
    <timestep time="128.00">
        <vehicle id="ToC_veh" x="1067.50" y="3006.44" angle="234.00" type="automated" speed="20.78" pos="34.08" lane="4/1to5/1_0" slope="0.00"/>
    </timestep>
    <timestep time="129.00">
        <vehicle id="ToC_veh" x="1050.69" y="2994.23" angle="234.00" type="automated" speed="20.78" pos="54.85" lane="4/1to5/1_0" slope="0.00"/>
    </timestep>
    <timestep time="130.00">
        <vehicle id="ToC_veh" x="1033.88" y="2982.02" angle="234.00" type="automated" speed="20.78" pos="75.63" lane="4/1to5/1_0" slope="0.00"/>
    </timestep>
    <timestep time="131.00">
        <vehicle id="ToC_veh" x="1017.08" y="2969.80" angle="234.00" type="automated" speed="20.78" pos="96.41" lane="4/1to5/1_0" slope="0.00"/>
    </timestep>
    <timestep time="132.00">
        <vehicle id="ToC_veh" x="1000.27" y="2957.59" angle="234.00" type="automated" speed="20.78" pos="117.18" lane="4/1to5/1_0" slope="0.00"/>
    </timestep>
    <timestep time="133.00">
        <vehicle id="ToC_veh" x="983.46" y="2945.38" angle="234.00" type="automated" speed="20.78" pos="137.96" lane="4/1to5/1_0" slope="0.00"/>
    </timestep>
    <timestep time="134.00">
        <vehicle id="ToC_veh" x="966.65" y="2933.17" angle="234.00" type="automated" speed="20.78" pos="158.73" lane="4/1to5/1_0" slope="0.00"/>
    </timestep>
    <timestep time="135.00">
        <vehicle id="ToC_veh" x="949.84" y="2920.96" angle="234.00" type="automated" speed="20.78" pos="179.51" lane="4/1to5/1_0" slope="0.00"/>
    </timestep>
    <timestep time="136.00">
        <vehicle id="ToC_veh" x="933.04" y="2908.75" angle="234.00" type="automated" speed="20.78" pos="200.29" lane="4/1to5/1_0" slope="0.00"/>
    </timestep>
    <timestep time="137.00">
        <vehicle id="ToC_veh" x="916.23" y="2896.53" angle="234.00" type="automated" speed="20.78" pos="221.06" lane="4/1to5/1_0" slope="0.00"/>
    </timestep>
    <timestep time="138.00">
        <vehicle id="ToC_veh" x="899.42" y="2884.32" angle="234.00" type="automated" speed="20.78" pos="241.84" lane="4/1to5/1_0" slope="0.00"/>
    </timestep>
    <timestep time="139.00">
        <vehicle id="ToC_veh" x="882.61" y="2872.11" angle="234.00" type="automated" speed="20.78" pos="262.61" lane="4/1to5/1_0" slope="0.00"/>
    </timestep>
    <timestep time="140.00">
        <vehicle id="ToC_veh" x="865.80" y="2859.90" angle="234.00" type="automated" speed="20.78" pos="283.39" lane="4/1to5/1_0" slope="0.00"/>
    </timestep>
    <timestep time="141.00">
        <vehicle id="ToC_veh" x="849.00" y="2847.69" angle="234.00" type="automated" speed="20.78" pos="304.17" lane="4/1to5/1_0" slope="0.00"/>
    </timestep>
    <timestep time="142.00">
        <vehicle id="ToC_veh" x="832.19" y="2835.48" angle="234.00" type="automated" speed="20.78" pos="324.94" lane="4/1to5/1_0" slope="0.00"/>
    </timestep>
    <timestep time="143.00">
        <vehicle id="ToC_veh" x="815.38" y="2823.26" angle="234.00" type="automated" speed="20.78" pos="345.72" lane="4/1to5/1_0" slope="0.00"/>
    </timestep>
    <timestep time="144.00">
        <vehicle id="ToC_veh" x="798.57" y="2811.05" angle="234.00" type="automated" speed="20.78" pos="366.49" lane="4/1to5/1_0" slope="0.00"/>
    </timestep>
    <timestep time="145.00">
        <vehicle id="ToC_veh" x="781.76" y="2798.84" angle="234.00" type="automated" speed="20.78" pos="387.27" lane="4/1to5/1_0" slope="0.00"/>
    </timestep>
    <timestep time="146.00">
        <vehicle id="ToC_veh" x="764.96" y="2786.63" angle="234.00" type="automated" speed="20.78" pos="408.05" lane="4/1to5/1_0" slope="0.00"/>
    </timestep>
    <timestep time="147.00">
        <vehicle id="ToC_veh" x="748.15" y="2774.42" angle="234.00" type="automated" speed="20.78" pos="428.82" lane="4/1to5/1_0" slope="0.00"/>
    </timestep>
    <timestep time="148.00">
        <vehicle id="ToC_veh" x="731.34" y="2762.21" angle="234.00" type="automated" speed="20.78" pos="449.60" lane="4/1to5/1_0" slope="0.00"/>
    </timestep>
    <timestep time="149.00">
        <vehicle id="ToC_veh" x="714.53" y="2749.99" angle="234.00" type="automated" speed="20.78" pos="470.37" lane="4/1to5/1_0" slope="0.00"/>
    </timestep>
    <timestep time="150.00">
        <vehicle id="ToC_veh" x="697.72" y="2737.78" angle="234.00" type="automated" speed="20.78" pos="491.15" lane="4/1to5/1_0" slope="0.00"/>
    </timestep>
    <timestep time="151.00">
        <vehicle id="ToC_veh" x="680.92" y="2725.57" angle="234.00" type="automated" speed="20.78" pos="511.93" lane="4/1to5/1_0" slope="0.00"/>
    </timestep>
    <timestep time="152.00">
        <vehicle id="ToC_veh" x="664.11" y="2713.36" angle="234.00" type="automated" speed="20.78" pos="532.70" lane="4/1to5/1_0" slope="0.00"/>
    </timestep>
    <timestep time="153.00">
        <vehicle id="ToC_veh" x="647.30" y="2701.15" angle="234.00" type="automated" speed="20.78" pos="553.48" lane="4/1to5/1_0" slope="0.00"/>
    </timestep>
    <timestep time="154.00">