<?xml version="1.0" encoding="UTF-8"?>

<!-- generated on 2021-11-01 12:05:07 by Eclipse SUMO sumo Version v1_10_0+1802-17d3abe
This data file and the accompanying materials
are made available under the terms of the Eclipse Public License v2.0
which accompanies this distribution, and is available at
http://www.eclipse.org/legal/epl-v20.html
SPDX-License-Identifier: EPL-2.0
<configuration xmlns:xsi="http://www.w3.org/2001/XMLSchema-instance" xsi:noNamespaceSchemaLocation="http://sumo.dlr.de/xsd/sumoConfiguration.xsd">

    <input>
        <net-file value="net.net.xml"/>
        <route-files value="input_routes.rou.xml"/>
    </input>

    <output>
        <write-license value="true"/>
        <fcd-output value="fcd.xml"/>
    </output>

    <processing>
        <time-to-teleport value="10"/>
        <default.speeddev value="0"/>
    </processing>

    <report>
        <xml-validation value="never"/>
        <xml-validation.routes value="never"/>
        <no-step-log value="true"/>
    </report>

</configuration>
-->

<fcd-export xmlns:xsi="http://www.w3.org/2001/XMLSchema-instance" xsi:noNamespaceSchemaLocation="http://sumo.dlr.de/xsd/fcd_file.xsd">
    <timestep time="0.00">
        <vehicle id="ego" x="-194.90" y="100.00" angle="90.00" type="t0" speed="0.00" pos="5.10" lane="beg_0" slope="0.00"/>
    </timestep>
    <timestep time="1.00">
        <vehicle id="ego" x="-193.47" y="100.05" angle="90.00" type="t0" speed="1.43" pos="6.53" lane="beg_0" slope="0.00"/>
    </timestep>
    <timestep time="2.00">
        <vehicle id="ego" x="-189.43" y="99.90" angle="90.00" type="t0" speed="4.03" pos="10.57" lane="beg_0" slope="0.00"/>
    </timestep>
    <timestep time="3.00">
        <vehicle id="ego" x="-183.23" y="99.95" angle="90.00" type="t0" speed="6.21" pos="16.77" lane="beg_0" slope="0.00"/>
    </timestep>
    <timestep time="4.00">
        <vehicle id="ego" x="-174.59" y="100.37" angle="90.00" type="t0" speed="8.63" pos="25.41" lane="beg_0" slope="0.00"/>
    </timestep>
    <timestep time="5.00">
        <vehicle id="ego" x="-163.93" y="100.47" angle="90.00" type="t0" speed="10.67" pos="36.07" lane="beg_0" slope="0.00"/>
    </timestep>
    <timestep time="6.00">
        <vehicle id="ego" x="-150.84" y="99.08" angle="90.00" type="t0" speed="13.09" pos="49.16" lane="beg_0" slope="0.00"/>
    </timestep>
    <timestep time="7.00">
        <vehicle id="ego" x="-138.07" y="99.66" angle="90.00" type="t0" speed="12.76" pos="61.93" lane="beg_0" slope="0.00"/>
    </timestep>
    <timestep time="8.00">
        <vehicle id="ego" x="-125.43" y="98.92" angle="90.00" type="t0" speed="12.65" pos="74.57" lane="beg_0" slope="0.00"/>
    </timestep>
    <timestep time="9.00">
        <vehicle id="ego" x="-112.16" y="98.74" angle="90.00" type="t0" speed="13.27" pos="87.84" lane="beg_0" slope="0.00"/>
    </timestep>
    <timestep time="10.00">
        <vehicle id="ego" x="-99.52" y="98.04" angle="90.00" type="t0" speed="12.64" pos="100.48" lane="beg_0" slope="0.00"/>
    </timestep>
    <timestep time="11.00">
        <vehicle id="ego" x="-85.80" y="99.30" angle="90.00" type="t0" speed="13.72" pos="114.20" lane="beg_0" slope="0.00"/>
    </timestep>
    <timestep time="12.00">
        <vehicle id="ego" x="-72.55" y="99.69" angle="90.00" type="t0" speed="13.25" pos="127.45" lane="beg_0" slope="0.00"/>
    </timestep>
    <timestep time="13.00">
        <vehicle id="ego" x="-59.31" y="100.13" angle="90.00" type="t0" speed="13.24" pos="140.69" lane="beg_0" slope="0.00"/>
    </timestep>
    <timestep time="14.00">
        <vehicle id="ego" x="-46.25" y="101.01" angle="90.00" type="t0" speed="13.06" pos="153.75" lane="beg_0" slope="0.00"/>
    </timestep>
    <timestep time="15.00">
        <vehicle id="ego" x="-33.28" y="100.68" angle="90.00" type="t0" speed="12.97" pos="166.72" lane="beg_0" slope="0.00"/>
    </timestep>
    <timestep time="16.00">
        <vehicle id="ego" x="-19.43" y="99.91" angle="90.00" type="t0" speed="13.85" pos="180.57" lane="beg_0" slope="0.00"/>
    </timestep>
    <timestep time="17.00">
        <vehicle id="ego" x="-5.86" y="98.99" angle="90.00" type="t0" speed="13.57" pos="194.14" lane="beg_0" slope="0.00"/>
    </timestep>
    <timestep time="18.00">
        <vehicle id="ego" x="7.17" y="98.82" angle="90.00" type="t0" speed="13.04" pos="207.17" lane="beg_0" slope="0.00"/>
    </timestep>
    <timestep time="19.00">
        <vehicle id="ego" x="20.26" y="98.66" angle="90.00" type="t0" speed="13.08" pos="220.26" lane="beg_0" slope="0.00"/>
    </timestep>
    <timestep time="20.00">
        <vehicle id="ego" x="33.80" y="100.25" angle="90.00" type="t0" speed="13.54" pos="233.80" lane="beg_0" slope="0.00"/>
    </timestep>
    <timestep time="21.00">
        <vehicle id="ego" x="47.40" y="100.32" angle="90.00" type="t0" speed="13.60" pos="247.40" lane="beg_0" slope="0.00"/>
    </timestep>
    <timestep time="22.00">
        <vehicle id="ego" x="60.27" y="100.31" angle="90.00" type="t0" speed="12.88" pos="260.27" lane="beg_0" slope="0.00"/>
    </timestep>
    <timestep time="23.00">
        <vehicle id="ego" x="73.78" y="100.03" angle="90.00" type="t0" speed="13.51" pos="273.78" lane="beg_0" slope="0.00"/>
    </timestep>
    <timestep time="24.00">
        <vehicle id="ego" x="87.39" y="99.17" angle="90.00" type="t0" speed="13.61" pos="287.39" lane="beg_0" slope="0.00"/>
    </timestep>
    <timestep time="25.00">
        <vehicle id="ego" x="100.28" y="98.11" angle="90.00" type="t0" speed="12.88" pos="11.88" lane=":J1_1_0" slope="0.00"/>
    </timestep>
    <timestep time="26.00">
        <vehicle id="ego" x="111.60" y="97.72" angle="90.00" type="t0" speed="11.32" pos="23.20" lane=":J1_1_0" slope="0.00"/>
    </timestep>
    <timestep time="27.00">
        <vehicle id="ego" x="111.60" y="97.72" angle="90.00" type="t0" speed="0.00" pos="23.20" lane=":J1_1_0" slope="0.00"/>
    </timestep>
    <timestep time="28.00">
        <vehicle id="ego" x="111.60" y="97.72" angle="90.00" type="t0" speed="0.00" pos="23.20" lane=":J1_1_0" slope="0.00"/>
    </timestep>
    <timestep time="29.00">
        <vehicle id="ego" x="111.60" y="97.72" angle="90.00" type="t0" speed="0.00" pos="23.20" lane=":J1_1_0" slope="0.00"/>
    </timestep>
    <timestep time="30.00">
        <vehicle id="ego" x="111.60" y="97.72" angle="90.00" type="t0" speed="0.00" pos="23.20" lane=":J1_1_0" slope="0.00"/>
    </timestep>
    <timestep time="31.00">
        <vehicle id="ego" x="111.60" y="97.72" angle="90.00" type="t0" speed="0.00" pos="23.20" lane=":J1_1_0" slope="0.00"/>
    </timestep>
    <timestep time="32.00">
        <vehicle id="ego" x="111.60" y="97.72" angle="90.00" type="t0" speed="0.00" pos="23.20" lane=":J1_1_0" slope="0.00"/>
    </timestep>
    <timestep time="33.00">
        <vehicle id="ego" x="111.60" y="97.72" angle="90.00" type="t0" speed="0.00" pos="23.20" lane=":J1_1_0" slope="0.00"/>
    </timestep>
    <timestep time="34.00">
        <vehicle id="ego" x="111.60" y="97.72" angle="90.00" type="t0" speed="0.00" pos="23.20" lane=":J1_1_0" slope="0.00"/>
    </timestep>
    <timestep time="35.00">
        <vehicle id="ego" x="111.60" y="97.72" angle="90.00" type="t0" speed="0.00" pos="23.20" lane=":J1_1_0" slope="0.00"/>
    </timestep>
    <timestep time="36.00">
        <vehicle id="ego" x="111.60" y="97.72" angle="90.00" type="t0" speed="0.00" pos="23.20" lane=":J1_1_0" slope="0.00"/>
    </timestep>
    <timestep time="37.00">
        <vehicle id="ego" x="116.60" y="100.00" angle="90.00" type="t0" speed="13.89" pos="5.00" lane="end_0" slope="0.00"/>
    </timestep>
    <timestep time="38.00">
        <vehicle id="ego" x="129.91" y="101.36" angle="90.00" type="t0" speed="13.31" pos="18.31" lane="end_0" slope="0.00"/>
    </timestep>
    <timestep time="39.00">
        <vehicle id="ego" x="143.03" y="101.76" angle="90.00" type="t0" speed="13.12" pos="31.43" lane="end_0" slope="0.00"/>
    </timestep>
    <timestep time="40.00">
        <vehicle id="ego" x="156.66" y="100.50" angle="90.00" type="t0" speed="13.63" pos="45.06" lane="end_0" slope="0.00"/>
    </timestep>
    <timestep time="41.00">
        <vehicle id="ego" x="170.47" y="100.60" angle="90.00" type="t0" speed="13.81" pos="58.87" lane="end_0" slope="0.00"/>
    </timestep>
    <timestep time="42.00">
        <vehicle id="ego" x="183.45" y="100.12" angle="90.00" type="t0" speed="12.98" pos="71.85" lane="end_0" slope="0.00"/>
    </timestep>
    <timestep time="43.00">
        <vehicle id="ego" x="197.08" y="100.80" angle="90.00" type="t0" speed="13.64" pos="85.48" lane="end_0" slope="0.00"/>
    </timestep>
    <timestep time="44.00"/>
</fcd-export>
