<?xml version="1.0" encoding="UTF-8"?>

<!-- generated on 2022-01-14 15:01:27 by Eclipse SUMO sumo Version v1_11_0+1159-1cf7001
This data file and the accompanying materials
are made available under the terms of the Eclipse Public License v2.0
which accompanies this distribution, and is available at
http://www.eclipse.org/legal/epl-v20.html
SPDX-License-Identifier: EPL-2.0
<configuration xmlns:xsi="http://www.w3.org/2001/XMLSchema-instance" xsi:noNamespaceSchemaLocation="http://sumo.dlr.de/xsd/sumoConfiguration.xsd">

    <input>
        <net-file value="net.net.xml"/>
        <route-files value="input_routes.rou.xml"/>
    </input>

    <output>
        <write-license value="true"/>
        <fcd-output value="fcd.xml"/>
        <fcd-output.acceleration value="true"/>
        <fcd-output.attributes value="acceleration"/>
    </output>

    <time>
        <end value="5"/>
        <step-length value="0.2"/>
    </time>

    <processing>
        <default.speeddev value="0"/>
        <pedestrian.model value="nonInteracting"/>
    </processing>

    <report>
        <xml-validation value="never"/>
        <xml-validation.routes value="never"/>
        <duration-log.disable value="true"/>
        <no-step-log value="true"/>
    </report>

    <fcd_device>
        <device.fcd.explicit value="ego"/>
    </fcd_device>

    <mesoscopic>
        <mesosim value="true"/>
        <meso-junction-control value="true"/>
    </mesoscopic>

    <gui_only>
        <tracker-interval value="0.2"/>
    </gui_only>

</configuration>
-->

<fcd-export xmlns:xsi="http://www.w3.org/2001/XMLSchema-instance" xsi:noNamespaceSchemaLocation="http://sumo.dlr.de/xsd/fcd_file.xsd">
    <timestep time="0.00">
        <vehicle id="ego"/>
    </timestep>
    <timestep time="0.20">
        <vehicle id="ego"/>
    </timestep>
    <timestep time="0.40">
        <vehicle id="ego"/>
    </timestep>
    <timestep time="0.60">
        <vehicle id="ego"/>
    </timestep>
    <timestep time="0.80">
        <vehicle id="ego"/>
    </timestep>
    <timestep time="1.00">
        <vehicle id="ego"/>
    </timestep>
    <timestep time="1.20">
        <vehicle id="ego"/>
    </timestep>
    <timestep time="1.40">
        <vehicle id="ego"/>
    </timestep>
    <timestep time="1.60">
        <vehicle id="ego"/>
    </timestep>
    <timestep time="1.80">
        <vehicle id="ego"/>
    </timestep>
    <timestep time="2.00">
        <vehicle id="ego"/>
    </timestep>
    <timestep time="2.20">
        <vehicle id="ego"/>
    </timestep>
    <timestep time="2.40">
        <vehicle id="ego"/>
    </timestep>
    <timestep time="2.60">
        <vehicle id="ego"/>
    </timestep>
    <timestep time="2.80">
        <vehicle id="ego"/>
    </timestep>
    <timestep time="3.00">
        <vehicle id="ego"/>
    </timestep>
    <timestep time="3.20">
        <vehicle id="ego"/>
    </timestep>
    <timestep time="3.40">
        <vehicle id="ego"/>
    </timestep>
    <timestep time="3.60">
        <vehicle id="ego"/>
    </timestep>
    <timestep time="3.80">
        <vehicle id="ego"/>
    </timestep>
    <timestep time="4.00">
        <vehicle id="ego"/>
    </timestep>
    <timestep time="4.20">
        <vehicle id="ego"/>
    </timestep>
    <timestep time="4.40">
        <vehicle id="ego"/>
    </timestep>
    <timestep time="4.60">
        <vehicle id="ego"/>
    </timestep>
    <timestep time="4.80">
        <vehicle id="ego"/>
    </timestep>
</fcd-export>
