<?xml version="1.0" encoding="UTF-8"?>

<!-- generated on 2022-11-03 20:39:07 by Eclipse SUMO sumo Version v1_14_1+2214-c901407
This data file and the accompanying materials
are made available under the terms of the Eclipse Public License v2.0
which accompanies this distribution, and is available at
http://www.eclipse.org/legal/epl-v20.html
This file may also be made available under the following Secondary
Licenses when the conditions for such availability set forth in the Eclipse
Public License 2.0 are satisfied: GNU General Public License, version 2
or later which is available at
https://www.gnu.org/licenses/old-licenses/gpl-2.0-standalone.html
SPDX-License-Identifier: EPL-2.0 OR GPL-2.0-or-later
<configuration xmlns:xsi="http://www.w3.org/2001/XMLSchema-instance" xsi:noNamespaceSchemaLocation="http://sumo.dlr.de/xsd/sumoConfiguration.xsd">

    <input>
        <net-file value="net.net.xml"/>
        <additional-files value="input_routes.rou.xml"/>
    </input>

    <output>
        <write-license value="true"/>
        <tripinfo-output value="tripinfos.xml"/>
        <bt-output value="bt.xml"/>
    </output>

    <time>
        <begin value="0"/>
    </time>

    <processing>
        <default.speeddev value="0"/>
    </processing>

    <report>
        <xml-validation value="never"/>
        <duration-log.disable value="true"/>
        <no-step-log value="true"/>
    </report>

    <communication>
        <device.btreceiver.probability value="1"/>
        <device.btreceiver.range value="50"/>
        <device.btreceiver.all-recognitions value="true"/>
        <device.btsender.probability value="1"/>
        <person-device.btsender.probability value="1"/>
        <person-device.btreceiver.probability value="1"/>
    </communication>

    <mesoscopic>
        <mesosim value="true"/>
    </mesoscopic>

</configuration>
-->

<tripinfos xmlns:xsi="http://www.w3.org/2001/XMLSchema-instance" xsi:noNamespaceSchemaLocation="http://sumo.dlr.de/xsd/tripinfo_file.xsd">
    <personinfo id="2" depart="0.00" type="DEFAULT_PEDTYPE" speedFactor="1.00">
        <stop duration="300.00" arrival="300.00" arrivalPos="0.00" actType="waiting"/>
    </personinfo>
    <tripinfo id="1" depart="0.00" departLane="" departPos="0.00" departSpeed="13.89" departDelay="0.00" arrival="360.00" arrivalLane="" arrivalPos="5000.00" arrivalSpeed="13.89" duration="360.00" routeLength="5000.00" waitingTime="0.00" waitingCount="0" stopTime="0.00" timeLoss="0.00" rerouteNo="0" devices="tripinfo_1 btreceiver_1 btsender_1" vType="DEFAULT_VEHTYPE" speedFactor="1.00" vaporized=""/>
</tripinfos>
