<?xml version="1.0" encoding="UTF-8"?>

<!-- generated on 2022-09-27 16:42:42 by Eclipse SUMO sumo Version v1_14_1+1289-c73100f
This data file and the accompanying materials
are made available under the terms of the Eclipse Public License v2.0
which accompanies this distribution, and is available at
http://www.eclipse.org/legal/epl-v20.html
This file may also be made available under the following Secondary
Licenses when the conditions for such availability set forth in the Eclipse
Public License 2.0 are satisfied: GNU General Public License, version 2
or later which is available at
https://www.gnu.org/licenses/old-licenses/gpl-2.0-standalone.html
SPDX-License-Identifier: EPL-2.0 OR GPL-2.0-or-later
<configuration xmlns:xsi="http://www.w3.org/2001/XMLSchema-instance" xsi:noNamespaceSchemaLocation="http://sumo.dlr.de/xsd/sumoConfiguration.xsd">

    <input>
        <net-file value="net.net.xml"/>
        <route-files value="input_routes.rou.xml"/>
    </input>

    <output>
        <write-license value="true"/>
        <fcd-output value="fcd.xml"/>
        <fcd-output.attributes value="acceleration"/>
    </output>

    <time>
        <step-length value="0.25"/>
    </time>

    <processing>
        <default.carfollowmodel value="W99"/>
        <default.speeddev value="0"/>
    </processing>

    <report>
        <xml-validation value="never"/>
        <no-step-log value="true"/>
    </report>

    <fcd_device>
        <device.fcd.explicit value="flow.9"/>
    </fcd_device>

</configuration>
-->

<fcd-export xmlns:xsi="http://www.w3.org/2001/XMLSchema-instance" xsi:noNamespaceSchemaLocation="http://sumo.dlr.de/xsd/fcd_file.xsd">
    <timestep time="0.00"/>
    <timestep time="0.25"/>
    <timestep time="0.50"/>
    <timestep time="0.75"/>
    <timestep time="1.00"/>
    <timestep time="1.25"/>
    <timestep time="1.50"/>
    <timestep time="1.75"/>
    <timestep time="2.00"/>
    <timestep time="2.25"/>
    <timestep time="2.50"/>
    <timestep time="2.75"/>
    <timestep time="3.00"/>
    <timestep time="3.25"/>
    <timestep time="3.50"/>
    <timestep time="3.75"/>
    <timestep time="4.00"/>
    <timestep time="4.25"/>
    <timestep time="4.50"/>
    <timestep time="4.75"/>
    <timestep time="5.00"/>
    <timestep time="5.25"/>
    <timestep time="5.50"/>
    <timestep time="5.75"/>
    <timestep time="6.00"/>
    <timestep time="6.25"/>
    <timestep time="6.50"/>
    <timestep time="6.75"/>
    <timestep time="7.00"/>
    <timestep time="7.25"/>
    <timestep time="7.50"/>
    <timestep time="7.75"/>
    <timestep time="8.00"/>
    <timestep time="8.25"/>
    <timestep time="8.50"/>
    <timestep time="8.75"/>
    <timestep time="9.00"/>
    <timestep time="9.25"/>
    <timestep time="9.50"/>
    <timestep time="9.75"/>
    <timestep time="10.00"/>
    <timestep time="10.25"/>
    <timestep time="10.50"/>
    <timestep time="10.75"/>
    <timestep time="11.00"/>
    <timestep time="11.25"/>
    <timestep time="11.50"/>
    <timestep time="11.75"/>
    <timestep time="12.00"/>
    <timestep time="12.25"/>
    <timestep time="12.50"/>
    <timestep time="12.75"/>
    <timestep time="13.00"/>
    <timestep time="13.25"/>
    <timestep time="13.50"/>
    <timestep time="13.75"/>
    <timestep time="14.00"/>
    <timestep time="14.25"/>
    <timestep time="14.50"/>
    <timestep time="14.75"/>
    <timestep time="15.00"/>
    <timestep time="15.25"/>
    <timestep time="15.50"/>
    <timestep time="15.75"/>
    <timestep time="16.00"/>
    <timestep time="16.25"/>
    <timestep time="16.50"/>
    <timestep time="16.75"/>
    <timestep time="17.00"/>
    <timestep time="17.25"/>
    <timestep time="17.50"/>
    <timestep time="17.75"/>
    <timestep time="18.00"/>
    <timestep time="18.25"/>
    <timestep time="18.50"/>
    <timestep time="18.75"/>
    <timestep time="19.00"/>
    <timestep time="19.25"/>
    <timestep time="19.50">
        <vehicle id="flow.9" acceleration="0.00"/>
    </timestep>
    <timestep time="19.75">
        <vehicle id="flow.9" acceleration="0.00"/>
    </timestep>
    <timestep time="20.00">
        <vehicle id="flow.9" acceleration="0.00"/>
    </timestep>
    <timestep time="20.25">
        <vehicle id="flow.9" acceleration="0.00"/>
    </timestep>
    <timestep time="20.50">
        <vehicle id="flow.9" acceleration="2.00"/>
    </timestep>
    <timestep time="20.75">
        <vehicle id="flow.9" acceleration="2.00"/>
    </timestep>
    <timestep time="21.00">
        <vehicle id="flow.9" acceleration="2.00"/>
    </timestep>
    <timestep time="21.25">
        <vehicle id="flow.9" acceleration="2.00"/>
    </timestep>
    <timestep time="21.50">
        <vehicle id="flow.9" acceleration="2.00"/>
    </timestep>
    <timestep time="21.75">
        <vehicle id="flow.9" acceleration="2.00"/>
    </timestep>
    <timestep time="22.00">
        <vehicle id="flow.9" acceleration="2.00"/>
    </timestep>
    <timestep time="22.25">
        <vehicle id="flow.9" acceleration="2.00"/>
    </timestep>
    <timestep time="22.50">
        <vehicle id="flow.9" acceleration="1.91"/>
    </timestep>
    <timestep time="22.75">
        <vehicle id="flow.9" acceleration="1.54"/>
    </timestep>
    <timestep time="23.00">
        <vehicle id="flow.9" acceleration="1.31"/>
    </timestep>
    <timestep time="23.25">
        <vehicle id="flow.9" acceleration="1.15"/>
    </timestep>
    <timestep time="23.50">
        <vehicle id="flow.9" acceleration="1.03"/>
    </timestep>
    <timestep time="23.75">
        <vehicle id="flow.9" acceleration="0.94"/>
    </timestep>
    <timestep time="24.00">
        <vehicle id="flow.9" acceleration="0.87"/>
    </timestep>
    <timestep time="24.25">
        <vehicle id="flow.9" acceleration="0.81"/>
    </timestep>
    <timestep time="24.50">
        <vehicle id="flow.9" acceleration="0.76"/>
    </timestep>
    <timestep time="24.75">
        <vehicle id="flow.9" acceleration="0.72"/>
    </timestep>
    <timestep time="25.00">
        <vehicle id="flow.9" acceleration="0.68"/>
    </timestep>
    <timestep time="25.25">
        <vehicle id="flow.9" acceleration="0.65"/>
    </timestep>
    <timestep time="25.50">
        <vehicle id="flow.9" acceleration="0.63"/>
    </timestep>
    <timestep time="25.75">
        <vehicle id="flow.9" acceleration="0.61"/>
    </timestep>
    <timestep time="26.00">
        <vehicle id="flow.9" acceleration="0.59"/>
    </timestep>
    <timestep time="26.25">
        <vehicle id="flow.9" acceleration="0.57"/>
    </timestep>
    <timestep time="26.50">
        <vehicle id="flow.9" acceleration="0.55"/>
    </timestep>
    <timestep time="26.75">
        <vehicle id="flow.9" acceleration="0.54"/>
    </timestep>
    <timestep time="27.00">
        <vehicle id="flow.9" acceleration="0.53"/>
    </timestep>
    <timestep time="27.25">
        <vehicle id="flow.9" acceleration="0.52"/>
    </timestep>
    <timestep time="27.50">
        <vehicle id="flow.9" acceleration="0.51"/>
    </timestep>
    <timestep time="27.75">
        <vehicle id="flow.9" acceleration="0.50"/>
    </timestep>
    <timestep time="28.00">
        <vehicle id="flow.9" acceleration="0.50"/>
    </timestep>
    <timestep time="28.25">
        <vehicle id="flow.9" acceleration="0.49"/>
    </timestep>
    <timestep time="28.50">
        <vehicle id="flow.9" acceleration="0.48"/>
    </timestep>
    <timestep time="28.75">
        <vehicle id="flow.9" acceleration="0.48"/>
    </timestep>
    <timestep time="29.00">
        <vehicle id="flow.9" acceleration="0.48"/>
    </timestep>
    <timestep time="29.25">
        <vehicle id="flow.9" acceleration="0.47"/>
    </timestep>
    <timestep time="29.50">
        <vehicle id="flow.9" acceleration="0.47"/>
    </timestep>
    <timestep time="29.75">
        <vehicle id="flow.9" acceleration="0.18"/>
    </timestep>
    <timestep time="30.00">
        <vehicle id="flow.9" acceleration="0.00"/>
    </timestep>
    <timestep time="30.25">
        <vehicle id="flow.9" acceleration="-0.25"/>
    </timestep>
    <timestep time="30.50">
        <vehicle id="flow.9" acceleration="-0.25"/>
    </timestep>
    <timestep time="30.75">
        <vehicle id="flow.9" acceleration="0.50"/>
    </timestep>
    <timestep time="31.00">
        <vehicle id="flow.9" acceleration="0.00"/>
    </timestep>
    <timestep time="31.25">
        <vehicle id="flow.9" acceleration="-0.25"/>
    </timestep>
    <timestep time="31.50">
        <vehicle id="flow.9" acceleration="-0.25"/>
    </timestep>
    <timestep time="31.75">
        <vehicle id="flow.9" acceleration="-0.25"/>
    </timestep>
    <timestep time="32.00">
        <vehicle id="flow.9" acceleration="0.75"/>
    </timestep>
    <timestep time="32.25">
        <vehicle id="flow.9" acceleration="0.00"/>
    </timestep>
    <timestep time="32.50">
        <vehicle id="flow.9" acceleration="0.00"/>
    </timestep>
    <timestep time="32.75">
        <vehicle id="flow.9" acceleration="0.00"/>
    </timestep>
    <timestep time="33.00">
        <vehicle id="flow.9" acceleration="0.00"/>
    </timestep>
    <timestep time="33.25">
        <vehicle id="flow.9" acceleration="0.00"/>
    </timestep>
    <timestep time="33.50">
        <vehicle id="flow.9" acceleration="0.00"/>
    </timestep>
    <timestep time="33.75">
        <vehicle id="flow.9" acceleration="0.00"/>
    </timestep>
    <timestep time="34.00">
        <vehicle id="flow.9" acceleration="0.00"/>
    </timestep>
    <timestep time="34.25">
        <vehicle id="flow.9" acceleration="0.00"/>
    </timestep>
    <timestep time="34.50">
        <vehicle id="flow.9" acceleration="0.00"/>
    </timestep>
    <timestep time="34.75">
        <vehicle id="flow.9" acceleration="-0.05"/>
    </timestep>
    <timestep time="35.00">
        <vehicle id="flow.9" acceleration="-0.10"/>
    </timestep>
    <timestep time="35.25">
        <vehicle id="flow.9" acceleration="-0.17"/>
    </timestep>
    <timestep time="35.50">
        <vehicle id="flow.9" acceleration="-0.27"/>
    </timestep>
    <timestep time="35.75">
        <vehicle id="flow.9" acceleration="-0.38"/>
    </timestep>
    <timestep time="36.00">
        <vehicle id="flow.9" acceleration="-0.52"/>
    </timestep>
    <timestep time="36.25">
        <vehicle id="flow.9" acceleration="-0.68"/>
    </timestep>
    <timestep time="36.50">
        <vehicle id="flow.9" acceleration="-0.86"/>
    </timestep>
    <timestep time="36.75">
        <vehicle id="flow.9" acceleration="-1.04"/>
    </timestep>
    <timestep time="37.00">
        <vehicle id="flow.9" acceleration="-1.22"/>
    </timestep>
    <timestep time="37.25">
        <vehicle id="flow.9" acceleration="-1.38"/>
    </timestep>
    <timestep time="37.50">
        <vehicle id="flow.9" acceleration="-1.51"/>
    </timestep>
    <timestep time="37.75">
        <vehicle id="flow.9" acceleration="-1.59"/>
    </timestep>
    <timestep time="38.00">
        <vehicle id="flow.9" acceleration="-1.63"/>
    </timestep>
    <timestep time="38.25">
        <vehicle id="flow.9" acceleration="-1.63"/>
    </timestep>
    <timestep time="38.50">
        <vehicle id="flow.9" acceleration="-1.60"/>
    </timestep>
    <timestep time="38.75">
        <vehicle id="flow.9" acceleration="-1.56"/>
    </timestep>
    <timestep time="39.00">
        <vehicle id="flow.9" acceleration="-1.51"/>
    </timestep>
    <timestep time="39.25">
        <vehicle id="flow.9" acceleration="-1.46"/>
    </timestep>
    <timestep time="39.50">
        <vehicle id="flow.9" acceleration="-1.40"/>
    </timestep>
    <timestep time="39.75">
        <vehicle id="flow.9" acceleration="-1.34"/>
    </timestep>
    <timestep time="40.00">
        <vehicle id="flow.9" acceleration="-1.29"/>
    </timestep>
    <timestep time="40.25">
        <vehicle id="flow.9" acceleration="-1.23"/>
    </timestep>
    <timestep time="40.50">
        <vehicle id="flow.9" acceleration="-1.18"/>
    </timestep>
    <timestep time="40.75">
        <vehicle id="flow.9" acceleration="-1.13"/>
    </timestep>
    <timestep time="41.00">
        <vehicle id="flow.9" acceleration="-1.09"/>
    </timestep>
    <timestep time="41.25">
        <vehicle id="flow.9" acceleration="-1.04"/>
    </timestep>
    <timestep time="41.50">
        <vehicle id="flow.9" acceleration="-1.00"/>
    </timestep>
    <timestep time="41.75">
        <vehicle id="flow.9" acceleration="-0.95"/>
    </timestep>
    <timestep time="42.00">
        <vehicle id="flow.9" acceleration="-0.90"/>
    </timestep>
    <timestep time="42.25">
        <vehicle id="flow.9" acceleration="-0.85"/>
    </timestep>
    <timestep time="42.50">
        <vehicle id="flow.9" acceleration="-0.81"/>
    </timestep>
    <timestep time="42.75">
        <vehicle id="flow.9" acceleration="-0.77"/>
    </timestep>
    <timestep time="43.00">
        <vehicle id="flow.9" acceleration="-0.72"/>
    </timestep>
    <timestep time="43.25">
        <vehicle id="flow.9" acceleration="-0.69"/>
    </timestep>
    <timestep time="43.50">
        <vehicle id="flow.9" acceleration="-0.65"/>
    </timestep>
    <timestep time="43.75">
        <vehicle id="flow.9" acceleration="-0.62"/>
    </timestep>
    <timestep time="44.00">
        <vehicle id="flow.9" acceleration="-0.59"/>
    </timestep>
    <timestep time="44.25">
        <vehicle id="flow.9" acceleration="-0.56"/>
    </timestep>
    <timestep time="44.50">
        <vehicle id="flow.9" acceleration="-0.54"/>
    </timestep>
    <timestep time="44.75">
        <vehicle id="flow.9" acceleration="-0.51"/>
    </timestep>
    <timestep time="45.00">
        <vehicle id="flow.9" acceleration="-0.49"/>
    </timestep>
    <timestep time="45.25">
        <vehicle id="flow.9" acceleration="-0.46"/>
    </timestep>
    <timestep time="45.50">
        <vehicle id="flow.9" acceleration="-0.44"/>
    </timestep>
    <timestep time="45.75">
        <vehicle id="flow.9" acceleration="-0.42"/>
    </timestep>
    <timestep time="46.00">
        <vehicle id="flow.9" acceleration="-0.41"/>
    </timestep>
    <timestep time="46.25">
        <vehicle id="flow.9" acceleration="-0.39"/>
    </timestep>
    <timestep time="46.50">
        <vehicle id="flow.9" acceleration="-0.37"/>
    </timestep>
    <timestep time="46.75">
        <vehicle id="flow.9" acceleration="-0.35"/>
    </timestep>
    <timestep time="47.00">
        <vehicle id="flow.9" acceleration="-0.33"/>
    </timestep>
    <timestep time="47.25">
        <vehicle id="flow.9" acceleration="-0.33"/>
    </timestep>
    <timestep time="47.50">
        <vehicle id="flow.9" acceleration="-0.32"/>
    </timestep>
    <timestep time="47.75">
        <vehicle id="flow.9" acceleration="-0.32"/>
    </timestep>
    <timestep time="48.00">
        <vehicle id="flow.9" acceleration="-0.29"/>
    </timestep>
    <timestep time="48.25">
        <vehicle id="flow.9" acceleration="-0.29"/>
    </timestep>
    <timestep time="48.50">
        <vehicle id="flow.9" acceleration="-0.29"/>
    </timestep>
    <timestep time="48.75">
        <vehicle id="flow.9" acceleration="-0.29"/>
    </timestep>
    <timestep time="49.00">
        <vehicle id="flow.9" acceleration="-0.29"/>
    </timestep>
    <timestep time="49.25">
        <vehicle id="flow.9" acceleration="-0.22"/>
    </timestep>
    <timestep time="49.50">
        <vehicle id="flow.9" acceleration="-0.18"/>
    </timestep>
    <timestep time="49.75">
        <vehicle id="flow.9" acceleration="-0.22"/>
    </timestep>
    <timestep time="50.00">
        <vehicle id="flow.9" acceleration="-0.25"/>
    </timestep>
    <timestep time="50.25">
        <vehicle id="flow.9" acceleration="-0.26"/>
    </timestep>
    <timestep time="50.50">
        <vehicle id="flow.9" acceleration="-0.26"/>
    </timestep>
    <timestep time="50.75">
        <vehicle id="flow.9" acceleration="-0.07"/>
    </timestep>
    <timestep time="51.00">
        <vehicle id="flow.9" acceleration="-0.07"/>
    </timestep>
    <timestep time="51.25">
        <vehicle id="flow.9" acceleration="-0.07"/>
    </timestep>
    <timestep time="51.50">
        <vehicle id="flow.9" acceleration="-0.25"/>
    </timestep>
    <timestep time="51.75">
        <vehicle id="flow.9" acceleration="-0.25"/>
    </timestep>
    <timestep time="52.00">
        <vehicle id="flow.9" acceleration="-0.25"/>
    </timestep>
    <timestep time="52.25">
        <vehicle id="flow.9" acceleration="-0.21"/>
    </timestep>
    <timestep time="52.50">
        <vehicle id="flow.9" acceleration="0.00"/>
    </timestep>
    <timestep time="52.75">
        <vehicle id="flow.9" acceleration="0.00"/>
    </timestep>
    <timestep time="53.00">
        <vehicle id="flow.9" acceleration="0.00"/>
    </timestep>
    <timestep time="53.25">
        <vehicle id="flow.9" acceleration="0.00"/>
    </timestep>
    <timestep time="53.50">
        <vehicle id="flow.9" acceleration="0.00"/>
    </timestep>
    <timestep time="53.75">
        <vehicle id="flow.9" acceleration="0.00"/>
    </timestep>
    <timestep time="54.00">
        <vehicle id="flow.9" acceleration="0.00"/>
    </timestep>
    <timestep time="54.25">
        <vehicle id="flow.9" acceleration="0.00"/>
    </timestep>
    <timestep time="54.50">
        <vehicle id="flow.9" acceleration="0.00"/>
    </timestep>
    <timestep time="54.75">
        <vehicle id="flow.9" acceleration="0.00"/>
    </timestep>
    <timestep time="55.00">
        <vehicle id="flow.9" acceleration="0.00"/>
    </timestep>
    <timestep time="55.25">
        <vehicle id="flow.9" acceleration="0.00"/>
    </timestep>
    <timestep time="55.50">
        <vehicle id="flow.9" acceleration="0.00"/>
    </timestep>
    <timestep time="55.75">
        <vehicle id="flow.9" acceleration="0.00"/>
    </timestep>
    <timestep time="56.00">
        <vehicle id="flow.9" acceleration="0.00"/>
    </timestep>
    <timestep time="56.25">
        <vehicle id="flow.9" acceleration="0.00"/>
    </timestep>
    <timestep time="56.50">
        <vehicle id="flow.9" acceleration="0.00"/>
    </timestep>
    <timestep time="56.75">
        <vehicle id="flow.9" acceleration="0.00"/>
    </timestep>
    <timestep time="57.00">
        <vehicle id="flow.9" acceleration="0.00"/>
    </timestep>
    <timestep time="57.25">
        <vehicle id="flow.9" acceleration="0.00"/>
    </timestep>
    <timestep time="57.50">
        <vehicle id="flow.9" acceleration="0.00"/>
    </timestep>
    <timestep time="57.75">
        <vehicle id="flow.9" acceleration="0.00"/>
    </timestep>
    <timestep time="58.00">
        <vehicle id="flow.9" acceleration="0.00"/>
    </timestep>
    <timestep time="58.25">
        <vehicle id="flow.9" acceleration="0.00"/>
    </timestep>
    <timestep time="58.50">
        <vehicle id="flow.9" acceleration="0.00"/>
    </timestep>
    <timestep time="58.75">
        <vehicle id="flow.9" acceleration="0.00"/>
    </timestep>
    <timestep time="59.00">
        <vehicle id="flow.9" acceleration="0.00"/>
    </timestep>
    <timestep time="59.25">
        <vehicle id="flow.9" acceleration="0.00"/>
    </timestep>
    <timestep time="59.50">
        <vehicle id="flow.9" acceleration="0.00"/>
    </timestep>
    <timestep time="59.75">
        <vehicle id="flow.9" acceleration="0.00"/>
    </timestep>
    <timestep time="60.00">
        <vehicle id="flow.9" acceleration="0.00"/>
    </timestep>
    <timestep time="60.25">
        <vehicle id="flow.9" acceleration="0.00"/>
    </timestep>
    <timestep time="60.50">
        <vehicle id="flow.9" acceleration="0.00"/>
    </timestep>
    <timestep time="60.75">
        <vehicle id="flow.9" acceleration="0.00"/>
    </timestep>
    <timestep time="61.00">
        <vehicle id="flow.9" acceleration="0.00"/>
    </timestep>
    <timestep time="61.25">
        <vehicle id="flow.9" acceleration="0.00"/>
    </timestep>
    <timestep time="61.50">
        <vehicle id="flow.9" acceleration="0.00"/>
    </timestep>
    <timestep time="61.75">
        <vehicle id="flow.9" acceleration="0.00"/>
    </timestep>
    <timestep time="62.00">
        <vehicle id="flow.9" acceleration="0.00"/>
    </timestep>
    <timestep time="62.25">
        <vehicle id="flow.9" acceleration="0.00"/>
    </timestep>
    <timestep time="62.50">
        <vehicle id="flow.9" acceleration="0.00"/>
    </timestep>
    <timestep time="62.75">
        <vehicle id="flow.9" acceleration="0.00"/>
    </timestep>
    <timestep time="63.00">
        <vehicle id="flow.9" acceleration="0.00"/>
    </timestep>
    <timestep time="63.25">
        <vehicle id="flow.9" acceleration="0.00"/>
    </timestep>
    <timestep time="63.50">
        <vehicle id="flow.9" acceleration="0.00"/>
    </timestep>
    <timestep time="63.75">
        <vehicle id="flow.9" acceleration="0.00"/>
    </timestep>
    <timestep time="64.00">
        <vehicle id="flow.9" acceleration="0.00"/>
    </timestep>
    <timestep time="64.25">
        <vehicle id="flow.9" acceleration="0.00"/>
    </timestep>
    <timestep time="64.50">
        <vehicle id="flow.9" acceleration="0.00"/>
    </timestep>
    <timestep time="64.75">
        <vehicle id="flow.9" acceleration="0.00"/>
    </timestep>
    <timestep time="65.00">
        <vehicle id="flow.9" acceleration="0.00"/>
    </timestep>
    <timestep time="65.25">
        <vehicle id="flow.9" acceleration="0.00"/>
    </timestep>
    <timestep time="65.50">
        <vehicle id="flow.9" acceleration="0.00"/>
    </timestep>
    <timestep time="65.75">
        <vehicle id="flow.9" acceleration="0.00"/>
    </timestep>
    <timestep time="66.00">
        <vehicle id="flow.9" acceleration="0.00"/>
    </timestep>
    <timestep time="66.25">
        <vehicle id="flow.9" acceleration="0.00"/>
    </timestep>
    <timestep time="66.50">
        <vehicle id="flow.9" acceleration="0.00"/>
    </timestep>
    <timestep time="66.75">
        <vehicle id="flow.9" acceleration="0.00"/>
    </timestep>
    <timestep time="67.00">
        <vehicle id="flow.9" acceleration="0.00"/>
    </timestep>
    <timestep time="67.25">
        <vehicle id="flow.9" acceleration="0.00"/>
    </timestep>
    <timestep time="67.50">
        <vehicle id="flow.9" acceleration="0.00"/>
    </timestep>
    <timestep time="67.75">
        <vehicle id="flow.9" acceleration="0.00"/>
    </timestep>
    <timestep time="68.00">
        <vehicle id="flow.9" acceleration="0.00"/>
    </timestep>
    <timestep time="68.25">
        <vehicle id="flow.9" acceleration="0.00"/>
    </timestep>
    <timestep time="68.50">
        <vehicle id="flow.9" acceleration="0.00"/>
    </timestep>
    <timestep time="68.75">
        <vehicle id="flow.9" acceleration="0.00"/>
    </timestep>
    <timestep time="69.00">
        <vehicle id="flow.9" acceleration="0.00"/>
    </timestep>
    <timestep time="69.25">
        <vehicle id="flow.9" acceleration="0.00"/>
    </timestep>
    <timestep time="69.50">
        <vehicle id="flow.9" acceleration="0.00"/>
    </timestep>
    <timestep time="69.75">
        <vehicle id="flow.9" acceleration="0.00"/>
    </timestep>
    <timestep time="70.00">
        <vehicle id="flow.9" acceleration="0.00"/>
    </timestep>
    <timestep time="70.25">
        <vehicle id="flow.9" acceleration="0.00"/>
    </timestep>
    <timestep time="70.50">
        <vehicle id="flow.9" acceleration="0.00"/>
    </timestep>
    <timestep time="70.75">
        <vehicle id="flow.9" acceleration="0.00"/>
    </timestep>
    <timestep time="71.00">
        <vehicle id="flow.9" acceleration="0.00"/>
    </timestep>
    <timestep time="71.25">
        <vehicle id="flow.9" acceleration="0.00"/>
    </timestep>
    <timestep time="71.50">
        <vehicle id="flow.9" acceleration="0.00"/>
    </timestep>
    <timestep time="71.75">
        <vehicle id="flow.9" acceleration="0.00"/>
    </timestep>
    <timestep time="72.00">
        <vehicle id="flow.9" acceleration="0.00"/>
    </timestep>
    <timestep time="72.25">
        <vehicle id="flow.9" acceleration="0.00"/>
    </timestep>
    <timestep time="72.50">
        <vehicle id="flow.9" acceleration="0.00"/>
    </timestep>
    <timestep time="72.75">
        <vehicle id="flow.9" acceleration="0.00"/>
    </timestep>
    <timestep time="73.00">
        <vehicle id="flow.9" acceleration="0.00"/>
    </timestep>
    <timestep time="73.25">
        <vehicle id="flow.9" acceleration="0.00"/>
    </timestep>
    <timestep time="73.50">
        <vehicle id="flow.9" acceleration="0.00"/>
    </timestep>
    <timestep time="73.75">
        <vehicle id="flow.9" acceleration="0.00"/>
    </timestep>
    <timestep time="74.00">
        <vehicle id="flow.9" acceleration="0.00"/>
    </timestep>
    <timestep time="74.25">
        <vehicle id="flow.9" acceleration="0.00"/>
    </timestep>
    <timestep time="74.50">
        <vehicle id="flow.9" acceleration="0.00"/>
    </timestep>
    <timestep time="74.75">
        <vehicle id="flow.9" acceleration="0.00"/>
    </timestep>
    <timestep time="75.00">
        <vehicle id="flow.9" acceleration="0.00"/>
    </timestep>
    <timestep time="75.25">
        <vehicle id="flow.9" acceleration="0.00"/>
    </timestep>
    <timestep time="75.50">
        <vehicle id="flow.9" acceleration="0.00"/>
    </timestep>
    <timestep time="75.75">
        <vehicle id="flow.9" acceleration="0.00"/>
    </timestep>
    <timestep time="76.00">
        <vehicle id="flow.9" acceleration="0.00"/>
    </timestep>
    <timestep time="76.25">
        <vehicle id="flow.9" acceleration="0.00"/>
    </timestep>
    <timestep time="76.50">
        <vehicle id="flow.9" acceleration="0.00"/>
    </timestep>
    <timestep time="76.75">
        <vehicle id="flow.9" acceleration="0.00"/>
    </timestep>
    <timestep time="77.00">
        <vehicle id="flow.9" acceleration="0.00"/>
    </timestep>
    <timestep time="77.25">
        <vehicle id="flow.9" acceleration="0.00"/>
    </timestep>
    <timestep time="77.50">
        <vehicle id="flow.9" acceleration="0.00"/>
    </timestep>
    <timestep time="77.75">
        <vehicle id="flow.9" acceleration="0.00"/>
    </timestep>
    <timestep time="78.00">
        <vehicle id="flow.9" acceleration="0.00"/>
    </timestep>
    <timestep time="78.25">
        <vehicle id="flow.9" acceleration="0.00"/>
    </timestep>
    <timestep time="78.50">
        <vehicle id="flow.9" acceleration="0.00"/>
    </timestep>
    <timestep time="78.75">
        <vehicle id="flow.9" acceleration="0.00"/>
    </timestep>
    <timestep time="79.00">
        <vehicle id="flow.9" acceleration="0.00"/>
    </timestep>
    <timestep time="79.25">
        <vehicle id="flow.9" acceleration="0.00"/>
    </timestep>
    <timestep time="79.50">
        <vehicle id="flow.9" acceleration="0.00"/>
    </timestep>
    <timestep time="79.75">
        <vehicle id="flow.9" acceleration="0.00"/>
    </timestep>
    <timestep time="80.00">
        <vehicle id="flow.9" acceleration="0.00"/>
    </timestep>
    <timestep time="80.25">
        <vehicle id="flow.9" acceleration="0.00"/>
    </timestep>
    <timestep time="80.50">
        <vehicle id="flow.9" acceleration="0.00"/>
    </timestep>
    <timestep time="80.75">
        <vehicle id="flow.9" acceleration="0.00"/>
    </timestep>
    <timestep time="81.00">
        <vehicle id="flow.9" acceleration="0.00"/>
    </timestep>
    <timestep time="81.25">
        <vehicle id="flow.9" acceleration="0.00"/>
    </timestep>
    <timestep time="81.50">
        <vehicle id="flow.9" acceleration="0.00"/>
    </timestep>
    <timestep time="81.75">
        <vehicle id="flow.9" acceleration="0.00"/>
    </timestep>
    <timestep time="82.00">
        <vehicle id="flow.9" acceleration="0.00"/>
    </timestep>
    <timestep time="82.25">
        <vehicle id="flow.9" acceleration="0.00"/>
    </timestep>
    <timestep time="82.50">
        <vehicle id="flow.9" acceleration="0.00"/>
    </timestep>
    <timestep time="82.75">
        <vehicle id="flow.9" acceleration="0.00"/>
    </timestep>
    <timestep time="83.00">
        <vehicle id="flow.9" acceleration="0.00"/>
    </timestep>
    <timestep time="83.25">
        <vehicle id="flow.9" acceleration="0.00"/>
    </timestep>
    <timestep time="83.50">
        <vehicle id="flow.9" acceleration="0.00"/>
    </timestep>
    <timestep time="83.75">
        <vehicle id="flow.9" acceleration="0.00"/>
    </timestep>
    <timestep time="84.00">
        <vehicle id="flow.9" acceleration="0.00"/>
    </timestep>
    <timestep time="84.25">
        <vehicle id="flow.9" acceleration="0.00"/>
    </timestep>
    <timestep time="84.50">
        <vehicle id="flow.9" acceleration="0.00"/>
    </timestep>
    <timestep time="84.75">
        <vehicle id="flow.9" acceleration="0.00"/>
    </timestep>
    <timestep time="85.00">
        <vehicle id="flow.9" acceleration="0.00"/>
    </timestep>
    <timestep time="85.25">
        <vehicle id="flow.9" acceleration="0.00"/>
    </timestep>
    <timestep time="85.50">
        <vehicle id="flow.9" acceleration="0.00"/>
    </timestep>
    <timestep time="85.75">
        <vehicle id="flow.9" acceleration="0.00"/>
    </timestep>
    <timestep time="86.00">
        <vehicle id="flow.9" acceleration="0.00"/>
    </timestep>
    <timestep time="86.25">
        <vehicle id="flow.9" acceleration="0.00"/>
    </timestep>
    <timestep time="86.50">
        <vehicle id="flow.9" acceleration="0.00"/>
    </timestep>
    <timestep time="86.75">
        <vehicle id="flow.9" acceleration="0.00"/>
    </timestep>
    <timestep time="87.00">
        <vehicle id="flow.9" acceleration="0.00"/>
    </timestep>
    <timestep time="87.25">
        <vehicle id="flow.9" acceleration="0.00"/>
    </timestep>
    <timestep time="87.50">
        <vehicle id="flow.9" acceleration="0.00"/>
    </timestep>
    <timestep time="87.75">
        <vehicle id="flow.9" acceleration="0.00"/>
    </timestep>