<?xml version="1.0" encoding="UTF-8"?>

<!-- generated on 2022-10-26 20:32:07 by Eclipse SUMO sumo Version v1_14_1+1635-30347d4bd51
This data file and the accompanying materials
are made available under the terms of the Eclipse Public License v2.0
which accompanies this distribution, and is available at
http://www.eclipse.org/legal/epl-v20.html
This file may also be made available under the following Secondary
Licenses when the conditions for such availability set forth in the Eclipse
Public License 2.0 are satisfied: GNU General Public License, version 2
or later which is available at
https://www.gnu.org/licenses/old-licenses/gpl-2.0-standalone.html
SPDX-License-Identifier: EPL-2.0 OR GPL-2.0-or-later
<configuration xmlns:xsi="http://www.w3.org/2001/XMLSchema-instance" xsi:noNamespaceSchemaLocation="http://sumo.dlr.de/xsd/sumoConfiguration.xsd">

    <input>
        <net-file value="net.net.xml"/>
        <route-files value="input_routes.rou.xml"/>
    </input>

    <output>
        <write-license value="true"/>
        <netstate-dump value="rawdump.xml"/>
    </output>

    <processing>
        <default.speeddev value="0"/>
    </processing>

    <report>
        <xml-validation value="never"/>
        <duration-log.disable value="true"/>
        <no-step-log value="true"/>
    </report>

</configuration>
-->

<netstate xmlns:xsi="http://www.w3.org/2001/XMLSchema-instance" xsi:noNamespaceSchemaLocation="http://sumo.dlr.de/xsd/netstate_file.xsd">
    <timestep time="0.00">
        <edge id="gneE0">
            <lane id="gneE0_0">
                <vehicle id="0" pos="5.10" speed="10.00"/>
            </lane>
        </edge>
    </timestep>
    <timestep time="1.00">
        <edge id="gneE0">
            <lane id="gneE0_0">
                <vehicle id="0" pos="15.10" speed="10.00"/>
            </lane>
        </edge>
    </timestep>
    <timestep time="2.00">
        <edge id="gneE0">
            <lane id="gneE0_0">
                <vehicle id="0" pos="25.10" speed="10.00"/>
            </lane>
        </edge>
    </timestep>
    <timestep time="3.00">
        <edge id="gneE0">
            <lane id="gneE0_0">
                <vehicle id="0" pos="35.10" speed="10.00"/>
            </lane>
        </edge>
    </timestep>
    <timestep time="4.00">
        <edge id="gneE0">
            <lane id="gneE0_0">
                <vehicle id="0" pos="45.10" speed="10.00"/>
            </lane>
        </edge>
    </timestep>
    <timestep time="5.00">
        <edge id="gneE0">
            <lane id="gneE0_0">
                <vehicle id="0" pos="55.10" speed="10.00"/>
            </lane>
        </edge>
    </timestep>
    <timestep time="6.00">
        <edge id="gneE0">
            <lane id="gneE0_0">
                <vehicle id="0" pos="65.10" speed="10.00"/>
            </lane>
        </edge>
    </timestep>
    <timestep time="7.00">
        <edge id="gneE0">
            <lane id="gneE0_0">
                <vehicle id="0" pos="75.10" speed="10.00"/>
            </lane>
        </edge>
    </timestep>
    <timestep time="8.00">
        <edge id="gneE0">
            <lane id="gneE0_0">
                <vehicle id="0" pos="85.10" speed="10.00"/>
            </lane>
        </edge>
    </timestep>
    <timestep time="9.00">
        <edge id="gneE1">
            <lane id="gneE1_0">
                <vehicle id="0" pos="7.62" speed="10.00"/>
            </lane>
        </edge>
    </timestep>
    <timestep time="10.00">
        <edge id="gneE1">
            <lane id="gneE1_0">
                <vehicle id="0" pos="14.27" speed="6.65"/>
            </lane>
        </edge>
    </timestep>
    <timestep time="11.00">
        <edge id="gneE1">
            <lane id="gneE1_0">
                <vehicle id="0" pos="20.93" speed="6.65"/>
            </lane>
        </edge>
    </timestep>
    <timestep time="12.00">
        <edge id="gneE1">
            <lane id="gneE1_0">
                <vehicle id="0" pos="27.58" speed="6.65"/>
            </lane>
        </edge>
    </timestep>
    <timestep time="13.00">
        <edge id=":gneJ2_0">
            <lane id=":gneJ2_0_0">
                <vehicle id="0" pos="0.40" speed="6.65"/>
            </lane>
        </edge>
    </timestep>
    <timestep time="14.00">
        <edge id="gneE2">
            <lane id="gneE2_0">
                <vehicle id="0" pos="5.58" speed="10.00"/>
            </lane>
        </edge>
    </timestep>
    <timestep time="15.00">
        <edge id="gneE2">
            <lane id="gneE2_0">
                <vehicle id="0" pos="15.58" speed="10.00"/>
            </lane>
        </edge>
    </timestep>
    <timestep time="16.00">
        <edge id="gneE2">
            <lane id="gneE2_0">
                <vehicle id="0" pos="25.58" speed="10.00"/>
            </lane>
        </edge>
    </timestep>
    <timestep time="17.00">
        <edge id="gneE2">
            <lane id="gneE2_0">
                <vehicle id="0" pos="35.58" speed="10.00"/>
            </lane>
        </edge>
    </timestep>
    <timestep time="18.00">
        <edge id="gneE2">
            <lane id="gneE2_0">
                <vehicle id="0" pos="45.58" speed="10.00"/>
            </lane>
        </edge>
    </timestep>
    <timestep time="19.00">
        <edge id="gneE2">
            <lane id="gneE2_0">
                <vehicle id="0" pos="55.58" speed="10.00"/>
            </lane>
        </edge>
    </timestep>
    <timestep time="20.00">
        <edge id="gneE2">
            <lane id="gneE2_0">
                <vehicle id="0" pos="65.58" speed="10.00"/>
            </lane>
        </edge>
    </timestep>
    <timestep time="21.00">
        <edge id="gneE2">
            <lane id="gneE2_0">
                <vehicle id="0" pos="75.58" speed="10.00"/>
            </lane>
        </edge>
    </timestep>
    <timestep time="22.00">
        <edge id="gneE2">
            <lane id="gneE2_0">
                <vehicle id="0" pos="85.58" speed="10.00"/>
            </lane>
        </edge>
    </timestep>
    <timestep time="23.00">
        <edge id="gneE2">
            <lane id="gneE2_0">
                <vehicle id="0" pos="95.58" speed="10.00"/>
            </lane>
        </edge>
    </timestep>
    <timestep time="24.00">
        <edge id="gneE2">
            <lane id="gneE2_0">
                <vehicle id="0" pos="105.58" speed="10.00"/>
            </lane>
        </edge>
    </timestep>
    <timestep time="25.00">
        <edge id="gneE2">
            <lane id="gneE2_0">
                <vehicle id="0" pos="115.58" speed="10.00"/>
            </lane>
        </edge>
    </timestep>
    <timestep time="26.00">
        <edge id="gneE2">
            <lane id="gneE2_0">
                <vehicle id="0" pos="125.58" speed="10.00"/>
            </lane>
        </edge>
    </timestep>
    <timestep time="27.00">
        <edge id="gneE2">
            <lane id="gneE2_0">
                <vehicle id="0" pos="135.58" speed="10.00"/>
            </lane>
        </edge>
    </timestep>
    <timestep time="28.00">
        <edge id="gneE2">
            <lane id="gneE2_0">
                <vehicle id="0" pos="145.58" speed="10.00"/>
            </lane>
        </edge>
    </timestep>
    <timestep time="29.00">
        <edge id="gneE2">
            <lane id="gneE2_0">
                <vehicle id="0" pos="155.58" speed="10.00"/>
            </lane>
        </edge>
    </timestep>
    <timestep time="30.00">
        <edge id="gneE2">
            <lane id="gneE2_0">
                <vehicle id="0" pos="165.58" speed="10.00"/>
            </lane>
        </edge>
    </timestep>
    <timestep time="31.00">
        <edge id="gneE2">
            <lane id="gneE2_0">
                <vehicle id="0" pos="175.58" speed="10.00"/>
            </lane>
        </edge>
    </timestep>
    <timestep time="32.00">
        <edge id="gneE2">
            <lane id="gneE2_0">
                <vehicle id="0" pos="185.58" speed="10.00"/>
            </lane>
        </edge>
    </timestep>
    <timestep time="33.00">
        <edge id="gneE2">
            <lane id="gneE2_0">
                <vehicle id="0" pos="195.58" speed="10.00"/>
            </lane>
        </edge>
    </timestep>
    <timestep time="34.00">
        <edge id="gneE2">
            <lane id="gneE2_0">
                <vehicle id="0" pos="205.58" speed="10.00"/>
            </lane>
        </edge>
    </timestep>
    <timestep time="35.00">
        <edge id="gneE2">
            <lane id="gneE2_0">
                <vehicle id="0" pos="215.58" speed="10.00"/>
            </lane>
        </edge>
    </timestep>
    <timestep time="36.00">
        <edge id="gneE2">
            <lane id="gneE2_0">
                <vehicle id="0" pos="225.58" speed="10.00"/>
            </lane>
        </edge>
    </timestep>
    <timestep time="37.00">
        <edge id="gneE2">
            <lane id="gneE2_0">
                <vehicle id="0" pos="235.58" speed="10.00"/>
            </lane>
        </edge>
    </timestep>
    <timestep time="38.00">
        <edge id="gneE2">
            <lane id="gneE2_0">
                <vehicle id="0" pos="245.58" speed="10.00"/>
            </lane>
        </edge>
    </timestep>
    <timestep time="39.00">
        <edge id="gneE2">
            <lane id="gneE2_0">
                <vehicle id="0" pos="255.58" speed="10.00"/>
            </lane>
        </edge>
    </timestep>
    <timestep time="40.00">
        <edge id="gneE2">
            <lane id="gneE2_0">
                <vehicle id="0" pos="265.58" speed="10.00"/>
            </lane>
        </edge>
    </timestep>
    <timestep time="41.00">
        <edge id="gneE2">
            <lane id="gneE2_0">
                <vehicle id="0" pos="275.58" speed="10.00"/>
            </lane>
        </edge>
    </timestep>
    <timestep time="42.00">
        <edge id="gneE2">
            <lane id="gneE2_0">
                <vehicle id="0" pos="285.58" speed="10.00"/>
            </lane>
        </edge>
    </timestep>
    <timestep time="43.00">
        <edge id="gneE3">
            <lane id="gneE3_0">
                <vehicle id="0" pos="2.52" speed="10.00"/>
            </lane>
        </edge>
    </timestep>
    <timestep time="44.00">
        <edge id="gneE3">
            <lane id="gneE3_0">
                <vehicle id="0" pos="8.02" speed="5.50"/>
            </lane>
        </edge>
    </timestep>
    <timestep time="45.00">
        <edge id="gneE3">
            <lane id="gneE3_0">
                <vehicle id="0" pos="15.99" speed="7.98"/>
            </lane>
        </edge>
    </timestep>
    <timestep time="46.00">
        <edge id="gneE3">
            <lane id="gneE3_0">
                <vehicle id="0" pos="25.76" speed="9.76"/>
            </lane>
        </edge>
    </timestep>
    <timestep time="47.00">
        <edge id="gneE3">
            <lane id="gneE3_0">
                <vehicle id="0" pos="35.52" speed="9.76"/>
            </lane>
        </edge>
    </timestep>
    <timestep time="48.00">
        <edge id="gneE3">
            <lane id="gneE3_0">
                <vehicle id="0" pos="45.29" speed="9.76"/>
            </lane>
        </edge>
    </timestep>
    <timestep time="49.00">
        <edge id="gneE3">
            <lane id="gneE3_0">
                <vehicle id="0" pos="55.05" speed="9.76"/>
            </lane>
        </edge>
    </timestep>
    <timestep time="50.00">
        <edge id="gneE3">
            <lane id="gneE3_0">
                <vehicle id="0" pos="64.82" speed="9.76"/>
            </lane>
        </edge>
    </timestep>
    <timestep time="51.00">
        <edge id="gneE3">
            <lane id="gneE3_0">
                <vehicle id="0" pos="74.58" speed="9.76"/>
            </lane>
        </edge>
    </timestep>
    <timestep time="52.00">
        <edge id="gneE3">
            <lane id="gneE3_0">
                <vehicle id="0" pos="84.35" speed="9.76"/>
            </lane>
        </edge>
    </timestep>
    <timestep time="53.00">
        <edge id="gneE3">
            <lane id="gneE3_0">
                <vehicle id="0" pos="94.11" speed="9.76"/>
            </lane>
        </edge>
    </timestep>
    <timestep time="54.00">
        <edge id="gneE3">
            <lane id="gneE3_0">
                <vehicle id="0" pos="103.88" speed="9.76"/>
            </lane>
        </edge>
    </timestep>
    <timestep time="55.00">
        <edge id="gneE3">
            <lane id="gneE3_0">
                <vehicle id="0" pos="113.64" speed="9.76"/>
            </lane>
        </edge>
    </timestep>
    <timestep time="56.00">
        <edge id="gneE3">
            <lane id="gneE3_0">
                <vehicle id="0" pos="123.40" speed="9.76"/>
            </lane>
        </edge>
    </timestep>
    <timestep time="57.00">
        <edge id="gneE3">
            <lane id="gneE3_0">
                <vehicle id="0" pos="133.17" speed="9.76"/>
            </lane>
        </edge>
    </timestep>
    <timestep time="58.00">
        <edge id="gneE3">
            <lane id="gneE3_0">
                <vehicle id="0" pos="142.93" speed="9.76"/>
            </lane>
        </edge>
    </timestep>
    <timestep time="59.00">
        <edge id="gneE3">
            <lane id="gneE3_0">
                <vehicle id="0" pos="152.70" speed="9.76"/>
            </lane>
        </edge>
    </timestep>
    <timestep time="60.00">
        <edge id="gneE3">
            <lane id="gneE3_0">
                <vehicle id="0" pos="162.46" speed="9.76"/>
            </lane>
        </edge>
    </timestep>
    <timestep time="61.00">
        <edge id="gneE3">
            <lane id="gneE3_0">
                <vehicle id="0" pos="172.23" speed="9.76"/>
            </lane>
        </edge>
    </timestep>
    <timestep time="62.00">
        <edge id="gneE3">
            <lane id="gneE3_0">
                <vehicle id="0" pos="181.99" speed="9.76"/>
            </lane>
        </edge>
    </timestep>
    <timestep time="63.00">
        <edge id="gneE3">
            <lane id="gneE3_0">
                <vehicle id="0" pos="191.76" speed="9.76"/>
            </lane>
        </edge>
    </timestep>
    <timestep time="64.00">
        <edge id="gneE3">
            <lane id="gneE3_0">
                <vehicle id="0" pos="201.52" speed="9.76"/>
            </lane>
        </edge>
    </timestep>
    <timestep time="65.00">
        <edge id="gneE3">
            <lane id="gneE3_0">
                <vehicle id="0" pos="211.28" speed="9.76"/>
            </lane>
        </edge>
    </timestep>
    <timestep time="66.00">
        <edge id="gneE3">
            <lane id="gneE3_0">
                <vehicle id="0" pos="221.05" speed="9.76"/>
            </lane>
        </edge>
    </timestep>
    <timestep time="67.00">
        <edge id="gneE3">
            <lane id="gneE3_0">
                <vehicle id="0" pos="230.81" speed="9.76"/>
            </lane>
        </edge>
    </timestep>
    <timestep time="68.00">
        <edge id="gneE3">
            <lane id="gneE3_0">
                <vehicle id="0" pos="240.58" speed="9.76"/>
            </lane>
        </edge>
    </timestep>
    <timestep time="69.00">
        <edge id="gneE3">
            <lane id="gneE3_0">
                <vehicle id="0" pos="250.34" speed="9.76"/>
            </lane>
        </edge>
    </timestep>
    <timestep time="70.00">
        <edge id="gneE3">
            <lane id="gneE3_0">
                <vehicle id="0" pos="260.11" speed="9.76"/>
            </lane>
        </edge>
    </timestep>
    <timestep time="71.00">
        <edge id="gneE3">
            <lane id="gneE3_0">
                <vehicle id="0" pos="269.87" speed="9.76"/>
            </lane>
        </edge>
    </timestep>
    <timestep time="72.00">
        <edge id="gneE3">
            <lane id="gneE3_0">
                <vehicle id="0" pos="279.64" speed="9.76"/>
            </lane>
        </edge>
    </timestep>
    <timestep time="73.00">
        <edge id="gneE3">
            <lane id="gneE3_0">
                <vehicle id="0" pos="289.40" speed="9.76"/>
            </lane>
        </edge>
    </timestep>
    <timestep time="74.00">
        <edge id="gneE3">
            <lane id="gneE3_0">
                <vehicle id="0" pos="299.17" speed="9.76"/>
            </lane>
        </edge>
    </timestep>
    <timestep time="75.00">
        <edge id="gneE3">
            <lane id="gneE3_0">
                <vehicle id="0" pos="308.93" speed="9.76"/>
            </lane>
        </edge>
    </timestep>
    <timestep time="76.00">
        <edge id="gneE3">
            <lane id="gneE3_0">
                <vehicle id="0" pos="318.69" speed="9.76"/>
            </lane>
        </edge>
    </timestep>
    <timestep time="77.00">
        <edge id="gneE3">
            <lane id="gneE3_0">
                <vehicle id="0" pos="328.46" speed="9.76"/>
            </lane>
        </edge>
    </timestep>
    <timestep time="78.00">
        <edge id="gneE3">
            <lane id="gneE3_0">
                <vehicle id="0" pos="338.22" speed="9.76"/>
            </lane>
        </edge>
    </timestep>
    <timestep time="79.00">
        <edge id="gneE3">
            <lane id="gneE3_0">
                <vehicle id="0" pos="347.99" speed="9.76"/>
            </lane>
        </edge>
    </timestep>
    <timestep time="80.00">
        <edge id="gneE3">
            <lane id="gneE3_0">
                <vehicle id="0" pos="357.75" speed="9.76"/>
            </lane>
        </edge>
    </timestep>
    <timestep time="81.00">
        <edge id="gneE3">
            <lane id="gneE3_0">
                <vehicle id="0" pos="367.52" speed="9.76"/>
            </lane>
        </edge>
    </timestep>
    <timestep time="82.00">
        <edge id="gneE3">
            <lane id="gneE3_0">
                <vehicle id="0" pos="377.28" speed="9.76"/>
            </lane>
        </edge>
    </timestep>
    <timestep time="83.00">
        <edge id="gneE3">
            <lane id="gneE3_0">
                <vehicle id="0" pos="387.05" speed="9.76"/>
            </lane>
        </edge>
    </timestep>
    <timestep time="84.00">
        <edge id="gneE3">
            <lane id="gneE3_0">
                <vehicle id="0" pos="396.81" speed="9.76"/>
            </lane>
        </edge>
    </timestep>
    <timestep time="85.00">
        <edge id=":gneJ4_0">
            <lane id=":gneJ4_0_0">
                <vehicle id="0" pos="1.38" speed="9.76"/>
            </lane>
        </edge>
    </timestep>
    <timestep time="86.00">
        <edge id="gneE4">
            <lane id="gneE4_0">
                <vehicle id="0" pos="6.61" speed="10.00"/>
            </lane>
        </edge>
    </timestep>
    <timestep time="87.00">
        <edge id="gneE4">
            <lane id="gneE4_0">
                <vehicle id="0" pos="16.61" speed="10.00"/>
            </lane>
        </edge>
    </timestep>
    <timestep time="88.00">
        <edge id="gneE4">
            <lane id="gneE4_0">
                <vehicle id="0" pos="26.61" speed="10.00"/>
            </lane>
        </edge>
    </timestep>
    <timestep time="89.00">
        <edge id="gneE4">
            <lane id="gneE4_0">
                <vehicle id="0" pos="36.61" speed="10.00"/>
            </lane>
        </edge>
    </timestep>
    <timestep time="90.00">
        <edge id="gneE4">
            <lane id="gneE4_0">
                <vehicle id="0" pos="46.61" speed="10.00"/>
            </lane>
        </edge>
    </timestep>
    <timestep time="91.00">
        <edge id="gneE4">
            <lane id="gneE4_0">
                <vehicle id="0" pos="56.61" speed="10.00"/>
            </lane>
        </edge>
    </timestep>
    <timestep time="92.00">
        <edge id="gneE4">
            <lane id="gneE4_0">
                <vehicle id="0" pos="66.61" speed="10.00"/>
            </lane>
        </edge>
    </timestep>
    <timestep time="93.00">
        <edge id="gneE4">
            <lane id="gneE4_0">
                <vehicle id="0" pos="76.61" speed="10.00"/>
            </lane>
        </edge>
    </timestep>
    <timestep time="94.00">
        <edge id="gneE4">
            <lane id="gneE4_0">
                <vehicle id="0" pos="86.61" speed="10.00"/>
            </lane>
        </edge>
    </timestep>
    <timestep time="95.00">
        <edge id="gneE4">
            <lane id="gneE4_0">
                <vehicle id="0" pos="96.61" speed="10.00"/>
            </lane>
        </edge>
    </timestep>
    <timestep time="96.00">
        <edge id="gneE5">
            <lane id="gneE5_0">
                <vehicle id="0" pos="8.29" speed="10.00"/>
            </lane>
        </edge>
    </timestep>
    <timestep time="97.00">
        <edge id="gneE5">
            <lane id="gneE5_0">
                <vehicle id="0" pos="18.29" speed="10.00"/>
            </lane>
        </edge>
    </timestep>
    <timestep time="98.00">
        <edge id="gneE5">
            <lane id="gneE5_0">
                <vehicle id="0" pos="28.29" speed="10.00"/>
            </lane>
        </edge>
    </timestep>
    <timestep time="99.00">
        <edge id="gneE5">
            <lane id="gneE5_0">
                <vehicle id="0" pos="38.29" speed="10.00"/>
            </lane>
        </edge>
    </timestep>
    <timestep time="100.00">
        <edge id="gneE5">
            <lane id="gneE5_0">
                <vehicle id="0" pos="48.29" speed="10.00"/>
            </lane>
        </edge>
    </timestep>
    <timestep time="101.00">
        <edge id="gneE5">
            <lane id="gneE5_0">
                <vehicle id="0" pos="58.29" speed="10.00"/>
            </lane>
        </edge>
    </timestep>
    <timestep time="102.00">
        <edge id="gneE5">
            <lane id="gneE5_0">
                <vehicle id="0" pos="68.29" speed="10.00"/>
            </lane>
        </edge>
    </timestep>
    <timestep time="103.00">
        <edge id="gneE5">
            <lane id="gneE5_0">
                <vehicle id="0" pos="78.29" speed="10.00"/>
            </lane>
        </edge>
    </timestep>
    <timestep time="104.00">
        <edge id="gneE5">
            <lane id="gneE5_0">
                <vehicle id="0" pos="88.29" speed="10.00"/>
            </lane>
        </edge>
    </timestep>
    <timestep time="105.00">
        <edge id="gneE5">
            <lane id="gneE5_0">
                <vehicle id="0" pos="98.29" speed="10.00"/>
            </lane>
        </edge>
    </timestep>
    <timestep time="106.00">
        <edge id="gneE5">
            <lane id="gneE5_0">
                <vehicle id="0" pos="108.29" speed="10.00"/>
            </lane>
        </edge>
    </timestep>
    <timestep time="107.00">
        <edge id="gneE5">
            <lane id="gneE5_0">
                <vehicle id="0" pos="118.29" speed="10.00"/>
            </lane>
        </edge>
    </timestep>
    <timestep time="108.00"/>
</netstate>
