<?xml version="1.0" encoding="UTF-8"?>

<!-- generated on Thu May 30 14:01:33 2013 by SUMO sumo Version dev-SVN-rUNKNOWN
<?xml version="1.0" encoding="UTF-8"?>

<configuration xmlns:xsi="http://www.w3.org/2001/XMLSchema-instance" xsi:noNamespaceSchemaLocation="http://sumo.sf.net/xsd/sumoConfiguration.xsd">

    <input>
        <net-file value="net.net.xml"/>
        <route-files value="input_routes.rou.xml"/>
    </input>

    <output>
        <tripinfo-output value="tripinfos.xml"/>
    </output>

    <time>
        <end value="30"/>
    </time>

    <report>
        <no-duration-log value="true"/>
        <no-step-log value="true"/>
    </report>

</configuration>
-->

<tripinfos>
    <tripinfo id="ego" depart="0.00" departLane="beg_0" departPos="5.10" departSpeed="0.00" departDelay="0.00" arrival="6.00" arrivalLane="middle_0" arrivalPos="3.00" arrivalSpeed="1.27" duration="6.00" routeLength="17.90" waitSteps="0" rerouteNo="0" devices="tripinfo_ego" vType="DEFAULT_VEHTYPE" vaporized=""/>
</tripinfos>
