<?xml version="1.0" encoding="UTF-8"?>

<!-- generated on Mon Oct 17 16:26:35 2016 by SUMO Version dev-SVN-r21661
<?xml version="1.0" encoding="UTF-8"?>

<configuration xmlns:xsi="http://www.w3.org/2001/XMLSchema-instance" xsi:noNamespaceSchemaLocation="http://sumo.dlr.de/xsd/sumoConfiguration.xsd">

    <input>
        <net-file value="net.net.xml"/>
        <route-files value="input_routes.rou.xml"/>
        <additional-files value="input_additional.add.xml"/>
    </input>

    <output>
        <vehroute-output value="vehroutes.xml"/>
    </output>

    <time>
        <end value="1440"/>
    </time>

    <report>
        <xml-validation value="never"/>
        <duration-log.disable value="true"/>
        <no-step-log value="true"/>
    </report>

</configuration>
-->

<routes xmlns:xsi="http://www.w3.org/2001/XMLSchema-instance" xsi:noNamespaceSchemaLocation="http://sumo.dlr.de/xsd/routes_file.xsd">
    <vehicle id="high.0" depart="0.00" arrival="14.00">
        <route edges="start middle jam bottleneck end"/>
    </vehicle>

    <vehicle id="high.1" depart="1.00" arrival="16.00">
        <route edges="start middle jam bottleneck end"/>
    </vehicle>

    <vehicle id="high.2" depart="2.00" arrival="17.00">
        <route edges="start middle jam bottleneck end"/>
    </vehicle>

    <vehicle id="high.3" depart="3.00" arrival="18.00">
        <route edges="start middle jam bottleneck end"/>
    </vehicle>

    <vehicle id="high.4" depart="5.00" arrival="19.00">
        <route edges="start middle jam bottleneck end"/>
    </vehicle>

    <vehicle id="high.5" depart="6.00" arrival="21.00">
        <route edges="start middle jam bottleneck end"/>
    </vehicle>

    <vehicle id="high.6" depart="7.00" arrival="22.00">
        <route edges="start middle jam bottleneck end"/>
    </vehicle>

    <vehicle id="high.7" depart="8.00" arrival="23.00">
        <route edges="start middle jam bottleneck end"/>
    </vehicle>

    <vehicle id="high.8" depart="9.00" arrival="24.00">
        <route edges="start middle jam bottleneck end"/>
    </vehicle>

    <vehicle id="high.9" depart="10.00" arrival="25.00">
        <route edges="start middle jam bottleneck end"/>
    </vehicle>

    <vehicle id="high.10" depart="12.00" arrival="27.00">
        <route edges="start middle jam bottleneck end"/>
    </vehicle>

    <vehicle id="high.12" depart="14.00" arrival="28.00">
        <route edges="start middle jam bottleneck end"/>
    </vehicle>

    <vehicle id="high.11" depart="14.00" arrival="29.00">
        <route edges="start middle jam bottleneck end"/>
    </vehicle>

    <vehicle id="high.14" depart="16.00" arrival="31.00">
        <route edges="start middle jam bottleneck end"/>
    </vehicle>

    <vehicle id="high.13" depart="16.00" arrival="32.00">
        <route edges="start middle jam bottleneck end"/>
    </vehicle>

    <vehicle id="high.15" depart="18.00" arrival="33.00">
        <route edges="start middle jam bottleneck end"/>
    </vehicle>

    <vehicle id="high.16" depart="20.00" arrival="35.00">
        <route edges="start middle jam bottleneck end"/>
    </vehicle>

    <vehicle id="high.17" depart="21.00" arrival="36.00">
        <route edges="start middle jam bottleneck end"/>
    </vehicle>

    <vehicle id="high.18" depart="22.00" arrival="37.00">
        <route edges="start middle jam bottleneck end"/>
    </vehicle>

    <vehicle id="high.19" depart="23.00" arrival="38.00">
        <route edges="start middle jam bottleneck end"/>
    </vehicle>

    <vehicle id="high.20" depart="24.00" arrival="39.00">
        <route edges="start middle jam bottleneck end"/>
    </vehicle>

    <vehicle id="high.21" depart="25.00" arrival="41.00">
        <route edges="start middle jam bottleneck end"/>
    </vehicle>

    <vehicle id="high.22" depart="26.00" arrival="42.00">
        <route edges="start middle jam bottleneck end"/>
    </vehicle>

    <vehicle id="high.23" depart="27.00" arrival="43.00">
        <route edges="start middle jam bottleneck end"/>
    </vehicle>

    <vehicle id="high.24" depart="28.00" arrival="44.00">
        <route edges="start middle jam bottleneck end"/>
    </vehicle>

    <vehicle id="high.25" depart="30.00" arrival="45.00">
        <route edges="start middle jam bottleneck end"/>
    </vehicle>

    <vehicle id="high.26" depart="31.00" arrival="47.00">
        <route edges="start middle jam bottleneck end"/>
    </vehicle>

    <vehicle id="high.27" depart="33.00" arrival="48.00">
        <route edges="start middle jam bottleneck end"/>
    </vehicle>

    <vehicle id="high.28" depart="33.00" arrival="49.00">
        <route edges="start middle jam bottleneck end"/>
    </vehicle>

    <vehicle id="high.29" depart="35.00" arrival="51.00">
        <route edges="start middle jam bottleneck end"/>
    </vehicle>

    <vehicle id="high.30" depart="36.00" arrival="52.00">
        <route edges="start middle jam bottleneck end"/>
    </vehicle>

    <vehicle id="high.31" depart="37.00" arrival="53.00">
        <route edges="start middle jam bottleneck end"/>
    </vehicle>

    <vehicle id="high.32" depart="38.00" arrival="54.00">
        <route edges="start middle jam bottleneck end"/>
    </vehicle>

    <vehicle id="high.33" depart="39.00" arrival="56.00">
        <route edges="start middle jam bottleneck end"/>
    </vehicle>

    <vehicle id="high.34" depart="40.00" arrival="57.00">
        <route edges="start middle jam bottleneck end"/>
    </vehicle>

    <vehicle id="high.35" depart="42.00" arrival="58.00">
        <route edges="start middle jam bottleneck end"/>
    </vehicle>

    <vehicle id="high.36" depart="43.00" arrival="59.00">
        <route edges="start middle jam bottleneck end"/>
    </vehicle>

    <vehicle id="high.37" depart="44.00" arrival="61.00">
        <route edges="start middle jam bottleneck end"/>
    </vehicle>

    <vehicle id="high.38" depart="46.00" arrival="62.00">
        <route edges="start middle jam bottleneck end"/>
    </vehicle>

    <vehicle id="high.39" depart="46.00" arrival="63.00">
        <route edges="start middle jam bottleneck end"/>
    </vehicle>

    <vehicle id="high.40" depart="48.00" arrival="64.00">
        <route edges="start middle jam bottleneck end"/>
    </vehicle>

    <vehicle id="high.41" depart="49.00" arrival="65.00">
        <route edges="start middle jam bottleneck end"/>
    </vehicle>

    <vehicle id="high.42" depart="51.00" arrival="67.00">
        <route edges="start middle jam bottleneck end"/>
    </vehicle>

    <vehicle id="high.43" depart="51.00" arrival="68.00">
        <route edges="start middle jam bottleneck end"/>
    </vehicle>

    <vehicle id="high.44" depart="53.00" arrival="69.00">
        <route edges="start middle jam bottleneck end"/>
    </vehicle>

    <vehicle id="high.45" depart="54.00" arrival="70.00">
        <route edges="start middle jam bottleneck end"/>
    </vehicle>

    <vehicle id="high.46" depart="55.00" arrival="72.00">
        <route edges="start middle jam bottleneck end"/>
    </vehicle>

    <vehicle id="high.47" depart="57.00" arrival="73.00">
        <route edges="start middle jam bottleneck end"/>
    </vehicle>

    <vehicle id="high.48" depart="58.00" arrival="74.00">
        <route edges="start middle jam bottleneck end"/>
    </vehicle>

    <vehicle id="high.49" depart="60.00" arrival="76.00">
        <route edges="start middle jam bottleneck end"/>
    </vehicle>

    <vehicle id="high.50" depart="62.00" arrival="77.00">
        <route edges="start middle jam bottleneck end"/>
    </vehicle>

    <vehicle id="high.51" depart="62.00" arrival="78.00">
        <route edges="start middle jam bottleneck end"/>
    </vehicle>

    <vehicle id="high.53" depart="64.00" arrival="80.00">
        <route edges="start middle jam bottleneck end"/>
    </vehicle>

    <vehicle id="high.52" depart="64.00" arrival="81.00">
        <route edges="start middle jam bottleneck end"/>
    </vehicle>

    <vehicle id="high.54" depart="66.00" arrival="82.00">
        <route edges="start middle jam bottleneck end"/>
    </vehicle>

    <vehicle id="high.55" depart="67.00" arrival="83.00">
        <route edges="start middle jam bottleneck end"/>
    </vehicle>

    <vehicle id="high.56" depart="68.00" arrival="84.00">
        <route edges="start middle jam bottleneck end"/>
    </vehicle>

    <vehicle id="high.58" depart="69.00" arrival="86.00">
        <route edges="start middle jam bottleneck end"/>
    </vehicle>

    <vehicle id="high.57" depart="69.00" arrival="87.00">
        <route edges="start middle jam bottleneck end"/>
    </vehicle>

    <vehicle id="high.59" depart="71.00" arrival="88.00">
        <route edges="start middle jam bottleneck end"/>
    </vehicle>

    <vehicle id="high.60" depart="72.00" arrival="90.00">
        <route edges="start middle jam bottleneck end"/>
    </vehicle>

    <vehicle id="high.62" depart="74.00" arrival="91.00">
        <route edges="start middle jam bottleneck end"/>
    </vehicle>

    <vehicle id="high.61" depart="73.00" arrival="92.00">
        <route edges="start middle jam bottleneck end"/>
    </vehicle>

    <vehicle id="high.63" depart="76.00" arrival="93.00">
        <route edges="start middle jam bottleneck end"/>
    </vehicle>

    <vehicle id="high.64" depart="76.00" arrival="95.00">
        <route edges="start middle jam bottleneck end"/>
    </vehicle>

    <vehicle id="high.65" depart="78.00" arrival="96.00">
        <route edges="start middle jam bottleneck end"/>
    </vehicle>

    <vehicle id="high.66" depart="80.00" arrival="97.00">
        <route edges="start middle jam bottleneck end"/>
    </vehicle>

    <vehicle id="high.67" depart="80.00" arrival="98.00">
        <route edges="start middle jam bottleneck end"/>
    </vehicle>

    <vehicle id="high.68" depart="82.00" arrival="100.00">
        <route edges="start middle jam bottleneck end"/>
    </vehicle>

    <vehicle id="high.69" depart="83.00" arrival="101.00">
        <route edges="start middle jam bottleneck end"/>
    </vehicle>

    <vehicle id="high.71" depart="85.00" arrival="102.00">
        <route edges="start middle jam bottleneck end"/>
    </vehicle>

    <vehicle id="high.70" depart="84.00" arrival="104.00">
        <route edges="start middle jam bottleneck end"/>
    </vehicle>

    <vehicle id="high.72" depart="87.00" arrival="105.00">
        <route edges="start middle jam bottleneck end"/>
    </vehicle>

    <vehicle id="high.73" depart="89.00" arrival="106.00">
        <route edges="start middle jam bottleneck end"/>
    </vehicle>

    <vehicle id="high.74" depart="91.00" arrival="108.00">
        <route edges="start middle jam bottleneck end"/>
    </vehicle>

    <vehicle id="high.76" depart="93.00" arrival="110.00">
        <route edges="start middle jam bottleneck end"/>
    </vehicle>

    <vehicle id="high.75" depart="93.00" arrival="112.00">
        <route edges="start middle jam bottleneck end"/>
    </vehicle>

    <vehicle id="high.77" depart="95.00" arrival="113.00">
        <route edges="start middle jam bottleneck end"/>
    </vehicle>

    <vehicle id="high.78" depart="96.00" arrival="114.00">
        <route edges="start middle jam bottleneck end"/>
    </vehicle>

    <vehicle id="high.79" depart="96.00" arrival="115.00">
        <route edges="start middle jam bottleneck end"/>
    </vehicle>

    <vehicle id="high.81" depart="98.00" arrival="117.00">
        <route edges="start middle jam bottleneck end"/>
    </vehicle>

    <vehicle id="high.80" depart="98.00" arrival="118.00">
        <route edges="start middle jam bottleneck end"/>
    </vehicle>

    <vehicle id="high.82" depart="99.00" arrival="119.00">
        <route edges="start middle jam bottleneck end"/>
    </vehicle>

    <vehicle id="high.83" depart="100.00" arrival="121.00">
        <route edges="start middle jam bottleneck end"/>
    </vehicle>

    <vehicle id="high.87" depart="104.00" arrival="122.00">
        <route edges="start middle jam bottleneck end"/>
    </vehicle>

    <vehicle id="high.84" depart="101.00" arrival="124.00">
        <route edges="start middle jam bottleneck end"/>
    </vehicle>

    <vehicle id="high.85" depart="102.00" arrival="125.00">
        <route edges="start middle jam bottleneck end"/>
    </vehicle>

    <vehicle id="high.90" depart="108.00" arrival="126.00">
        <route edges="start middle jam bottleneck end"/>
    </vehicle>

    <vehicle id="high.86" depart="103.00" arrival="128.00">
        <route edges="start middle jam bottleneck end"/>
    </vehicle>

    <vehicle id="high.88" depart="105.00" arrival="129.00">
        <route edges="start middle jam bottleneck end"/>
    </vehicle>

    <vehicle id="high.89" depart="106.00" arrival="130.00">
        <route edges="start middle jam bottleneck end"/>
    </vehicle>

    <vehicle id="high.91" depart="109.00" arrival="132.00">
        <route edges="start middle jam bottleneck end"/>
    </vehicle>

    <vehicle id="high.92" depart="110.00" arrival="133.00">
        <route edges="start middle jam bottleneck end"/>
    </vehicle>

    <vehicle id="high.97" depart="116.00" arrival="134.00">
        <route edges="start middle jam bottleneck end"/>
    </vehicle>

    <vehicle id="high.93" depart="111.00" arrival="136.00">
        <route edges="start middle jam bottleneck end"/>
    </vehicle>

    <vehicle id="high.99" depart="118.00" arrival="137.00">
        <route edges="start middle jam bottleneck end"/>
    </vehicle>

    <vehicle id="high.94" depart="112.00" arrival="139.00">
        <route edges="start middle jam bottleneck end"/>
    </vehicle>

    <vehicle id="high.100" depart="120.00" arrival="140.00">
        <route edges="start middle jam bottleneck end"/>
    </vehicle>

    <vehicle id="high.95" depart="114.00" arrival="142.00">
        <route edges="start middle jam bottleneck end"/>
    </vehicle>

    <vehicle id="high.96" depart="115.00" arrival="143.00">
        <route edges="start middle jam bottleneck end"/>
    </vehicle>

    <vehicle id="high.98" depart="117.00" arrival="144.00">
        <route edges="start middle jam bottleneck end"/>
    </vehicle>

    <vehicle id="high.102" depart="122.00" arrival="146.00">
        <route edges="start middle jam bottleneck end"/>
    </vehicle>

    <vehicle id="high.105" depart="126.00" arrival="148.00">
        <route edges="start middle jam bottleneck end"/>
    </vehicle>

    <vehicle id="high.107" depart="128.00" arrival="149.00">
        <route edges="start middle jam bottleneck end"/>
    </vehicle>

    <vehicle id="high.101" depart="121.00" arrival="151.00">
        <route edges="start middle jam bottleneck end"/>
    </vehicle>

    <vehicle id="high.109" depart="130.00" arrival="153.00">
        <route edges="start middle jam bottleneck end"/>
    </vehicle>

    <vehicle id="high.111" depart="133.00" arrival="155.00">
        <route edges="start middle jam bottleneck end"/>
    </vehicle>

    <vehicle id="high.103" depart="123.00" arrival="157.00">
        <route edges="start middle jam bottleneck end"/>
    </vehicle>

    <vehicle id="high.113" depart="135.00" arrival="159.00">
        <route edges="start middle jam bottleneck end"/>
    </vehicle>

    <vehicle id="high.104" depart="124.00" arrival="161.00">
        <route edges="start middle jam bottleneck end"/>
    </vehicle>

    <vehicle id="high.114" depart="137.00" arrival="163.00">
        <route edges="start middle jam bottleneck end"/>
    </vehicle>

    <vehicle id="high.106" depart="127.00" arrival="165.00">
        <route edges="start middle jam bottleneck end"/>
    </vehicle>

    <vehicle id="high.116" depart="139.00" arrival="167.00">
        <route edges="start middle jam bottleneck end"/>
    </vehicle>

    <vehicle id="high.108" depart="130.00" arrival="169.00">
        <route edges="start middle jam bottleneck end"/>
    </vehicle>

    <vehicle id="high.110" depart="132.00" arrival="170.00">
        <route edges="start middle jam bottleneck end"/>
    </vehicle>

    <vehicle id="high.117" depart="141.00" arrival="171.00">
        <route edges="start middle jam bottleneck end"/>
    </vehicle>

    <vehicle id="high.112" depart="134.00" arrival="173.00">
        <route edges="start middle jam bottleneck end"/>
    </vehicle>

    <vehicle id="high.115" depart="138.00" arrival="174.00">
        <route edges="start middle jam bottleneck end"/>
    </vehicle>

    <vehicle id="high.119" depart="145.00" arrival="177.00">
        <route edges="start middle jam bottleneck end"/>
    </vehicle>

    <vehicle id="high.127" depart="154.00" arrival="178.00">
        <route edges="start middle jam bottleneck end"/>
    </vehicle>

    <vehicle id="high.118" depart="143.00" arrival="180.00">
        <route edges="start middle jam bottleneck end"/>
    </vehicle>

    <vehicle id="high.128" depart="156.00" arrival="181.00">
        <route edges="start middle jam bottleneck end"/>
    </vehicle>

    <vehicle id="high.129" depart="157.00" arrival="183.00">
        <route edges="start middle jam bottleneck end"/>
    </vehicle>

    <vehicle id="high.120" depart="146.00" arrival="185.00">
        <route edges="start middle jam bottleneck end"/>
    </vehicle>

    <vehicle id="high.121" depart="147.00" arrival="186.00">
        <route edges="start middle jam bottleneck end"/>
    </vehicle>

    <vehicle id="high.123" depart="149.00" arrival="187.00">
        <route edges="start middle jam bottleneck end"/>
    </vehicle>

    <vehicle id="high.125" depart="151.00" arrival="188.00">
        <route edges="start middle jam bottleneck end"/>
    </vehicle>

    <vehicle id="high.122" depart="148.00" arrival="190.00">
        <route edges="start middle jam bottleneck end"/>
    </vehicle>

    <vehicle id="high.124" depart="151.00" arrival="191.00">
        <route edges="start middle jam bottleneck end"/>
    </vehicle>

    <vehicle id="high.126" depart="153.00" arrival="192.00">
        <route edges="start middle jam bottleneck end"/>
    </vehicle>

    <vehicle id="high.130" depart="158.00" arrival="193.00">
        <route edges="start middle jam bottleneck end"/>
    </vehicle>

    <vehicle id="high.131" depart="158.00" arrival="194.00">
        <route edges="start middle jam bottleneck end"/>
    </vehicle>

    <vehicle id="high.132" depart="159.00" arrival="196.00">
        <route edges="start middle jam bottleneck end"/>
    </vehicle>

    <vehicle id="high.134" depart="160.00" arrival="197.00">
        <route edges="start middle jam bottleneck end"/>
    </vehicle>

    <vehicle id="high.133" depart="160.00" arrival="198.00">
        <route edges="start middle jam bottleneck end"/>
    </vehicle>

    <vehicle id="high.135" depart="162.00" arrival="199.00">
        <route edges="start middle jam bottleneck end"/>
    </vehicle>

    <vehicle id="high.137" depart="164.00" arrival="200.00">
        <route edges="start middle jam bottleneck end"/>
    </vehicle>

    <vehicle id="high.139" depart="166.00" arrival="202.00">
        <route edges="start middle jam bottleneck end"/>
    </vehicle>

    <vehicle id="high.142" depart="170.00" arrival="204.00">
        <route edges="start middle jam bottleneck end"/>
    </vehicle>

    <vehicle id="high.147" depart="176.00" arrival="206.00">
        <route edges="start middle jam bottleneck end"/>
    </vehicle>

    <vehicle id="high.136" depart="163.00" arrival="208.00">
        <route edges="start middle jam bottleneck end"/>
    </vehicle>

    <vehicle id="high.150" depart="180.00" arrival="210.00">
        <route edges="start middle jam bottleneck end"/>
    </vehicle>

    <vehicle id="high.152" depart="182.00" arrival="211.00">
        <route edges="start middle jam bottleneck end"/>
    </vehicle>

    <vehicle id="high.155" depart="186.00" arrival="213.00">
        <route edges="start middle jam bottleneck end"/>
    </vehicle>

    <vehicle id="high.157" depart="188.00" arrival="215.00">
        <route edges="start middle jam bottleneck end"/>
    </vehicle>

    <vehicle id="high.138" depart="165.00" arrival="216.00">
        <route edges="start middle jam bottleneck end"/>
    </vehicle>

    <vehicle id="high.160" depart="193.00" arrival="218.00">
        <route edges="start middle jam bottleneck end"/>
    </vehicle>

    <vehicle id="high.161" depart="194.00" arrival="220.00">
        <route edges="start middle jam bottleneck end"/>
    </vehicle>

    <vehicle id="high.140" depart="168.00" arrival="222.00">
        <route edges="start middle jam bottleneck end"/>
    </vehicle>

    <vehicle id="high.163" depart="196.00" arrival="224.00">
        <route edges="start middle jam bottleneck end"/>
    </vehicle>

    <vehicle id="high.165" depart="198.00" arrival="226.00">
        <route edges="start middle jam bottleneck end"/>
    </vehicle>

    <vehicle id="high.167" depart="200.00" arrival="228.00">
        <route edges="start middle jam bottleneck end"/>
    </vehicle>

    <vehicle id="high.141" depart="169.00" arrival="230.00">
        <route edges="start middle jam bottleneck end"/>
    </vehicle>

    <vehicle id="high.144" depart="172.00" arrival="231.00">
        <route edges="start middle jam bottleneck end"/>
    </vehicle>

    <vehicle id="high.169" depart="202.00" arrival="233.00">
        <route edges="start middle jam bottleneck end"/>
    </vehicle>

    <vehicle id="high.168" depart="201.00" arrival="234.00">
        <route edges="start middle jam bottleneck end"/>
    </vehicle>

    <vehicle id="high.143" depart="171.00" arrival="236.00">
        <route edges="start middle jam bottleneck end"/>
    </vehicle>

    <vehicle id="high.170" depart="204.00" arrival="239.00">
        <route edges="start middle jam bottleneck end"/>
    </vehicle>

    <vehicle id="high.172" depart="206.00" arrival="240.00">
        <route edges="start middle jam bottleneck end"/>
    </vehicle>

    <vehicle id="high.145" depart="174.00" arrival="242.00">
        <route edges="start middle jam bottleneck end"/>
    </vehicle>

    <vehicle id="high.146" depart="175.00" arrival="243.00">
        <route edges="start middle jam bottleneck end"/>
    </vehicle>

    <vehicle id="high.173" depart="209.00" arrival="246.00">
        <route edges="start middle jam bottleneck end"/>
    </vehicle>

    <vehicle id="high.174" depart="210.00" arrival="247.00">
        <route edges="start middle jam bottleneck end"/>
    </vehicle>

    <vehicle id="high.148" depart="177.00" arrival="249.00">
        <route edges="start middle jam bottleneck end"/>
    </vehicle>

    <vehicle id="high.176" depart="211.00" arrival="251.00">
        <route edges="start middle jam bottleneck end"/>
    </vehicle>

    <vehicle id="high.149" depart="178.00" arrival="253.00">
        <route edges="start middle jam bottleneck end"/>
    </vehicle>

    <vehicle id="high.151" depart="181.00" arrival="254.00">
        <route edges="start middle jam bottleneck end"/>
    </vehicle>

    <vehicle id="high.177" depart="213.00" arrival="256.00">
        <route edges="start middle jam bottleneck end"/>
    </vehicle>

    <vehicle id="high.154" depart="184.00" arrival="258.00">
        <route edges="start middle jam bottleneck end"/>
    </vehicle>

    <vehicle id="high.178" depart="214.00" arrival="260.00">
        <route edges="start middle jam bottleneck end"/>
    </vehicle>

    <vehicle id="high.182" depart="221.00" arrival="262.00">
        <route edges="start middle jam bottleneck end"/>
    </vehicle>

    <vehicle id="high.184" depart="223.00" arrival="264.00">
        <route edges="start middle jam bottleneck end"/>
    </vehicle>

    <vehicle id="high.185" depart="224.00" arrival="266.00">
        <route edges="start middle jam bottleneck end"/>
    </vehicle>

    <vehicle id="high.187" depart="225.00" arrival="267.00">
        <route edges="start middle jam bottleneck end"/>
    </vehicle>

    <vehicle id="high.153" depart="183.00" arrival="269.00">
        <route edges="start middle jam bottleneck end"/>
    </vehicle>

    <vehicle id="high.188" depart="226.00" arrival="271.00">
        <route edges="start middle jam bottleneck end"/>
    </vehicle>

    <vehicle id="high.189" depart="227.00" arrival="273.00">
        <route edges="start middle jam bottleneck end"/>
    </vehicle>

    <vehicle id="high.156" depart="187.00" arrival="275.00">
        <route edges="start middle jam bottleneck end"/>
    </vehicle>

    <vehicle id="high.190" depart="228.00" arrival="277.00">
        <route edges="start middle jam bottleneck end"/>
    </vehicle>

    <vehicle id="high.192" depart="230.00" arrival="279.00">
        <route edges="start middle jam bottleneck end"/>
    </vehicle>

    <vehicle id="high.193" depart="231.00" arrival="281.00">
        <route edges="start middle jam bottleneck end"/>
    </vehicle>

    <vehicle id="high.158" depart="189.00" arrival="283.00">
        <route edges="start middle jam bottleneck end"/>
    </vehicle>

    <vehicle id="high.194" depart="232.00" arrival="285.00">
        <route edges="start middle jam bottleneck end"/>
    </vehicle>

    <vehicle id="high.195" depart="234.00" arrival="287.00">
        <route edges="start middle jam bottleneck end"/>
    </vehicle>

    <vehicle id="high.159" depart="191.00" arrival="289.00">
        <route edges="start middle jam bottleneck end"/>
    </vehicle>

    <vehicle id="high.196" depart="235.00" arrival="291.00">
        <route edges="start middle jam bottleneck end"/>
    </vehicle>

    <vehicle id="high.162" depart="194.00" arrival="292.00">
        <route edges="start middle jam bottleneck end"/>
    </vehicle>

    <vehicle id="high.202" depart="242.00" arrival="295.00">
        <route edges="start middle jam bottleneck end"/>
    </vehicle>

    <vehicle id="high.203" depart="243.00" arrival="296.00">
        <route edges="start middle jam bottleneck end"/>
    </vehicle>

    <vehicle id="high.198" depart="237.00" arrival="299.00">
        <route edges="start middle jam bottleneck end"/>
    </vehicle>

    <vehicle id="high.164" depart="197.00" arrival="300.00">
        <route edges="start middle jam bottleneck end"/>
    </vehicle>

    <vehicle id="high.166" depart="199.00" arrival="301.00">
        <route edges="start middle jam bottleneck end"/>
    </vehicle>

    <vehicle id="high.171" depart="205.00" arrival="302.00">
        <route edges="start middle jam bottleneck end"/>
    </vehicle>

    <vehicle id="high.211" depart="253.00" arrival="304.00">
        <route edges="start middle jam bottleneck end"/>
    </vehicle>

    <vehicle id="high.179" depart="214.00" arrival="305.00">
        <route edges="start middle jam bottleneck end"/>
    </vehicle>

    <vehicle id="high.219" depart="268.00" arrival="307.00">
        <route edges="start middle jam bottleneck end"/>
    </vehicle>

    <vehicle id="high.175" depart="211.00" arrival="308.00">
        <route edges="start middle jam bottleneck end"/>
    </vehicle>

    <vehicle id="high.225" depart="280.00" arrival="310.00">
        <route edges="start middle jam bottleneck end"/>
    </vehicle>

    <vehicle id="high.226" depart="281.00" arrival="312.00">
        <route edges="start middle jam bottleneck end"/>
    </vehicle>

    <vehicle id="high.180" depart="216.00" arrival="314.00">
        <route edges="start middle jam bottleneck end"/>
    </vehicle>

    <vehicle id="high.181" depart="218.00" arrival="315.00">
        <route edges="start middle jam bottleneck end"/>
    </vehicle>

    <vehicle id="high.228" depart="282.00" arrival="317.00">
        <route edges="start middle jam bottleneck end"/>
    </vehicle>

    <vehicle id="high.183" depart="223.00" arrival="318.00">
        <route edges="start middle jam bottleneck end"/>
    </vehicle>

    <vehicle id="high.229" depart="283.00" arrival="321.00">
        <route edges="start middle jam bottleneck end"/>
    </vehicle>

    <vehicle id="high.186" depart="224.00" arrival="323.00">
        <route edges="start middle jam bottleneck end"/>
    </vehicle>

    <vehicle id="high.236" depart="289.00" arrival="325.00">
        <route edges="start middle jam bottleneck end"/>
    </vehicle>

    <vehicle id="high.218" depart="267.00" arrival="326.00">
        <route edges="start middle jam bottleneck end"/>
    </vehicle>

    <vehicle id="high.237" depart="292.00" arrival="328.00">
        <route edges="start middle jam bottleneck end"/>
    </vehicle>

    <vehicle id="high.215" depart="262.00" arrival="330.00">
        <route edges="start middle jam bottleneck end"/>
    </vehicle>

    <vehicle id="high.239" depart="294.00" arrival="332.00">
        <route edges="start middle jam bottleneck end"/>
    </vehicle>

    <vehicle id="high.233" depart="286.00" arrival="334.00">
        <route edges="start middle jam bottleneck end"/>
    </vehicle>

    <vehicle id="high.213" depart="256.00" arrival="337.00">
        <route edges="start middle jam bottleneck end"/>
    </vehicle>

    <vehicle id="high.217" depart="266.00" arrival="338.00">
        <route edges="start middle jam bottleneck end"/>
    </vehicle>

    <vehicle id="high.220" depart="269.00" arrival="340.00">
        <route edges="start middle jam bottleneck end"/>
    </vehicle>

    <vehicle id="high.243" depart="303.00" arrival="342.00">
        <route edges="start middle jam bottleneck end"/>
    </vehicle>

    <vehicle id="high.191" depart="229.00" arrival="344.00">
        <route edges="start middle jam bottleneck end"/>
    </vehicle>

    <vehicle id="high.224" depart="280.00" arrival="346.00">
        <route edges="start middle jam bottleneck end"/>
    </vehicle>

    <vehicle id="high.221" depart="270.00" arrival="348.00">
        <route edges="start middle jam bottleneck end"/>
    </vehicle>

    <vehicle id="high.227" depart="282.00" arrival="350.00">
        <route edges="start middle jam bottleneck end"/>
    </vehicle>
