<?xml version="1.0" encoding="UTF-8"?>

<!-- generated on Wed Feb  8 14:26:17 2017 by SUMO Version dev-SVN-r22880
<?xml version="1.0" encoding="UTF-8"?>

<configuration xmlns:xsi="http://www.w3.org/2001/XMLSchema-instance" xsi:noNamespaceSchemaLocation="http://sumo.dlr.de/xsd/sumoConfiguration.xsd">

    <input>
        <net-file value="net.net.xml"/>
        <route-files value="input_routes.rou.xml"/>
    </input>

    <output>
        <fcd-output value="fcd.xml"/>
    </output>

    <processing>
        <pedestrian.model value="striping"/>
    </processing>

    <report>
        <xml-validation value="never"/>
        <no-step-log value="true"/>
    </report>

</configuration>
-->

<fcd-export xmlns:xsi="http://www.w3.org/2001/XMLSchema-instance" xsi:noNamespaceSchemaLocation="http://sumo.dlr.de/xsd/fcd_file.xsd">
    <timestep time="0.00">
        <person id="p0" x="37.30" y="-1.93" angle="90.39" speed="0.00" pos="37.31" edge="beg" slope="0.00"/>
    </timestep>
    <timestep time="1.00">
        <person id="p0" x="38.51" y="-1.52" angle="49.09" speed="0.90" pos="0.40" edge=":C_w0" slope="0.00"/>
    </timestep>
    <timestep time="2.00">
        <person id="p0" x="39.49" y="-1.68" angle="90.00" speed="1.39" pos="1.39" edge="end" slope="0.00"/>
    </timestep>
    <timestep time="3.00">
        <person id="p0" x="40.88" y="-1.68" angle="90.00" speed="1.39" pos="2.78" edge="end" slope="0.00"/>
    </timestep>
    <timestep time="4.00">
        <person id="p0" x="42.27" y="-1.68" angle="90.00" speed="1.39" pos="4.17" edge="end" slope="0.00"/>
    </timestep>
    <timestep time="5.00">
        <person id="p0" x="43.66" y="-1.68" angle="90.00" speed="1.39" pos="5.56" edge="end" slope="0.00"/>
    </timestep>
    <timestep time="6.00">
        <person id="p0" x="45.04" y="-1.68" angle="90.00" speed="1.39" pos="6.94" edge="end" slope="0.00"/>
    </timestep>
    <timestep time="7.00">
        <person id="p0" x="46.43" y="-1.68" angle="90.00" speed="1.39" pos="8.33" edge="end" slope="0.00"/>
    </timestep>
    <timestep time="8.00">
        <person id="p0" x="47.82" y="-1.68" angle="90.00" speed="1.39" pos="9.72" edge="end" slope="0.00"/>
    </timestep>
    <timestep time="9.00"/>
</fcd-export>
