<?xml version="1.0" encoding="UTF-8"?>

<!-- generated on Di 08 Nov 2016 16:07:22 CET by SUMO gui Version dev-SVN-r21650
<?xml version="1.0" encoding="UTF-8"?>

<configuration xmlns:xsi="http://www.w3.org/2001/XMLSchema-instance" xsi:noNamespaceSchemaLocation="http://sumo.dlr.de/xsd/sumo-gui.exeConfiguration.xsd">

    <input>
        <net-file value="net.net.xml"/>
        <route-files value="input_routes.rou.xml"/>
    </input>

    <output>
        <fcd-output value="fcd.xml"/>
    </output>

    <report>
        <xml-validation value="never"/>
        <no-step-log value="true"/>
    </report>

</configuration>
-->

<fcd-export xmlns:xsi="http://www.w3.org/2001/XMLSchema-instance" xsi:noNamespaceSchemaLocation="http://sumo.dlr.de/xsd/fcd_file.xsd">
    <timestep time="0.00">
        <vehicle id="veh1" x="0.00" y="48.35" angle="90.00" type="1" speed="13.89" pos="0.00" lane="WC_0" slope="0.00"/>
    </timestep>
    <timestep time="1.00">
        <vehicle id="veh1" x="13.89" y="48.35" angle="90.00" type="1" speed="13.89" pos="13.89" lane="WC_0" slope="0.00"/>
    </timestep>
    <timestep time="2.00">
        <vehicle id="veh1" x="27.78" y="48.35" angle="90.00" type="1" speed="13.89" pos="27.78" lane="WC_0" slope="0.00"/>
    </timestep>
    <timestep time="3.00">
        <vehicle id="veh1" x="41.67" y="48.35" angle="90.00" type="1" speed="13.89" pos="41.67" lane="WC_0" slope="0.00"/>
    </timestep>
    <timestep time="4.00">
        <vehicle id="veh1" x="55.56" y="48.35" angle="90.00" type="1" speed="13.89" pos="55.56" lane="WC_0" slope="0.00"/>
    </timestep>
    <timestep time="5.00">
        <vehicle id="veh1" x="69.45" y="48.35" angle="90.00" type="1" speed="13.89" pos="69.45" lane="WC_0" slope="0.00"/>
    </timestep>
    <timestep time="6.00">
        <vehicle id="veh1" x="82.52" y="48.35" angle="90.00" type="1" speed="13.07" pos="82.52" lane="WC_0" slope="0.00"/>
    </timestep>
    <timestep time="7.00">
        <vehicle id="veh1" x="91.08" y="48.35" angle="90.00" type="1" speed="8.57" pos="91.08" lane="WC_0" slope="0.00"/>
    </timestep>
    <timestep time="8.00">
        <vehicle id="veh1" x="95.15" y="48.35" angle="90.00" type="1" speed="4.07" pos="95.15" lane="WC_0" slope="0.00"/>
    </timestep>
    <timestep time="9.00">
        <vehicle id="veh1" x="101.82" y="48.35" angle="90.00" type="1" speed="6.67" pos="6.57" lane=":C_10_0" slope="0.00"/>
    </timestep>
    <timestep time="10.00">
        <vehicle id="veh1" x="111.08" y="48.35" angle="90.00" type="1" speed="9.27" pos="6.33" lane="CE_0" slope="0.00"/>
    </timestep>
    <timestep time="11.00">
        <vehicle id="veh1" x="122.95" y="48.35" angle="90.00" type="1" speed="11.87" pos="18.20" lane="CE_0" slope="0.00"/>
    </timestep>
    <timestep time="12.00">
        <vehicle id="veh1" x="136.84" y="48.35" angle="90.00" type="1" speed="13.89" pos="32.09" lane="CE_0" slope="0.00"/>
    </timestep>
    <timestep time="13.00">
        <vehicle id="veh1" x="150.73" y="48.35" angle="90.00" type="1" speed="13.89" pos="45.98" lane="CE_0" slope="0.00"/>
    </timestep>
    <timestep time="14.00">
        <vehicle id="veh1" x="164.62" y="48.35" angle="90.00" type="1" speed="13.89" pos="59.87" lane="CE_0" slope="0.00"/>
    </timestep>
    <timestep time="15.00"/>
</fcd-export>
