<?xml version="1.0" encoding="UTF-8"?>

<!-- generated on Wed Jun  5 12:35:48 2013 by SUMO sumo Version dev-SVN-rUNKNOWN
<?xml version="1.0" encoding="UTF-8"?>

<configuration xmlns:xsi="http://www.w3.org/2001/XMLSchema-instance" xsi:noNamespaceSchemaLocation="http://sumo.sf.net/xsd/sumoConfiguration.xsd">

    <input>
        <net-file value="net.net.xml"/>
        <route-files value="input_routes.rou.xml"/>
        <additional-files value="input_additional.add.xml"/>
    </input>

    <output>
        <vehroute-output value="vehroutes.xml"/>
    </output>

    <time>
        <end value="1440"/>
    </time>

    <report>
        <no-duration-log value="true"/>
        <no-step-log value="true"/>
    </report>

</configuration>
-->

<routes xmlns:xsi="http://www.w3.org/2001/XMLSchema-instance" xsi:noNamespaceSchemaLocation="http://sumo.sf.net/xsd/routes_file.xsd">
    <vehicle id="high.0" depart="0.00" arrival="15.00">
        <route edges="start middle jam bottleneck end"/>
    </vehicle>

    <vehicle id="high.2" depart="2.00" arrival="18.00">
        <route edges="start middle jam bottleneck end"/>
    </vehicle>

    <vehicle id="high.4" depart="4.00" arrival="20.00">
        <route edges="start middle jam bottleneck end"/>
    </vehicle>

    <vehicle id="high.5" depart="6.00" arrival="22.00">
        <route edges="start middle jam bottleneck end"/>
    </vehicle>

    <vehicle id="high.7" depart="8.00" arrival="25.00">
        <route edges="start middle jam bottleneck end"/>
    </vehicle>

    <vehicle id="high.9" depart="10.00" arrival="28.00">
        <route edges="start middle jam bottleneck end"/>
    </vehicle>

    <vehicle id="high.10" depart="12.00" arrival="31.00">
        <route edges="start middle jam bottleneck end"/>
    </vehicle>

    <vehicle id="high.12" depart="14.00" arrival="33.00">
        <route edges="start middle jam bottleneck end"/>
    </vehicle>

    <vehicle id="high.14" depart="16.00" arrival="37.00">
        <route edges="start middle jam bottleneck end"/>
    </vehicle>

    <vehicle id="high.15" depart="18.00" arrival="40.00">
        <route edges="start middle jam bottleneck end"/>
    </vehicle>

    <vehicle id="high.17" depart="20.00" arrival="44.00">
        <route edges="start middle jam bottleneck end"/>
    </vehicle>

    <vehicle id="high.18" depart="22.00" arrival="49.00">
        <route edges="start middle jam bottleneck end"/>
    </vehicle>

    <vehicle id="high.20" depart="24.00" arrival="55.00">
        <route edges="start middle jam bottleneck end"/>
    </vehicle>

    <vehicle id="high.22" depart="26.00" arrival="59.00">
        <route edges="start middle jam bottleneck end"/>
    </vehicle>

    <vehicle id="high.6" depart="7.00" arrival="61.00">
        <route edges="start middle jam bottleneck end"/>
    </vehicle>

    <vehicle id="high.24" depart="28.00" arrival="65.00">
        <route edges="start middle jam bottleneck end"/>
    </vehicle>

    <vehicle id="high.25" depart="30.00" arrival="69.00">
        <route edges="start middle jam bottleneck end"/>
    </vehicle>

    <vehicle id="high.1" depart="1.00" arrival="73.00">
        <route edges="start middle jam bottleneck end"/>
    </vehicle>

    <vehicle id="high.11" depart="13.00" arrival="74.00">
        <route edges="start middle jam bottleneck end"/>
    </vehicle>

    <vehicle id="high.13" depart="16.00" arrival="77.00">
        <route edges="start middle jam bottleneck end"/>
    </vehicle>

    <vehicle id="high.8" depart="10.00" arrival="79.00">
        <route edges="start middle jam bottleneck end"/>
    </vehicle>

    <vehicle id="high.3" depart="4.00" arrival="82.00">
        <route edges="start middle jam bottleneck end"/>
    </vehicle>

    <vehicle id="high.23" depart="27.00" arrival="84.00">
        <route edges="start middle jam bottleneck end"/>
    </vehicle>

    <vehicle id="high.16" depart="19.00" arrival="86.00">
        <route edges="start middle jam bottleneck end"/>
    </vehicle>

    <vehicle id="high.26" depart="31.00" arrival="87.00">
        <route edges="start middle jam bottleneck end"/>
    </vehicle>

    <vehicle id="high.21" depart="25.00" arrival="90.00">
        <route edges="start middle jam bottleneck end"/>
    </vehicle>

    <vehicle id="high.28" depart="33.00" arrival="91.00">
        <route edges="start middle jam bottleneck end"/>
    </vehicle>

    <vehicle id="high.19" depart="22.00" arrival="94.00">
        <route edges="start middle jam bottleneck end"/>
    </vehicle>

    <vehicle id="high.31" depart="37.00" arrival="95.00">
        <route edges="start middle jam bottleneck end"/>
    </vehicle>

    <vehicle id="high.27" depart="32.00" arrival="97.00">
        <route edges="start middle jam bottleneck end"/>
    </vehicle>

    <vehicle id="high.29" depart="34.00" arrival="99.00">
        <route edges="start middle jam bottleneck end"/>
    </vehicle>

    <vehicle id="high.33" depart="39.00" arrival="101.00">
        <route edges="start middle jam bottleneck end"/>
    </vehicle>

    <vehicle id="high.36" depart="43.00" arrival="103.00">
        <route edges="start middle jam bottleneck end"/>
    </vehicle>

    <vehicle id="high.30" depart="36.00" arrival="106.00">
        <route edges="start middle jam bottleneck end"/>
    </vehicle>

    <vehicle id="high.40" depart="48.00" arrival="108.00">
        <route edges="start middle jam bottleneck end"/>
    </vehicle>

    <vehicle id="high.32" depart="38.00" arrival="110.00">
        <route edges="start middle jam bottleneck end"/>
    </vehicle>

    <vehicle id="high.42" depart="50.00" arrival="114.00">
        <route edges="start middle jam bottleneck end"/>
    </vehicle>

    <vehicle id="high.46" depart="55.00" arrival="115.00">
        <route edges="start middle jam bottleneck end"/>
    </vehicle>

    <vehicle id="high.34" depart="40.00" arrival="118.00">
        <route edges="start middle jam bottleneck end"/>
    </vehicle>

    <vehicle id="high.50" depart="60.00" arrival="121.00">
        <route edges="start middle jam bottleneck end"/>
    </vehicle>

    <vehicle id="high.52" depart="62.00" arrival="123.00">
        <route edges="start middle jam bottleneck end"/>
    </vehicle>

    <vehicle id="high.35" depart="42.00" arrival="125.00">
        <route edges="start middle jam bottleneck end"/>
    </vehicle>

    <vehicle id="high.53" depart="63.00" arrival="127.00">
        <route edges="start middle jam bottleneck end"/>
    </vehicle>

    <vehicle id="high.55" depart="66.00" arrival="129.00">
        <route edges="start middle jam bottleneck end"/>
    </vehicle>

    <vehicle id="high.38" depart="45.00" arrival="131.00">
        <route edges="start middle jam bottleneck end"/>
    </vehicle>

    <vehicle id="high.57" depart="68.00" arrival="132.00">
        <route edges="start middle jam bottleneck end"/>
    </vehicle>

    <vehicle id="high.61" depart="73.00" arrival="134.00">
        <route edges="start middle jam bottleneck end"/>
    </vehicle>

    <vehicle id="high.37" depart="44.00" arrival="136.00">
        <route edges="start middle jam bottleneck end"/>
    </vehicle>

    <vehicle id="high.39" depart="46.00" arrival="138.00">
        <route edges="start middle jam bottleneck end"/>
    </vehicle>

    <vehicle id="high.41" depart="49.00" arrival="140.00">
        <route edges="start middle jam bottleneck end"/>
    </vehicle>

    <vehicle id="high.47" depart="57.00" arrival="141.00">
        <route edges="start middle jam bottleneck end"/>
    </vehicle>

    <vehicle id="high.72" depart="86.00" arrival="144.00">
        <route edges="start middle jam bottleneck end"/>
    </vehicle>

    <vehicle id="high.76" depart="91.00" arrival="146.00">
        <route edges="start middle jam bottleneck end"/>
    </vehicle>

    <vehicle id="high.43" depart="51.00" arrival="148.00">
        <route edges="start middle jam bottleneck end"/>
    </vehicle>

    <vehicle id="high.66" depart="79.00" arrival="151.00">
        <route edges="start middle jam bottleneck end"/>
    </vehicle>

    <vehicle id="high.44" depart="52.00" arrival="153.00">
        <route edges="start middle jam bottleneck end"/>
    </vehicle>

    <vehicle id="high.62" depart="74.00" arrival="155.00">
        <route edges="start middle jam bottleneck end"/>
    </vehicle>

    <vehicle id="high.64" depart="76.00" arrival="157.00">
        <route edges="start middle jam bottleneck end"/>
    </vehicle>

    <vehicle id="high.65" depart="78.00" arrival="159.00">
        <route edges="start middle jam bottleneck end"/>
    </vehicle>

    <vehicle id="high.45" depart="54.00" arrival="160.00">
        <route edges="start middle jam bottleneck end"/>
    </vehicle>

    <vehicle id="high.67" depart="81.00" arrival="162.00">
        <route edges="start middle jam bottleneck end"/>
    </vehicle>

    <vehicle id="high.48" depart="57.00" arrival="164.00">
        <route edges="start middle jam bottleneck end"/>
    </vehicle>

    <vehicle id="high.51" depart="61.00" arrival="165.00">
        <route edges="start middle jam bottleneck end"/>
    </vehicle>

    <vehicle id="high.49" depart="59.00" arrival="166.00">
        <route edges="start middle jam bottleneck end"/>
    </vehicle>

    <vehicle id="high.69" depart="83.00" arrival="168.00">
        <route edges="start middle jam bottleneck end"/>
    </vehicle>

    <vehicle id="high.71" depart="86.00" arrival="170.00">
        <route edges="start middle jam bottleneck end"/>
    </vehicle>

    <vehicle id="high.74" depart="91.00" arrival="172.00">
        <route edges="start middle jam bottleneck end"/>
    </vehicle>

    <vehicle id="high.54" depart="64.00" arrival="175.00">
        <route edges="start middle jam bottleneck end"/>
    </vehicle>

    <vehicle id="high.77" depart="96.00" arrival="177.00">
        <route edges="start middle jam bottleneck end"/>
    </vehicle>

    <vehicle id="high.58" depart="69.00" arrival="179.00">
        <route edges="start middle jam bottleneck end"/>
    </vehicle>

    <vehicle id="high.56" depart="67.00" arrival="182.00">
        <route edges="start middle jam bottleneck end"/>
    </vehicle>

    <vehicle id="high.79" depart="103.00" arrival="185.00">
        <route edges="start middle jam bottleneck end"/>
    </vehicle>

    <vehicle id="high.60" depart="72.00" arrival="186.00">
        <route edges="start middle jam bottleneck end"/>
    </vehicle>

    <vehicle id="high.81" depart="110.00" arrival="189.00">
        <route edges="start middle jam bottleneck end"/>
    </vehicle>

    <vehicle id="high.63" depart="75.00" arrival="191.00">
        <route edges="start middle jam bottleneck end"/>
    </vehicle>

    <vehicle id="high.82" depart="115.00" arrival="194.00">
        <route edges="start middle jam bottleneck end"/>
    </vehicle>

    <vehicle id="high.83" depart="119.00" arrival="196.00">
        <route edges="start middle jam bottleneck end"/>
    </vehicle>

    <vehicle id="high.84" depart="124.00" arrival="197.00">
        <route edges="start middle jam bottleneck end"/>
    </vehicle>

    <vehicle id="high.59" depart="70.00" arrival="199.00">
        <route edges="start middle jam bottleneck end"/>
    </vehicle>

    <vehicle id="high.86" depart="128.00" arrival="201.00">
        <route edges="start middle jam bottleneck end"/>
    </vehicle>

    <vehicle id="high.68" depart="81.00" arrival="203.00">
        <route edges="start middle jam bottleneck end"/>
    </vehicle>

    <vehicle id="high.88" depart="132.00" arrival="206.00">
        <route edges="start middle jam bottleneck end"/>
    </vehicle>

    <vehicle id="high.70" depart="84.00" arrival="209.00">
        <route edges="start middle jam bottleneck end"/>
    </vehicle>

    <vehicle id="high.90" depart="137.00" arrival="210.00">
        <route edges="start middle jam bottleneck end"/>
    </vehicle>

    <vehicle id="high.91" depart="143.00" arrival="212.00">
        <route edges="start middle jam bottleneck end"/>
    </vehicle>

    <vehicle id="high.73" depart="87.00" arrival="214.00">
        <route edges="start middle jam bottleneck end"/>
    </vehicle>

    <vehicle id="high.93" depart="150.00" arrival="215.00">
        <route edges="start middle jam bottleneck end"/>
    </vehicle>

    <vehicle id="high.75" depart="91.00" arrival="218.00">
        <route edges="start middle jam bottleneck end"/>
    </vehicle>

    <vehicle id="high.95" depart="155.00" arrival="222.00">
        <route edges="start middle jam bottleneck end"/>
    </vehicle>

    <vehicle id="high.96" depart="162.00" arrival="223.00">
        <route edges="start middle jam bottleneck end"/>
    </vehicle>

    <vehicle id="high.78" depart="96.00" arrival="225.00">
        <route edges="start middle jam bottleneck end"/>
    </vehicle>

    <vehicle id="high.98" depart="174.00" arrival="227.00">
        <route edges="start middle jam bottleneck end"/>
    </vehicle>

    <vehicle id="high.80" depart="107.00" arrival="229.00">
        <route edges="start middle jam bottleneck end"/>
    </vehicle>

    <vehicle id="high.99" depart="176.00" arrival="231.00">
        <route edges="start middle jam bottleneck end"/>
    </vehicle>

    <vehicle id="high.100" depart="178.00" arrival="232.00">
        <route edges="start middle jam bottleneck end"/>
    </vehicle>

    <vehicle id="high.85" depart="124.00" arrival="235.00">
        <route edges="start middle jam bottleneck end"/>
    </vehicle>

    <vehicle id="high.101" depart="180.00" arrival="236.00">
        <route edges="start middle jam bottleneck end"/>
    </vehicle>

    <vehicle id="high.87" depart="128.00" arrival="238.00">
        <route edges="start middle jam bottleneck end"/>
    </vehicle>

    <vehicle id="high.102" depart="182.00" arrival="240.00">
        <route edges="start middle jam bottleneck end"/>
    </vehicle>

    <vehicle id="high.89" depart="134.00" arrival="243.00">
        <route edges="start middle jam bottleneck end"/>
    </vehicle>

    <vehicle id="high.103" depart="184.00" arrival="244.00">
        <route edges="start middle jam bottleneck end"/>
    </vehicle>

    <vehicle id="high.92" depart="143.00" arrival="246.00">
        <route edges="start middle jam bottleneck end"/>
    </vehicle>

    <vehicle id="high.104" depart="186.00" arrival="247.00">
        <route edges="start middle jam bottleneck end"/>
    </vehicle>

    <vehicle id="high.94" depart="152.00" arrival="250.00">
        <route edges="start middle jam bottleneck end"/>
    </vehicle>

    <vehicle id="high.105" depart="187.00" arrival="253.00">
        <route edges="start middle jam bottleneck end"/>
    </vehicle>

    <vehicle id="high.97" depart="162.00" arrival="256.00">
        <route edges="start middle jam bottleneck end"/>
    </vehicle>

    <vehicle id="high.108" depart="189.00" arrival="258.00">
        <route edges="start middle jam bottleneck end"/>
    </vehicle>

    <vehicle id="high.106" depart="187.00" arrival="260.00">
        <route edges="start middle jam bottleneck end"/>
    </vehicle>

    <vehicle id="high.110" depart="191.00" arrival="261.00">
        <route edges="start middle jam bottleneck end"/>
    </vehicle>

    <vehicle id="high.117" depart="203.00" arrival="263.00">
        <route edges="start middle jam bottleneck end"/>
    </vehicle>

    <vehicle id="high.112" depart="195.00" arrival="265.00">
        <route edges="start middle jam bottleneck end"/>
    </vehicle>

    <vehicle id="high.115" depart="202.00" arrival="269.00">
        <route edges="start middle jam bottleneck end"/>
    </vehicle>

    <vehicle id="high.121" depart="207.00" arrival="270.00">
        <route edges="start middle jam bottleneck end"/>
    </vehicle>

    <vehicle id="high.107" depart="188.00" arrival="272.00">
        <route edges="start middle jam bottleneck end"/>
    </vehicle>

    <vehicle id="high.123" depart="210.00" arrival="273.00">
        <route edges="start middle jam bottleneck end"/>
    </vehicle>

    <vehicle id="high.119" depart="205.00" arrival="275.00">
        <route edges="start middle jam bottleneck end"/>
    </vehicle>

    <vehicle id="high.125" depart="212.00" arrival="277.00">
        <route edges="start middle jam bottleneck end"/>
    </vehicle>

    <vehicle id="high.109" depart="191.00" arrival="280.00">
        <route edges="start middle jam bottleneck end"/>
    </vehicle>

    <vehicle id="high.111" depart="195.00" arrival="281.00">
        <route edges="start middle jam bottleneck end"/>
    </vehicle>

    <vehicle id="high.127" depart="215.00" arrival="286.00">
        <route edges="start middle jam bottleneck end"/>
    </vehicle>

    <vehicle id="high.129" depart="219.00" arrival="287.00">
        <route edges="start middle jam bottleneck end"/>
    </vehicle>

    <vehicle id="high.113" depart="200.00" arrival="289.00">
        <route edges="start middle jam bottleneck end"/>
    </vehicle>

    <vehicle id="high.131" depart="223.00" arrival="291.00">
        <route edges="start middle jam bottleneck end"/>
    </vehicle>

    <vehicle id="high.133" depart="227.00" arrival="293.00">
        <route edges="start middle jam bottleneck end"/>
    </vehicle>

    <vehicle id="high.114" depart="202.00" arrival="295.00">
        <route edges="start middle jam bottleneck end"/>
    </vehicle>

    <vehicle id="high.134" depart="231.00" arrival="298.00">
        <route edges="start middle jam bottleneck end"/>
    </vehicle>

    <vehicle id="high.116" depart="203.00" arrival="300.00">
        <route edges="start middle jam bottleneck end"/>
    </vehicle>

    <vehicle id="high.136" depart="236.00" arrival="302.00">
        <route edges="start middle jam bottleneck end"/>
    </vehicle>

    <vehicle id="high.118" depart="205.00" arrival="305.00">
        <route edges="start middle jam bottleneck end"/>
    </vehicle>

    <vehicle id="high.138" depart="243.00" arrival="306.00">
        <route edges="start middle jam bottleneck end"/>
    </vehicle>

    <vehicle id="high.120" depart="207.00" arrival="309.00">
        <route edges="start middle jam bottleneck end"/>
    </vehicle>

    <vehicle id="high.139" depart="251.00" arrival="311.00">
        <route edges="start middle jam bottleneck end"/>
    </vehicle>

    <vehicle id="high.122" depart="209.00" arrival="313.00">
        <route edges="start middle jam bottleneck end"/>
    </vehicle>

    <vehicle id="high.140" depart="253.00" arrival="314.00">
        <route edges="start middle jam bottleneck end"/>
    </vehicle>

    <vehicle id="high.124" depart="211.00" arrival="316.00">
        <route edges="start middle jam bottleneck end"/>
    </vehicle>

    <vehicle id="high.141" depart="255.00" arrival="318.00">
        <route edges="start middle jam bottleneck end"/>
    </vehicle>

    <vehicle id="high.142" depart="257.00" arrival="319.00">
        <route edges="start middle jam bottleneck end"/>
    </vehicle>

    <vehicle id="high.126" depart="215.00" arrival="321.00">
        <route edges="start middle jam bottleneck end"/>
    </vehicle>

    <vehicle id="high.128" depart="218.00" arrival="322.00">
        <route edges="start middle jam bottleneck end"/>
    </vehicle>

    <vehicle id="high.143" depart="259.00" arrival="325.00">
        <route edges="start middle jam bottleneck end"/>
    </vehicle>

    <vehicle id="high.144" depart="260.00" arrival="327.00">
        <route edges="start middle jam bottleneck end"/>
    </vehicle>

    <vehicle id="high.145" depart="262.00" arrival="329.00">
        <route edges="start middle jam bottleneck end"/>
    </vehicle>

    <vehicle id="high.130" depart="222.00" arrival="332.00">
        <route edges="start middle jam bottleneck end"/>
    </vehicle>

    <vehicle id="high.146" depart="265.00" arrival="333.00">
        <route edges="start middle jam bottleneck end"/>
    </vehicle>

    <vehicle id="high.132" depart="226.00" arrival="336.00">
        <route edges="start middle jam bottleneck end"/>
    </vehicle>

    <vehicle id="high.148" depart="267.00" arrival="338.00">
        <route edges="start middle jam bottleneck end"/>
    </vehicle>

    <vehicle id="high.135" depart="231.00" arrival="340.00">
        <route edges="start middle jam bottleneck end"/>
    </vehicle>

    <vehicle id="high.149" depart="269.00" arrival="342.00">
        <route edges="start middle jam bottleneck end"/>
    </vehicle>

    <vehicle id="high.150" depart="271.00" arrival="344.00">
        <route edges="start middle jam bottleneck end"/>
    </vehicle>

    <vehicle id="high.137" depart="236.00" arrival="345.00">
        <route edges="start middle jam bottleneck end"/>
    </vehicle>

    <vehicle id="high.153" depart="275.00" arrival="347.00">
        <route edges="start middle jam bottleneck end"/>
    </vehicle>

    <vehicle id="high.147" depart="265.00" arrival="348.00">
        <route edges="start middle jam bottleneck end"/>
    </vehicle>

    <vehicle id="high.154" depart="278.00" arrival="352.00">
        <route edges="start middle jam bottleneck end"/>
    </vehicle>

    <vehicle id="high.152" depart="272.00" arrival="354.00">
        <route edges="start middle jam bottleneck end"/>
    </vehicle>

    <vehicle id="high.151" depart="271.00" arrival="355.00">
        <route edges="start middle jam bottleneck end"/>
    </vehicle>

    <vehicle id="high.156" depart="282.00" arrival="358.00">
        <route edges="start middle jam bottleneck end"/>
    </vehicle>

    <vehicle id="high.158" depart="287.00" arrival="359.00">
        <route edges="start middle jam bottleneck end"/>
    </vehicle>

    <vehicle id="high.155" depart="278.00" arrival="362.00">
        <route edges="start middle jam bottleneck end"/>
    </vehicle>

    <vehicle id="high.161" depart="296.00" arrival="363.00">
        <route edges="start middle jam bottleneck end"/>
    </vehicle>

    <vehicle id="high.157" depart="282.00" arrival="365.00">
        <route edges="start middle jam bottleneck end"/>
    </vehicle>

    <vehicle id="high.165" depart="299.00" arrival="367.00">
        <route edges="start middle jam bottleneck end"/>
    </vehicle>

    <vehicle id="high.163" depart="299.00" arrival="368.00">
        <route edges="start middle jam bottleneck end"/>
    </vehicle>

    <vehicle id="high.159" depart="293.00" arrival="371.00">
        <route edges="start middle jam bottleneck end"/>
    </vehicle>

    <vehicle id="high.167" depart="301.00" arrival="373.00">
        <route edges="start middle jam bottleneck end"/>
    </vehicle>

    <vehicle id="high.160" depart="296.00" arrival="376.00">
        <route edges="start middle jam bottleneck end"/>
    </vehicle>

    <vehicle id="high.169" depart="304.00" arrival="379.00">
        <route edges="start middle jam bottleneck end"/>
    </vehicle>

    <vehicle id="high.171" depart="306.00" arrival="380.00">
        <route edges="start middle jam bottleneck end"/>
    </vehicle>

    <vehicle id="high.172" depart="308.00" arrival="382.00">
        <route edges="start middle jam bottleneck end"/>
    </vehicle>

    <vehicle id="high.162" depart="298.00" arrival="385.00">
        <route edges="start middle jam bottleneck end"/>
    </vehicle>

    <vehicle id="high.164" depart="299.00" arrival="386.00">
        <route edges="start middle jam bottleneck end"/>
    </vehicle>

    <vehicle id="high.175" depart="311.00" arrival="389.00">
        <route edges="start middle jam bottleneck end"/>
    </vehicle>

    <vehicle id="high.166" depart="301.00" arrival="390.00">
        <route edges="start middle jam bottleneck end"/>
    </vehicle>

    <vehicle id="high.168" depart="304.00" arrival="392.00">
        <route edges="start middle jam bottleneck end"/>
    </vehicle>

    <vehicle id="high.177" depart="316.00" arrival="395.00">
        <route edges="start middle jam bottleneck end"/>
    </vehicle>

    <vehicle id="high.178" depart="320.00" arrival="397.00">
        <route edges="start middle jam bottleneck end"/>
    </vehicle>

    <vehicle id="high.170" depart="306.00" arrival="400.00">
        <route edges="start middle jam bottleneck end"/>
    </vehicle>

    <vehicle id="high.180" depart="324.00" arrival="402.00">
        <route edges="start middle jam bottleneck end"/>
    </vehicle>

    <vehicle id="high.181" depart="329.00" arrival="404.00">
        <route edges="start middle jam bottleneck end"/>
    </vehicle>

    <vehicle id="high.173" depart="308.00" arrival="405.00">
        <route edges="start middle jam bottleneck end"/>
    </vehicle>

    <vehicle id="high.174" depart="311.00" arrival="407.00">
        <route edges="start middle jam bottleneck end"/>
    </vehicle>

    <vehicle id="high.182" depart="333.00" arrival="410.00">
        <route edges="start middle jam bottleneck end"/>
    </vehicle>

    <vehicle id="high.176" depart="315.00" arrival="412.00">
        <route edges="start middle jam bottleneck end"/>
    </vehicle>

    <vehicle id="high.184" depart="337.00" arrival="415.00">
        <route edges="start middle jam bottleneck end"/>
    </vehicle>

    <vehicle id="high.186" depart="341.00" arrival="416.00">
        <route edges="start middle jam bottleneck end"/>
    </vehicle>

    <vehicle id="high.179" depart="323.00" arrival="420.00">
        <route edges="start middle jam bottleneck end"/>
    </vehicle>

    <vehicle id="high.187" depart="345.00" arrival="422.00">
        <route edges="start middle jam bottleneck end"/>
    </vehicle>

    <vehicle id="high.189" depart="348.00" arrival="424.00">
        <route edges="start middle jam bottleneck end"/>
    </vehicle>

    <vehicle id="high.183" depart="333.00" arrival="426.00">
        <route edges="start middle jam bottleneck end"/>
    </vehicle>

    <vehicle id="high.191" depart="352.00" arrival="428.00">
        <route edges="start middle jam bottleneck end"/>
    </vehicle>

    <vehicle id="high.196" depart="364.00" arrival="429.00">
        <route edges="start middle jam bottleneck end"/>
    </vehicle>

    <vehicle id="high.185" depart="337.00" arrival="431.00">
        <route edges="start middle jam bottleneck end"/>
    </vehicle>

    <vehicle id="high.194" depart="364.00" arrival="433.00">
        <route edges="start middle jam bottleneck end"/>
    </vehicle>

    <vehicle id="high.188" depart="345.00" arrival="435.00">
        <route edges="start middle jam bottleneck end"/>
    </vehicle>

    <vehicle id="high.198" depart="368.00" arrival="437.00">
        <route edges="start middle jam bottleneck end"/>
    </vehicle>

    <vehicle id="high.190" depart="348.00" arrival="439.00">
        <route edges="start middle jam bottleneck end"/>
    </vehicle>

    <vehicle id="high.201" depart="370.00" arrival="440.00">
        <route edges="start middle jam bottleneck end"/>
    </vehicle>

    <vehicle id="high.202" depart="372.00" arrival="442.00">
        <route edges="start middle jam bottleneck end"/>
    </vehicle>

    <vehicle id="high.192" depart="354.00" arrival="444.00">
        <route edges="start middle jam bottleneck end"/>
    </vehicle>

    <vehicle id="high.205" depart="374.00" arrival="446.00">
        <route edges="start middle jam bottleneck end"/>
    </vehicle>

    <vehicle id="high.193" depart="363.00" arrival="447.00">
        <route edges="start middle jam bottleneck end"/>
    </vehicle>

    <vehicle id="high.206" depart="378.00" arrival="450.00">
        <route edges="start middle jam bottleneck end"/>
    </vehicle>

    <vehicle id="high.208" depart="382.00" arrival="452.00">
        <route edges="start middle jam bottleneck end"/>
    </vehicle>

    <vehicle id="high.210" depart="385.00" arrival="455.00">
        <route edges="start middle jam bottleneck end"/>
    </vehicle>

    <vehicle id="high.195" depart="364.00" arrival="458.00">
        <route edges="start middle jam bottleneck end"/>
    </vehicle>

    <vehicle id="high.212" depart="390.00" arrival="460.00">
        <route edges="start middle jam bottleneck end"/>
    </vehicle>

    <vehicle id="high.213" depart="393.00" arrival="462.00">
        <route edges="start middle jam bottleneck end"/>
    </vehicle>

    <vehicle id="high.215" depart="397.00" arrival="465.00">
        <route edges="start middle jam bottleneck end"/>
    </vehicle>

    <vehicle id="high.197" depart="366.00" arrival="468.00">
        <route edges="start middle jam bottleneck end"/>
    </vehicle>

    <vehicle id="high.216" depart="403.00" arrival="469.00">
        <route edges="start middle jam bottleneck end"/>
    </vehicle>

    <vehicle id="high.217" depart="406.00" arrival="471.00">
        <route edges="start middle jam bottleneck end"/>
    </vehicle>

    <vehicle id="high.219" depart="409.00" arrival="473.00">
        <route edges="start middle jam bottleneck end"/>
    </vehicle>

    <vehicle id="high.199" depart="368.00" arrival="475.00">
        <route edges="start middle jam bottleneck end"/>
    </vehicle>

    <vehicle id="high.221" depart="411.00" arrival="476.00">
        <route edges="start middle jam bottleneck end"/>
    </vehicle>

    <vehicle id="high.223" depart="415.00" arrival="478.00">
        <route edges="start middle jam bottleneck end"/>
    </vehicle>

    <vehicle id="high.200" depart="370.00" arrival="479.00">
        <route edges="start middle jam bottleneck end"/>
    </vehicle>

    <vehicle id="high.225" depart="419.00" arrival="483.00">
        <route edges="start middle jam bottleneck end"/>
    </vehicle>

    <vehicle id="high.203" depart="372.00" arrival="484.00">
        <route edges="start middle jam bottleneck end"/>
    </vehicle>

    <vehicle id="high.227" depart="424.00" arrival="488.00">
        <route edges="start middle jam bottleneck end"/>
    </vehicle>

    <vehicle id="high.204" depart="374.00" arrival="491.00">
        <route edges="start middle jam bottleneck end"/>
    </vehicle>
