<?xml version="1.0"?>

<!-- generated on 03/25/10 08:20:19 by SUMO sumo Version dev-SVN-r8511
<configuration>

    <input>
        <net-file value="three_split.net.xml"/>
        <additional-files value="input_routes.rou.xml,input_additional.add.xml"/>
    </input>

    <output>
        <vehroute-output value="vehroutes.xml"/>
    </output>

    <time>
        <begin value="100"/>
    </time>

    <report>
        <no-duration-log value="true"/>
        <no-step-log value="true"/>
    </report>

    <mesoscopic>
        <mesosim value="true"/>
    </mesoscopic>

</configuration>
-->

<routes>
    <vehicle id="emitter_100.00_0" depart="100" arrival="225.00">
        <routeDistribution>
            <route replacedOnEdge="beg" replacedAtTime="100.00" probability="0" edges="beg middle end rend"/>
            <route edges="beg beg2left left left2end"/>
        </routeDistribution>
    </vehicle>

    <vehicle id="emitter_120.00_1" depart="120" arrival="245.00">
        <routeDistribution>
            <route replacedOnEdge="beg" replacedAtTime="120.00" probability="0" edges="beg middle end rend"/>
            <route edges="beg beg2left left left2end"/>
        </routeDistribution>
    </vehicle>

    <vehicle id="emitter_140.00_2" depart="140" arrival="266.00">
        <routeDistribution>
            <route replacedOnEdge="beg" replacedAtTime="140.00" probability="0" edges="beg middle end rend"/>
            <route edges="beg beg2right right right2end"/>
        </routeDistribution>
    </vehicle>

    <vehicle id="emitter_160.00_3" depart="160" arrival="286.00">
        <routeDistribution>
            <route replacedOnEdge="beg" replacedAtTime="160.00" probability="0" edges="beg middle end rend"/>
            <route edges="beg beg2right right right2end"/>
        </routeDistribution>
    </vehicle>

    <vehicle id="emitter_180.00_4" depart="180" arrival="306.00">
        <routeDistribution>
            <route replacedOnEdge="beg" replacedAtTime="180.00" probability="0" edges="beg middle end rend"/>
            <route edges="beg beg2right right right2end"/>
        </routeDistribution>
    </vehicle>

</routes>
