<?xml version="1.0" encoding="UTF-8"?>

<!-- generated on Fri Nov 10 09:30:40 2017 by SUMO Version v0_31_0-1056-gab55b65
<?xml version="1.0" encoding="UTF-8"?>

<configuration xmlns:xsi="http://www.w3.org/2001/XMLSchema-instance" xsi:noNamespaceSchemaLocation="http://sumo.dlr.de/xsd/sumoConfiguration.xsd">

    <input>
        <net-file value="net.net.xml"/>
        <route-files value="input_routes.rou.xml"/>
    </input>

    <output>
        <fcd-output value="fcd.xml"/>
    </output>

    <processing>
        <pedestrian.model value="nonInteracting"/>
        <pedestrian.striping.dawdling value="0"/>
    </processing>

    <report>
        <xml-validation value="never"/>
        <no-step-log value="true"/>
    </report>

</configuration>
-->

<fcd-export xmlns:xsi="http://www.w3.org/2001/XMLSchema-instance" xsi:noNamespaceSchemaLocation="http://sumo.dlr.de/xsd/fcd_file.xsd">
    <timestep time="0.00">
        <person id="p0" x="40.00" y="-1.65" angle="90.00" speed="1.39" pos="40.00" edge="beg" slope="0.00"/>
    </timestep>
    <timestep time="1.00">
        <person id="p0" x="41.22" y="-1.65" angle="90.00" speed="1.39" pos="41.22" edge="beg" slope="0.00"/>
    </timestep>
    <timestep time="2.00">
        <person id="p0" x="42.44" y="-1.65" angle="90.00" speed="1.39" pos="42.44" edge="beg" slope="0.00"/>
    </timestep>
    <timestep time="3.00">
        <person id="p0" x="43.66" y="-1.65" angle="90.00" speed="1.39" pos="43.66" edge="beg" slope="0.00"/>
    </timestep>
    <timestep time="4.00">
        <person id="p0" x="44.88" y="-1.65" angle="90.00" speed="1.39" pos="44.88" edge="beg" slope="0.00"/>
    </timestep>
    <timestep time="5.00">
        <person id="p0" x="46.10" y="-1.65" angle="90.00" speed="1.39" pos="46.10" edge="beg" slope="0.00"/>
    </timestep>
    <timestep time="6.00">
        <person id="p0" x="47.32" y="-1.65" angle="90.00" speed="1.39" pos="47.32" edge="beg" slope="0.00"/>
    </timestep>
    <timestep time="7.00">
        <person id="p0" x="48.54" y="-1.65" angle="90.00" speed="1.39" pos="48.54" edge="beg" slope="0.00"/>
    </timestep>
    <timestep time="8.00">
        <person id="p0" x="50.00" y="-4.65" angle="90.00" speed="1.39" pos="0.00" edge="end" slope="0.00"/>
    </timestep>
    <timestep time="9.00">
        <person id="p0" x="51.22" y="-4.65" angle="90.00" speed="1.39" pos="1.22" edge="end" slope="0.00"/>
    </timestep>
    <timestep time="10.00">
        <person id="p0" x="52.44" y="-4.65" angle="90.00" speed="1.39" pos="2.44" edge="end" slope="0.00"/>
    </timestep>
    <timestep time="11.00">
        <person id="p0" x="53.66" y="-4.65" angle="90.00" speed="1.39" pos="3.66" edge="end" slope="0.00"/>
    </timestep>
    <timestep time="12.00">
        <person id="p0" x="54.88" y="-4.65" angle="90.00" speed="1.39" pos="4.88" edge="end" slope="0.00"/>
    </timestep>
    <timestep time="13.00">
        <person id="p0" x="56.10" y="-4.65" angle="90.00" speed="1.39" pos="6.10" edge="end" slope="0.00"/>
    </timestep>
    <timestep time="14.00">
        <person id="p0" x="57.32" y="-4.65" angle="90.00" speed="1.39" pos="7.32" edge="end" slope="0.00"/>
    </timestep>
    <timestep time="15.00">
        <person id="p0" x="58.54" y="-4.65" angle="90.00" speed="1.39" pos="8.54" edge="end" slope="0.00"/>
    </timestep>
    <timestep time="16.00"/>
</fcd-export>
