<?xml version="1.0" encoding="UTF-8"?>

<!-- generated on Wed Mar 11 22:23:46 2020 by Eclipse SUMO Version v1_5_0+0662-a598ecae47
This data file and the accompanying materials
are made available under the terms of the Eclipse Public License v2.0
which accompanies this distribution, and is available at
http://www.eclipse.org/legal/epl-v20.html
SPDX-License-Identifier: EPL-2.0
<configuration xmlns:xsi="http://www.w3.org/2001/XMLSchema-instance" xsi:noNamespaceSchemaLocation="http://sumo.dlr.de/xsd/sumoConfiguration.xsd">

    <input>
        <net-file value="net2.net.xml"/>
        <route-files value="input_routes.rou.xml"/>
    </input>

    <output>
        <write-license value="true"/>
        <fcd-output value="fcd.xml"/>
        <tripinfo-output value="tripinfos.xml"/>
    </output>

    <processing>
        <default.speeddev value="0"/>
    </processing>

    <report>
        <xml-validation value="never"/>
        <no-step-log value="true"/>
    </report>

</configuration>
-->

<fcd-export xmlns:xsi="http://www.w3.org/2001/XMLSchema-instance" xsi:noNamespaceSchemaLocation="http://sumo.dlr.de/xsd/fcd_file.xsd">
    <timestep time="0.00"/>
    <timestep time="1.00"/>
    <timestep time="2.00">
        <vehicle id="oncoming1" x="48.40" y="60.00" angle="180.00" type="DEFAULT_VEHTYPE" speed="0.00" pos="40.00" lane="NC_0" slope="0.00"/>
        <vehicle id="oncoming2" x="48.40" y="80.00" angle="180.00" type="DEFAULT_VEHTYPE" speed="0.00" pos="20.00" lane="NC_0" slope="0.00"/>
        <vehicle id="oncoming3" x="48.40" y="100.00" angle="180.00" type="DEFAULT_VEHTYPE" speed="0.00" pos="0.00" lane="NC_0" slope="0.00"/>
        <vehicle id="stopped2" x="40.00" y="-1.60" angle="90.00" type="DEFAULT_VEHTYPE" speed="0.00" pos="40.00" lane="VODUGES_beg_0" slope="0.00"/>
    </timestep>
    <timestep time="3.00">
        <vehicle id="oncoming1" x="48.40" y="57.40" angle="180.00" type="DEFAULT_VEHTYPE" speed="2.60" pos="42.60" lane="NC_0" slope="0.00"/>
        <vehicle id="oncoming2" x="48.40" y="77.40" angle="180.00" type="DEFAULT_VEHTYPE" speed="2.60" pos="22.60" lane="NC_0" slope="0.00"/>
        <vehicle id="oncoming3" x="48.40" y="97.40" angle="180.00" type="DEFAULT_VEHTYPE" speed="2.60" pos="2.60" lane="NC_0" slope="0.00"/>
        <vehicle id="stopped2" x="42.60" y="-1.60" angle="90.00" type="DEFAULT_VEHTYPE" speed="2.60" pos="42.60" lane="VODUGES_beg_0" slope="0.00"/>
    </timestep>
    <timestep time="4.00">
        <vehicle id="oncoming1" x="48.40" y="52.20" angle="180.00" type="DEFAULT_VEHTYPE" speed="5.20" pos="47.80" lane="NC_0" slope="0.00"/>
        <vehicle id="oncoming2" x="48.40" y="72.20" angle="180.00" type="DEFAULT_VEHTYPE" speed="5.20" pos="27.80" lane="NC_0" slope="0.00"/>
        <vehicle id="oncoming3" x="48.40" y="92.20" angle="180.00" type="DEFAULT_VEHTYPE" speed="5.20" pos="7.80" lane="NC_0" slope="0.00"/>
        <vehicle id="overtaking" x="0.00" y="-1.60" angle="90.00" type="DEFAULT_VEHTYPE" speed="0.00" pos="0.00" lane="VODUGES_beg_0" slope="0.00"/>
        <vehicle id="stopped2" x="45.00" y="-1.60" angle="90.00" type="DEFAULT_VEHTYPE" speed="2.40" pos="45.00" lane="VODUGES_beg_0" slope="0.00"/>
    </timestep>
    <timestep time="5.00">
        <vehicle id="oncoming1" x="48.40" y="44.40" angle="180.00" type="DEFAULT_VEHTYPE" speed="7.80" pos="55.60" lane="NC_0" slope="0.00"/>
        <vehicle id="oncoming2" x="48.40" y="64.40" angle="180.00" type="DEFAULT_VEHTYPE" speed="7.80" pos="35.60" lane="NC_0" slope="0.00"/>
        <vehicle id="oncoming3" x="48.40" y="84.40" angle="180.00" type="DEFAULT_VEHTYPE" speed="7.80" pos="15.60" lane="NC_0" slope="0.00"/>
        <vehicle id="overtaking" x="2.60" y="1.60" angle="90.00" type="DEFAULT_VEHTYPE" speed="2.60" pos="42.70" lane="-VODUGES_beg_0" slope="0.00"/>
        <vehicle id="stopped2" x="45.00" y="-1.60" angle="90.00" type="DEFAULT_VEHTYPE" speed="0.00" pos="45.00" lane="VODUGES_beg_0" slope="0.00"/>
    </timestep>
    <timestep time="6.00">
        <vehicle id="oncoming1" x="48.40" y="34.00" angle="180.00" type="DEFAULT_VEHTYPE" speed="10.40" pos="66.00" lane="NC_0" slope="0.00"/>
        <vehicle id="oncoming2" x="48.40" y="54.63" angle="180.00" type="DEFAULT_VEHTYPE" speed="9.77" pos="45.37" lane="NC_0" slope="0.00"/>
        <vehicle id="oncoming3" x="48.40" y="74.63" angle="180.00" type="DEFAULT_VEHTYPE" speed="9.77" pos="25.37" lane="NC_0" slope="0.00"/>
        <vehicle id="overtaking" x="7.80" y="1.60" angle="90.00" type="DEFAULT_VEHTYPE" speed="5.20" pos="37.50" lane="-VODUGES_beg_0" slope="0.00"/>
        <vehicle id="stopped2" x="45.00" y="-1.60" angle="90.00" type="DEFAULT_VEHTYPE" speed="0.00" pos="45.00" lane="VODUGES_beg_0" slope="0.00"/>
    </timestep>
    <timestep time="7.00">
        <vehicle id="oncoming1" x="48.40" y="21.00" angle="180.00" type="DEFAULT_VEHTYPE" speed="13.00" pos="79.00" lane="NC_0" slope="0.00"/>
        <vehicle id="oncoming2" x="48.40" y="43.32" angle="180.00" type="DEFAULT_VEHTYPE" speed="11.31" pos="56.68" lane="NC_0" slope="0.00"/>
        <vehicle id="oncoming3" x="48.40" y="63.96" angle="180.00" type="DEFAULT_VEHTYPE" speed="10.68" pos="36.04" lane="NC_0" slope="0.00"/>
        <vehicle id="overtaking" x="15.60" y="1.60" angle="90.00" type="DEFAULT_VEHTYPE" speed="7.80" pos="29.70" lane="-VODUGES_beg_0" slope="0.00"/>
        <vehicle id="stopped2" x="45.00" y="-1.60" angle="90.00" type="DEFAULT_VEHTYPE" speed="0.00" pos="45.00" lane="VODUGES_beg_0" slope="0.00"/>
    </timestep>
    <timestep time="8.00">
        <vehicle id="oncoming1" x="48.40" y="11.10" angle="180.00" type="DEFAULT_VEHTYPE" speed="9.90" pos="88.90" lane="NC_0" slope="0.00"/>
        <vehicle id="oncoming2" x="48.40" y="29.74" angle="180.00" type="DEFAULT_VEHTYPE" speed="13.58" pos="70.26" lane="NC_0" slope="0.00"/>
        <vehicle id="oncoming3" x="48.40" y="52.04" angle="180.00" type="DEFAULT_VEHTYPE" speed="11.92" pos="47.96" lane="NC_0" slope="0.00"/>
        <vehicle id="overtaking" x="26.00" y="1.60" angle="90.00" type="DEFAULT_VEHTYPE" speed="10.40" pos="19.30" lane="-VODUGES_beg_0" slope="0.00"/>
        <vehicle id="stopped2" x="45.00" y="-1.60" angle="90.00" type="DEFAULT_VEHTYPE" speed="0.00" pos="45.00" lane="VODUGES_beg_0" slope="0.00"/>
    </timestep>
    <timestep time="9.00">
        <vehicle id="oncoming1" x="48.40" y="5.70" angle="180.00" type="DEFAULT_VEHTYPE" speed="5.40" pos="94.30" lane="NC_0" slope="0.00"/>
        <vehicle id="oncoming2" x="48.40" y="19.43" angle="180.00" type="DEFAULT_VEHTYPE" speed="10.31" pos="80.57" lane="NC_0" slope="0.00"/>
        <vehicle id="oncoming3" x="48.40" y="38.15" angle="180.00" type="DEFAULT_VEHTYPE" speed="13.88" pos="61.85" lane="NC_0" slope="0.00"/>
        <vehicle id="overtaking" x="39.00" y="1.60" angle="90.00" type="DEFAULT_VEHTYPE" speed="13.00" pos="6.30" lane="-VODUGES_beg_0" slope="0.00"/>
        <vehicle id="stopped2" x="45.00" y="-1.60" angle="90.00" type="DEFAULT_VEHTYPE" speed="0.00" pos="45.00" lane="VODUGES_beg_0" slope="0.00"/>
    </timestep>
    <timestep time="10.00">
        <vehicle id="oncoming1" x="48.40" y="4.80" angle="180.00" type="DEFAULT_VEHTYPE" speed="0.90" pos="95.20" lane="NC_0" slope="0.00"/>
        <vehicle id="oncoming2" x="48.40" y="13.62" angle="180.00" type="DEFAULT_VEHTYPE" speed="5.81" pos="86.38" lane="NC_0" slope="0.00"/>
        <vehicle id="oncoming3" x="48.40" y="27.54" angle="180.00" type="DEFAULT_VEHTYPE" speed="10.62" pos="72.46" lane="NC_0" slope="0.00"/>
        <vehicle id="overtaking" x="52.89" y="-1.60" angle="90.00" type="DEFAULT_VEHTYPE" speed="13.89" pos="7.59" lane=":C_4_0" slope="0.00"/>
        <vehicle id="stopped2" x="45.00" y="-1.60" angle="90.00" type="DEFAULT_VEHTYPE" speed="0.00" pos="45.00" lane="VODUGES_beg_0" slope="0.00"/>
    </timestep>
    <timestep time="11.00">
        <vehicle id="oncoming1" x="49.11" y="1.41" angle="171.79" type="DEFAULT_VEHTYPE" speed="3.50" pos="3.40" lane=":C_1_0" slope="0.00"/>
        <vehicle id="oncoming2" x="48.40" y="12.30" angle="180.00" type="DEFAULT_VEHTYPE" speed="1.31" pos="87.70" lane="NC_0" slope="0.00"/>
        <vehicle id="oncoming3" x="48.40" y="21.42" angle="180.00" type="DEFAULT_VEHTYPE" speed="6.12" pos="78.58" lane="NC_0" slope="0.00"/>
        <vehicle id="overtaking" x="66.78" y="-1.60" angle="90.00" type="DEFAULT_VEHTYPE" speed="13.89" pos="12.08" lane="VODUGES_end_0" slope="0.00"/>
        <vehicle id="stopped2" x="45.00" y="-1.60" angle="90.00" type="DEFAULT_VEHTYPE" speed="0.00" pos="45.00" lane="VODUGES_beg_0" slope="0.00"/>
    </timestep>
    <timestep time="12.00">
        <vehicle id="oncoming1" x="54.04" y="-1.51" angle="114.32" type="DEFAULT_VEHTYPE" speed="6.10" pos="9.50" lane=":C_1_0" slope="0.00"/>
        <vehicle id="oncoming2" x="48.40" y="8.80" angle="180.00" type="DEFAULT_VEHTYPE" speed="3.50" pos="91.20" lane="NC_0" slope="0.00"/>
        <vehicle id="oncoming3" x="48.40" y="19.80" angle="180.00" type="DEFAULT_VEHTYPE" speed="1.62" pos="80.20" lane="NC_0" slope="0.00"/>
        <vehicle id="overtaking" x="80.67" y="-1.60" angle="90.00" type="DEFAULT_VEHTYPE" speed="13.89" pos="25.97" lane="VODUGES_end_0" slope="0.00"/>
        <vehicle id="stopped2" x="45.00" y="-1.60" angle="90.00" type="DEFAULT_VEHTYPE" speed="0.00" pos="45.00" lane="VODUGES_beg_0" slope="0.00"/>
    </timestep>
    <timestep time="13.00">
        <vehicle id="oncoming1" x="62.74" y="-1.60" angle="90.00" type="DEFAULT_VEHTYPE" speed="8.70" pos="8.04" lane="VODUGES_end_0" slope="0.00"/>
        <vehicle id="oncoming2" x="48.68" y="2.72" angle="176.79" type="DEFAULT_VEHTYPE" speed="6.10" pos="2.00" lane=":C_1_0" slope="0.00"/>
        <vehicle id="oncoming3" x="48.40" y="16.30" angle="180.00" type="DEFAULT_VEHTYPE" speed="3.50" pos="83.70" lane="NC_0" slope="0.00"/>
        <vehicle id="overtaking" x="94.56" y="-1.60" angle="90.00" type="DEFAULT_VEHTYPE" speed="13.89" pos="39.86" lane="VODUGES_end_0" slope="0.00"/>
        <vehicle id="stopped2" x="45.00" y="-1.60" angle="90.00" type="DEFAULT_VEHTYPE" speed="0.00" pos="45.00" lane="VODUGES_beg_0" slope="0.00"/>
    </timestep>
    <timestep time="14.00">
        <vehicle id="oncoming1" x="74.04" y="-1.60" angle="90.00" type="DEFAULT_VEHTYPE" speed="11.30" pos="19.34" lane="VODUGES_end_0" slope="0.00"/>
        <vehicle id="oncoming2" x="55.24" y="-1.60" angle="104.81" type="DEFAULT_VEHTYPE" speed="8.70" pos="0.54" lane="VODUGES_end_0" slope="0.00"/>
        <vehicle id="oncoming3" x="48.40" y="10.20" angle="180.00" type="DEFAULT_VEHTYPE" speed="6.10" pos="89.80" lane="NC_0" slope="0.00"/>
        <vehicle id="overtaking" x="108.45" y="-1.60" angle="90.00" type="DEFAULT_VEHTYPE" speed="13.89" pos="53.75" lane="VODUGES_end_0" slope="0.00"/>
        <vehicle id="stopped2" x="45.00" y="-1.60" angle="90.00" type="DEFAULT_VEHTYPE" speed="0.00" pos="45.00" lane="VODUGES_beg_0" slope="0.00"/>
    </timestep>
    <timestep time="15.00">
        <vehicle id="oncoming1" x="87.93" y="-1.60" angle="90.00" type="DEFAULT_VEHTYPE" speed="13.89" pos="33.23" lane="VODUGES_end_0" slope="0.00"/>
        <vehicle id="oncoming2" x="66.54" y="-1.60" angle="90.00" type="DEFAULT_VEHTYPE" speed="11.30" pos="11.84" lane="VODUGES_end_0" slope="0.00"/>
        <vehicle id="oncoming3" x="48.40" y="5.25" angle="180.00" type="DEFAULT_VEHTYPE" speed="4.95" pos="94.75" lane="NC_0" slope="0.00"/>
        <vehicle id="overtaking" x="122.34" y="-1.60" angle="90.00" type="DEFAULT_VEHTYPE" speed="13.89" pos="67.64" lane="VODUGES_end_0" slope="0.00"/>
        <vehicle id="stopped2" x="45.00" y="-1.60" angle="90.00" type="DEFAULT_VEHTYPE" speed="0.00" pos="45.00" lane="VODUGES_beg_0" slope="0.00"/>
    </timestep>
    <timestep time="16.00">
        <vehicle id="oncoming1" x="101.82" y="-1.60" angle="90.00" type="DEFAULT_VEHTYPE" speed="13.89" pos="47.12" lane="VODUGES_end_0" slope="0.00"/>
        <vehicle id="oncoming2" x="80.43" y="-1.60" angle="90.00" type="DEFAULT_VEHTYPE" speed="13.89" pos="25.73" lane="VODUGES_end_0" slope="0.00"/>
        <vehicle id="oncoming3" x="51.62" y="-1.02" angle="141.82" type="DEFAULT_VEHTYPE" speed="7.55" pos="7.00" lane=":C_1_0" slope="0.00"/>
        <vehicle id="overtaking" x="136.23" y="-1.60" angle="90.00" type="DEFAULT_VEHTYPE" speed="13.89" pos="81.53" lane="VODUGES_end_0" slope="0.00"/>
        <vehicle id="stopped2" x="45.00" y="-1.60" angle="90.00" type="DEFAULT_VEHTYPE" speed="0.00" pos="45.00" lane="VODUGES_beg_0" slope="0.00"/>
    </timestep>
    <timestep time="17.00">
        <vehicle id="oncoming1" x="115.71" y="-1.60" angle="90.00" type="DEFAULT_VEHTYPE" speed="13.89" pos="61.01" lane="VODUGES_end_0" slope="0.00"/>
        <vehicle id="oncoming2" x="94.32" y="-1.60" angle="90.00" type="DEFAULT_VEHTYPE" speed="13.89" pos="39.62" lane="VODUGES_end_0" slope="0.00"/>
        <vehicle id="oncoming3" x="61.69" y="-1.60" angle="90.00" type="DEFAULT_VEHTYPE" speed="10.15" pos="6.99" lane="VODUGES_end_0" slope="0.00"/>
        <vehicle id="overtaking" x="150.12" y="-1.60" angle="90.00" type="DEFAULT_VEHTYPE" speed="13.89" pos="95.42" lane="VODUGES_end_0" slope="0.00"/>
        <vehicle id="stopped2" x="45.00" y="-1.60" angle="90.00" type="DEFAULT_VEHTYPE" speed="0.00" pos="45.00" lane="VODUGES_beg_0" slope="0.00"/>
    </timestep>
    <timestep time="18.00">
        <vehicle id="oncoming1" x="129.60" y="-1.60" angle="90.00" type="DEFAULT_VEHTYPE" speed="13.89" pos="74.90" lane="VODUGES_end_0" slope="0.00"/>
        <vehicle id="oncoming2" x="108.21" y="-1.60" angle="90.00" type="DEFAULT_VEHTYPE" speed="13.89" pos="53.51" lane="VODUGES_end_0" slope="0.00"/>
        <vehicle id="oncoming3" x="74.44" y="-1.60" angle="90.00" type="DEFAULT_VEHTYPE" speed="12.75" pos="19.74" lane="VODUGES_end_0" slope="0.00"/>
        <vehicle id="overtaking" x="164.01" y="-1.60" angle="90.00" type="DEFAULT_VEHTYPE" speed="13.89" pos="109.31" lane="VODUGES_end_0" slope="0.00"/>
        <vehicle id="stopped2" x="45.00" y="-1.60" angle="90.00" type="DEFAULT_VEHTYPE" speed="0.00" pos="45.00" lane="VODUGES_beg_0" slope="0.00"/>
    </timestep>
    <timestep time="19.00">
        <vehicle id="oncoming1" x="143.49" y="-1.60" angle="90.00" type="DEFAULT_VEHTYPE" speed="13.89" pos="88.79" lane="VODUGES_end_0" slope="0.00"/>
        <vehicle id="oncoming2" x="122.10" y="-1.60" angle="90.00" type="DEFAULT_VEHTYPE" speed="13.89" pos="67.40" lane="VODUGES_end_0" slope="0.00"/>
        <vehicle id="oncoming3" x="88.33" y="-1.60" angle="90.00" type="DEFAULT_VEHTYPE" speed="13.89" pos="33.63" lane="VODUGES_end_0" slope="0.00"/>
        <vehicle id="overtaking" x="177.90" y="-1.60" angle="90.00" type="DEFAULT_VEHTYPE" speed="13.89" pos="123.20" lane="VODUGES_end_0" slope="0.00"/>
        <vehicle id="stopped2" x="45.00" y="-1.60" angle="90.00" type="DEFAULT_VEHTYPE" speed="0.00" pos="45.00" lane="VODUGES_beg_0" slope="0.00"/>
    </timestep>
    <timestep time="20.00">
        <vehicle id="oncoming1" x="157.38" y="-1.60" angle="90.00" type="DEFAULT_VEHTYPE" speed="13.89" pos="102.68" lane="VODUGES_end_0" slope="0.00"/>
        <vehicle id="oncoming2" x="135.99" y="-1.60" angle="90.00" type="DEFAULT_VEHTYPE" speed="13.89" pos="81.29" lane="VODUGES_end_0" slope="0.00"/>
        <vehicle id="oncoming3" x="102.22" y="-1.60" angle="90.00" type="DEFAULT_VEHTYPE" speed="13.89" pos="47.52" lane="VODUGES_end_0" slope="0.00"/>
        <vehicle id="overtaking" x="191.79" y="-1.60" angle="90.00" type="DEFAULT_VEHTYPE" speed="13.89" pos="137.09" lane="VODUGES_end_0" slope="0.00"/>
        <vehicle id="stopped2" x="45.00" y="-1.60" angle="90.00" type="DEFAULT_VEHTYPE" speed="0.00" pos="45.00" lane="VODUGES_beg_0" slope="0.00"/>
    </timestep>
    <timestep time="21.00">
        <vehicle id="oncoming1" x="171.27" y="-1.60" angle="90.00" type="DEFAULT_VEHTYPE" speed="13.89" pos="116.57" lane="VODUGES_end_0" slope="0.00"/>
        <vehicle id="oncoming2" x="149.88" y="-1.60" angle="90.00" type="DEFAULT_VEHTYPE" speed="13.89" pos="95.18" lane="VODUGES_end_0" slope="0.00"/>
        <vehicle id="oncoming3" x="116.11" y="-1.60" angle="90.00" type="DEFAULT_VEHTYPE" speed="13.89" pos="61.41" lane="VODUGES_end_0" slope="0.00"/>
        <vehicle id="stopped2" x="45.00" y="-1.60" angle="90.00" type="DEFAULT_VEHTYPE" speed="0.00" pos="45.00" lane="VODUGES_beg_0" slope="0.00"/>
    </timestep>
    <timestep time="22.00">
        <vehicle id="oncoming1" x="185.16" y="-1.60" angle="90.00" type="DEFAULT_VEHTYPE" speed="13.89" pos="130.46" lane="VODUGES_end_0" slope="0.00"/>
        <vehicle id="oncoming2" x="163.77" y="-1.60" angle="90.00" type="DEFAULT_VEHTYPE" speed="13.89" pos="109.07" lane="VODUGES_end_0" slope="0.00"/>
        <vehicle id="oncoming3" x="130.00" y="-1.60" angle="90.00" type="DEFAULT_VEHTYPE" speed="13.89" pos="75.30" lane="VODUGES_end_0" slope="0.00"/>
        <vehicle id="stopped2" x="45.00" y="-1.60" angle="90.00" type="DEFAULT_VEHTYPE" speed="0.00" pos="45.00" lane="VODUGES_beg_0" slope="0.00"/>
    </timestep>
    <timestep time="23.00">
        <vehicle id="oncoming2" x="177.66" y="-1.60" angle="90.00" type="DEFAULT_VEHTYPE" speed="13.89" pos="122.96" lane="VODUGES_end_0" slope="0.00"/>
        <vehicle id="oncoming3" x="143.89" y="-1.60" angle="90.00" type="DEFAULT_VEHTYPE" speed="13.89" pos="89.19" lane="VODUGES_end_0" slope="0.00"/>
        <vehicle id="stopped2" x="45.00" y="-1.60" angle="90.00" type="DEFAULT_VEHTYPE" speed="0.00" pos="45.00" lane="VODUGES_beg_0" slope="0.00"/>
    </timestep>
    <timestep time="24.00">
        <vehicle id="oncoming2" x="191.55" y="-1.60" angle="90.00" type="DEFAULT_VEHTYPE" speed="13.89" pos="136.85" lane="VODUGES_end_0" slope="0.00"/>
        <vehicle id="oncoming3" x="157.78" y="-1.60" angle="90.00" type="DEFAULT_VEHTYPE" speed="13.89" pos="103.08" lane="VODUGES_end_0" slope="0.00"/>
        <vehicle id="stopped2" x="45.00" y="-1.60" angle="90.00" type="DEFAULT_VEHTYPE" speed="0.00" pos="45.00" lane="VODUGES_beg_0" slope="0.00"/>
    </timestep>
    <timestep time="25.00">
        <vehicle id="oncoming3" x="171.67" y="-1.60" angle="90.00" type="DEFAULT_VEHTYPE" speed="13.89" pos="116.97" lane="VODUGES_end_0" slope="0.00"/>
        <vehicle id="stopped2" x="45.00" y="-1.60" angle="90.00" type="DEFAULT_VEHTYPE" speed="0.00" pos="45.00" lane="VODUGES_beg_0" slope="0.00"/>
    </timestep>
    <timestep time="26.00">
        <vehicle id="oncoming3" x="185.56" y="-1.60" angle="90.00" type="DEFAULT_VEHTYPE" speed="13.89" pos="130.86" lane="VODUGES_end_0" slope="0.00"/>
        <vehicle id="stopped2" x="45.00" y="-1.60" angle="90.00" type="DEFAULT_VEHTYPE" speed="0.00" pos="45.00" lane="VODUGES_beg_0" slope="0.00"/>
    </timestep>
    <timestep time="27.00">
        <vehicle id="stopped2" x="45.00" y="-1.60" angle="90.00" type="DEFAULT_VEHTYPE" speed="0.00" pos="45.00" lane="VODUGES_beg_0" slope="0.00"/>
    </timestep>
    <timestep time="28.00">
        <vehicle id="stopped2" x="45.00" y="-1.60" angle="90.00" type="DEFAULT_VEHTYPE" speed="0.00" pos="45.00" lane="VODUGES_beg_0" slope="0.00"/>
    </timestep>
    <timestep time="29.00">
        <vehicle id="stopped2" x="45.00" y="-1.60" angle="90.00" type="DEFAULT_VEHTYPE" speed="0.00" pos="45.00" lane="VODUGES_beg_0" slope="0.00"/>
    </timestep>
    <timestep time="30.00">
        <vehicle id="stopped2" x="45.00" y="-1.60" angle="90.00" type="DEFAULT_VEHTYPE" speed="0.00" pos="45.00" lane="VODUGES_beg_0" slope="0.00"/>
    </timestep>
    <timestep time="31.00">
        <vehicle id="stopped2" x="45.00" y="-1.60" angle="90.00" type="DEFAULT_VEHTYPE" speed="0.00" pos="45.00" lane="VODUGES_beg_0" slope="0.00"/>
    </timestep>
    <timestep time="32.00">
        <vehicle id="stopped2" x="45.00" y="-1.60" angle="90.00" type="DEFAULT_VEHTYPE" speed="0.00" pos="45.00" lane="VODUGES_beg_0" slope="0.00"/>
    </timestep>
    <timestep time="33.00">
        <vehicle id="stopped2" x="45.00" y="-1.60" angle="90.00" type="DEFAULT_VEHTYPE" speed="0.00" pos="45.00" lane="VODUGES_beg_0" slope="0.00"/>
    </timestep>
    <timestep time="34.00">
        <vehicle id="stopped2" x="45.00" y="-1.60" angle="90.00" type="DEFAULT_VEHTYPE" speed="0.00" pos="45.00" lane="VODUGES_beg_0" slope="0.00"/>
    </timestep>
    <timestep time="35.00">
        <vehicle id="stopped2" x="45.00" y="-1.60" angle="90.00" type="DEFAULT_VEHTYPE" speed="0.00" pos="45.00" lane="VODUGES_beg_0" slope="0.00"/>
    </timestep>
    <timestep time="36.00">
        <vehicle id="stopped2" x="45.00" y="-1.60" angle="90.00" type="DEFAULT_VEHTYPE" speed="0.00" pos="45.00" lane="VODUGES_beg_0" slope="0.00"/>
    </timestep>
    <timestep time="37.00">
        <vehicle id="stopped2" x="45.00" y="-1.60" angle="90.00" type="DEFAULT_VEHTYPE" speed="0.00" pos="45.00" lane="VODUGES_beg_0" slope="0.00"/>
    </timestep>
    <timestep time="38.00">
        <vehicle id="stopped2" x="45.00" y="-1.60" angle="90.00" type="DEFAULT_VEHTYPE" speed="0.00" pos="45.00" lane="VODUGES_beg_0" slope="0.00"/>
    </timestep>
    <timestep time="39.00">
        <vehicle id="stopped2" x="45.00" y="-1.60" angle="90.00" type="DEFAULT_VEHTYPE" speed="0.00" pos="45.00" lane="VODUGES_beg_0" slope="0.00"/>
    </timestep>
    <timestep time="40.00">
        <vehicle id="stopped2" x="45.00" y="-1.60" angle="90.00" type="DEFAULT_VEHTYPE" speed="0.00" pos="45.00" lane="VODUGES_beg_0" slope="0.00"/>
    </timestep>
    <timestep time="41.00">
        <vehicle id="stopped2" x="45.00" y="-1.60" angle="90.00" type="DEFAULT_VEHTYPE" speed="0.00" pos="45.00" lane="VODUGES_beg_0" slope="0.00"/>
    </timestep>
    <timestep time="42.00">
        <vehicle id="stopped2" x="45.00" y="-1.60" angle="90.00" type="DEFAULT_VEHTYPE" speed="0.00" pos="45.00" lane="VODUGES_beg_0" slope="0.00"/>
    </timestep>
    <timestep time="43.00">
        <vehicle id="stopped2" x="45.00" y="-1.60" angle="90.00" type="DEFAULT_VEHTYPE" speed="0.00" pos="45.00" lane="VODUGES_beg_0" slope="0.00"/>
    </timestep>
    <timestep time="44.00">
        <vehicle id="stopped2" x="45.00" y="-1.60" angle="90.00" type="DEFAULT_VEHTYPE" speed="0.00" pos="45.00" lane="VODUGES_beg_0" slope="0.00"/>
    </timestep>
    <timestep time="45.00">
        <vehicle id="stopped2" x="45.00" y="-1.60" angle="90.00" type="DEFAULT_VEHTYPE" speed="0.00" pos="45.00" lane="VODUGES_beg_0" slope="0.00"/>
    </timestep>
    <timestep time="46.00">
        <vehicle id="stopped2" x="45.00" y="-1.60" angle="90.00" type="DEFAULT_VEHTYPE" speed="0.00" pos="45.00" lane="VODUGES_beg_0" slope="0.00"/>
    </timestep>
    <timestep time="47.00">
        <vehicle id="stopped2" x="45.00" y="-1.60" angle="90.00" type="DEFAULT_VEHTYPE" speed="0.00" pos="45.00" lane="VODUGES_beg_0" slope="0.00"/>
    </timestep>
    <timestep time="48.00">
        <vehicle id="stopped2" x="45.00" y="-1.60" angle="90.00" type="DEFAULT_VEHTYPE" speed="0.00" pos="45.00" lane="VODUGES_beg_0" slope="0.00"/>
    </timestep>
    <timestep time="49.00">
        <vehicle id="stopped2" x="45.00" y="-1.60" angle="90.00" type="DEFAULT_VEHTYPE" speed="0.00" pos="45.00" lane="VODUGES_beg_0" slope="0.00"/>
    </timestep>
    <timestep time="50.00">
        <vehicle id="stopped2" x="45.00" y="-1.60" angle="90.00" type="DEFAULT_VEHTYPE" speed="0.00" pos="45.00" lane="VODUGES_beg_0" slope="0.00"/>
    </timestep>
    <timestep time="51.00">
        <vehicle id="stopped2" x="45.00" y="-1.60" angle="90.00" type="DEFAULT_VEHTYPE" speed="0.00" pos="45.00" lane="VODUGES_beg_0" slope="0.00"/>
    </timestep>
    <timestep time="52.00">
        <vehicle id="stopped2" x="45.00" y="-1.60" angle="90.00" type="DEFAULT_VEHTYPE" speed="0.00" pos="45.00" lane="VODUGES_beg_0" slope="0.00"/>
    </timestep>
    <timestep time="53.00">
        <vehicle id="stopped2" x="45.00" y="-1.60" angle="90.00" type="DEFAULT_VEHTYPE" speed="0.00" pos="45.00" lane="VODUGES_beg_0" slope="0.00"/>
    </timestep>
    <timestep time="54.00">
        <vehicle id="stopped2" x="45.00" y="-1.60" angle="90.00" type="DEFAULT_VEHTYPE" speed="0.00" pos="45.00" lane="VODUGES_beg_0" slope="0.00"/>
    </timestep>
    <timestep time="55.00">
        <vehicle id="stopped2" x="45.00" y="-1.60" angle="90.00" type="DEFAULT_VEHTYPE" speed="0.00" pos="45.00" lane="VODUGES_beg_0" slope="0.00"/>
    </timestep>
    <timestep time="56.00">
        <vehicle id="stopped2" x="45.00" y="-1.60" angle="90.00" type="DEFAULT_VEHTYPE" speed="0.00" pos="45.00" lane="VODUGES_beg_0" slope="0.00"/>
    </timestep>
    <timestep time="57.00">
        <vehicle id="stopped2" x="45.00" y="-1.60" angle="90.00" type="DEFAULT_VEHTYPE" speed="0.00" pos="45.00" lane="VODUGES_beg_0" slope="0.00"/>
    </timestep>
    <timestep time="58.00">
        <vehicle id="stopped2" x="45.00" y="-1.60" angle="90.00" type="DEFAULT_VEHTYPE" speed="0.00" pos="45.00" lane="VODUGES_beg_0" slope="0.00"/>
    </timestep>
    <timestep time="59.00">
        <vehicle id="stopped2" x="45.00" y="-1.60" angle="90.00" type="DEFAULT_VEHTYPE" speed="0.00" pos="45.00" lane="VODUGES_beg_0" slope="0.00"/>
    </timestep>
    <timestep time="60.00">
        <vehicle id="stopped2" x="45.00" y="-1.60" angle="90.00" type="DEFAULT_VEHTYPE" speed="0.00" pos="45.00" lane="VODUGES_beg_0" slope="0.00"/>
    </timestep>
    <timestep time="61.00">
        <vehicle id="stopped2" x="45.00" y="-1.60" angle="90.00" type="DEFAULT_VEHTYPE" speed="0.00" pos="45.00" lane="VODUGES_beg_0" slope="0.00"/>
    </timestep>
    <timestep time="62.00">
        <vehicle id="stopped2" x="45.00" y="-1.60" angle="90.00" type="DEFAULT_VEHTYPE" speed="0.00" pos="45.00" lane="VODUGES_beg_0" slope="0.00"/>
    </timestep>
    <timestep time="63.00">
        <vehicle id="stopped2" x="45.00" y="-1.60" angle="90.00" type="DEFAULT_VEHTYPE" speed="0.00" pos="45.00" lane="VODUGES_beg_0" slope="0.00"/>
    </timestep>
    <timestep time="64.00">
        <vehicle id="stopped2" x="45.00" y="-1.60" angle="90.00" type="DEFAULT_VEHTYPE" speed="0.00" pos="45.00" lane="VODUGES_beg_0" slope="0.00"/>
    </timestep>
    <timestep time="65.00">
        <vehicle id="stopped2" x="45.00" y="-1.60" angle="90.00" type="DEFAULT_VEHTYPE" speed="0.00" pos="45.00" lane="VODUGES_beg_0" slope="0.00"/>
    </timestep>
    <timestep time="66.00">
        <vehicle id="stopped2" x="45.00" y="-1.60" angle="90.00" type="DEFAULT_VEHTYPE" speed="0.00" pos="45.00" lane="VODUGES_beg_0" slope="0.00"/>
    </timestep>
    <timestep time="67.00">
        <vehicle id="stopped2" x="45.00" y="-1.60" angle="90.00" type="DEFAULT_VEHTYPE" speed="0.00" pos="45.00" lane="VODUGES_beg_0" slope="0.00"/>
    </timestep>
    <timestep time="68.00">
        <vehicle id="stopped2" x="45.00" y="-1.60" angle="90.00" type="DEFAULT_VEHTYPE" speed="0.00" pos="45.00" lane="VODUGES_beg_0" slope="0.00"/>
    </timestep>
    <timestep time="69.00">
        <vehicle id="stopped2" x="45.00" y="-1.60" angle="90.00" type="DEFAULT_VEHTYPE" speed="0.00" pos="45.00" lane="VODUGES_beg_0" slope="0.00"/>
    </timestep>
    <timestep time="70.00">
        <vehicle id="stopped2" x="45.00" y="-1.60" angle="90.00" type="DEFAULT_VEHTYPE" speed="0.00" pos="45.00" lane="VODUGES_beg_0" slope="0.00"/>
    </timestep>
    <timestep time="71.00">
        <vehicle id="stopped2" x="45.00" y="-1.60" angle="90.00" type="DEFAULT_VEHTYPE" speed="0.00" pos="45.00" lane="VODUGES_beg_0" slope="0.00"/>
    </timestep>
    <timestep time="72.00">
        <vehicle id="stopped2" x="45.00" y="-1.60" angle="90.00" type="DEFAULT_VEHTYPE" speed="0.00" pos="45.00" lane="VODUGES_beg_0" slope="0.00"/>
    </timestep>
    <timestep time="73.00">
        <vehicle id="stopped2" x="45.00" y="-1.60" angle="90.00" type="DEFAULT_VEHTYPE" speed="0.00" pos="45.00" lane="VODUGES_beg_0" slope="0.00"/>
    </timestep>
    <timestep time="74.00">
        <vehicle id="stopped2" x="45.00" y="-1.60" angle="90.00" type="DEFAULT_VEHTYPE" speed="0.00" pos="45.00" lane="VODUGES_beg_0" slope="0.00"/>
    </timestep>
    <timestep time="75.00">
        <vehicle id="stopped2" x="45.00" y="-1.60" angle="90.00" type="DEFAULT_VEHTYPE" speed="0.00" pos="45.00" lane="VODUGES_beg_0" slope="0.00"/>
    </timestep>
    <timestep time="76.00">
        <vehicle id="stopped2" x="45.00" y="-1.60" angle="90.00" type="DEFAULT_VEHTYPE" speed="0.00" pos="45.00" lane="VODUGES_beg_0" slope="0.00"/>
    </timestep>
    <timestep time="77.00">
        <vehicle id="stopped2" x="45.00" y="-1.60" angle="90.00" type="DEFAULT_VEHTYPE" speed="0.00" pos="45.00" lane="VODUGES_beg_0" slope="0.00"/>
    </timestep>
    <timestep time="78.00">
        <vehicle id="stopped2" x="45.00" y="-1.60" angle="90.00" type="DEFAULT_VEHTYPE" speed="0.00" pos="45.00" lane="VODUGES_beg_0" slope="0.00"/>
    </timestep>
    <timestep time="79.00">
        <vehicle id="stopped2" x="45.00" y="-1.60" angle="90.00" type="DEFAULT_VEHTYPE" speed="0.00" pos="45.00" lane="VODUGES_beg_0" slope="0.00"/>
    </timestep>
    <timestep time="80.00">
        <vehicle id="stopped2" x="45.00" y="-1.60" angle="90.00" type="DEFAULT_VEHTYPE" speed="0.00" pos="45.00" lane="VODUGES_beg_0" slope="0.00"/>
    </timestep>
    <timestep time="81.00">
        <vehicle id="stopped2" x="45.00" y="-1.60" angle="90.00" type="DEFAULT_VEHTYPE" speed="0.00" pos="45.00" lane="VODUGES_beg_0" slope="0.00"/>
    </timestep>
    <timestep time="82.00">
        <vehicle id="stopped2" x="45.00" y="-1.60" angle="90.00" type="DEFAULT_VEHTYPE" speed="0.00" pos="45.00" lane="VODUGES_beg_0" slope="0.00"/>
    </timestep>
    <timestep time="83.00">
        <vehicle id="stopped2" x="45.00" y="-1.60" angle="90.00" type="DEFAULT_VEHTYPE" speed="0.00" pos="45.00" lane="VODUGES_beg_0" slope="0.00"/>
    </timestep>
    <timestep time="84.00">
        <vehicle id="stopped2" x="45.00" y="-1.60" angle="90.00" type="DEFAULT_VEHTYPE" speed="0.00" pos="45.00" lane="VODUGES_beg_0" slope="0.00"/>
    </timestep>
    <timestep time="85.00">