<?xml version="1.0" encoding="UTF-8"?>

<!-- generated on Wed Mar 11 22:23:46 2020 by Eclipse SUMO Version v1_5_0+0662-a598ecae47
This data file and the accompanying materials
are made available under the terms of the Eclipse Public License v2.0
which accompanies this distribution, and is available at
http://www.eclipse.org/legal/epl-v20.html
SPDX-License-Identifier: EPL-2.0
<configuration xmlns:xsi="http://www.w3.org/2001/XMLSchema-instance" xsi:noNamespaceSchemaLocation="http://sumo.dlr.de/xsd/sumoConfiguration.xsd">

    <input>
        <net-file value="net2.net.xml"/>
        <route-files value="input_routes.rou.xml"/>
    </input>

    <output>
        <write-license value="true"/>
        <fcd-output value="fcd.xml"/>
        <tripinfo-output value="tripinfos.xml"/>
    </output>

    <processing>
        <default.speeddev value="0"/>
    </processing>

    <report>
        <xml-validation value="never"/>
        <no-step-log value="true"/>
    </report>

</configuration>
-->

<tripinfos xmlns:xsi="http://www.w3.org/2001/XMLSchema-instance" xsi:noNamespaceSchemaLocation="http://sumo.dlr.de/xsd/tripinfo_file.xsd">
    <tripinfo id="overtaking" depart="4.00" departLane="VODUGES_beg_0" departPos="0.00" departSpeed="0.00" departDelay="0.00" arrival="21.00" arrivalLane="VODUGES_end_0" arrivalPos="140.60" arrivalSpeed="13.89" duration="17.00" routeLength="195.30" waitingTime="0.00" waitingCount="0" stopTime="0.00" timeLoss="2.19" rerouteNo="0" devices="tripinfo_overtaking fcd_overtaking" vType="DEFAULT_VEHTYPE" speedFactor="1.00" vaporized=""/>
    <tripinfo id="oncoming1" depart="2.00" departLane="NC_0" departPos="40.00" departSpeed="0.00" departDelay="0.00" arrival="23.00" arrivalLane="VODUGES_end_0" arrivalPos="140.60" arrivalSpeed="13.89" duration="21.00" routeLength="206.06" waitingTime="0.00" waitingCount="0" stopTime="0.00" timeLoss="5.90" rerouteNo="0" devices="tripinfo_oncoming1 fcd_oncoming1" vType="DEFAULT_VEHTYPE" speedFactor="1.00" vaporized=""/>
    <tripinfo id="oncoming2" depart="2.00" departLane="NC_0" departPos="20.00" departSpeed="0.00" departDelay="0.00" arrival="25.00" arrivalLane="VODUGES_end_0" arrivalPos="140.60" arrivalSpeed="13.89" duration="23.00" routeLength="226.06" waitingTime="0.00" waitingCount="0" stopTime="0.00" timeLoss="6.00" rerouteNo="0" devices="tripinfo_oncoming2 fcd_oncoming2" vType="DEFAULT_VEHTYPE" speedFactor="1.00" vaporized=""/>
    <tripinfo id="oncoming3" depart="2.00" departLane="NC_0" departPos="0.00" departSpeed="0.00" departDelay="0.00" arrival="27.00" arrivalLane="VODUGES_end_0" arrivalPos="140.60" arrivalSpeed="13.89" duration="25.00" routeLength="246.06" waitingTime="0.00" waitingCount="0" stopTime="0.00" timeLoss="6.99" rerouteNo="0" devices="tripinfo_oncoming3 fcd_oncoming3" vType="DEFAULT_VEHTYPE" speedFactor="1.00" vaporized=""/>
    <tripinfo id="stopped2" depart="2.00" departLane="VODUGES_beg_0" departPos="40.00" departSpeed="0.00" departDelay="0.00" arrival="118.00" arrivalLane="VODUGES_end_0" arrivalPos="140.60" arrivalSpeed="13.89" duration="116.00" routeLength="155.30" waitingTime="0.00" waitingCount="0" stopTime="100.00" timeLoss="4.70" rerouteNo="0" devices="tripinfo_stopped2 fcd_stopped2" vType="DEFAULT_VEHTYPE" speedFactor="1.00" vaporized=""/>
</tripinfos>
