<?xml version="1.0" encoding="UTF-8"?>

<!-- generated on Mon Oct 17 16:01:12 2016 by SUMO Version dev-SVN-r21661
<?xml version="1.0" encoding="UTF-8"?>

<configuration xmlns:xsi="http://www.w3.org/2001/XMLSchema-instance" xsi:noNamespaceSchemaLocation="http://sumo.dlr.de/xsd/sumoConfiguration.xsd">

    <input>
        <net-file value="net.net.xml"/>
        <route-files value="input_routes.rou.xml"/>
        <additional-files value="input_additional.add.xml"/>
    </input>

    <time>
        <end value="1000"/>
    </time>

    <report>
        <verbose value="true"/>
        <xml-validation value="never"/>
        <no-step-log value="true"/>
    </report>

</configuration>
-->

<meandata xmlns:xsi="http://www.w3.org/2001/XMLSchema-instance" xsi:noNamespaceSchemaLocation="http://sumo.dlr.de/xsd/meandata_file.xsd">
    <interval begin="0.00" end="100.00" id="dump_15">
        <edge id="beg" sampledSeconds="1187.85" traveltime="16.82" overlapTraveltime="16.99" density="23.76" occupancy="3.96" waitingTime="0.00" speed="29.72" departed="77" arrived="0" entered="0" left="64" laneChangedFrom="39" laneChangedTo="39"/>
        <edge id="end" sampledSeconds="980.19" traveltime="16.81" overlapTraveltime="16.97" density="19.60" occupancy="3.27" waitingTime="0.00" speed="29.75" departed="0" arrived="50" entered="64" left="0" laneChangedFrom="0" laneChangedTo="0"/>
    </interval>
    <interval begin="100.00" end="200.00" id="dump_15">
        <edge id="beg" sampledSeconds="1289.58" traveltime="16.61" overlapTraveltime="16.77" density="25.79" occupancy="4.30" waitingTime="0.00" speed="30.11" departed="77" arrived="0" entered="0" left="78" laneChangedFrom="39" laneChangedTo="39"/>
        <edge id="end" sampledSeconds="1295.53" traveltime="16.66" overlapTraveltime="16.82" density="25.91" occupancy="4.32" waitingTime="0.00" speed="30.02" departed="0" arrived="78" entered="78" left="0" laneChangedFrom="0" laneChangedTo="0"/>
    </interval>
    <interval begin="200.00" end="300.00" id="dump_15">
        <edge id="beg" sampledSeconds="1308.68" traveltime="16.79" overlapTraveltime="16.96" density="26.17" occupancy="4.36" waitingTime="0.00" speed="29.78" departed="77" arrived="0" entered="0" left="76" laneChangedFrom="43" laneChangedTo="43"/>
        <edge id="end" sampledSeconds="1300.44" traveltime="16.84" overlapTraveltime="17.00" density="26.01" occupancy="4.33" waitingTime="0.00" speed="29.70" departed="0" arrived="77" entered="76" left="0" laneChangedFrom="1" laneChangedTo="1"/>
    </interval>
    <interval begin="300.00" end="400.00" id="dump_15">
        <edge id="beg" sampledSeconds="1317.07" traveltime="16.95" overlapTraveltime="17.11" density="26.34" occupancy="4.39" waitingTime="0.00" speed="29.51" departed="77" arrived="0" entered="0" left="77" laneChangedFrom="51" laneChangedTo="51"/>
        <edge id="end" sampledSeconds="1310.37" traveltime="16.90" overlapTraveltime="17.06" density="26.21" occupancy="4.37" waitingTime="0.00" speed="29.59" departed="0" arrived="77" entered="77" left="0" laneChangedFrom="1" laneChangedTo="1"/>
    </interval>
    <interval begin="400.00" end="500.00" id="dump_15">
        <edge id="beg" sampledSeconds="1293.37" traveltime="16.73" overlapTraveltime="16.90" density="25.87" occupancy="4.31" waitingTime="0.00" speed="29.89" departed="77" arrived="0" entered="0" left="76" laneChangedFrom="42" laneChangedTo="42"/>
        <edge id="end" sampledSeconds="1310.01" traveltime="16.75" overlapTraveltime="16.91" density="26.20" occupancy="4.37" waitingTime="0.00" speed="29.86" departed="0" arrived="79" entered="76" left="0" laneChangedFrom="1" laneChangedTo="1"/>
    </interval>
    <interval begin="500.00" end="600.00" id="dump_15">
        <edge id="beg" sampledSeconds="1305.19" traveltime="16.80" overlapTraveltime="16.97" density="26.10" occupancy="4.35" waitingTime="0.00" speed="29.76" departed="77" arrived="0" entered="0" left="78" laneChangedFrom="44" laneChangedTo="44"/>
        <edge id="end" sampledSeconds="1280.51" traveltime="16.70" overlapTraveltime="16.86" density="25.61" occupancy="4.27" waitingTime="0.00" speed="29.95" departed="0" arrived="74" entered="78" left="0" laneChangedFrom="1" laneChangedTo="1"/>
    </interval>
    <interval begin="600.00" end="700.00" id="dump_15">
        <edge id="beg" sampledSeconds="1317.98" traveltime="16.88" overlapTraveltime="17.05" density="26.36" occupancy="4.39" waitingTime="0.00" speed="29.62" departed="77" arrived="0" entered="0" left="77" laneChangedFrom="50" laneChangedTo="50"/>
        <edge id="end" sampledSeconds="1295.84" traveltime="16.79" overlapTraveltime="16.95" density="25.92" occupancy="4.32" waitingTime="0.00" speed="29.79" departed="0" arrived="77" entered="77" left="0" laneChangedFrom="3" laneChangedTo="3"/>
    </interval>
    <interval begin="700.00" end="800.00" id="dump_15">
        <edge id="beg" sampledSeconds="1307.72" traveltime="16.87" overlapTraveltime="17.04" density="26.15" occupancy="4.36" waitingTime="0.00" speed="29.63" departed="77" arrived="0" entered="0" left="77" laneChangedFrom="41" laneChangedTo="41"/>
        <edge id="end" sampledSeconds="1340.62" traveltime="16.96" overlapTraveltime="17.13" density="26.81" occupancy="4.47" waitingTime="0.00" speed="29.49" departed="0" arrived="79" entered="77" left="0" laneChangedFrom="2" laneChangedTo="2"/>
    </interval>
    <interval begin="800.00" end="900.00" id="dump_15">
        <edge id="beg" sampledSeconds="1293.75" traveltime="16.62" overlapTraveltime="16.79" density="25.87" occupancy="4.31" waitingTime="0.00" speed="30.08" departed="77" arrived="0" entered="0" left="77" laneChangedFrom="47" laneChangedTo="47"/>
        <edge id="end" sampledSeconds="1286.94" traveltime="16.62" overlapTraveltime="16.79" density="25.74" occupancy="4.29" waitingTime="0.00" speed="30.08" departed="0" arrived="76" entered="77" left="0" laneChangedFrom="0" laneChangedTo="0"/>
    </interval>
    <interval begin="900.00" end="1000.00" id="dump_15">
        <edge id="beg" sampledSeconds="1297.31" traveltime="16.70" overlapTraveltime="16.86" density="25.95" occupancy="4.32" waitingTime="0.00" speed="29.95" departed="77" arrived="0" entered="0" left="75" laneChangedFrom="39" laneChangedTo="39"/>
        <edge id="end" sampledSeconds="1294.37" traveltime="16.76" overlapTraveltime="16.93" density="25.89" occupancy="4.31" waitingTime="0.00" speed="29.84" departed="0" arrived="76" entered="75" left="0" laneChangedFrom="2" laneChangedTo="2"/>
    </interval>
</meandata>
