<?xml version="1.0" encoding="UTF-8"?>

<!-- generated on 05/02/13 14:09:44 by SUMO sumo Version 0.17.0
<?xml version="1.0" encoding="UTF-8"?>

<configuration xmlns:xsi="http://www.w3.org/2001/XMLSchema-instance" xsi:noNamespaceSchemaLocation="http://sumo-sim.org/xsd/sumoConfiguration.xsd">

    <input>
        <net-file value="net.net.xml"/>
        <route-files value="input_routes.rou.xml"/>
        <additional-files value="input_additional.add.xml"/>
    </input>

    <time>
        <end value="1000"/>
    </time>

    <report>
        <verbose value="true"/>
        <no-step-log value="true"/>
    </report>

</configuration>
-->

<meandata xmlns:xsi="http://www.w3.org/2001/XMLSchema-instance" xsi:noNamespaceSchemaLocation="http://sumo-sim.org/xsd/meandata_file.xsd">
    <interval begin="0.00" end="100.00" id="dump_15">
        <edge id="beg" sampledSeconds="1105.81" traveltime="18.01" density="22.12" occupancy="3.69" waitingTime="0.00" speed="27.77" departed="68" arrived="0" entered="0" left="55" laneChangedFrom="0" laneChangedTo="0"/>
        <edge id="end" sampledSeconds="917.20" traveltime="18.44" density="18.34" occupancy="3.06" waitingTime="0.00" speed="27.12" departed="0" arrived="43" entered="55" left="0" laneChangedFrom="0" laneChangedTo="0"/>
    </interval>
    <interval begin="100.00" end="200.00" id="dump_15">
        <edge id="beg" sampledSeconds="1439.24" traveltime="20.98" density="28.78" occupancy="4.80" waitingTime="0.00" speed="23.83" departed="70" arrived="0" entered="0" left="69" laneChangedFrom="0" laneChangedTo="0"/>
        <edge id="end" sampledSeconds="1423.53" traveltime="21.26" density="28.47" occupancy="4.75" waitingTime="0.00" speed="23.52" departed="0" arrived="65" entered="69" left="0" laneChangedFrom="0" laneChangedTo="0"/>
    </interval>
    <interval begin="200.00" end="300.00" id="dump_15">
        <edge id="beg" sampledSeconds="1395.68" traveltime="19.59" density="27.91" occupancy="4.65" waitingTime="0.00" speed="25.52" departed="71" arrived="0" entered="0" left="71" laneChangedFrom="0" laneChangedTo="0"/>
        <edge id="end" sampledSeconds="1443.11" traveltime="20.00" density="28.86" occupancy="4.81" waitingTime="0.00" speed="25.00" departed="0" arrived="71" entered="71" left="0" laneChangedFrom="0" laneChangedTo="0"/>
    </interval>
    <interval begin="300.00" end="400.00" id="dump_15">
        <edge id="beg" sampledSeconds="1273.97" traveltime="18.21" density="25.48" occupancy="4.25" waitingTime="0.00" speed="27.45" departed="68" arrived="0" entered="0" left="71" laneChangedFrom="0" laneChangedTo="0"/>
        <edge id="end" sampledSeconds="1402.48" traveltime="19.19" density="28.05" occupancy="4.67" waitingTime="0.00" speed="26.06" departed="0" arrived="74" entered="71" left="0" laneChangedFrom="0" laneChangedTo="0"/>
    </interval>
    <interval begin="400.00" end="500.00" id="dump_15">
        <edge id="beg" sampledSeconds="1369.91" traveltime="20.20" density="27.40" occupancy="4.57" waitingTime="0.00" speed="24.76" departed="71" arrived="0" entered="0" left="67" laneChangedFrom="0" laneChangedTo="0"/>
        <edge id="end" sampledSeconds="1354.33" traveltime="20.44" density="27.09" occupancy="4.51" waitingTime="0.00" speed="24.46" departed="0" arrived="66" entered="67" left="0" laneChangedFrom="0" laneChangedTo="0"/>
    </interval>
    <interval begin="500.00" end="600.00" id="dump_15">
        <edge id="beg" sampledSeconds="1399.47" traveltime="19.72" density="27.99" occupancy="4.66" waitingTime="0.00" speed="25.35" departed="70" arrived="0" entered="0" left="72" laneChangedFrom="0" laneChangedTo="0"/>
        <edge id="end" sampledSeconds="1523.12" traveltime="20.94" density="30.46" occupancy="5.08" waitingTime="0.00" speed="23.88" departed="0" arrived="71" entered="72" left="0" laneChangedFrom="0" laneChangedTo="0"/>
    </interval>
    <interval begin="600.00" end="700.00" id="dump_15">
        <edge id="beg" sampledSeconds="1318.22" traveltime="18.66" density="26.36" occupancy="4.39" waitingTime="0.00" speed="26.80" departed="70" arrived="0" entered="0" left="70" laneChangedFrom="0" laneChangedTo="0"/>
        <edge id="end" sampledSeconds="1365.32" traveltime="19.27" density="27.31" occupancy="4.55" waitingTime="0.00" speed="25.94" departed="0" arrived="70" entered="70" left="0" laneChangedFrom="0" laneChangedTo="0"/>
    </interval>
    <interval begin="700.00" end="800.00" id="dump_15">
        <edge id="beg" sampledSeconds="1318.39" traveltime="18.86" density="26.37" occupancy="4.39" waitingTime="0.00" speed="26.51" departed="70" arrived="0" entered="0" left="69" laneChangedFrom="0" laneChangedTo="0"/>
        <edge id="end" sampledSeconds="1380.84" traveltime="19.54" density="27.62" occupancy="4.60" waitingTime="0.00" speed="25.58" departed="0" arrived="71" entered="69" left="0" laneChangedFrom="0" laneChangedTo="0"/>
    </interval>
    <interval begin="800.00" end="900.00" id="dump_15">
        <edge id="beg" sampledSeconds="1363.52" traveltime="19.33" density="27.27" occupancy="4.55" waitingTime="0.00" speed="25.87" departed="70" arrived="0" entered="0" left="69" laneChangedFrom="0" laneChangedTo="0"/>
        <edge id="end" sampledSeconds="1364.46" traveltime="19.55" density="27.29" occupancy="4.55" waitingTime="0.00" speed="25.58" departed="0" arrived="68" entered="69" left="0" laneChangedFrom="0" laneChangedTo="0"/>
    </interval>
    <interval begin="900.00" end="1000.00" id="dump_15">
        <edge id="beg" sampledSeconds="1357.62" traveltime="19.15" density="27.15" occupancy="4.53" waitingTime="0.00" speed="26.11" departed="69" arrived="0" entered="0" left="71" laneChangedFrom="0" laneChangedTo="0"/>
        <edge id="end" sampledSeconds="1442.18" traveltime="20.03" density="28.84" occupancy="4.81" waitingTime="0.00" speed="24.96" departed="0" arrived="72" entered="71" left="0" laneChangedFrom="0" laneChangedTo="0"/>
    </interval>
</meandata>
