<?xml version="1.0" encoding="UTF-8"?>

<!-- generated on Thu Mar  6 17:48:29 2014 by SUMO sumo Version dev-SVN-r15852
<?xml version="1.0" encoding="UTF-8"?>

<configuration xmlns:xsi="http://www.w3.org/2001/XMLSchema-instance" xsi:noNamespaceSchemaLocation="http://sumo-sim.org/xsd/sumoConfiguration.xsd">

    <input>
        <net-file value="net.net.xml"/>
        <route-files value="input_routes.rou.xml"/>
        <additional-files value="input_additional.add.xml"/>
    </input>

    <time>
        <end value="1000"/>
    </time>

    <report>
        <verbose value="true"/>
        <xml-validation value="never"/>
        <no-step-log value="true"/>
    </report>

</configuration>
-->

<meandata xmlns:xsi="http://www.w3.org/2001/XMLSchema-instance" xsi:noNamespaceSchemaLocation="http://sumo-sim.org/xsd/meandata_file.xsd">
    <interval begin="0.00" end="100.00" id="dump_15">
        <edge id="beg" sampledSeconds="981.57" traveltime="16.80" density="19.63" occupancy="3.27" waitingTime="0.00" speed="29.76" departed="66" arrived="0" entered="0" left="55" laneChangedFrom="35" laneChangedTo="35"/>
        <edge id="end" sampledSeconds="822.04" traveltime="16.69" density="16.44" occupancy="2.74" waitingTime="0.00" speed="29.95" departed="0" arrived="44" entered="55" left="0" laneChangedFrom="0" laneChangedTo="0"/>
    </interval>
    <interval begin="100.00" end="200.00" id="dump_15">
        <edge id="beg" sampledSeconds="1090.30" traveltime="16.44" density="21.81" occupancy="3.63" waitingTime="0.00" speed="30.41" departed="67" arrived="0" entered="0" left="68" laneChangedFrom="28" laneChangedTo="28"/>
        <edge id="end" sampledSeconds="1160.44" traveltime="16.73" density="23.21" occupancy="3.87" waitingTime="0.00" speed="29.89" departed="0" arrived="69" entered="68" left="0" laneChangedFrom="2" laneChangedTo="2"/>
    </interval>
    <interval begin="200.00" end="300.00" id="dump_15">
        <edge id="beg" sampledSeconds="1126.21" traveltime="16.68" density="22.52" occupancy="3.75" waitingTime="0.00" speed="29.98" departed="74" arrived="0" entered="0" left="73" laneChangedFrom="32" laneChangedTo="32"/>
        <edge id="end" sampledSeconds="1225.94" traveltime="16.78" density="24.52" occupancy="4.09" waitingTime="0.00" speed="29.80" departed="0" arrived="70" entered="73" left="0" laneChangedFrom="1" laneChangedTo="1"/>
    </interval>
    <interval begin="300.00" end="400.00" id="dump_15">
        <edge id="beg" sampledSeconds="1079.05" traveltime="16.58" density="21.58" occupancy="3.60" waitingTime="0.00" speed="30.16" departed="69" arrived="0" entered="0" left="70" laneChangedFrom="36" laneChangedTo="36"/>
        <edge id="end" sampledSeconds="1186.28" traveltime="16.86" density="23.73" occupancy="3.95" waitingTime="0.00" speed="29.65" departed="0" arrived="70" entered="70" left="0" laneChangedFrom="1" laneChangedTo="1"/>
    </interval>
    <interval begin="400.00" end="500.00" id="dump_15">
        <edge id="beg" sampledSeconds="1192.27" traveltime="16.83" density="23.85" occupancy="3.97" waitingTime="0.00" speed="29.70" departed="76" arrived="0" entered="0" left="75" laneChangedFrom="39" laneChangedTo="39"/>
        <edge id="end" sampledSeconds="1277.97" traveltime="17.12" density="25.56" occupancy="4.26" waitingTime="0.00" speed="29.21" departed="0" arrived="73" entered="75" left="0" laneChangedFrom="4" laneChangedTo="4"/>
    </interval>
    <interval begin="500.00" end="600.00" id="dump_15">
        <edge id="beg" sampledSeconds="1127.04" traveltime="16.82" density="22.54" occupancy="3.76" waitingTime="0.00" speed="29.72" departed="70" arrived="0" entered="0" left="71" laneChangedFrom="30" laneChangedTo="30"/>
        <edge id="end" sampledSeconds="1257.71" traveltime="17.21" density="25.15" occupancy="4.19" waitingTime="0.00" speed="29.05" departed="0" arrived="73" entered="71" left="0" laneChangedFrom="3" laneChangedTo="3"/>
    </interval>
    <interval begin="600.00" end="700.00" id="dump_15">
        <edge id="beg" sampledSeconds="1093.37" traveltime="16.63" density="21.87" occupancy="3.64" waitingTime="0.00" speed="30.07" departed="69" arrived="0" entered="0" left="67" laneChangedFrom="30" laneChangedTo="30"/>
        <edge id="end" sampledSeconds="1177.37" traveltime="16.90" density="23.55" occupancy="3.92" waitingTime="0.00" speed="29.58" departed="0" arrived="72" entered="67" left="0" laneChangedFrom="0" laneChangedTo="0"/>
    </interval>
    <interval begin="700.00" end="800.00" id="dump_15">
        <edge id="beg" sampledSeconds="1124.51" traveltime="16.83" density="22.49" occupancy="3.75" waitingTime="0.00" speed="29.71" departed="71" arrived="0" entered="0" left="72" laneChangedFrom="31" laneChangedTo="31"/>
        <edge id="end" sampledSeconds="1189.76" traveltime="17.07" density="23.80" occupancy="3.97" waitingTime="0.00" speed="29.29" departed="0" arrived="66" entered="72" left="0" laneChangedFrom="2" laneChangedTo="2"/>
    </interval>
    <interval begin="800.00" end="900.00" id="dump_15">
        <edge id="beg" sampledSeconds="1123.25" traveltime="16.88" density="22.46" occupancy="3.74" waitingTime="0.00" speed="29.62" departed="69" arrived="0" entered="0" left="69" laneChangedFrom="32" laneChangedTo="32"/>
        <edge id="end" sampledSeconds="1174.99" traveltime="17.07" density="23.50" occupancy="3.92" waitingTime="0.00" speed="29.28" departed="0" arrived="69" entered="69" left="0" laneChangedFrom="0" laneChangedTo="0"/>
    </interval>
    <interval begin="900.00" end="1000.00" id="dump_15">
        <edge id="beg" sampledSeconds="1134.45" traveltime="16.95" density="22.69" occupancy="3.78" waitingTime="0.00" speed="29.49" departed="70" arrived="0" entered="0" left="71" laneChangedFrom="31" laneChangedTo="31"/>
        <edge id="end" sampledSeconds="1259.02" traveltime="17.18" density="25.18" occupancy="4.20" waitingTime="0.00" speed="29.11" departed="0" arrived="72" entered="71" left="0" laneChangedFrom="2" laneChangedTo="2"/>
    </interval>
</meandata>
