<?xml version="1.0" encoding="UTF-8"?>

<!-- generated on 2026-04-09T16:35:11.544805+01:00 by Eclipse SUMO sumo v1_26_0+1034-8d7c6592743
This data file and the accompanying materials
are made available under the terms of the Eclipse Public License v2.0
which accompanies this distribution, and is available at
http://www.eclipse.org/legal/epl-v20.html
This file may also be made available under the following Secondary
Licenses when the conditions for such availability set forth in the Eclipse
Public License 2.0 are satisfied: GNU General Public License, version 2
or later which is available at
https://www.gnu.org/licenses/old-licenses/gpl-2.0-standalone.html
SPDX-License-Identifier: EPL-2.0 OR GPL-2.0-or-later
<sumoConfiguration xmlns:xsi="http://www.w3.org/2001/XMLSchema-instance" xsi:noNamespaceSchemaLocation="http://sumo.dlr.de/xsd/sumoConfiguration.xsd">

    <input>
        <net-file value="net.net.xml"/>
        <route-files value="input_routes.rou.xml"/>
        <additional-files value="input_additional.add.xml"/>
    </input>

    <output>
        <write-license value="true"/>
        <vehroute-output value="vehroutes.xml"/>
        <vehroute-output.sorted value="true"/>
        <vehroute-output.intended-depart value="true"/>
    </output>

    <time>
        <begin value="0"/>
        <end value="1000"/>
    </time>

    <processing>
        <default.speeddev value="0"/>
    </processing>

    <routing>
        <device.rerouting.threads value="4"/>
    </routing>

    <report>
        <xml-validation value="never"/>
        <duration-log.disable value="true"/>
        <no-step-log value="true"/>
    </report>

    <mesoscopic>
        <mesosim value="true"/>
        <meso-junction-control value="true"/>
    </mesoscopic>

</sumoConfiguration>
-->

<routes xmlns:xsi="http://www.w3.org/2001/XMLSchema-instance" xsi:noNamespaceSchemaLocation="http://sumo.dlr.de/xsd/routes_file.xsd">
    <vehicle id="0.0" type="Eissfeldt" depart="0.00" arrival="803.00">
        <routeDistribution>
            <route replacedOnEdge="5/1to6/1" replacedOnIndex="4" reason="rerouter5" replacedAtTime="201.00" probability="0" edges="1/1to2/1 2/1to3/1 3/1to4/1 4/1to5/1 5/1to6/1 6/1to7/1"/>
            <route replacedOnEdge="10/1to1/1" replacedOnIndex="5" reason="rerouter10" replacedAtTime="452.00" probability="0" edges="1/1to2/1 2/1to3/1 3/1to4/1 4/1to5/1 5/1to6/1 6/1to7/1 7/1to8/1 8/1to9/1 9/1to10/1 10/1to1/1 1/1to2/1"/>
            <route edges="1/1to2/1 2/1to3/1 3/1to4/1 4/1to5/1 5/1to6/1 6/1to7/1 7/1to8/1 8/1to9/1 9/1to10/1 10/1to1/1 1/1to2/1 2/1to3/1 3/1to4/1 4/1to5/1 5/1to6/1 6/1to7/1"/>
        </routeDistribution>
    </vehicle>

    <vehicle id="0.1" type="Eissfeldt" depart="0.10" arrival="804.00">
        <routeDistribution>
            <route replacedOnEdge="5/1to6/1" replacedOnIndex="4" reason="rerouter5" replacedAtTime="203.00" probability="0" edges="1/1to2/1 2/1to3/1 3/1to4/1 4/1to5/1 5/1to6/1 6/1to7/1"/>
            <route replacedOnEdge="10/1to1/1" replacedOnIndex="5" reason="rerouter10" replacedAtTime="453.00" probability="0" edges="1/1to2/1 2/1to3/1 3/1to4/1 4/1to5/1 5/1to6/1 6/1to7/1 7/1to8/1 8/1to9/1 9/1to10/1 10/1to1/1 1/1to2/1"/>
            <route edges="1/1to2/1 2/1to3/1 3/1to4/1 4/1to5/1 5/1to6/1 6/1to7/1 7/1to8/1 8/1to9/1 9/1to10/1 10/1to1/1 1/1to2/1 2/1to3/1 3/1to4/1 4/1to5/1 5/1to6/1 6/1to7/1"/>
        </routeDistribution>
    </vehicle>

    <vehicle id="0.2" type="Eissfeldt" depart="0.20" arrival="806.00">
        <routeDistribution>
            <route replacedOnEdge="5/1to6/1" replacedOnIndex="4" reason="rerouter5" replacedAtTime="204.00" probability="0" edges="1/1to2/1 2/1to3/1 3/1to4/1 4/1to5/1 5/1to6/1 6/1to7/1"/>
            <route replacedOnEdge="10/1to1/1" replacedOnIndex="5" reason="rerouter10" replacedAtTime="455.00" probability="0" edges="1/1to2/1 2/1to3/1 3/1to4/1 4/1to5/1 5/1to6/1 6/1to7/1 7/1to8/1 8/1to9/1 9/1to10/1 10/1to1/1 1/1to2/1"/>
            <route edges="1/1to2/1 2/1to3/1 3/1to4/1 4/1to5/1 5/1to6/1 6/1to7/1 7/1to8/1 8/1to9/1 9/1to10/1 10/1to1/1 1/1to2/1 2/1to3/1 3/1to4/1 4/1to5/1 5/1to6/1 6/1to7/1"/>
        </routeDistribution>
    </vehicle>

    <vehicle id="0.3" type="Eissfeldt" depart="0.30" arrival="807.00">
        <routeDistribution>
            <route replacedOnEdge="5/1to6/1" replacedOnIndex="4" reason="rerouter5" replacedAtTime="206.00" probability="0" edges="1/1to2/1 2/1to3/1 3/1to4/1 4/1to5/1 5/1to6/1 6/1to7/1"/>
            <route replacedOnEdge="10/1to1/1" replacedOnIndex="5" reason="rerouter10" replacedAtTime="456.00" probability="0" edges="1/1to2/1 2/1to3/1 3/1to4/1 4/1to5/1 5/1to6/1 6/1to7/1 7/1to8/1 8/1to9/1 9/1to10/1 10/1to1/1 1/1to2/1"/>
            <route edges="1/1to2/1 2/1to3/1 3/1to4/1 4/1to5/1 5/1to6/1 6/1to7/1 7/1to8/1 8/1to9/1 9/1to10/1 10/1to1/1 1/1to2/1 2/1to3/1 3/1to4/1 4/1to5/1 5/1to6/1 6/1to7/1"/>
        </routeDistribution>
    </vehicle>

    <vehicle id="0.4" type="Eissfeldt" depart="0.40" arrival="809.00">
        <routeDistribution>
            <route replacedOnEdge="5/1to6/1" replacedOnIndex="4" reason="rerouter5" replacedAtTime="207.00" probability="0" edges="1/1to2/1 2/1to3/1 3/1to4/1 4/1to5/1 5/1to6/1 6/1to7/1"/>
            <route replacedOnEdge="10/1to1/1" replacedOnIndex="5" reason="rerouter10" replacedAtTime="458.00" probability="0" edges="1/1to2/1 2/1to3/1 3/1to4/1 4/1to5/1 5/1to6/1 6/1to7/1 7/1to8/1 8/1to9/1 9/1to10/1 10/1to1/1 1/1to2/1"/>
            <route edges="1/1to2/1 2/1to3/1 3/1to4/1 4/1to5/1 5/1to6/1 6/1to7/1 7/1to8/1 8/1to9/1 9/1to10/1 10/1to1/1 1/1to2/1 2/1to3/1 3/1to4/1 4/1to5/1 5/1to6/1 6/1to7/1"/>
        </routeDistribution>
    </vehicle>

    <vehicle id="0.5" type="Eissfeldt" depart="0.50" arrival="810.00">
        <routeDistribution>
            <route replacedOnEdge="5/1to6/1" replacedOnIndex="4" reason="rerouter5" replacedAtTime="209.00" probability="0" edges="1/1to2/1 2/1to3/1 3/1to4/1 4/1to5/1 5/1to6/1 6/1to7/1"/>
            <route replacedOnEdge="10/1to1/1" replacedOnIndex="5" reason="rerouter10" replacedAtTime="459.00" probability="0" edges="1/1to2/1 2/1to3/1 3/1to4/1 4/1to5/1 5/1to6/1 6/1to7/1 7/1to8/1 8/1to9/1 9/1to10/1 10/1to1/1 1/1to2/1"/>
            <route edges="1/1to2/1 2/1to3/1 3/1to4/1 4/1to5/1 5/1to6/1 6/1to7/1 7/1to8/1 8/1to9/1 9/1to10/1 10/1to1/1 1/1to2/1 2/1to3/1 3/1to4/1 4/1to5/1 5/1to6/1 6/1to7/1"/>
        </routeDistribution>
    </vehicle>

    <vehicle id="0.6" type="Eissfeldt" depart="0.60" arrival="812.00">
        <routeDistribution>
            <route replacedOnEdge="5/1to6/1" replacedOnIndex="4" reason="rerouter5" replacedAtTime="210.00" probability="0" edges="1/1to2/1 2/1to3/1 3/1to4/1 4/1to5/1 5/1to6/1 6/1to7/1"/>
            <route replacedOnEdge="10/1to1/1" replacedOnIndex="5" reason="rerouter10" replacedAtTime="461.00" probability="0" edges="1/1to2/1 2/1to3/1 3/1to4/1 4/1to5/1 5/1to6/1 6/1to7/1 7/1to8/1 8/1to9/1 9/1to10/1 10/1to1/1 1/1to2/1"/>
            <route edges="1/1to2/1 2/1to3/1 3/1to4/1 4/1to5/1 5/1to6/1 6/1to7/1 7/1to8/1 8/1to9/1 9/1to10/1 10/1to1/1 1/1to2/1 2/1to3/1 3/1to4/1 4/1to5/1 5/1to6/1 6/1to7/1"/>
        </routeDistribution>
    </vehicle>

    <vehicle id="0.7" type="Eissfeldt" depart="0.70" arrival="813.00">
        <routeDistribution>
            <route replacedOnEdge="5/1to6/1" replacedOnIndex="4" reason="rerouter5" replacedAtTime="212.00" probability="0" edges="1/1to2/1 2/1to3/1 3/1to4/1 4/1to5/1 5/1to6/1 6/1to7/1"/>
            <route replacedOnEdge="10/1to1/1" replacedOnIndex="5" reason="rerouter10" replacedAtTime="462.00" probability="0" edges="1/1to2/1 2/1to3/1 3/1to4/1 4/1to5/1 5/1to6/1 6/1to7/1 7/1to8/1 8/1to9/1 9/1to10/1 10/1to1/1 1/1to2/1"/>
            <route edges="1/1to2/1 2/1to3/1 3/1to4/1 4/1to5/1 5/1to6/1 6/1to7/1 7/1to8/1 8/1to9/1 9/1to10/1 10/1to1/1 1/1to2/1 2/1to3/1 3/1to4/1 4/1to5/1 5/1to6/1 6/1to7/1"/>
        </routeDistribution>
    </vehicle>

    <vehicle id="0.8" type="Eissfeldt" depart="0.80" arrival="815.00">
        <routeDistribution>
            <route replacedOnEdge="5/1to6/1" replacedOnIndex="4" reason="rerouter5" replacedAtTime="213.00" probability="0" edges="1/1to2/1 2/1to3/1 3/1to4/1 4/1to5/1 5/1to6/1 6/1to7/1"/>
            <route replacedOnEdge="10/1to1/1" replacedOnIndex="5" reason="rerouter10" replacedAtTime="464.00" probability="0" edges="1/1to2/1 2/1to3/1 3/1to4/1 4/1to5/1 5/1to6/1 6/1to7/1 7/1to8/1 8/1to9/1 9/1to10/1 10/1to1/1 1/1to2/1"/>
            <route edges="1/1to2/1 2/1to3/1 3/1to4/1 4/1to5/1 5/1to6/1 6/1to7/1 7/1to8/1 8/1to9/1 9/1to10/1 10/1to1/1 1/1to2/1 2/1to3/1 3/1to4/1 4/1to5/1 5/1to6/1 6/1to7/1"/>
        </routeDistribution>
    </vehicle>

    <vehicle id="0.9" type="Eissfeldt" depart="0.90" arrival="816.00">
        <routeDistribution>
            <route replacedOnEdge="5/1to6/1" replacedOnIndex="4" reason="rerouter5" replacedAtTime="215.00" probability="0" edges="1/1to2/1 2/1to3/1 3/1to4/1 4/1to5/1 5/1to6/1 6/1to7/1"/>
            <route replacedOnEdge="10/1to1/1" replacedOnIndex="5" reason="rerouter10" replacedAtTime="465.00" probability="0" edges="1/1to2/1 2/1to3/1 3/1to4/1 4/1to5/1 5/1to6/1 6/1to7/1 7/1to8/1 8/1to9/1 9/1to10/1 10/1to1/1 1/1to2/1"/>
            <route edges="1/1to2/1 2/1to3/1 3/1to4/1 4/1to5/1 5/1to6/1 6/1to7/1 7/1to8/1 8/1to9/1 9/1to10/1 10/1to1/1 1/1to2/1 2/1to3/1 3/1to4/1 4/1to5/1 5/1to6/1 6/1to7/1"/>
        </routeDistribution>
    </vehicle>

    <vehicle id="0.10" type="Eissfeldt" depart="1.00" arrival="818.00">
        <routeDistribution>
            <route replacedOnEdge="5/1to6/1" replacedOnIndex="4" reason="rerouter5" replacedAtTime="216.00" probability="0" edges="1/1to2/1 2/1to3/1 3/1to4/1 4/1to5/1 5/1to6/1 6/1to7/1"/>
            <route replacedOnEdge="10/1to1/1" replacedOnIndex="5" reason="rerouter10" replacedAtTime="467.00" probability="0" edges="1/1to2/1 2/1to3/1 3/1to4/1 4/1to5/1 5/1to6/1 6/1to7/1 7/1to8/1 8/1to9/1 9/1to10/1 10/1to1/1 1/1to2/1"/>
            <route edges="1/1to2/1 2/1to3/1 3/1to4/1 4/1to5/1 5/1to6/1 6/1to7/1 7/1to8/1 8/1to9/1 9/1to10/1 10/1to1/1 1/1to2/1 2/1to3/1 3/1to4/1 4/1to5/1 5/1to6/1 6/1to7/1"/>
        </routeDistribution>
    </vehicle>

    <vehicle id="0.11" type="Eissfeldt" depart="1.10" arrival="819.00">
        <routeDistribution>
            <route replacedOnEdge="5/1to6/1" replacedOnIndex="4" reason="rerouter5" replacedAtTime="217.00" probability="0" edges="1/1to2/1 2/1to3/1 3/1to4/1 4/1to5/1 5/1to6/1 6/1to7/1"/>
            <route replacedOnEdge="10/1to1/1" replacedOnIndex="5" reason="rerouter10" replacedAtTime="468.00" probability="0" edges="1/1to2/1 2/1to3/1 3/1to4/1 4/1to5/1 5/1to6/1 6/1to7/1 7/1to8/1 8/1to9/1 9/1to10/1 10/1to1/1 1/1to2/1"/>
            <route edges="1/1to2/1 2/1to3/1 3/1to4/1 4/1to5/1 5/1to6/1 6/1to7/1 7/1to8/1 8/1to9/1 9/1to10/1 10/1to1/1 1/1to2/1 2/1to3/1 3/1to4/1 4/1to5/1 5/1to6/1 6/1to7/1"/>
        </routeDistribution>
    </vehicle>

    <vehicle id="0.12" type="Eissfeldt" depart="1.20" arrival="821.00">
        <routeDistribution>
            <route replacedOnEdge="5/1to6/1" replacedOnIndex="4" reason="rerouter5" replacedAtTime="219.00" probability="0" edges="1/1to2/1 2/1to3/1 3/1to4/1 4/1to5/1 5/1to6/1 6/1to7/1"/>
            <route replacedOnEdge="10/1to1/1" replacedOnIndex="5" reason="rerouter10" replacedAtTime="470.00" probability="0" edges="1/1to2/1 2/1to3/1 3/1to4/1 4/1to5/1 5/1to6/1 6/1to7/1 7/1to8/1 8/1to9/1 9/1to10/1 10/1to1/1 1/1to2/1"/>
            <route edges="1/1to2/1 2/1to3/1 3/1to4/1 4/1to5/1 5/1to6/1 6/1to7/1 7/1to8/1 8/1to9/1 9/1to10/1 10/1to1/1 1/1to2/1 2/1to3/1 3/1to4/1 4/1to5/1 5/1to6/1 6/1to7/1"/>
        </routeDistribution>
    </vehicle>

    <vehicle id="0.13" type="Eissfeldt" depart="1.30" arrival="822.00">
        <routeDistribution>
            <route replacedOnEdge="5/1to6/1" replacedOnIndex="4" reason="rerouter5" replacedAtTime="220.00" probability="0" edges="1/1to2/1 2/1to3/1 3/1to4/1 4/1to5/1 5/1to6/1 6/1to7/1"/>
            <route replacedOnEdge="10/1to1/1" replacedOnIndex="5" reason="rerouter10" replacedAtTime="471.00" probability="0" edges="1/1to2/1 2/1to3/1 3/1to4/1 4/1to5/1 5/1to6/1 6/1to7/1 7/1to8/1 8/1to9/1 9/1to10/1 10/1to1/1 1/1to2/1"/>
            <route edges="1/1to2/1 2/1to3/1 3/1to4/1 4/1to5/1 5/1to6/1 6/1to7/1 7/1to8/1 8/1to9/1 9/1to10/1 10/1to1/1 1/1to2/1 2/1to3/1 3/1to4/1 4/1to5/1 5/1to6/1 6/1to7/1"/>
        </routeDistribution>
    </vehicle>

    <vehicle id="0.14" type="Eissfeldt" depart="1.40" arrival="824.00">
        <routeDistribution>
            <route replacedOnEdge="5/1to6/1" replacedOnIndex="4" reason="rerouter5" replacedAtTime="222.00" probability="0" edges="1/1to2/1 2/1to3/1 3/1to4/1 4/1to5/1 5/1to6/1 6/1to7/1"/>
            <route replacedOnEdge="10/1to1/1" replacedOnIndex="5" reason="rerouter10" replacedAtTime="473.00" probability="0" edges="1/1to2/1 2/1to3/1 3/1to4/1 4/1to5/1 5/1to6/1 6/1to7/1 7/1to8/1 8/1to9/1 9/1to10/1 10/1to1/1 1/1to2/1"/>
            <route edges="1/1to2/1 2/1to3/1 3/1to4/1 4/1to5/1 5/1to6/1 6/1to7/1 7/1to8/1 8/1to9/1 9/1to10/1 10/1to1/1 1/1to2/1 2/1to3/1 3/1to4/1 4/1to5/1 5/1to6/1 6/1to7/1"/>
        </routeDistribution>
    </vehicle>

    <vehicle id="0.15" type="Eissfeldt" depart="1.50" arrival="825.00">
        <routeDistribution>
            <route replacedOnEdge="5/1to6/1" replacedOnIndex="4" reason="rerouter5" replacedAtTime="223.00" probability="0" edges="1/1to2/1 2/1to3/1 3/1to4/1 4/1to5/1 5/1to6/1 6/1to7/1"/>
            <route replacedOnEdge="10/1to1/1" replacedOnIndex="5" reason="rerouter10" replacedAtTime="474.00" probability="0" edges="1/1to2/1 2/1to3/1 3/1to4/1 4/1to5/1 5/1to6/1 6/1to7/1 7/1to8/1 8/1to9/1 9/1to10/1 10/1to1/1 1/1to2/1"/>
            <route edges="1/1to2/1 2/1to3/1 3/1to4/1 4/1to5/1 5/1to6/1 6/1to7/1 7/1to8/1 8/1to9/1 9/1to10/1 10/1to1/1 1/1to2/1 2/1to3/1 3/1to4/1 4/1to5/1 5/1to6/1 6/1to7/1"/>
        </routeDistribution>
    </vehicle>

    <vehicle id="0.16" type="Eissfeldt" depart="1.60" arrival="827.00">
        <routeDistribution>
            <route replacedOnEdge="5/1to6/1" replacedOnIndex="4" reason="rerouter5" replacedAtTime="225.00" probability="0" edges="1/1to2/1 2/1to3/1 3/1to4/1 4/1to5/1 5/1to6/1 6/1to7/1"/>
            <route replacedOnEdge="10/1to1/1" replacedOnIndex="5" reason="rerouter10" replacedAtTime="476.00" probability="0" edges="1/1to2/1 2/1to3/1 3/1to4/1 4/1to5/1 5/1to6/1 6/1to7/1 7/1to8/1 8/1to9/1 9/1to10/1 10/1to1/1 1/1to2/1"/>
            <route edges="1/1to2/1 2/1to3/1 3/1to4/1 4/1to5/1 5/1to6/1 6/1to7/1 7/1to8/1 8/1to9/1 9/1to10/1 10/1to1/1 1/1to2/1 2/1to3/1 3/1to4/1 4/1to5/1 5/1to6/1 6/1to7/1"/>
        </routeDistribution>
    </vehicle>

    <vehicle id="0.17" type="Eissfeldt" depart="1.70" arrival="828.00">
        <routeDistribution>
            <route replacedOnEdge="5/1to6/1" replacedOnIndex="4" reason="rerouter5" replacedAtTime="226.00" probability="0" edges="1/1to2/1 2/1to3/1 3/1to4/1 4/1to5/1 5/1to6/1 6/1to7/1"/>
            <route replacedOnEdge="10/1to1/1" replacedOnIndex="5" reason="rerouter10" replacedAtTime="477.00" probability="0" edges="1/1to2/1 2/1to3/1 3/1to4/1 4/1to5/1 5/1to6/1 6/1to7/1 7/1to8/1 8/1to9/1 9/1to10/1 10/1to1/1 1/1to2/1"/>
            <route edges="1/1to2/1 2/1to3/1 3/1to4/1 4/1to5/1 5/1to6/1 6/1to7/1 7/1to8/1 8/1to9/1 9/1to10/1 10/1to1/1 1/1to2/1 2/1to3/1 3/1to4/1 4/1to5/1 5/1to6/1 6/1to7/1"/>
        </routeDistribution>
    </vehicle>

    <vehicle id="0.18" type="Eissfeldt" depart="1.80" arrival="830.00">
        <routeDistribution>
            <route replacedOnEdge="5/1to6/1" replacedOnIndex="4" reason="rerouter5" replacedAtTime="228.00" probability="0" edges="1/1to2/1 2/1to3/1 3/1to4/1 4/1to5/1 5/1to6/1 6/1to7/1"/>
            <route replacedOnEdge="10/1to1/1" replacedOnIndex="5" reason="rerouter10" replacedAtTime="479.00" probability="0" edges="1/1to2/1 2/1to3/1 3/1to4/1 4/1to5/1 5/1to6/1 6/1to7/1 7/1to8/1 8/1to9/1 9/1to10/1 10/1to1/1 1/1to2/1"/>
            <route edges="1/1to2/1 2/1to3/1 3/1to4/1 4/1to5/1 5/1to6/1 6/1to7/1 7/1to8/1 8/1to9/1 9/1to10/1 10/1to1/1 1/1to2/1 2/1to3/1 3/1to4/1 4/1to5/1 5/1to6/1 6/1to7/1"/>
        </routeDistribution>
    </vehicle>

    <vehicle id="0.19" type="Eissfeldt" depart="1.90" arrival="831.00">
        <routeDistribution>
            <route replacedOnEdge="5/1to6/1" replacedOnIndex="4" reason="rerouter5" replacedAtTime="229.00" probability="0" edges="1/1to2/1 2/1to3/1 3/1to4/1 4/1to5/1 5/1to6/1 6/1to7/1"/>
            <route replacedOnEdge="10/1to1/1" replacedOnIndex="5" reason="rerouter10" replacedAtTime="480.00" probability="0" edges="1/1to2/1 2/1to3/1 3/1to4/1 4/1to5/1 5/1to6/1 6/1to7/1 7/1to8/1 8/1to9/1 9/1to10/1 10/1to1/1 1/1to2/1"/>
            <route edges="1/1to2/1 2/1to3/1 3/1to4/1 4/1to5/1 5/1to6/1 6/1to7/1 7/1to8/1 8/1to9/1 9/1to10/1 10/1to1/1 1/1to2/1 2/1to3/1 3/1to4/1 4/1to5/1 5/1to6/1 6/1to7/1"/>
        </routeDistribution>
    </vehicle>

    <vehicle id="0.20" type="Eissfeldt" depart="2.00" arrival="833.00">
        <routeDistribution>
            <route replacedOnEdge="5/1to6/1" replacedOnIndex="4" reason="rerouter5" replacedAtTime="231.00" probability="0" edges="1/1to2/1 2/1to3/1 3/1to4/1 4/1to5/1 5/1to6/1 6/1to7/1"/>
            <route replacedOnEdge="10/1to1/1" replacedOnIndex="5" reason="rerouter10" replacedAtTime="482.00" probability="0" edges="1/1to2/1 2/1to3/1 3/1to4/1 4/1to5/1 5/1to6/1 6/1to7/1 7/1to8/1 8/1to9/1 9/1to10/1 10/1to1/1 1/1to2/1"/>
            <route edges="1/1to2/1 2/1to3/1 3/1to4/1 4/1to5/1 5/1to6/1 6/1to7/1 7/1to8/1 8/1to9/1 9/1to10/1 10/1to1/1 1/1to2/1 2/1to3/1 3/1to4/1 4/1to5/1 5/1to6/1 6/1to7/1"/>
        </routeDistribution>
    </vehicle>

    <vehicle id="0.21" type="Eissfeldt" depart="2.10" arrival="834.00">
        <routeDistribution>
            <route replacedOnEdge="5/1to6/1" replacedOnIndex="4" reason="rerouter5" replacedAtTime="232.00" probability="0" edges="1/1to2/1 2/1to3/1 3/1to4/1 4/1to5/1 5/1to6/1 6/1to7/1"/>
            <route replacedOnEdge="10/1to1/1" replacedOnIndex="5" reason="rerouter10" replacedAtTime="483.00" probability="0" edges="1/1to2/1 2/1to3/1 3/1to4/1 4/1to5/1 5/1to6/1 6/1to7/1 7/1to8/1 8/1to9/1 9/1to10/1 10/1to1/1 1/1to2/1"/>
            <route edges="1/1to2/1 2/1to3/1 3/1to4/1 4/1to5/1 5/1to6/1 6/1to7/1 7/1to8/1 8/1to9/1 9/1to10/1 10/1to1/1 1/1to2/1 2/1to3/1 3/1to4/1 4/1to5/1 5/1to6/1 6/1to7/1"/>
        </routeDistribution>
    </vehicle>

    <vehicle id="0.22" type="Eissfeldt" depart="2.20" arrival="836.00">
        <routeDistribution>
            <route replacedOnEdge="5/1to6/1" replacedOnIndex="4" reason="rerouter5" replacedAtTime="234.00" probability="0" edges="1/1to2/1 2/1to3/1 3/1to4/1 4/1to5/1 5/1to6/1 6/1to7/1"/>
            <route replacedOnEdge="10/1to1/1" replacedOnIndex="5" reason="rerouter10" replacedAtTime="485.00" probability="0" edges="1/1to2/1 2/1to3/1 3/1to4/1 4/1to5/1 5/1to6/1 6/1to7/1 7/1to8/1 8/1to9/1 9/1to10/1 10/1to1/1 1/1to2/1"/>
            <route edges="1/1to2/1 2/1to3/1 3/1to4/1 4/1to5/1 5/1to6/1 6/1to7/1 7/1to8/1 8/1to9/1 9/1to10/1 10/1to1/1 1/1to2/1 2/1to3/1 3/1to4/1 4/1to5/1 5/1to6/1 6/1to7/1"/>
        </routeDistribution>
    </vehicle>

    <vehicle id="0.23" type="Eissfeldt" depart="2.30" arrival="837.00">
        <routeDistribution>
            <route replacedOnEdge="5/1to6/1" replacedOnIndex="4" reason="rerouter5" replacedAtTime="235.00" probability="0" edges="1/1to2/1 2/1to3/1 3/1to4/1 4/1to5/1 5/1to6/1 6/1to7/1"/>
            <route replacedOnEdge="10/1to1/1" replacedOnIndex="5" reason="rerouter10" replacedAtTime="486.00" probability="0" edges="1/1to2/1 2/1to3/1 3/1to4/1 4/1to5/1 5/1to6/1 6/1to7/1 7/1to8/1 8/1to9/1 9/1to10/1 10/1to1/1 1/1to2/1"/>
            <route edges="1/1to2/1 2/1to3/1 3/1to4/1 4/1to5/1 5/1to6/1 6/1to7/1 7/1to8/1 8/1to9/1 9/1to10/1 10/1to1/1 1/1to2/1 2/1to3/1 3/1to4/1 4/1to5/1 5/1to6/1 6/1to7/1"/>
        </routeDistribution>
    </vehicle>

    <vehicle id="0.24" type="Eissfeldt" depart="2.40" arrival="839.00">
        <routeDistribution>
            <route replacedOnEdge="5/1to6/1" replacedOnIndex="4" reason="rerouter5" replacedAtTime="237.00" probability="0" edges="1/1to2/1 2/1to3/1 3/1to4/1 4/1to5/1 5/1to6/1 6/1to7/1"/>
            <route replacedOnEdge="10/1to1/1" replacedOnIndex="5" reason="rerouter10" replacedAtTime="488.00" probability="0" edges="1/1to2/1 2/1to3/1 3/1to4/1 4/1to5/1 5/1to6/1 6/1to7/1 7/1to8/1 8/1to9/1 9/1to10/1 10/1to1/1 1/1to2/1"/>
            <route edges="1/1to2/1 2/1to3/1 3/1to4/1 4/1to5/1 5/1to6/1 6/1to7/1 7/1to8/1 8/1to9/1 9/1to10/1 10/1to1/1 1/1to2/1 2/1to3/1 3/1to4/1 4/1to5/1 5/1to6/1 6/1to7/1"/>
        </routeDistribution>
    </vehicle>

    <vehicle id="0.25" type="Eissfeldt" depart="2.50" arrival="840.00">
        <routeDistribution>
            <route replacedOnEdge="5/1to6/1" replacedOnIndex="4" reason="rerouter5" replacedAtTime="238.00" probability="0" edges="1/1to2/1 2/1to3/1 3/1to4/1 4/1to5/1 5/1to6/1 6/1to7/1"/>
            <route replacedOnEdge="10/1to1/1" replacedOnIndex="5" reason="rerouter10" replacedAtTime="489.00" probability="0" edges="1/1to2/1 2/1to3/1 3/1to4/1 4/1to5/1 5/1to6/1 6/1to7/1 7/1to8/1 8/1to9/1 9/1to10/1 10/1to1/1 1/1to2/1"/>
            <route edges="1/1to2/1 2/1to3/1 3/1to4/1 4/1to5/1 5/1to6/1 6/1to7/1 7/1to8/1 8/1to9/1 9/1to10/1 10/1to1/1 1/1to2/1 2/1to3/1 3/1to4/1 4/1to5/1 5/1to6/1 6/1to7/1"/>
        </routeDistribution>
    </vehicle>

    <vehicle id="0.26" type="Eissfeldt" depart="2.60" arrival="841.00">
        <routeDistribution>
            <route replacedOnEdge="5/1to6/1" replacedOnIndex="4" reason="rerouter5" replacedAtTime="240.00" probability="0" edges="1/1to2/1 2/1to3/1 3/1to4/1 4/1to5/1 5/1to6/1 6/1to7/1"/>
            <route replacedOnEdge="10/1to1/1" replacedOnIndex="5" reason="rerouter10" replacedAtTime="491.00" probability="0" edges="1/1to2/1 2/1to3/1 3/1to4/1 4/1to5/1 5/1to6/1 6/1to7/1 7/1to8/1 8/1to9/1 9/1to10/1 10/1to1/1 1/1to2/1"/>
            <route edges="1/1to2/1 2/1to3/1 3/1to4/1 4/1to5/1 5/1to6/1 6/1to7/1 7/1to8/1 8/1to9/1 9/1to10/1 10/1to1/1 1/1to2/1 2/1to3/1 3/1to4/1 4/1to5/1 5/1to6/1 6/1to7/1"/>
        </routeDistribution>
    </vehicle>

    <vehicle id="0.27" type="Eissfeldt" depart="2.70" arrival="843.00">
        <routeDistribution>
            <route replacedOnEdge="5/1to6/1" replacedOnIndex="4" reason="rerouter5" replacedAtTime="241.00" probability="0" edges="1/1to2/1 2/1to3/1 3/1to4/1 4/1to5/1 5/1to6/1 6/1to7/1"/>
            <route replacedOnEdge="10/1to1/1" replacedOnIndex="5" reason="rerouter10" replacedAtTime="492.00" probability="0" edges="1/1to2/1 2/1to3/1 3/1to4/1 4/1to5/1 5/1to6/1 6/1to7/1 7/1to8/1 8/1to9/1 9/1to10/1 10/1to1/1 1/1to2/1"/>
            <route edges="1/1to2/1 2/1to3/1 3/1to4/1 4/1to5/1 5/1to6/1 6/1to7/1 7/1to8/1 8/1to9/1 9/1to10/1 10/1to1/1 1/1to2/1 2/1to3/1 3/1to4/1 4/1to5/1 5/1to6/1 6/1to7/1"/>
        </routeDistribution>
    </vehicle>

    <vehicle id="0.28" type="Eissfeldt" depart="2.80" arrival="844.00">
        <routeDistribution>
            <route replacedOnEdge="5/1to6/1" replacedOnIndex="4" reason="rerouter5" replacedAtTime="243.00" probability="0" edges="1/1to2/1 2/1to3/1 3/1to4/1 4/1to5/1 5/1to6/1 6/1to7/1"/>
            <route replacedOnEdge="10/1to1/1" replacedOnIndex="5" reason="rerouter10" replacedAtTime="494.00" probability="0" edges="1/1to2/1 2/1to3/1 3/1to4/1 4/1to5/1 5/1to6/1 6/1to7/1 7/1to8/1 8/1to9/1 9/1to10/1 10/1to1/1 1/1to2/1"/>
            <route edges="1/1to2/1 2/1to3/1 3/1to4/1 4/1to5/1 5/1to6/1 6/1to7/1 7/1to8/1 8/1to9/1 9/1to10/1 10/1to1/1 1/1to2/1 2/1to3/1 3/1to4/1 4/1to5/1 5/1to6/1 6/1to7/1"/>
        </routeDistribution>
    </vehicle>

    <vehicle id="0.29" type="Eissfeldt" depart="2.90" arrival="846.00">
        <routeDistribution>
            <route replacedOnEdge="5/1to6/1" replacedOnIndex="4" reason="rerouter5" replacedAtTime="244.00" probability="0" edges="1/1to2/1 2/1to3/1 3/1to4/1 4/1to5/1 5/1to6/1 6/1to7/1"/>
            <route replacedOnEdge="10/1to1/1" replacedOnIndex="5" reason="rerouter10" replacedAtTime="495.00" probability="0" edges="1/1to2/1 2/1to3/1 3/1to4/1 4/1to5/1 5/1to6/1 6/1to7/1 7/1to8/1 8/1to9/1 9/1to10/1 10/1to1/1 1/1to2/1"/>
            <route edges="1/1to2/1 2/1to3/1 3/1to4/1 4/1to5/1 5/1to6/1 6/1to7/1 7/1to8/1 8/1to9/1 9/1to10/1 10/1to1/1 1/1to2/1 2/1to3/1 3/1to4/1 4/1to5/1 5/1to6/1 6/1to7/1"/>
        </routeDistribution>
    </vehicle>

    <vehicle id="0.30" type="Eissfeldt" depart="3.00" arrival="847.00">
        <routeDistribution>
            <route replacedOnEdge="5/1to6/1" replacedOnIndex="4" reason="rerouter5" replacedAtTime="246.00" probability="0" edges="1/1to2/1 2/1to3/1 3/1to4/1 4/1to5/1 5/1to6/1 6/1to7/1"/>
            <route replacedOnEdge="10/1to1/1" replacedOnIndex="5" reason="rerouter10" replacedAtTime="497.00" probability="0" edges="1/1to2/1 2/1to3/1 3/1to4/1 4/1to5/1 5/1to6/1 6/1to7/1 7/1to8/1 8/1to9/1 9/1to10/1 10/1to1/1 1/1to2/1"/>
            <route edges="1/1to2/1 2/1to3/1 3/1to4/1 4/1to5/1 5/1to6/1 6/1to7/1 7/1to8/1 8/1to9/1 9/1to10/1 10/1to1/1 1/1to2/1 2/1to3/1 3/1to4/1 4/1to5/1 5/1to6/1 6/1to7/1"/>
        </routeDistribution>
    </vehicle>

    <vehicle id="0.31" type="Eissfeldt" depart="3.10" arrival="849.00">
        <routeDistribution>
            <route replacedOnEdge="5/1to6/1" replacedOnIndex="4" reason="rerouter5" replacedAtTime="247.00" probability="0" edges="1/1to2/1 2/1to3/1 3/1to4/1 4/1to5/1 5/1to6/1 6/1to7/1"/>
            <route replacedOnEdge="10/1to1/1" replacedOnIndex="5" reason="rerouter10" replacedAtTime="498.00" probability="0" edges="1/1to2/1 2/1to3/1 3/1to4/1 4/1to5/1 5/1to6/1 6/1to7/1 7/1to8/1 8/1to9/1 9/1to10/1 10/1to1/1 1/1to2/1"/>
            <route edges="1/1to2/1 2/1to3/1 3/1to4/1 4/1to5/1 5/1to6/1 6/1to7/1 7/1to8/1 8/1to9/1 9/1to10/1 10/1to1/1 1/1to2/1 2/1to3/1 3/1to4/1 4/1to5/1 5/1to6/1 6/1to7/1"/>
        </routeDistribution>
    </vehicle>

    <vehicle id="0.32" type="Eissfeldt" depart="3.20" arrival="850.00">
        <routeDistribution>
            <route replacedOnEdge="5/1to6/1" replacedOnIndex="4" reason="rerouter5" replacedAtTime="249.00" probability="0" edges="1/1to2/1 2/1to3/1 3/1to4/1 4/1to5/1 5/1to6/1 6/1to7/1"/>
            <route replacedOnEdge="10/1to1/1" replacedOnIndex="5" reason="rerouter10" replacedAtTime="499.00" probability="0" edges="1/1to2/1 2/1to3/1 3/1to4/1 4/1to5/1 5/1to6/1 6/1to7/1 7/1to8/1 8/1to9/1 9/1to10/1 10/1to1/1 1/1to2/1"/>
            <route edges="1/1to2/1 2/1to3/1 3/1to4/1 4/1to5/1 5/1to6/1 6/1to7/1 7/1to8/1 8/1to9/1 9/1to10/1 10/1to1/1 1/1to2/1 2/1to3/1 3/1to4/1 4/1to5/1 5/1to6/1 6/1to7/1"/>
        </routeDistribution>
    </vehicle>

    <vehicle id="0.33" type="Eissfeldt" depart="3.30" arrival="852.00">
        <routeDistribution>
            <route replacedOnEdge="5/1to6/1" replacedOnIndex="4" reason="rerouter5" replacedAtTime="250.00" probability="0" edges="1/1to2/1 2/1to3/1 3/1to4/1 4/1to5/1 5/1to6/1 6/1to7/1"/>
            <route replacedOnEdge="10/1to1/1" replacedOnIndex="5" reason="rerouter10" replacedAtTime="501.00" probability="0" edges="1/1to2/1 2/1to3/1 3/1to4/1 4/1to5/1 5/1to6/1 6/1to7/1 7/1to8/1 8/1to9/1 9/1to10/1 10/1to1/1 1/1to2/1"/>
            <route edges="1/1to2/1 2/1to3/1 3/1to4/1 4/1to5/1 5/1to6/1 6/1to7/1 7/1to8/1 8/1to9/1 9/1to10/1 10/1to1/1 1/1to2/1 2/1to3/1 3/1to4/1 4/1to5/1 5/1to6/1 6/1to7/1"/>
        </routeDistribution>
    </vehicle>

    <vehicle id="0.34" type="Eissfeldt" depart="3.40" arrival="853.00">
        <routeDistribution>
            <route replacedOnEdge="5/1to6/1" replacedOnIndex="4" reason="rerouter5" replacedAtTime="252.00" probability="0" edges="1/1to2/1 2/1to3/1 3/1to4/1 4/1to5/1 5/1to6/1 6/1to7/1"/>
            <route replacedOnEdge="10/1to1/1" replacedOnIndex="5" reason="rerouter10" replacedAtTime="502.00" probability="0" edges="1/1to2/1 2/1to3/1 3/1to4/1 4/1to5/1 5/1to6/1 6/1to7/1 7/1to8/1 8/1to9/1 9/1to10/1 10/1to1/1 1/1to2/1"/>
            <route edges="1/1to2/1 2/1to3/1 3/1to4/1 4/1to5/1 5/1to6/1 6/1to7/1 7/1to8/1 8/1to9/1 9/1to10/1 10/1to1/1 1/1to2/1 2/1to3/1 3/1to4/1 4/1to5/1 5/1to6/1 6/1to7/1"/>
        </routeDistribution>
    </vehicle>

    <vehicle id="0.35" type="Eissfeldt" depart="3.50" arrival="855.00">
        <routeDistribution>
            <route replacedOnEdge="5/1to6/1" replacedOnIndex="4" reason="rerouter5" replacedAtTime="253.00" probability="0" edges="1/1to2/1 2/1to3/1 3/1to4/1 4/1to5/1 5/1to6/1 6/1to7/1"/>
            <route replacedOnEdge="10/1to1/1" replacedOnIndex="5" reason="rerouter10" replacedAtTime="504.00" probability="0" edges="1/1to2/1 2/1to3/1 3/1to4/1 4/1to5/1 5/1to6/1 6/1to7/1 7/1to8/1 8/1to9/1 9/1to10/1 10/1to1/1 1/1to2/1"/>
            <route edges="1/1to2/1 2/1to3/1 3/1to4/1 4/1to5/1 5/1to6/1 6/1to7/1 7/1to8/1 8/1to9/1 9/1to10/1 10/1to1/1 1/1to2/1 2/1to3/1 3/1to4/1 4/1to5/1 5/1to6/1 6/1to7/1"/>
        </routeDistribution>
    </vehicle>

    <vehicle id="0.36" type="Eissfeldt" depart="3.60" arrival="856.00">
        <routeDistribution>
            <route replacedOnEdge="5/1to6/1" replacedOnIndex="4" reason="rerouter5" replacedAtTime="255.00" probability="0" edges="1/1to2/1 2/1to3/1 3/1to4/1 4/1to5/1 5/1to6/1 6/1to7/1"/>
            <route replacedOnEdge="10/1to1/1" replacedOnIndex="5" reason="rerouter10" replacedAtTime="505.00" probability="0" edges="1/1to2/1 2/1to3/1 3/1to4/1 4/1to5/1 5/1to6/1 6/1to7/1 7/1to8/1 8/1to9/1 9/1to10/1 10/1to1/1 1/1to2/1"/>
            <route edges="1/1to2/1 2/1to3/1 3/1to4/1 4/1to5/1 5/1to6/1 6/1to7/1 7/1to8/1 8/1to9/1 9/1to10/1 10/1to1/1 1/1to2/1 2/1to3/1 3/1to4/1 4/1to5/1 5/1to6/1 6/1to7/1"/>
        </routeDistribution>
    </vehicle>

    <vehicle id="0.37" type="Eissfeldt" depart="3.70" arrival="858.00">
        <routeDistribution>
            <route replacedOnEdge="5/1to6/1" replacedOnIndex="4" reason="rerouter5" replacedAtTime="256.00" probability="0" edges="1/1to2/1 2/1to3/1 3/1to4/1 4/1to5/1 5/1to6/1 6/1to7/1"/>
            <route replacedOnEdge="10/1to1/1" replacedOnIndex="5" reason="rerouter10" replacedAtTime="507.00" probability="0" edges="1/1to2/1 2/1to3/1 3/1to4/1 4/1to5/1 5/1to6/1 6/1to7/1 7/1to8/1 8/1to9/1 9/1to10/1 10/1to1/1 1/1to2/1"/>