<?xml version="1.0" encoding="UTF-8"?>

<!-- generated on 07/17/15 13:00:13 by SUMO marouter Version dev-SVN-r18585
<?xml version="1.0" encoding="UTF-8"?>

<configuration xmlns:xsi="http://www.w3.org/2001/XMLSchema-instance" xsi:noNamespaceSchemaLocation="http://sumo.dlr.de/xsd/marouterConfiguration.xsd">

    <input>
        <net-file value="input_net.net.xml"/>
        <additional-files value="input_taz.taz.xml"/>
        <od-matrix-files value="input_od_v.fma"/>
    </input>

    <output>
        <output-file value="routes.rou.xml"/>
        <netload-output value="aggregated.xml"/>
    </output>

    <processing>
        <timeline value="0.9,0.5,0.2,0.2,0.5,1.3,7.0,9.3,6.7,4.2,4.0,3.8,4.1,4.6,5.0,6.7,9.6,9.2,7.1,4.8,3.5,2.7,2.2,1.9"/>
        <timeline.day-in-hours value="true"/>
        <timesplit value="true"/>
    </processing>

    <report>
        <xml-validation value="never"/>
    </report>

</configuration>
-->

<meandata>
    <interval begin="0.00" end="3600.00">
        <edge id="0/0to0/1" traveltime="28.12" entered="1.39"/>
        <edge id="0/0to1/0" traveltime="28.12" entered="1.38"/>
        <edge id="0/0tobottom0" traveltime="6.86" entered="1.17"/>
        <edge id="0/0toleft0" traveltime="6.86" entered="1.17"/>
        <edge id="0/1to0/0" traveltime="28.12" entered="1.39"/>
        <edge id="0/1to0/2" traveltime="28.12" entered="1.39"/>
        <edge id="0/1to1/1" traveltime="28.12" entered="1.38"/>
        <edge id="0/1toleft1" traveltime="6.86" entered="1.17"/>
        <edge id="0/2to0/1" traveltime="28.12" entered="1.39"/>
        <edge id="0/2to1/2" traveltime="28.12" entered="1.38"/>
        <edge id="0/2toleft2" traveltime="6.86" entered="1.17"/>
        <edge id="0/2totop0" traveltime="6.86" entered="1.17"/>
        <edge id="1/0to0/0" traveltime="28.12" entered="1.38"/>
        <edge id="1/0to1/1" traveltime="28.12" entered="1.38"/>
        <edge id="1/0to2/0" traveltime="28.12" entered="1.38"/>
        <edge id="1/0tobottom1" traveltime="6.86" entered="1.17"/>
        <edge id="1/1to0/1" traveltime="28.12" entered="1.38"/>
        <edge id="1/1to1/0" traveltime="28.12" entered="1.38"/>
        <edge id="1/1to1/2" traveltime="28.12" entered="1.37"/>
        <edge id="1/1to2/1" traveltime="28.12" entered="1.38"/>
        <edge id="1/2to0/2" traveltime="28.12" entered="1.38"/>
        <edge id="1/2to1/1" traveltime="28.12" entered="1.38"/>
        <edge id="1/2to2/2" traveltime="28.12" entered="1.38"/>
        <edge id="1/2totop1" traveltime="6.86" entered="1.17"/>
        <edge id="2/0to1/0" traveltime="28.12" entered="1.38"/>
        <edge id="2/0to2/1" traveltime="28.12" entered="1.37"/>
        <edge id="2/0tobottom2" traveltime="6.86" entered="1.17"/>
        <edge id="2/0toright0" traveltime="6.86" entered="1.17"/>
        <edge id="2/1to1/1" traveltime="28.12" entered="1.37"/>
        <edge id="2/1to2/0" traveltime="28.12" entered="1.37"/>
        <edge id="2/1to2/2" traveltime="28.12" entered="1.38"/>
        <edge id="2/1toright1" traveltime="6.86" entered="1.17"/>
        <edge id="2/2to1/2" traveltime="28.12" entered="1.39"/>
        <edge id="2/2to2/1" traveltime="28.12" entered="1.37"/>
        <edge id="2/2toright2" traveltime="6.86" entered="1.17"/>
        <edge id="2/2totop2" traveltime="6.86" entered="1.17"/>
        <edge id="bottom0to0/0" traveltime="6.86" entered="1.17"/>
        <edge id="bottom1to1/0" traveltime="6.86" entered="1.17"/>
        <edge id="bottom2to2/0" traveltime="6.86" entered="1.17"/>
        <edge id="left0to0/0" traveltime="6.86" entered="1.17"/>
        <edge id="left1to0/1" traveltime="6.86" entered="1.17"/>
        <edge id="left2to0/2" traveltime="6.86" entered="1.17"/>
        <edge id="right0to2/0" traveltime="6.86" entered="1.17"/>
        <edge id="right1to2/1" traveltime="6.86" entered="1.17"/>
        <edge id="right2to2/2" traveltime="6.86" entered="1.17"/>
        <edge id="top0to0/2" traveltime="6.86" entered="1.17"/>
        <edge id="top1to1/2" traveltime="6.86" entered="1.17"/>
        <edge id="top2to2/2" traveltime="6.86" entered="1.17"/>
    </interval>
    <interval begin="3600.00" end="7200.00">
        <edge id="0/0to0/1" traveltime="28.11" entered="0.77"/>
        <edge id="0/0to1/0" traveltime="28.11" entered="0.76"/>
        <edge id="0/0tobottom0" traveltime="6.86" entered="0.65"/>
        <edge id="0/0toleft0" traveltime="6.86" entered="0.65"/>
        <edge id="0/1to0/0" traveltime="28.11" entered="0.77"/>
        <edge id="0/1to0/2" traveltime="28.11" entered="0.77"/>
        <edge id="0/1to1/1" traveltime="28.11" entered="0.77"/>
        <edge id="0/1toleft1" traveltime="6.86" entered="0.65"/>
        <edge id="0/2to0/1" traveltime="28.11" entered="0.77"/>
        <edge id="0/2to1/2" traveltime="28.11" entered="0.77"/>
        <edge id="0/2toleft2" traveltime="6.86" entered="0.65"/>
        <edge id="0/2totop0" traveltime="6.86" entered="0.65"/>
        <edge id="1/0to0/0" traveltime="28.11" entered="0.77"/>
        <edge id="1/0to1/1" traveltime="28.11" entered="0.76"/>
        <edge id="1/0to2/0" traveltime="28.11" entered="0.76"/>
        <edge id="1/0tobottom1" traveltime="6.86" entered="0.65"/>
        <edge id="1/1to0/1" traveltime="28.11" entered="0.76"/>
        <edge id="1/1to1/0" traveltime="28.11" entered="0.77"/>
        <edge id="1/1to1/2" traveltime="28.11" entered="0.76"/>
        <edge id="1/1to2/1" traveltime="28.11" entered="0.76"/>
        <edge id="1/2to0/2" traveltime="28.11" entered="0.77"/>
        <edge id="1/2to1/1" traveltime="28.11" entered="0.76"/>
        <edge id="1/2to2/2" traveltime="28.11" entered="0.77"/>
        <edge id="1/2totop1" traveltime="6.86" entered="0.65"/>
        <edge id="2/0to1/0" traveltime="28.11" entered="0.76"/>
        <edge id="2/0to2/1" traveltime="28.11" entered="0.76"/>
        <edge id="2/0tobottom2" traveltime="6.86" entered="0.65"/>
        <edge id="2/0toright0" traveltime="6.86" entered="0.65"/>
        <edge id="2/1to1/1" traveltime="28.11" entered="0.76"/>
        <edge id="2/1to2/0" traveltime="28.11" entered="0.76"/>
        <edge id="2/1to2/2" traveltime="28.11" entered="0.77"/>
        <edge id="2/1toright1" traveltime="6.86" entered="0.65"/>
        <edge id="2/2to1/2" traveltime="28.11" entered="0.77"/>
        <edge id="2/2to2/1" traveltime="28.11" entered="0.76"/>
        <edge id="2/2toright2" traveltime="6.86" entered="0.65"/>
        <edge id="2/2totop2" traveltime="6.86" entered="0.65"/>
        <edge id="bottom0to0/0" traveltime="6.86" entered="0.65"/>
        <edge id="bottom1to1/0" traveltime="6.86" entered="0.65"/>
        <edge id="bottom2to2/0" traveltime="6.86" entered="0.65"/>
        <edge id="left0to0/0" traveltime="6.86" entered="0.65"/>
        <edge id="left1to0/1" traveltime="6.86" entered="0.65"/>
        <edge id="left2to0/2" traveltime="6.86" entered="0.65"/>
        <edge id="right0to2/0" traveltime="6.86" entered="0.65"/>
        <edge id="right1to2/1" traveltime="6.86" entered="0.65"/>
        <edge id="right2to2/2" traveltime="6.86" entered="0.65"/>
        <edge id="top0to0/2" traveltime="6.86" entered="0.65"/>
        <edge id="top1to1/2" traveltime="6.86" entered="0.65"/>
        <edge id="top2to2/2" traveltime="6.86" entered="0.65"/>
    </interval>
    <interval begin="7200.00" end="10800.00">
        <edge id="0/0to0/1" traveltime="28.10" entered="0.31"/>
        <edge id="0/0to1/0" traveltime="28.10" entered="0.31"/>
        <edge id="0/0tobottom0" traveltime="6.85" entered="0.26"/>
        <edge id="0/0toleft0" traveltime="6.85" entered="0.26"/>
        <edge id="0/1to0/0" traveltime="28.10" entered="0.31"/>
        <edge id="0/1to0/2" traveltime="28.10" entered="0.31"/>
        <edge id="0/1to1/1" traveltime="28.10" entered="0.31"/>
        <edge id="0/1toleft1" traveltime="6.85" entered="0.26"/>
        <edge id="0/2to0/1" traveltime="28.10" entered="0.31"/>
        <edge id="0/2to1/2" traveltime="28.10" entered="0.31"/>
        <edge id="0/2toleft2" traveltime="6.85" entered="0.26"/>
        <edge id="0/2totop0" traveltime="6.85" entered="0.26"/>
        <edge id="1/0to0/0" traveltime="28.10" entered="0.31"/>
        <edge id="1/0to1/1" traveltime="28.10" entered="0.31"/>
        <edge id="1/0to2/0" traveltime="28.10" entered="0.31"/>
        <edge id="1/0tobottom1" traveltime="6.85" entered="0.26"/>
        <edge id="1/1to0/1" traveltime="28.10" entered="0.31"/>
        <edge id="1/1to1/0" traveltime="28.10" entered="0.31"/>
        <edge id="1/1to1/2" traveltime="28.10" entered="0.31"/>
        <edge id="1/1to2/1" traveltime="28.10" entered="0.31"/>
        <edge id="1/2to0/2" traveltime="28.10" entered="0.31"/>
        <edge id="1/2to1/1" traveltime="28.10" entered="0.31"/>
        <edge id="1/2to2/2" traveltime="28.10" entered="0.31"/>
        <edge id="1/2totop1" traveltime="6.85" entered="0.26"/>
        <edge id="2/0to1/0" traveltime="28.10" entered="0.31"/>
        <edge id="2/0to2/1" traveltime="28.10" entered="0.31"/>
        <edge id="2/0tobottom2" traveltime="6.85" entered="0.26"/>
        <edge id="2/0toright0" traveltime="6.85" entered="0.26"/>
        <edge id="2/1to1/1" traveltime="28.10" entered="0.31"/>
        <edge id="2/1to2/0" traveltime="28.10" entered="0.31"/>
        <edge id="2/1to2/2" traveltime="28.10" entered="0.31"/>
        <edge id="2/1toright1" traveltime="6.85" entered="0.26"/>
        <edge id="2/2to1/2" traveltime="28.10" entered="0.31"/>
        <edge id="2/2to2/1" traveltime="28.10" entered="0.31"/>
        <edge id="2/2toright2" traveltime="6.85" entered="0.26"/>
        <edge id="2/2totop2" traveltime="6.85" entered="0.26"/>
        <edge id="bottom0to0/0" traveltime="6.85" entered="0.26"/>
        <edge id="bottom1to1/0" traveltime="6.85" entered="0.26"/>
        <edge id="bottom2to2/0" traveltime="6.85" entered="0.26"/>
        <edge id="left0to0/0" traveltime="6.85" entered="0.26"/>
        <edge id="left1to0/1" traveltime="6.85" entered="0.26"/>
        <edge id="left2to0/2" traveltime="6.85" entered="0.26"/>
        <edge id="right0to2/0" traveltime="6.85" entered="0.26"/>
        <edge id="right1to2/1" traveltime="6.85" entered="0.26"/>
        <edge id="right2to2/2" traveltime="6.85" entered="0.26"/>
        <edge id="top0to0/2" traveltime="6.85" entered="0.26"/>
        <edge id="top1to1/2" traveltime="6.85" entered="0.26"/>
        <edge id="top2to2/2" traveltime="6.85" entered="0.26"/>
    </interval>
    <interval begin="10800.00" end="14400.00">
        <edge id="0/0to0/1" traveltime="28.10" entered="0.31"/>
        <edge id="0/0to1/0" traveltime="28.10" entered="0.31"/>
        <edge id="0/0tobottom0" traveltime="6.85" entered="0.26"/>
        <edge id="0/0toleft0" traveltime="6.85" entered="0.26"/>
        <edge id="0/1to0/0" traveltime="28.10" entered="0.31"/>
        <edge id="0/1to0/2" traveltime="28.10" entered="0.31"/>
        <edge id="0/1to1/1" traveltime="28.10" entered="0.31"/>
        <edge id="0/1toleft1" traveltime="6.85" entered="0.26"/>
        <edge id="0/2to0/1" traveltime="28.10" entered="0.31"/>
        <edge id="0/2to1/2" traveltime="28.10" entered="0.31"/>
        <edge id="0/2toleft2" traveltime="6.85" entered="0.26"/>
        <edge id="0/2totop0" traveltime="6.85" entered="0.26"/>
        <edge id="1/0to0/0" traveltime="28.10" entered="0.31"/>
        <edge id="1/0to1/1" traveltime="28.10" entered="0.31"/>
        <edge id="1/0to2/0" traveltime="28.10" entered="0.31"/>
        <edge id="1/0tobottom1" traveltime="6.85" entered="0.26"/>
        <edge id="1/1to0/1" traveltime="28.10" entered="0.31"/>
        <edge id="1/1to1/0" traveltime="28.10" entered="0.31"/>
        <edge id="1/1to1/2" traveltime="28.10" entered="0.31"/>
        <edge id="1/1to2/1" traveltime="28.10" entered="0.31"/>
        <edge id="1/2to0/2" traveltime="28.10" entered="0.31"/>
        <edge id="1/2to1/1" traveltime="28.10" entered="0.31"/>
        <edge id="1/2to2/2" traveltime="28.10" entered="0.31"/>
        <edge id="1/2totop1" traveltime="6.85" entered="0.26"/>
        <edge id="2/0to1/0" traveltime="28.10" entered="0.31"/>
        <edge id="2/0to2/1" traveltime="28.10" entered="0.31"/>
        <edge id="2/0tobottom2" traveltime="6.85" entered="0.26"/>
        <edge id="2/0toright0" traveltime="6.85" entered="0.26"/>
        <edge id="2/1to1/1" traveltime="28.10" entered="0.31"/>
        <edge id="2/1to2/0" traveltime="28.10" entered="0.31"/>
        <edge id="2/1to2/2" traveltime="28.10" entered="0.31"/>
        <edge id="2/1toright1" traveltime="6.85" entered="0.26"/>
        <edge id="2/2to1/2" traveltime="28.10" entered="0.31"/>
        <edge id="2/2to2/1" traveltime="28.10" entered="0.31"/>
        <edge id="2/2toright2" traveltime="6.85" entered="0.26"/>
        <edge id="2/2totop2" traveltime="6.85" entered="0.26"/>
        <edge id="bottom0to0/0" traveltime="6.85" entered="0.26"/>
        <edge id="bottom1to1/0" traveltime="6.85" entered="0.26"/>
        <edge id="bottom2to2/0" traveltime="6.85" entered="0.26"/>
        <edge id="left0to0/0" traveltime="6.85" entered="0.26"/>
        <edge id="left1to0/1" traveltime="6.85" entered="0.26"/>
        <edge id="left2to0/2" traveltime="6.85" entered="0.26"/>
        <edge id="right0to2/0" traveltime="6.85" entered="0.26"/>
        <edge id="right1to2/1" traveltime="6.85" entered="0.26"/>
        <edge id="right2to2/2" traveltime="6.85" entered="0.26"/>
        <edge id="top0to0/2" traveltime="6.85" entered="0.26"/>
        <edge id="top1to1/2" traveltime="6.85" entered="0.26"/>
        <edge id="top2to2/2" traveltime="6.85" entered="0.26"/>
    </interval>
    <interval begin="14400.00" end="18000.00">
        <edge id="0/0to0/1" traveltime="28.11" entered="0.77"/>
        <edge id="0/0to1/0" traveltime="28.11" entered="0.76"/>
        <edge id="0/0tobottom0" traveltime="6.86" entered="0.65"/>
        <edge id="0/0toleft0" traveltime="6.86" entered="0.65"/>
        <edge id="0/1to0/0" traveltime="28.11" entered="0.77"/>
        <edge id="0/1to0/2" traveltime="28.11" entered="0.77"/>
        <edge id="0/1to1/1" traveltime="28.11" entered="0.77"/>
        <edge id="0/1toleft1" traveltime="6.86" entered="0.65"/>
        <edge id="0/2to0/1" traveltime="28.11" entered="0.77"/>
        <edge id="0/2to1/2" traveltime="28.11" entered="0.77"/>
        <edge id="0/2toleft2" traveltime="6.86" entered="0.65"/>
        <edge id="0/2totop0" traveltime="6.86" entered="0.65"/>
        <edge id="1/0to0/0" traveltime="28.11" entered="0.77"/>
        <edge id="1/0to1/1" traveltime="28.11" entered="0.76"/>
        <edge id="1/0to2/0" traveltime="28.11" entered="0.76"/>
        <edge id="1/0tobottom1" traveltime="6.86" entered="0.65"/>
        <edge id="1/1to0/1" traveltime="28.11" entered="0.76"/>
        <edge id="1/1to1/0" traveltime="28.11" entered="0.77"/>
        <edge id="1/1to1/2" traveltime="28.11" entered="0.76"/>
        <edge id="1/1to2/1" traveltime="28.11" entered="0.76"/>
        <edge id="1/2to0/2" traveltime="28.11" entered="0.77"/>
        <edge id="1/2to1/1" traveltime="28.11" entered="0.76"/>
        <edge id="1/2to2/2" traveltime="28.11" entered="0.77"/>
        <edge id="1/2totop1" traveltime="6.86" entered="0.65"/>
        <edge id="2/0to1/0" traveltime="28.11" entered="0.76"/>
        <edge id="2/0to2/1" traveltime="28.11" entered="0.76"/>
        <edge id="2/0tobottom2" traveltime="6.86" entered="0.65"/>
        <edge id="2/0toright0" traveltime="6.86" entered="0.65"/>
        <edge id="2/1to1/1" traveltime="28.11" entered="0.76"/>
        <edge id="2/1to2/0" traveltime="28.11" entered="0.76"/>
        <edge id="2/1to2/2" traveltime="28.11" entered="0.77"/>
        <edge id="2/1toright1" traveltime="6.86" entered="0.65"/>
        <edge id="2/2to1/2" traveltime="28.11" entered="0.77"/>
        <edge id="2/2to2/1" traveltime="28.11" entered="0.76"/>
        <edge id="2/2toright2" traveltime="6.86" entered="0.65"/>
        <edge id="2/2totop2" traveltime="6.86" entered="0.65"/>
        <edge id="bottom0to0/0" traveltime="6.86" entered="0.65"/>
        <edge id="bottom1to1/0" traveltime="6.86" entered="0.65"/>
        <edge id="bottom2to2/0" traveltime="6.86" entered="0.65"/>
        <edge id="left0to0/0" traveltime="6.86" entered="0.65"/>
        <edge id="left1to0/1" traveltime="6.86" entered="0.65"/>
        <edge id="left2to0/2" traveltime="6.86" entered="0.65"/>
        <edge id="right0to2/0" traveltime="6.86" entered="0.65"/>
        <edge id="right1to2/1" traveltime="6.86" entered="0.65"/>
        <edge id="right2to2/2" traveltime="6.86" entered="0.65"/>
        <edge id="top0to0/2" traveltime="6.86" entered="0.65"/>
        <edge id="top1to1/2" traveltime="6.86" entered="0.65"/>
        <edge id="top2to2/2" traveltime="6.86" entered="0.65"/>
    </interval>
    <interval begin="18000.00" end="21600.00">
        <edge id="0/0to0/1" traveltime="28.14" entered="2.01"/>
        <edge id="0/0to1/0" traveltime="28.14" entered="1.99"/>
        <edge id="0/0tobottom0" traveltime="6.86" entered="1.69"/>
        <edge id="0/0toleft0" traveltime="6.86" entered="1.69"/>
        <edge id="0/1to0/0" traveltime="28.14" entered="2.00"/>
        <edge id="0/1to0/2" traveltime="28.14" entered="2.00"/>
        <edge id="0/1to1/1" traveltime="28.14" entered="2.00"/>
        <edge id="0/1toleft1" traveltime="6.86" entered="1.69"/>
        <edge id="0/2to0/1" traveltime="28.14" entered="2.00"/>
        <edge id="0/2to1/2" traveltime="28.14" entered="2.00"/>
        <edge id="0/2toleft2" traveltime="6.86" entered="1.69"/>
        <edge id="0/2totop0" traveltime="6.86" entered="1.69"/>
        <edge id="1/0to0/0" traveltime="28.14" entered="2.00"/>
        <edge id="1/0to1/1" traveltime="28.14" entered="1.99"/>
        <edge id="1/0to2/0" traveltime="28.14" entered="1.99"/>
        <edge id="1/0tobottom1" traveltime="6.86" entered="1.69"/>
        <edge id="1/1to0/1" traveltime="28.14" entered="1.99"/>
        <edge id="1/1to1/0" traveltime="28.14" entered="2.00"/>
        <edge id="1/1to1/2" traveltime="28.14" entered="1.98"/>
        <edge id="1/1to2/1" traveltime="28.14" entered="2.00"/>
        <edge id="1/2to0/2" traveltime="28.14" entered="2.00"/>
        <edge id="1/2to1/1" traveltime="28.14" entered="2.00"/>
        <edge id="1/2to2/2" traveltime="28.14" entered="2.00"/>
        <edge id="1/2totop1" traveltime="6.86" entered="1.69"/>
        <edge id="2/0to1/0" traveltime="28.14" entered="1.99"/>
        <edge id="2/0to2/1" traveltime="28.14" entered="1.98"/>
        <edge id="2/0tobottom2" traveltime="6.86" entered="1.69"/>
        <edge id="2/0toright0" traveltime="6.86" entered="1.69"/>
        <edge id="2/1to1/1" traveltime="28.14" entered="1.98"/>
        <edge id="2/1to2/0" traveltime="28.14" entered="1.98"/>
        <edge id="2/1to2/2" traveltime="28.14" entered="2.00"/>
        <edge id="2/1toright1" traveltime="6.86" entered="1.69"/>
        <edge id="2/2to1/2" traveltime="28.14" entered="2.01"/>
        <edge id="2/2to2/1" traveltime="28.14" entered="1.98"/>
        <edge id="2/2toright2" traveltime="6.86" entered="1.69"/>
        <edge id="2/2totop2" traveltime="6.86" entered="1.69"/>
        <edge id="bottom0to0/0" traveltime="6.86" entered="1.69"/>
        <edge id="bottom1to1/0" traveltime="6.86" entered="1.69"/>
        <edge id="bottom2to2/0" traveltime="6.86" entered="1.69"/>
        <edge id="left0to0/0" traveltime="6.86" entered="1.69"/>
        <edge id="left1to0/1" traveltime="6.86" entered="1.69"/>
        <edge id="left2to0/2" traveltime="6.86" entered="1.69"/>
        <edge id="right0to2/0" traveltime="6.86" entered="1.69"/>
        <edge id="right1to2/1" traveltime="6.86" entered="1.69"/>
        <edge id="right2to2/2" traveltime="6.86" entered="1.69"/>
        <edge id="top0to0/2" traveltime="6.86" entered="1.69"/>
        <edge id="top1to1/2" traveltime="6.86" entered="1.69"/>
        <edge id="top2to2/2" traveltime="6.86" entered="1.69"/>
    </interval>
    <interval begin="21600.00" end="25200.00">
        <edge id="0/0to0/1" traveltime="28.33" entered="10.82"/>
        <edge id="0/0to1/0" traveltime="28.32" entered="10.68"/>
        <edge id="0/0tobottom0" traveltime="6.90" entered="9.10"/>
        <edge id="0/0toleft0" traveltime="6.90" entered="9.10"/>
        <edge id="0/1to0/0" traveltime="28.33" entered="10.75"/>
        <edge id="0/1to0/2" traveltime="28.33" entered="10.82"/>
        <edge id="0/1to1/1" traveltime="28.33" entered="10.75"/>
        <edge id="0/1toleft1" traveltime="6.90" entered="9.10"/>
        <edge id="0/2to0/1" traveltime="28.33" entered="10.78"/>
        <edge id="0/2to1/2" traveltime="28.33" entered="10.78"/>
        <edge id="0/2toleft2" traveltime="6.90" entered="9.10"/>
        <edge id="0/2totop0" traveltime="6.90" entered="9.10"/>
        <edge id="1/0to0/0" traveltime="28.33" entered="10.75"/>
        <edge id="1/0to1/1" traveltime="28.32" entered="10.68"/>
        <edge id="1/0to2/0" traveltime="28.33" entered="10.75"/>
        <edge id="1/0tobottom1" traveltime="6.90" entered="9.10"/>
        <edge id="1/1to0/1" traveltime="28.32" entered="10.71"/>
        <edge id="1/1to1/0" traveltime="28.33" entered="10.75"/>
        <edge id="1/1to1/2" traveltime="28.32" entered="10.64"/>
        <edge id="1/1to2/1" traveltime="28.32" entered="10.71"/>
        <edge id="1/2to0/2" traveltime="28.33" entered="10.75"/>
        <edge id="1/2to1/1" traveltime="28.32" entered="10.68"/>
        <edge id="1/2to2/2" traveltime="28.33" entered="10.75"/>
        <edge id="1/2totop1" traveltime="6.90" entered="9.10"/>
        <edge id="2/0to1/0" traveltime="28.33" entered="10.75"/>
        <edge id="2/0to2/1" traveltime="28.32" entered="10.71"/>
        <edge id="2/0tobottom2" traveltime="6.90" entered="9.10"/>
        <edge id="2/0toright0" traveltime="6.90" entered="9.10"/>
        <edge id="2/1to1/1" traveltime="28.32" entered="10.71"/>
        <edge id="2/1to2/0" traveltime="28.32" entered="10.71"/>
        <edge id="2/1to2/2" traveltime="28.33" entered="10.75"/>
        <edge id="2/1toright1" traveltime="6.90" entered="9.10"/>
        <edge id="2/2to1/2" traveltime="28.33" entered="10.75"/>
        <edge id="2/2to2/1" traveltime="28.33" entered="10.75"/>
        <edge id="2/2toright2" traveltime="6.90" entered="9.10"/>
        <edge id="2/2totop2" traveltime="6.90" entered="9.10"/>
        <edge id="bottom0to0/0" traveltime="6.90" entered="9.10"/>
        <edge id="bottom1to1/0" traveltime="6.90" entered="9.10"/>
        <edge id="bottom2to2/0" traveltime="6.90" entered="9.10"/>
        <edge id="left0to0/0" traveltime="6.90" entered="9.10"/>
        <edge id="left1to0/1" traveltime="6.90" entered="9.10"/>
        <edge id="left2to0/2" traveltime="6.90" entered="9.10"/>
        <edge id="right0to2/0" traveltime="6.90" entered="9.10"/>
        <edge id="right1to2/1" traveltime="6.90" entered="9.10"/>
        <edge id="right2to2/2" traveltime="6.90" entered="9.10"/>
        <edge id="top0to0/2" traveltime="6.90" entered="9.10"/>
        <edge id="top1to1/2" traveltime="6.90" entered="9.10"/>
        <edge id="top2to2/2" traveltime="6.90" entered="9.10"/>
    </interval>
    <interval begin="25200.00" end="28800.00">
        <edge id="0/0to0/1" traveltime="28.41" entered="14.46"/>
        <edge id="0/0to1/0" traveltime="28.40" entered="14.14"/>
        <edge id="0/0tobottom0" traveltime="6.92" entered="12.09"/>
        <edge id="0/0toleft0" traveltime="6.92" entered="12.09"/>
        <edge id="0/1to0/0" traveltime="28.40" entered="14.37"/>
        <edge id="0/1to0/2" traveltime="28.40" entered="14.32"/>
        <edge id="0/1to1/1" traveltime="28.40" entered="14.32"/>
        <edge id="0/1toleft1" traveltime="6.92" entered="12.09"/>
        <edge id="0/2to0/1" traveltime="28.40" entered="14.28"/>
        <edge id="0/2to1/2" traveltime="28.40" entered="14.32"/>
        <edge id="0/2toleft2" traveltime="6.92" entered="12.09"/>
        <edge id="0/2totop0" traveltime="6.92" entered="12.09"/>
        <edge id="1/0to0/0" traveltime="28.40" entered="14.23"/>
        <edge id="1/0to1/1" traveltime="28.40" entered="14.14"/>
        <edge id="1/0to2/0" traveltime="28.40" entered="14.28"/>
        <edge id="1/0tobottom1" traveltime="6.92" entered="12.09"/>
        <edge id="1/1to0/1" traveltime="28.40" entered="14.28"/>
        <edge id="1/1to1/0" traveltime="28.40" entered="14.23"/>
        <edge id="1/1to1/2" traveltime="28.40" entered="14.18"/>
        <edge id="1/1to2/1" traveltime="28.40" entered="14.23"/>
        <edge id="1/2to0/2" traveltime="28.40" entered="14.28"/>
        <edge id="1/2to1/1" traveltime="28.40" entered="14.28"/>
        <edge id="1/2to2/2" traveltime="28.40" entered="14.28"/>
        <edge id="1/2totop1" traveltime="6.92" entered="12.09"/>
        <edge id="2/0to1/0" traveltime="28.40" entered="14.28"/>
        <edge id="2/0to2/1" traveltime="28.40" entered="14.18"/>
        <edge id="2/0tobottom2" traveltime="6.92" entered="12.09"/>
        <edge id="2/0toright0" traveltime="6.92" entered="12.09"/>
        <edge id="2/1to1/1" traveltime="28.40" entered="14.18"/>
        <edge id="2/1to2/0" traveltime="28.40" entered="14.18"/>
        <edge id="2/1to2/2" traveltime="28.40" entered="14.28"/>
        <edge id="2/1toright1" traveltime="6.92" entered="12.09"/>
        <edge id="2/2to1/2" traveltime="28.40" entered="14.32"/>
        <edge id="2/2to2/1" traveltime="28.40" entered="14.23"/>
        <edge id="2/2toright2" traveltime="6.92" entered="12.09"/>
        <edge id="2/2totop2" traveltime="6.92" entered="12.09"/>
        <edge id="bottom0to0/0" traveltime="6.92" entered="12.09"/>
        <edge id="bottom1to1/0" traveltime="6.92" entered="12.09"/>
        <edge id="bottom2to2/0" traveltime="6.92" entered="12.09"/>
        <edge id="left0to0/0" traveltime="6.92" entered="12.09"/>
        <edge id="left1to0/1" traveltime="6.92" entered="12.09"/>
        <edge id="left2to0/2" traveltime="6.92" entered="12.09"/>
        <edge id="right0to2/0" traveltime="6.92" entered="12.09"/>
        <edge id="right1to2/1" traveltime="6.92" entered="12.09"/>
        <edge id="right2to2/2" traveltime="6.92" entered="12.09"/>
        <edge id="top0to0/2" traveltime="6.92" entered="12.09"/>
        <edge id="top1to1/2" traveltime="6.92" entered="12.09"/>
        <edge id="top2to2/2" traveltime="6.92" entered="12.09"/>
    </interval>
    <interval begin="28800.00" end="32400.00">
        <edge id="0/0to0/1" traveltime="28.32" entered="10.35"/>
        <edge id="0/0to1/0" traveltime="28.32" entered="10.25"/>
        <edge id="0/0tobottom0" traveltime="6.90" entered="8.71"/>
        <edge id="0/0toleft0" traveltime="6.90" entered="8.71"/>
        <edge id="0/1to0/0" traveltime="28.32" entered="10.32"/>
        <edge id="0/1to0/2" traveltime="28.32" entered="10.32"/>
        <edge id="0/1to1/1" traveltime="28.32" entered="10.28"/>
        <edge id="0/1toleft1" traveltime="6.90" entered="8.71"/>
        <edge id="0/2to0/1" traveltime="28.32" entered="10.28"/>
        <edge id="0/2to1/2" traveltime="28.32" entered="10.28"/>
        <edge id="0/2toleft2" traveltime="6.90" entered="8.71"/>
        <edge id="0/2totop0" traveltime="6.90" entered="8.71"/>
        <edge id="1/0to0/0" traveltime="28.32" entered="10.28"/>
        <edge id="1/0to1/1" traveltime="28.32" entered="10.25"/>
        <edge id="1/0to2/0" traveltime="28.32" entered="10.25"/>
        <edge id="1/0tobottom1" traveltime="6.90" entered="8.71"/>
        <edge id="1/1to0/1" traveltime="28.32" entered="10.28"/>
        <edge id="1/1to1/0" traveltime="28.32" entered="10.25"/>
        <edge id="1/1to1/2" traveltime="28.31" entered="10.22"/>
        <edge id="1/1to2/1" traveltime="28.32" entered="10.28"/>
        <edge id="1/2to0/2" traveltime="28.32" entered="10.25"/>
        <edge id="1/2to1/1" traveltime="28.32" entered="10.28"/>
        <edge id="1/2to2/2" traveltime="28.32" entered="10.28"/>
        <edge id="1/2totop1" traveltime="6.90" entered="8.71"/>
        <edge id="2/0to1/0" traveltime="28.32" entered="10.28"/>
        <edge id="2/0to2/1" traveltime="28.31" entered="10.22"/>
        <edge id="2/0tobottom2" traveltime="6.90" entered="8.71"/>
        <edge id="2/0toright0" traveltime="6.90" entered="8.71"/>
        <edge id="2/1to1/1" traveltime="28.31" entered="10.22"/>
        <edge id="2/1to2/0" traveltime="28.32" entered="10.25"/>
        <edge id="2/1to2/2" traveltime="28.32" entered="10.28"/>
        <edge id="2/1toright1" traveltime="6.90" entered="8.71"/>
        <edge id="2/2to1/2" traveltime="28.32" entered="10.32"/>
        <edge id="2/2to2/1" traveltime="28.32" entered="10.25"/>
        <edge id="2/2toright2" traveltime="6.90" entered="8.71"/>
        <edge id="2/2totop2" traveltime="6.90" entered="8.71"/>
        <edge id="bottom0to0/0" traveltime="6.90" entered="8.71"/>
        <edge id="bottom1to1/0" traveltime="6.90" entered="8.71"/>
        <edge id="bottom2to2/0" traveltime="6.90" entered="8.71"/>
        <edge id="left0to0/0" traveltime="6.90" entered="8.71"/>
        <edge id="left1to0/1" traveltime="6.90" entered="8.71"/>
        <edge id="left2to0/2" traveltime="6.90" entered="8.71"/>
        <edge id="right0to2/0" traveltime="6.90" entered="8.71"/>
        <edge id="right1to2/1" traveltime="6.90" entered="8.71"/>
        <edge id="right2to2/2" traveltime="6.90" entered="8.71"/>
        <edge id="top0to0/2" traveltime="6.90" entered="8.71"/>
        <edge id="top1to1/2" traveltime="6.90" entered="8.71"/>
        <edge id="top2to2/2" traveltime="6.90" entered="8.71"/>
    </interval>
    <interval begin="32400.00" end="36000.00">
        <edge id="0/0to0/1" traveltime="28.23" entered="6.49"/>
        <edge id="0/0to1/0" traveltime="28.23" entered="6.43"/>
        <edge id="0/0tobottom0" traveltime="6.88" entered="5.46"/>
        <edge id="0/0toleft0" traveltime="6.88" entered="5.46"/>
        <edge id="0/1to0/0" traveltime="28.23" entered="6.47"/>