<?xml version="1.0" encoding="UTF-8"?>

<!-- generated on Mon Nov 19 11:03:23 2018 by Eclipse SUMO Version v1_0_1+0645-93703db
This data file and the accompanying materials
are made available under the terms of the Eclipse Public License v2.0
which accompanies this distribution, and is available at
http://www.eclipse.org/legal/epl-v20.html
SPDX-License-Identifier: EPL-2.0
<configuration xmlns:xsi="http://www.w3.org/2001/XMLSchema-instance" xsi:noNamespaceSchemaLocation="http://sumo.dlr.de/xsd/sumoConfiguration.xsd">

    <input>
        <net-file value="net.net.xml"/>
        <route-files value="input_routes.rou.xml"/>
    </input>

    <output>
        <write-license value="true"/>
        <fcd-output value="fcd.xml"/>
    </output>

    <time>
        <step-length value="0.1"/>
    </time>

    <processing>
        <default.speeddev value="0"/>
    </processing>

    <report>
        <xml-validation value="never"/>
        <no-step-log value="true"/>
    </report>

    <gui_only>
        <tracker-interval value="0.1"/>
    </gui_only>

</configuration>
-->

<fcd-export xmlns:xsi="http://www.w3.org/2001/XMLSchema-instance" xsi:noNamespaceSchemaLocation="http://sumo.dlr.de/xsd/fcd_file.xsd">
    <timestep time="0.00">
        <vehicle id="v0" x="52.31" y="34.06" angle="357.81" type="t0" speed="0.00" pos="17.43" lane="beg2_2" slope="0.00"/>
    </timestep>
    <timestep time="0.10">
        <vehicle id="v0" x="52.31" y="34.09" angle="357.81" type="t0" speed="0.26" pos="17.46" lane="beg2_2" slope="0.00"/>
    </timestep>
    <timestep time="0.20">
        <vehicle id="v0" x="52.31" y="34.14" angle="357.81" type="t0" speed="0.52" pos="17.51" lane="beg2_2" slope="0.00"/>
    </timestep>
    <timestep time="0.30">
        <vehicle id="v0" x="52.31" y="34.22" angle="357.81" type="t0" speed="0.78" pos="17.59" lane="beg2_2" slope="0.00"/>
    </timestep>
    <timestep time="0.40">
        <vehicle id="v0" x="52.30" y="34.32" angle="357.81" type="t0" speed="1.04" pos="17.69" lane="beg2_2" slope="0.00"/>
    </timestep>
    <timestep time="0.50">
        <vehicle id="v0" x="52.30" y="34.45" angle="357.81" type="t0" speed="1.30" pos="17.82" lane="beg2_2" slope="0.00"/>
    </timestep>
    <timestep time="0.60">
        <vehicle id="v0" x="52.29" y="34.61" angle="357.81" type="t0" speed="1.56" pos="17.98" lane="beg2_2" slope="0.00"/>
    </timestep>
    <timestep time="0.70">
        <vehicle id="v0" x="52.28" y="34.79" angle="357.81" type="t0" speed="1.82" pos="18.16" lane="beg2_2" slope="0.00"/>
    </timestep>
    <timestep time="0.80">
        <vehicle id="v0" x="52.28" y="35.00" angle="357.81" type="t0" speed="2.08" pos="18.37" lane="beg2_2" slope="0.00"/>
    </timestep>
    <timestep time="0.90">
        <vehicle id="v0" x="52.27" y="35.23" angle="357.81" type="t0" speed="2.34" pos="18.60" lane="beg2_2" slope="0.00"/>
    </timestep>
    <timestep time="1.00">
        <vehicle id="v0" x="52.26" y="35.49" angle="357.81" type="t0" speed="2.60" pos="18.86" lane="beg2_2" slope="0.00"/>
    </timestep>
    <timestep time="1.10">
        <vehicle id="v0" x="52.25" y="35.78" angle="357.81" type="t0" speed="2.86" pos="19.15" lane="beg2_2" slope="0.00"/>
    </timestep>
    <timestep time="1.20">
        <vehicle id="v0" x="52.24" y="36.09" angle="357.81" type="t0" speed="3.12" pos="19.46" lane="beg2_2" slope="0.00"/>
    </timestep>
    <timestep time="1.30">
        <vehicle id="v0" x="52.22" y="36.42" angle="357.81" type="t0" speed="3.38" pos="19.80" lane="beg2_2" slope="0.00"/>
    </timestep>
    <timestep time="1.40">
        <vehicle id="v0" x="52.21" y="36.79" angle="357.81" type="t0" speed="3.64" pos="20.16" lane="beg2_2" slope="0.00"/>
    </timestep>
    <timestep time="1.50">
        <vehicle id="v0" x="52.19" y="37.18" angle="357.81" type="t0" speed="3.90" pos="20.55" lane="beg2_2" slope="0.00"/>
    </timestep>
    <timestep time="1.60">
        <vehicle id="v0" x="52.18" y="37.59" angle="357.81" type="t0" speed="4.16" pos="20.97" lane="beg2_2" slope="0.00"/>
    </timestep>
    <timestep time="1.70">
        <vehicle id="v0" x="52.16" y="38.03" angle="357.81" type="t0" speed="4.42" pos="21.41" lane="beg2_2" slope="0.00"/>
    </timestep>
    <timestep time="1.80">
        <vehicle id="v0" x="52.14" y="38.50" angle="357.81" type="t0" speed="4.68" pos="21.88" lane="beg2_2" slope="0.00"/>
    </timestep>
    <timestep time="1.90">
        <vehicle id="v0" x="52.12" y="39.00" angle="357.81" type="t0" speed="4.94" pos="22.37" lane="beg2_2" slope="0.00"/>
    </timestep>
    <timestep time="2.00">
        <vehicle id="v0" x="52.10" y="39.51" angle="357.81" type="t0" speed="5.20" pos="22.89" lane="beg2_2" slope="0.00"/>
    </timestep>
    <timestep time="2.10">
        <vehicle id="v0" x="52.08" y="40.06" angle="357.81" type="t0" speed="5.46" pos="23.44" lane="beg2_2" slope="0.00"/>
    </timestep>
    <timestep time="2.20">
        <vehicle id="v0" x="52.06" y="40.63" angle="357.81" type="t0" speed="5.72" pos="24.01" lane="beg2_2" slope="0.00"/>
    </timestep>
    <timestep time="2.30">
        <vehicle id="v0" x="52.04" y="41.23" angle="357.81" type="t0" speed="5.98" pos="24.61" lane="beg2_2" slope="0.00"/>
    </timestep>
    <timestep time="2.40">
        <vehicle id="v0" x="52.01" y="41.85" angle="357.81" type="t0" speed="6.24" pos="25.23" lane="beg2_2" slope="0.00"/>
    </timestep>
    <timestep time="2.50">
        <vehicle id="v0" x="51.99" y="42.50" angle="357.81" type="t0" speed="6.50" pos="25.88" lane="beg2_2" slope="0.00"/>
    </timestep>
    <timestep time="2.60">
        <vehicle id="v0" x="51.96" y="43.18" angle="357.81" type="t0" speed="6.76" pos="26.56" lane="beg2_2" slope="0.00"/>
    </timestep>
    <timestep time="2.70">
        <vehicle id="v0" x="51.94" y="43.88" angle="357.81" type="t0" speed="7.02" pos="27.26" lane="beg2_2" slope="0.00"/>
    </timestep>
    <timestep time="2.80">
        <vehicle id="v0" x="52.02" y="44.89" angle="358.05" type="t0" speed="7.28" pos="0.56" lane=":C_0_2" slope="0.00"/>
    </timestep>
    <timestep time="2.90">
        <vehicle id="v0" x="52.14" y="46.03" angle="358.36" type="t0" speed="7.54" pos="1.31" lane=":C_0_2" slope="0.00"/>
    </timestep>
    <timestep time="3.00">
        <vehicle id="v0" x="52.27" y="47.22" angle="358.66" type="t0" speed="7.80" pos="2.09" lane=":C_0_2" slope="0.00"/>
    </timestep>
    <timestep time="3.10">
        <vehicle id="v0" x="52.39" y="48.44" angle="358.96" type="t0" speed="8.06" pos="2.90" lane=":C_0_2" slope="0.00"/>
    </timestep>
    <timestep time="3.20">
        <vehicle id="v0" x="53.00" y="49.54" angle="0.12" type="t0" speed="8.32" pos="3.73" lane=":C_0_2" slope="0.00"/>
    </timestep>
    <timestep time="3.30">
        <vehicle id="v0" x="53.65" y="50.68" angle="1.33" type="t0" speed="8.58" pos="4.59" lane=":C_0_2" slope="0.00"/>
    </timestep>
    <timestep time="3.40">
        <vehicle id="v0" x="54.40" y="51.75" angle="2.72" type="t0" speed="8.78" pos="5.46" lane=":C_0_2" slope="0.00"/>
    </timestep>
    <timestep time="3.50">
        <vehicle id="v0" x="55.49" y="52.40" angle="4.73" type="t0" speed="8.33" pos="6.30" lane=":C_0_2" slope="0.00"/>
    </timestep>
    <timestep time="3.60">
        <vehicle id="v0" x="56.52" y="53.02" angle="6.65" type="t0" speed="7.88" pos="7.09" lane=":C_0_2" slope="0.00"/>
    </timestep>
    <timestep time="3.70">
        <vehicle id="v0" x="57.52" y="53.51" angle="8.54" type="t0" speed="7.43" pos="7.83" lane=":C_0_2" slope="0.00"/>
    </timestep>
    <timestep time="3.80">
        <vehicle id="v0" x="58.58" y="53.64" angle="10.63" type="t0" speed="6.98" pos="8.53" lane=":C_0_2" slope="0.00"/>
    </timestep>
    <timestep time="3.90">
        <vehicle id="v0" x="59.56" y="53.77" angle="12.63" type="t0" speed="6.53" pos="9.18" lane=":C_0_2" slope="0.00"/>
    </timestep>
    <timestep time="4.00">
        <vehicle id="v0" x="60.48" y="53.88" angle="14.53" type="t0" speed="6.08" pos="9.79" lane=":C_0_2" slope="0.00"/>
    </timestep>
    <timestep time="4.10">
        <vehicle id="v0" x="61.33" y="53.99" angle="16.31" type="t0" speed="5.63" pos="10.35" lane=":C_0_2" slope="0.00"/>
    </timestep>
    <timestep time="4.20">
        <vehicle id="v0" x="61.98" y="54.04" angle="17.76" type="t0" speed="5.18" pos="0.27" lane="end_2" slope="0.00"/>
    </timestep>
    <timestep time="4.30">
        <vehicle id="v0" x="62.45" y="54.03" angle="18.92" type="t0" speed="4.73" pos="0.74" lane="end_2" slope="0.00"/>
    </timestep>
    <timestep time="4.40">
        <vehicle id="v0" x="62.88" y="54.02" angle="19.99" type="t0" speed="4.28" pos="1.17" lane="end_2" slope="0.00"/>
    </timestep>
    <timestep time="4.50">
        <vehicle id="v0" x="63.26" y="54.01" angle="20.97" type="t0" speed="3.83" pos="1.55" lane="end_2" slope="0.00"/>
    </timestep>
    <timestep time="4.60">
        <vehicle id="v0" x="63.60" y="54.01" angle="21.84" type="t0" speed="3.38" pos="1.89" lane="end_2" slope="0.00"/>
    </timestep>
    <timestep time="4.70">
        <vehicle id="v0" x="63.90" y="54.00" angle="22.61" type="t0" speed="2.93" pos="2.19" lane="end_2" slope="0.00"/>
    </timestep>
    <timestep time="4.80">
        <vehicle id="v0" x="64.14" y="54.00" angle="23.27" type="t0" speed="2.48" pos="2.43" lane="end_2" slope="0.00"/>
    </timestep>
    <timestep time="4.90">
        <vehicle id="v0" x="64.35" y="54.00" angle="23.81" type="t0" speed="2.03" pos="2.64" lane="end_2" slope="0.00"/>
    </timestep>
    <timestep time="5.00">
        <vehicle id="v0" x="64.50" y="53.99" angle="24.23" type="t0" speed="1.58" pos="2.80" lane="end_2" slope="0.00"/>
    </timestep>
    <timestep time="5.10">
        <vehicle id="v0" x="64.62" y="53.99" angle="24.53" type="t0" speed="1.13" pos="2.91" lane="end_2" slope="0.00"/>
    </timestep>
    <timestep time="5.20">
        <vehicle id="v0" x="64.69" y="53.99" angle="24.72" type="t0" speed="0.68" pos="2.98" lane="end_2" slope="0.00"/>
    </timestep>
    <timestep time="5.30">
        <vehicle id="v0" x="64.71" y="53.99" angle="24.78" type="t0" speed="0.23" pos="3.00" lane="end_2" slope="0.00"/>
    </timestep>
    <timestep time="5.40">
        <vehicle id="v0" x="64.71" y="53.99" angle="24.78" type="t0" speed="0.00" pos="3.00" lane="end_2" slope="0.00"/>
    </timestep>
    <timestep time="5.50">
        <vehicle id="v0" x="64.68" y="50.69" angle="21.10" type="t0" speed="0.26" pos="3.03" lane="end_1" slope="0.00"/>
    </timestep>
    <timestep time="5.60">
        <vehicle id="v0" x="64.73" y="50.69" angle="21.26" type="t0" speed="0.52" pos="3.08" lane="end_1" slope="0.00"/>
    </timestep>
    <timestep time="5.70">
        <vehicle id="v0" x="64.81" y="50.69" angle="21.51" type="t0" speed="0.78" pos="3.16" lane="end_1" slope="0.00"/>
    </timestep>
    <timestep time="5.80">
        <vehicle id="v0" x="64.91" y="50.68" angle="21.83" type="t0" speed="1.04" pos="3.26" lane="end_1" slope="0.00"/>
    </timestep>
    <timestep time="5.90">
        <vehicle id="v0" x="65.04" y="50.68" angle="22.24" type="t0" speed="1.30" pos="3.39" lane="end_1" slope="0.00"/>
    </timestep>
    <timestep time="6.00">
        <vehicle id="v0" x="65.20" y="50.68" angle="22.74" type="t0" speed="1.56" pos="3.55" lane="end_1" slope="0.00"/>
    </timestep>
    <timestep time="6.10">
        <vehicle id="v0" x="65.38" y="50.68" angle="23.32" type="t0" speed="1.81" pos="3.73" lane="end_1" slope="0.00"/>
    </timestep>
    <timestep time="6.20">
        <vehicle id="v0" x="65.51" y="50.67" angle="23.76" type="t0" speed="1.36" pos="3.86" lane="end_1" slope="0.00"/>
    </timestep>
    <timestep time="6.30">
        <vehicle id="v0" x="65.60" y="50.67" angle="24.05" type="t0" speed="0.91" pos="3.95" lane="end_1" slope="0.00"/>
    </timestep>
    <timestep time="6.40">
        <vehicle id="v0" x="65.65" y="50.67" angle="24.20" type="t0" speed="0.46" pos="4.00" lane="end_1" slope="0.00"/>
    </timestep>
    <timestep time="6.50">
        <vehicle id="v0" x="65.65" y="50.67" angle="24.21" type="t0" speed="0.01" pos="4.00" lane="end_1" slope="0.00"/>
    </timestep>
    <timestep time="6.60">
        <vehicle id="v0" x="65.68" y="50.67" angle="24.29" type="t0" speed="0.27" pos="4.03" lane="end_1" slope="0.00"/>
    </timestep>
    <timestep time="6.70">
        <vehicle id="v0" x="65.73" y="50.67" angle="24.46" type="t0" speed="0.53" pos="4.08" lane="end_1" slope="0.00"/>
    </timestep>
    <timestep time="6.80">
        <vehicle id="v0" x="65.81" y="50.67" angle="24.72" type="t0" speed="0.79" pos="4.16" lane="end_1" slope="0.00"/>
    </timestep>
    <timestep time="6.90">
        <vehicle id="v0" x="65.91" y="50.67" angle="25.07" type="t0" speed="1.05" pos="4.26" lane="end_1" slope="0.00"/>
    </timestep>
    <timestep time="7.00">
        <vehicle id="v0" x="66.04" y="50.67" angle="25.50" type="t0" speed="1.31" pos="4.39" lane="end_1" slope="0.00"/>
    </timestep>
    <timestep time="7.10">
        <vehicle id="v0" x="66.20" y="50.66" angle="26.02" type="t0" speed="1.57" pos="4.55" lane="end_1" slope="0.00"/>
    </timestep>
    <timestep time="7.20">
        <vehicle id="v0" x="66.38" y="50.66" angle="26.63" type="t0" speed="1.83" pos="4.73" lane="end_1" slope="0.00"/>
    </timestep>
    <timestep time="7.30">
        <vehicle id="v0" x="66.59" y="50.66" angle="27.33" type="t0" speed="2.09" pos="4.94" lane="end_1" slope="0.00"/>
    </timestep>
    <timestep time="7.40">
        <vehicle id="v0" x="66.83" y="50.65" angle="28.13" type="t0" speed="2.35" pos="5.18" lane="end_1" slope="0.00"/>
    </timestep>
    <timestep time="7.50">
        <vehicle id="v0" x="67.09" y="50.65" angle="29.02" type="t0" speed="2.61" pos="5.44" lane="end_1" slope="0.00"/>
    </timestep>
    <timestep time="7.60">
        <vehicle id="v0" x="67.37" y="50.64" angle="30.01" type="t0" speed="2.87" pos="5.72" lane="end_1" slope="0.00"/>
    </timestep>
    <timestep time="7.70">
        <vehicle id="v0" x="67.69" y="50.64" angle="31.10" type="t0" speed="3.13" pos="6.04" lane="end_1" slope="0.00"/>
    </timestep>
    <timestep time="7.80">
        <vehicle id="v0" x="68.03" y="50.63" angle="32.29" type="t0" speed="3.39" pos="6.38" lane="end_1" slope="0.00"/>
    </timestep>
    <timestep time="7.90">
        <vehicle id="v0" x="68.39" y="50.63" angle="33.59" type="t0" speed="3.65" pos="6.74" lane="end_1" slope="0.00"/>
    </timestep>
    <timestep time="8.00">
        <vehicle id="v0" x="68.78" y="50.62" angle="34.99" type="t0" speed="3.91" pos="7.13" lane="end_1" slope="0.00"/>
    </timestep>
    <timestep time="8.10">
        <vehicle id="v0" x="69.20" y="50.61" angle="36.49" type="t0" speed="4.17" pos="7.55" lane="end_1" slope="0.00"/>
    </timestep>
    <timestep time="8.20">
        <vehicle id="v0" x="69.64" y="50.60" angle="38.11" type="t0" speed="4.43" pos="7.99" lane="end_1" slope="0.00"/>
    </timestep>
    <timestep time="8.30">
        <vehicle id="v0" x="70.11" y="50.60" angle="39.82" type="t0" speed="4.69" pos="8.46" lane="end_1" slope="0.00"/>
    </timestep>
    <timestep time="8.40">
        <vehicle id="v0" x="70.61" y="50.59" angle="41.64" type="t0" speed="4.95" pos="8.96" lane="end_1" slope="0.00"/>
    </timestep>
    <timestep time="8.50">
        <vehicle id="v0" x="71.13" y="50.58" angle="43.57" type="t0" speed="5.21" pos="9.48" lane="end_1" slope="0.00"/>
    </timestep>
    <timestep time="8.60">
        <vehicle id="v0" x="71.67" y="50.57" angle="45.59" type="t0" speed="5.47" pos="10.02" lane="end_1" slope="0.00"/>
    </timestep>
    <timestep time="8.70">
        <vehicle id="v0" x="72.25" y="50.56" angle="47.70" type="t0" speed="5.73" pos="10.60" lane="end_1" slope="0.00"/>
    </timestep>
    <timestep time="8.80">
        <vehicle id="v0" x="72.84" y="50.55" angle="49.90" type="t0" speed="5.99" pos="11.19" lane="end_1" slope="0.00"/>
    </timestep>
    <timestep time="8.90">
        <vehicle id="v0" x="73.47" y="50.54" angle="52.18" type="t0" speed="6.25" pos="11.82" lane="end_1" slope="0.00"/>
    </timestep>
    <timestep time="9.00">
        <vehicle id="v0" x="74.12" y="50.53" angle="54.53" type="t0" speed="6.51" pos="12.47" lane="end_1" slope="0.00"/>
    </timestep>
    <timestep time="9.10">
        <vehicle id="v0" x="74.80" y="50.52" angle="56.93" type="t0" speed="6.77" pos="13.15" lane="end_1" slope="0.00"/>
    </timestep>
    <timestep time="9.20">
        <vehicle id="v0" x="75.50" y="50.50" angle="59.38" type="t0" speed="7.03" pos="13.85" lane="end_1" slope="0.00"/>
    </timestep>
    <timestep time="9.30">
        <vehicle id="v0" x="76.23" y="50.49" angle="61.87" type="t0" speed="7.29" pos="14.58" lane="end_1" slope="0.00"/>
    </timestep>
    <timestep time="9.40">
        <vehicle id="v0" x="76.98" y="50.48" angle="64.37" type="t0" speed="7.55" pos="15.33" lane="end_1" slope="0.00"/>
    </timestep>
    <timestep time="9.50">
        <vehicle id="v0" x="77.76" y="50.47" angle="66.87" type="t0" speed="7.81" pos="16.11" lane="end_1" slope="0.00"/>
    </timestep>
    <timestep time="9.60">
        <vehicle id="v0" x="78.57" y="50.45" angle="69.37" type="t0" speed="8.07" pos="16.92" lane="end_1" slope="0.00"/>
    </timestep>
    <timestep time="9.70">
        <vehicle id="v0" x="79.40" y="50.44" angle="71.85" type="t0" speed="8.33" pos="17.75" lane="end_1" slope="0.00"/>
    </timestep>
    <timestep time="9.80">
        <vehicle id="v0" x="80.26" y="50.42" angle="74.29" type="t0" speed="8.59" pos="18.61" lane="end_1" slope="0.00"/>
    </timestep>
    <timestep time="9.90">
        <vehicle id="v0" x="81.15" y="50.41" angle="76.68" type="t0" speed="8.85" pos="19.50" lane="end_1" slope="0.00"/>
    </timestep>
    <timestep time="10.00">
        <vehicle id="v0" x="82.06" y="50.39" angle="78.96" type="t0" speed="9.11" pos="20.41" lane="end_1" slope="0.00"/>
    </timestep>
    <timestep time="10.10">
        <vehicle id="v0" x="82.99" y="50.38" angle="81.20" type="t0" speed="9.37" pos="21.34" lane="end_1" slope="0.00"/>
    </timestep>
    <timestep time="10.20">
        <vehicle id="v0" x="83.96" y="50.36" angle="83.39" type="t0" speed="9.63" pos="22.31" lane="end_1" slope="0.00"/>
    </timestep>
    <timestep time="10.30">
        <vehicle id="v0" x="84.95" y="50.34" angle="85.23" type="t0" speed="9.89" pos="23.30" lane="end_1" slope="0.00"/>
    </timestep>
    <timestep time="10.40">
        <vehicle id="v0" x="85.96" y="50.33" angle="87.06" type="t0" speed="10.15" pos="24.31" lane="end_1" slope="0.00"/>
    </timestep>
    <timestep time="10.50">
        <vehicle id="v0" x="87.00" y="50.31" angle="88.41" type="t0" speed="10.41" pos="25.35" lane="end_1" slope="0.00"/>
    </timestep>
    <timestep time="10.60">
        <vehicle id="v0" x="88.07" y="50.29" angle="89.50" type="t0" speed="10.67" pos="26.42" lane="end_1" slope="0.00"/>
    </timestep>
    <timestep time="10.70">
        <vehicle id="v0" x="89.16" y="50.27" angle="90.29" type="t0" speed="10.93" pos="27.51" lane="end_1" slope="0.00"/>
    </timestep>
    <timestep time="10.80">
        <vehicle id="v0" x="90.28" y="50.25" angle="90.60" type="t0" speed="11.19" pos="28.63" lane="end_1" slope="0.00"/>
    </timestep>
    <timestep time="10.90">
        <vehicle id="v0" x="91.43" y="50.23" angle="90.91" type="t0" speed="11.45" pos="29.78" lane="end_1" slope="0.00"/>
    </timestep>
    <timestep time="11.00">
        <vehicle id="v0" x="92.60" y="50.21" angle="90.97" type="t0" speed="11.71" pos="30.95" lane="end_1" slope="0.00"/>
    </timestep>
    <timestep time="11.10">
        <vehicle id="v0" x="93.79" y="50.19" angle="90.97" type="t0" speed="11.97" pos="32.14" lane="end_1" slope="0.00"/>
    </timestep>
    <timestep time="11.20">
        <vehicle id="v0" x="95.02" y="50.17" angle="90.97" type="t0" speed="12.23" pos="33.37" lane="end_1" slope="0.00"/>
    </timestep>
    <timestep time="11.30">
        <vehicle id="v0" x="96.26" y="50.15" angle="90.97" type="t0" speed="12.49" pos="34.61" lane="end_1" slope="0.00"/>
    </timestep>
    <timestep time="11.40">
        <vehicle id="v0" x="97.54" y="50.13" angle="90.97" type="t0" speed="12.75" pos="35.89" lane="end_1" slope="0.00"/>
    </timestep>
    <timestep time="11.50">
        <vehicle id="v0" x="98.84" y="50.11" angle="90.97" type="t0" speed="13.01" pos="37.19" lane="end_1" slope="0.00"/>
    </timestep>
    <timestep time="11.60">
        <vehicle id="v0" x="100.17" y="50.09" angle="90.97" type="t0" speed="13.27" pos="38.52" lane="end_1" slope="0.00"/>
    </timestep>
    <timestep time="11.70">
        <vehicle id="v0" x="101.52" y="50.06" angle="90.97" type="t0" speed="13.53" pos="39.87" lane="end_1" slope="0.00"/>
    </timestep>
    <timestep time="11.80">
        <vehicle id="v0" x="102.90" y="50.04" angle="90.97" type="t0" speed="13.79" pos="41.25" lane="end_1" slope="0.00"/>
    </timestep>
    <timestep time="11.90">
        <vehicle id="v0" x="104.29" y="50.02" angle="90.97" type="t0" speed="13.89" pos="42.64" lane="end_1" slope="0.00"/>
    </timestep>
    <timestep time="12.00">
        <vehicle id="v0" x="105.68" y="49.99" angle="90.97" type="t0" speed="13.89" pos="44.03" lane="end_1" slope="0.00"/>
    </timestep>
    <timestep time="12.10">
        <vehicle id="v0" x="107.07" y="49.97" angle="90.97" type="t0" speed="13.89" pos="45.42" lane="end_1" slope="0.00"/>
    </timestep>
    <timestep time="12.20">
        <vehicle id="v0" x="108.45" y="49.95" angle="90.97" type="t0" speed="13.89" pos="46.80" lane="end_1" slope="0.00"/>
    </timestep>
    <timestep time="12.30"/>
</fcd-export>
