<?xml version="1.0" encoding="UTF-8"?>

<!-- generated on 2026-03-14T17:58:54.502457+01:00 by Eclipse SUMO sumo v1_26_0+0596-598a13ff2c9
This data file and the accompanying materials
are made available under the terms of the Eclipse Public License v2.0
which accompanies this distribution, and is available at
http://www.eclipse.org/legal/epl-v20.html
This file may also be made available under the following Secondary
Licenses when the conditions for such availability set forth in the Eclipse
Public License 2.0 are satisfied: GNU General Public License, version 2
or later which is available at
https://www.gnu.org/licenses/old-licenses/gpl-2.0-standalone.html
SPDX-License-Identifier: EPL-2.0 OR GPL-2.0-or-later
<sumoConfiguration xmlns:xsi="http://www.w3.org/2001/XMLSchema-instance" xsi:noNamespaceSchemaLocation="http://sumo.dlr.de/xsd/sumoConfiguration.xsd">

    <input>
        <net-file value="net.net.xml"/>
        <route-files value="routes.rou.xml"/>
    </input>

    <output>
        <write-license value="true"/>
        <fcd-output value="fcd.xml"/>
        <fcd-output.attributes value="speed,pos,lane"/>
    </output>

    <processing>
        <default.speeddev value="0"/>
    </processing>

    <report>
        <xml-validation value="never"/>
        <no-step-log value="true"/>
    </report>

    <traci_server>
        <remote-port value="33191"/>
    </traci_server>

</sumoConfiguration>
-->

<fcd-export xmlns:xsi="http://www.w3.org/2001/XMLSchema-instance" xsi:noNamespaceSchemaLocation="http://sumo.dlr.de/xsd/fcd_file.xsd">
    <timestep time="0.00">
        <vehicle id="veh0" speed="0.00" pos="200.00" lane="1si_0"/>
    </timestep>
    <timestep time="1.00">
        <vehicle id="veh0" speed="0.80" pos="200.80" lane="1si_1"/>
    </timestep>
    <timestep time="2.00">
        <vehicle id="veh0" speed="1.60" pos="202.40" lane="1si_2"/>
    </timestep>
    <timestep time="3.00">
        <vehicle id="veh0" speed="2.40" pos="204.80" lane="1si_2"/>
    </timestep>
    <timestep time="4.00">
        <vehicle id="veh0" speed="3.20" pos="208.00" lane="1si_2"/>
    </timestep>
    <timestep time="5.00">
        <vehicle id="veh0" speed="4.00" pos="212.00" lane="1si_2"/>
    </timestep>
    <timestep time="6.00">
        <vehicle id="veh0" speed="4.80" pos="216.80" lane="1si_2"/>
    </timestep>
    <timestep time="7.00">
        <vehicle id="veh0" speed="5.60" pos="222.40" lane="1si_2"/>
    </timestep>
    <timestep time="8.00">
        <vehicle id="veh0" speed="6.40" pos="228.80" lane="1si_2"/>
    </timestep>
    <timestep time="9.00">
        <vehicle id="veh0" speed="7.20" pos="236.00" lane="1si_2"/>
    </timestep>
    <timestep time="10.00">
        <vehicle id="veh0" speed="6.89" pos="5.74" lane=":0_16_0"/>
    </timestep>
    <timestep time="11.00">
        <vehicle id="veh0" speed="7.69" pos="5.20" lane=":0_24_0"/>
    </timestep>
    <timestep time="12.00">
        <vehicle id="veh0" speed="8.49" pos="0.96" lane="4o_1"/>
    </timestep>
    <timestep time="13.00">
        <vehicle id="veh0" speed="9.29" pos="10.25" lane="4o_1"/>
    </timestep>
    <timestep time="14.00">
        <vehicle id="veh0" speed="10.09" pos="20.34" lane="4o_1"/>
    </timestep>
    <timestep time="15.00">
        <vehicle id="veh0" speed="10.89" pos="31.23" lane="4o_1"/>
    </timestep>
    <timestep time="16.00">
        <vehicle id="veh0" speed="11.69" pos="42.92" lane="4o_1"/>
    </timestep>
    <timestep time="17.00">
        <vehicle id="veh0" speed="12.49" pos="55.41" lane="4o_1"/>
    </timestep>
    <timestep time="18.00">
        <vehicle id="veh0" speed="13.29" pos="68.70" lane="4o_1"/>
    </timestep>
    <timestep time="19.00">
        <vehicle id="veh0" speed="14.09" pos="82.79" lane="4o_1"/>
    </timestep>
    <timestep time="20.00">
        <vehicle id="veh0" speed="14.89" pos="97.67" lane="4o_1"/>
    </timestep>
    <timestep time="21.00">
        <vehicle id="veh0" speed="15.69" pos="113.36" lane="4o_1"/>
    </timestep>
    <timestep time="22.00">
        <vehicle id="veh0" speed="16.49" pos="129.85" lane="4o_1"/>
    </timestep>
    <timestep time="23.00">
        <vehicle id="veh0" speed="17.29" pos="147.14" lane="4o_1"/>
    </timestep>
    <timestep time="24.00">
        <vehicle id="veh0" speed="18.09" pos="165.23" lane="4o_1"/>
    </timestep>
    <timestep time="25.00">
        <vehicle id="veh0" speed="18.89" pos="184.12" lane="4o_1"/>
    </timestep>
    <timestep time="26.00">
        <vehicle id="veh0" speed="19.69" pos="203.81" lane="4o_1"/>
    </timestep>
    <timestep time="27.00">
        <vehicle id="veh0" speed="20.49" pos="224.30" lane="4o_1"/>
    </timestep>
    <timestep time="28.00">
        <vehicle id="veh0" speed="21.29" pos="245.59" lane="4o_1"/>
    </timestep>
    <timestep time="29.00">
        <vehicle id="veh0" speed="22.09" pos="267.68" lane="4o_1"/>
    </timestep>
    <timestep time="30.00">
        <vehicle id="veh0" speed="22.89" pos="290.57" lane="4o_1"/>
    </timestep>
    <timestep time="31.00">
        <vehicle id="veh0" speed="23.69" pos="314.26" lane="4o_1"/>
    </timestep>
    <timestep time="32.00">
        <vehicle id="veh0" speed="24.49" pos="338.75" lane="4o_1"/>
    </timestep>
    <timestep time="33.00">
        <vehicle id="veh0" speed="25.29" pos="364.04" lane="4o_1"/>
    </timestep>
    <timestep time="34.00">
        <vehicle id="veh0" speed="26.09" pos="390.13" lane="4o_1"/>
    </timestep>
    <timestep time="35.00">
        <vehicle id="veh0" speed="26.89" pos="417.02" lane="4o_1"/>
    </timestep>
    <timestep time="36.00">
        <vehicle id="veh0" speed="27.69" pos="444.71" lane="4o_1"/>
    </timestep>
    <timestep time="37.00">
        <vehicle id="veh0" speed="28.49" pos="473.20" lane="4o_1"/>
    </timestep>
    <timestep time="38.00">
        <vehicle id="veh0" speed="29.29" pos="9.02" lane="4fi_1"/>
    </timestep>
    <timestep time="39.00">
        <vehicle id="veh0" speed="30.09" pos="39.11" lane="4fi_1"/>
    </timestep>
    <timestep time="40.00">
        <vehicle id="veh0" speed="30.89" pos="69.99" lane="4fi_1"/>
    </timestep>
    <timestep time="41.00">
        <vehicle id="veh0" speed="31.69" pos="101.68" lane="4fi_1"/>
    </timestep>
    <timestep time="42.00">
        <vehicle id="veh0" speed="32.49" pos="134.17" lane="4fi_1"/>
    </timestep>
    <timestep time="43.00">
        <vehicle id="veh0" speed="33.29" pos="167.46" lane="4fi_1"/>
    </timestep>
    <timestep time="44.00">
        <vehicle id="veh0" speed="33.33" pos="200.79" lane="4fi_1"/>
    </timestep>
    <timestep time="45.00">
        <vehicle id="veh0" speed="33.33" pos="234.12" lane="4fi_1"/>
    </timestep>
    <timestep time="46.00">
        <vehicle id="veh0" speed="33.33" pos="15.46" lane="4si_2"/>
    </timestep>
    <timestep time="47.00">
        <vehicle id="veh0" speed="34.13" pos="49.59" lane="4si_2"/>
    </timestep>
    <timestep time="48.00">
        <vehicle id="veh0" speed="34.93" pos="84.52" lane="4si_2"/>
    </timestep>
    <timestep time="49.00">
        <vehicle id="veh0" speed="34.83" pos="119.35" lane="4si_2"/>
    </timestep>
    <timestep time="50.00">
        <vehicle id="veh0" speed="30.33" pos="149.68" lane="4si_2"/>
    </timestep>
    <timestep time="51.00">
        <vehicle id="veh0" speed="25.83" pos="175.51" lane="4si_2"/>
    </timestep>
    <timestep time="52.00">
        <vehicle id="veh0" speed="21.33" pos="196.84" lane="4si_2"/>
    </timestep>
    <timestep time="53.00">
        <vehicle id="veh0" speed="16.83" pos="213.66" lane="4si_2"/>
    </timestep>
    <timestep time="54.00">
        <vehicle id="veh0" speed="12.33" pos="225.99" lane="4si_2"/>
    </timestep>
    <timestep time="55.00">
        <vehicle id="veh0" speed="7.83" pos="233.82" lane="4si_2"/>
    </timestep>
    <timestep time="56.00">
        <vehicle id="veh0" speed="3.33" pos="237.15" lane="4si_2"/>
    </timestep>
    <timestep time="57.00">
        <vehicle id="veh0" speed="0.00" pos="237.15" lane="4si_2"/>
    </timestep>
    <timestep time="58.00">
        <vehicle id="veh0" speed="0.00" pos="237.15" lane="4si_2"/>
    </timestep>
    <timestep time="59.00">
        <vehicle id="veh0" speed="0.00" pos="237.15" lane="4si_2"/>
    </timestep>
    <timestep time="60.00">
        <vehicle id="veh0" speed="0.00" pos="237.15" lane="4si_2"/>
    </timestep>
    <timestep time="61.00">
        <vehicle id="veh0" speed="0.00" pos="237.15" lane="4si_2"/>
    </timestep>
    <timestep time="62.00">
        <vehicle id="veh0" speed="0.00" pos="237.15" lane="4si_2"/>
    </timestep>
    <timestep time="63.00">
        <vehicle id="veh0" speed="0.00" pos="237.15" lane="4si_2"/>
    </timestep>
    <timestep time="64.00">
        <vehicle id="veh0" speed="0.00" pos="237.15" lane="4si_2"/>
    </timestep>
    <timestep time="65.00">
        <vehicle id="veh0" speed="0.00" pos="237.15" lane="4si_2"/>
    </timestep>
    <timestep time="66.00">
        <vehicle id="veh0" speed="0.00" pos="237.15" lane="4si_2"/>
    </timestep>
    <timestep time="67.00">
        <vehicle id="veh0" speed="0.00" pos="237.15" lane="4si_2"/>
    </timestep>
    <timestep time="68.00">
        <vehicle id="veh0" speed="0.00" pos="237.15" lane="4si_2"/>
    </timestep>
    <timestep time="69.00">
        <vehicle id="veh0" speed="0.00" pos="237.15" lane="4si_2"/>
    </timestep>
    <timestep time="70.00">
        <vehicle id="veh0" speed="0.00" pos="237.15" lane="4si_2"/>
    </timestep>
    <timestep time="71.00">
        <vehicle id="veh0" speed="0.00" pos="237.15" lane="4si_2"/>
    </timestep>
    <timestep time="72.00">
        <vehicle id="veh0" speed="0.00" pos="237.15" lane="4si_2"/>
    </timestep>
    <timestep time="73.00">
        <vehicle id="veh0" speed="0.00" pos="237.15" lane="4si_2"/>
    </timestep>
    <timestep time="74.00">
        <vehicle id="veh0" speed="0.00" pos="237.15" lane="4si_2"/>
    </timestep>
    <timestep time="75.00">
        <vehicle id="veh0" speed="0.00" pos="237.15" lane="4si_2"/>
    </timestep>
    <timestep time="76.00">
        <vehicle id="veh0" speed="0.00" pos="237.15" lane="4si_2"/>
    </timestep>
    <timestep time="77.00">
        <vehicle id="veh0" speed="0.00" pos="237.15" lane="4si_2"/>
    </timestep>
    <timestep time="78.00">
        <vehicle id="veh0" speed="0.00" pos="237.15" lane="4si_2"/>
    </timestep>
    <timestep time="79.00">
        <vehicle id="veh0" speed="0.00" pos="237.15" lane="4si_2"/>
    </timestep>
    <timestep time="80.00">
        <vehicle id="veh0" speed="0.00" pos="237.15" lane="4si_2"/>
    </timestep>
    <timestep time="81.00">
        <vehicle id="veh0" speed="0.00" pos="237.15" lane="4si_2"/>
    </timestep>
    <timestep time="82.00">
        <vehicle id="veh0" speed="0.00" pos="237.15" lane="4si_2"/>
    </timestep>
    <timestep time="83.00">
        <vehicle id="veh0" speed="0.00" pos="237.15" lane="4si_2"/>
    </timestep>
    <timestep time="84.00">
        <vehicle id="veh0" speed="0.00" pos="237.15" lane="4si_2"/>
    </timestep>
    <timestep time="85.00">
        <vehicle id="veh0" speed="0.00" pos="237.15" lane="4si_2"/>
    </timestep>
    <timestep time="86.00">
        <vehicle id="veh0" speed="0.00" pos="237.15" lane="4si_2"/>
    </timestep>
    <timestep time="87.00">
        <vehicle id="veh0" speed="0.00" pos="237.15" lane="4si_2"/>
    </timestep>
    <timestep time="88.00">
        <vehicle id="veh0" speed="0.00" pos="237.15" lane="4si_2"/>
    </timestep>
    <timestep time="89.00">
        <vehicle id="veh0" speed="0.00" pos="237.15" lane="4si_2"/>
    </timestep>
    <timestep time="90.00">
        <vehicle id="veh0" speed="0.00" pos="237.15" lane="4si_2"/>
    </timestep>
    <timestep time="91.00">
        <vehicle id="veh0" speed="0.00" pos="237.15" lane="4si_2"/>
    </timestep>
    <timestep time="92.00">
        <vehicle id="veh0" speed="0.00" pos="237.15" lane="4si_2"/>
    </timestep>
    <timestep time="93.00">
        <vehicle id="veh0" speed="0.00" pos="237.15" lane="4si_2"/>
    </timestep>
    <timestep time="94.00">
        <vehicle id="veh0" speed="0.00" pos="237.15" lane="4si_2"/>
    </timestep>
    <timestep time="95.00">
        <vehicle id="veh0" speed="0.00" pos="237.15" lane="4si_2"/>
    </timestep>
    <timestep time="96.00">
        <vehicle id="veh0" speed="0.00" pos="237.15" lane="4si_2"/>
    </timestep>
    <timestep time="97.00">
        <vehicle id="veh0" speed="0.00" pos="237.15" lane="4si_2"/>
    </timestep>
    <timestep time="98.00">
        <vehicle id="veh0" speed="0.00" pos="237.15" lane="4si_2"/>
    </timestep>
    <timestep time="99.00">
        <vehicle id="veh0" speed="0.00" pos="237.15" lane="4si_2"/>
    </timestep>
    <timestep time="100.00">
        <vehicle id="veh0" speed="0.00" pos="237.15" lane="4si_2"/>
    </timestep>
    <timestep time="101.00">
        <vehicle id="veh0" speed="0.00" pos="237.15" lane="4si_2"/>
    </timestep>
    <timestep time="102.00">
        <vehicle id="veh0" speed="0.00" pos="237.15" lane="4si_2"/>
    </timestep>
</fcd-export>
