<?xml version="1.0" encoding="UTF-8"?>

<!-- generated on Tue Sep 11 17:51:28 2018 by Eclipse SUMO Version v1_0_0+0120-da4ec75
This data file and the accompanying materials
are made available under the terms of the Eclipse Public License v2.0
which accompanies this distribution, and is available at
http://www.eclipse.org/legal/epl-v20.html
SPDX-License-Identifier: EPL-2.0
<configuration xmlns:xsi="http://www.w3.org/2001/XMLSchema-instance" xsi:noNamespaceSchemaLocation="http://sumo.dlr.de/xsd/sumoConfiguration.xsd">

    <input>
        <net-file value="net.net.xml"/>
        <route-files value="input_routes.rou.xml"/>
    </input>

    <output>
        <write-license value="true"/>
        <fcd-output value="fcd.xml"/>
        <fcd-output.signals value="true"/>
        <tripinfo-output value="tripinfos.xml"/>
    </output>

    <processing>
        <default.speeddev value="0"/>
    </processing>

    <report>
        <xml-validation value="never"/>
        <no-step-log value="true"/>
    </report>

</configuration>
-->

<fcd-export xmlns:xsi="http://www.w3.org/2001/XMLSchema-instance" xsi:noNamespaceSchemaLocation="http://sumo.dlr.de/xsd/fcd_file.xsd">
    <timestep time="0.00">
        <vehicle id="stopped" x="40.00" y="-1.65" angle="90.00" type="noCoop" speed="0.00" pos="40.00" lane="VODUGES_beg_0" slope="0.00" signals="0"/>
    </timestep>
    <timestep time="1.00">
        <vehicle id="stopped" x="42.22" y="-1.65" angle="90.00" type="noCoop" speed="2.22" pos="42.22" lane="VODUGES_beg_0" slope="0.00" signals="0"/>
    </timestep>
    <timestep time="2.00">
        <vehicle id="stopped" x="47.01" y="-1.65" angle="90.00" type="noCoop" speed="4.79" pos="47.01" lane="VODUGES_beg_0" slope="0.00" signals="0"/>
    </timestep>
    <timestep time="3.00">
        <vehicle id="oncoming1" x="100.00" y="1.65" angle="270.00" type="DEFAULT_VEHTYPE" speed="0.00" pos="100.00" lane="-VODUGES_beg_0" slope="0.00" signals="0"/>
        <vehicle id="overtaking" x="0.00" y="-1.65" angle="90.00" type="DEFAULT_VEHTYPE" speed="0.00" pos="0.00" lane="VODUGES_beg_0" slope="0.00" signals="0"/>
        <vehicle id="stopped" x="54.66" y="-1.65" angle="90.00" type="noCoop" speed="7.65" pos="54.66" lane="VODUGES_beg_0" slope="0.00" signals="0"/>
        <vehicle id="stopped2" x="40.00" y="-1.65" angle="90.00" type="DEFAULT_VEHTYPE" speed="0.00" pos="40.00" lane="VODUGES_beg_0" slope="0.00" signals="0"/>
    </timestep>
    <timestep time="4.00">
        <vehicle id="oncoming1" x="97.40" y="1.65" angle="270.00" type="DEFAULT_VEHTYPE" speed="2.60" pos="102.60" lane="-VODUGES_beg_0" slope="0.00" signals="0"/>
        <vehicle id="overtaking" x="2.60" y="-1.65" angle="90.00" type="DEFAULT_VEHTYPE" speed="2.60" pos="2.60" lane="VODUGES_beg_0" slope="0.00" signals="0"/>
        <vehicle id="stopped" x="57.82" y="-1.65" angle="90.00" type="noCoop" speed="3.15" pos="57.82" lane="VODUGES_beg_0" slope="0.00" signals="8"/>
        <vehicle id="stopped2" x="42.60" y="-1.65" angle="90.00" type="DEFAULT_VEHTYPE" speed="2.60" pos="42.60" lane="VODUGES_beg_0" slope="0.00" signals="0"/>
    </timestep>
    <timestep time="5.00">
        <vehicle id="oncoming1" x="92.20" y="1.65" angle="270.00" type="DEFAULT_VEHTYPE" speed="5.20" pos="107.80" lane="-VODUGES_beg_0" slope="0.00" signals="0"/>
        <vehicle id="overtaking" x="7.80" y="-1.65" angle="90.00" type="DEFAULT_VEHTYPE" speed="5.20" pos="7.80" lane="VODUGES_beg_0" slope="0.00" signals="0"/>
        <vehicle id="stopped" x="57.95" y="-1.65" angle="90.00" type="noCoop" speed="0.13" pos="57.95" lane="VODUGES_beg_0" slope="0.00" signals="8"/>
        <vehicle id="stopped2" x="47.80" y="-1.65" angle="90.00" type="DEFAULT_VEHTYPE" speed="5.20" pos="47.80" lane="VODUGES_beg_0" slope="0.00" signals="0"/>
    </timestep>
    <timestep time="6.00">
        <vehicle id="oncoming1" x="84.40" y="1.65" angle="270.00" type="DEFAULT_VEHTYPE" speed="7.80" pos="115.60" lane="-VODUGES_beg_0" slope="0.00" signals="0"/>
        <vehicle id="overtaking" x="15.60" y="-1.65" angle="90.00" type="DEFAULT_VEHTYPE" speed="7.80" pos="15.60" lane="VODUGES_beg_0" slope="0.00" signals="0"/>
        <vehicle id="stopped" x="57.99" y="-1.65" angle="90.00" type="noCoop" speed="0.04" pos="57.99" lane="VODUGES_beg_0" slope="0.00" signals="8"/>
        <vehicle id="stopped2" x="50.00" y="-1.65" angle="90.00" type="DEFAULT_VEHTYPE" speed="2.20" pos="50.00" lane="VODUGES_beg_0" slope="0.00" signals="8"/>
    </timestep>
    <timestep time="7.00">
        <vehicle id="oncoming1" x="74.00" y="1.65" angle="270.00" type="DEFAULT_VEHTYPE" speed="10.40" pos="126.00" lane="-VODUGES_beg_0" slope="0.00" signals="0"/>
        <vehicle id="overtaking" x="26.00" y="-1.65" angle="90.00" type="DEFAULT_VEHTYPE" speed="10.40" pos="26.00" lane="VODUGES_beg_0" slope="0.00" signals="0"/>
        <vehicle id="stopped" x="57.99" y="-1.65" angle="90.00" type="noCoop" speed="0.00" pos="57.99" lane="VODUGES_beg_0" slope="0.00" signals="8"/>
        <vehicle id="stopped2" x="50.00" y="-1.65" angle="90.00" type="DEFAULT_VEHTYPE" speed="0.00" pos="50.00" lane="VODUGES_beg_0" slope="0.00" signals="8"/>
    </timestep>
    <timestep time="8.00">
        <vehicle id="oncoming1" x="61.00" y="1.65" angle="270.00" type="DEFAULT_VEHTYPE" speed="13.00" pos="139.00" lane="-VODUGES_beg_0" slope="0.00" signals="0"/>
        <vehicle id="oncoming2" x="180.00" y="1.65" angle="270.00" type="DEFAULT_VEHTYPE" speed="0.00" pos="20.00" lane="-VODUGES_beg_0" slope="0.00" signals="0"/>
        <vehicle id="oncoming3" x="200.00" y="1.65" angle="270.00" type="DEFAULT_VEHTYPE" speed="0.00" pos="0.00" lane="-VODUGES_beg_0" slope="0.00" signals="0"/>
        <vehicle id="overtaking" x="36.00" y="-1.65" angle="90.00" type="DEFAULT_VEHTYPE" speed="10.00" pos="36.00" lane="VODUGES_beg_0" slope="0.00" signals="0"/>
        <vehicle id="stopped" x="57.99" y="-1.65" angle="90.00" type="noCoop" speed="0.00" pos="57.99" lane="VODUGES_beg_0" slope="0.00" signals="0"/>
        <vehicle id="stopped2" x="50.00" y="-1.65" angle="90.00" type="DEFAULT_VEHTYPE" speed="0.00" pos="50.00" lane="VODUGES_beg_0" slope="0.00" signals="0"/>
    </timestep>
    <timestep time="9.00">
        <vehicle id="oncoming1" x="47.11" y="1.65" angle="270.00" type="DEFAULT_VEHTYPE" speed="13.89" pos="152.89" lane="-VODUGES_beg_0" slope="0.00" signals="0"/>
        <vehicle id="oncoming2" x="177.40" y="1.65" angle="270.00" type="DEFAULT_VEHTYPE" speed="2.60" pos="22.60" lane="-VODUGES_beg_0" slope="0.00" signals="0"/>
        <vehicle id="oncoming3" x="197.40" y="1.65" angle="270.00" type="DEFAULT_VEHTYPE" speed="2.60" pos="2.60" lane="-VODUGES_beg_0" slope="0.00" signals="0"/>
        <vehicle id="overtaking" x="41.50" y="-1.65" angle="90.00" type="DEFAULT_VEHTYPE" speed="5.50" pos="41.50" lane="VODUGES_beg_0" slope="0.00" signals="8"/>
        <vehicle id="stopped" x="57.99" y="-1.65" angle="90.00" type="noCoop" speed="0.00" pos="57.99" lane="VODUGES_beg_0" slope="0.00" signals="0"/>
        <vehicle id="stopped2" x="50.00" y="-1.65" angle="90.00" type="DEFAULT_VEHTYPE" speed="0.00" pos="50.00" lane="VODUGES_beg_0" slope="0.00" signals="0"/>
    </timestep>
    <timestep time="10.00">
        <vehicle id="oncoming1" x="33.22" y="1.65" angle="270.00" type="DEFAULT_VEHTYPE" speed="13.89" pos="166.78" lane="-VODUGES_beg_0" slope="0.00" signals="0"/>
        <vehicle id="oncoming2" x="172.20" y="1.65" angle="270.00" type="DEFAULT_VEHTYPE" speed="5.20" pos="27.80" lane="-VODUGES_beg_0" slope="0.00" signals="0"/>
        <vehicle id="oncoming3" x="192.20" y="1.65" angle="270.00" type="DEFAULT_VEHTYPE" speed="5.20" pos="7.80" lane="-VODUGES_beg_0" slope="0.00" signals="0"/>
        <vehicle id="overtaking" x="42.50" y="-1.65" angle="90.00" type="DEFAULT_VEHTYPE" speed="1.00" pos="42.50" lane="VODUGES_beg_0" slope="0.00" signals="8"/>
        <vehicle id="stopped" x="57.99" y="-1.65" angle="90.00" type="noCoop" speed="0.00" pos="57.99" lane="VODUGES_beg_0" slope="0.00" signals="0"/>
        <vehicle id="stopped2" x="50.00" y="-1.65" angle="90.00" type="DEFAULT_VEHTYPE" speed="0.00" pos="50.00" lane="VODUGES_beg_0" slope="0.00" signals="0"/>
    </timestep>
    <timestep time="11.00">
        <vehicle id="oncoming1" x="19.33" y="1.65" angle="270.00" type="DEFAULT_VEHTYPE" speed="13.89" pos="180.67" lane="-VODUGES_beg_0" slope="0.00" signals="0"/>
        <vehicle id="oncoming2" x="164.40" y="1.65" angle="270.00" type="DEFAULT_VEHTYPE" speed="7.80" pos="35.60" lane="-VODUGES_beg_0" slope="0.00" signals="0"/>
        <vehicle id="oncoming3" x="184.40" y="1.65" angle="270.00" type="DEFAULT_VEHTYPE" speed="7.80" pos="15.60" lane="-VODUGES_beg_0" slope="0.00" signals="0"/>
        <vehicle id="overtaking" x="42.50" y="1.65" angle="90.00" type="DEFAULT_VEHTYPE" speed="0.00" pos="157.50" lane="-VODUGES_beg_0" slope="0.00" signals="8"/>
        <vehicle id="stopped" x="57.99" y="-1.65" angle="90.00" type="noCoop" speed="0.00" pos="57.99" lane="VODUGES_beg_0" slope="0.00" signals="0"/>
        <vehicle id="stopped2" x="50.00" y="-1.65" angle="90.00" type="DEFAULT_VEHTYPE" speed="0.00" pos="50.00" lane="VODUGES_beg_0" slope="0.00" signals="0"/>
    </timestep>
    <timestep time="12.00">
        <vehicle id="oncoming1" x="5.44" y="1.65" angle="270.00" type="DEFAULT_VEHTYPE" speed="13.89" pos="194.56" lane="-VODUGES_beg_0" slope="0.00" signals="0"/>
        <vehicle id="oncoming2" x="154.00" y="1.65" angle="270.00" type="DEFAULT_VEHTYPE" speed="10.40" pos="46.00" lane="-VODUGES_beg_0" slope="0.00" signals="0"/>
        <vehicle id="oncoming3" x="174.63" y="1.65" angle="270.00" type="DEFAULT_VEHTYPE" speed="9.77" pos="25.37" lane="-VODUGES_beg_0" slope="0.00" signals="0"/>
        <vehicle id="overtaking" x="45.10" y="1.65" angle="90.00" type="DEFAULT_VEHTYPE" speed="2.60" pos="154.90" lane="-VODUGES_beg_0" slope="0.00" signals="0"/>
        <vehicle id="stopped" x="57.99" y="-1.65" angle="90.00" type="noCoop" speed="0.00" pos="57.99" lane="VODUGES_beg_0" slope="0.00" signals="0"/>
        <vehicle id="stopped2" x="50.00" y="-1.65" angle="90.00" type="DEFAULT_VEHTYPE" speed="0.00" pos="50.00" lane="VODUGES_beg_0" slope="0.00" signals="0"/>
    </timestep>
    <timestep time="13.00">
        <vehicle id="oncoming2" x="141.00" y="1.65" angle="270.00" type="DEFAULT_VEHTYPE" speed="13.00" pos="59.00" lane="-VODUGES_beg_0" slope="0.00" signals="0"/>
        <vehicle id="oncoming3" x="163.32" y="1.65" angle="270.00" type="DEFAULT_VEHTYPE" speed="11.31" pos="36.68" lane="-VODUGES_beg_0" slope="0.00" signals="0"/>
        <vehicle id="overtaking" x="50.30" y="1.65" angle="90.00" type="DEFAULT_VEHTYPE" speed="5.20" pos="149.70" lane="-VODUGES_beg_0" slope="0.00" signals="0"/>
        <vehicle id="stopped" x="57.99" y="-1.65" angle="90.00" type="noCoop" speed="0.00" pos="57.99" lane="VODUGES_beg_0" slope="0.00" signals="0"/>
        <vehicle id="stopped2" x="50.00" y="-1.65" angle="90.00" type="DEFAULT_VEHTYPE" speed="0.00" pos="50.00" lane="VODUGES_beg_0" slope="0.00" signals="0"/>
    </timestep>
    <timestep time="14.00">
        <vehicle id="oncoming2" x="127.11" y="1.65" angle="270.00" type="DEFAULT_VEHTYPE" speed="13.89" pos="72.89" lane="-VODUGES_beg_0" slope="0.00" signals="0"/>
        <vehicle id="oncoming3" x="149.74" y="1.65" angle="270.00" type="DEFAULT_VEHTYPE" speed="13.58" pos="50.26" lane="-VODUGES_beg_0" slope="0.00" signals="0"/>
        <vehicle id="overtaking" x="58.10" y="1.65" angle="90.00" type="DEFAULT_VEHTYPE" speed="7.80" pos="141.90" lane="-VODUGES_beg_0" slope="0.00" signals="0"/>
        <vehicle id="stopped" x="61.00" y="-1.65" angle="90.00" type="noCoop" speed="3.01" pos="61.00" lane="VODUGES_beg_0" slope="0.00" signals="0"/>
        <vehicle id="stopped2" x="50.00" y="-1.65" angle="90.00" type="DEFAULT_VEHTYPE" speed="0.00" pos="50.00" lane="VODUGES_beg_0" slope="0.00" signals="0"/>
    </timestep>
    <timestep time="15.00">
        <vehicle id="oncoming2" x="113.22" y="1.65" angle="270.00" type="DEFAULT_VEHTYPE" speed="13.89" pos="86.78" lane="-VODUGES_beg_0" slope="0.00" signals="0"/>
        <vehicle id="oncoming3" x="135.85" y="1.65" angle="270.00" type="DEFAULT_VEHTYPE" speed="13.89" pos="64.15" lane="-VODUGES_beg_0" slope="0.00" signals="0"/>
        <vehicle id="overtaking" x="68.50" y="1.65" angle="90.00" type="DEFAULT_VEHTYPE" speed="10.40" pos="131.50" lane="-VODUGES_beg_0" slope="0.00" signals="0"/>
        <vehicle id="stopped" x="66.73" y="-1.65" angle="90.00" type="noCoop" speed="5.73" pos="66.73" lane="VODUGES_beg_0" slope="0.00" signals="0"/>
        <vehicle id="stopped2" x="50.00" y="-1.65" angle="90.00" type="DEFAULT_VEHTYPE" speed="0.00" pos="50.00" lane="VODUGES_beg_0" slope="0.00" signals="0"/>
    </timestep>
    <timestep time="16.00">
        <vehicle id="oncoming2" x="99.33" y="1.65" angle="270.00" type="DEFAULT_VEHTYPE" speed="13.89" pos="100.67" lane="-VODUGES_beg_0" slope="0.00" signals="0"/>
        <vehicle id="oncoming3" x="121.96" y="1.65" angle="270.00" type="DEFAULT_VEHTYPE" speed="13.89" pos="78.04" lane="-VODUGES_beg_0" slope="0.00" signals="0"/>
        <vehicle id="overtaking" x="81.50" y="1.65" angle="90.00" type="DEFAULT_VEHTYPE" speed="13.00" pos="118.50" lane="-VODUGES_beg_0" slope="0.00" signals="0"/>
        <vehicle id="stopped" x="74.61" y="-1.65" angle="90.00" type="noCoop" speed="7.88" pos="74.61" lane="VODUGES_beg_0" slope="0.00" signals="0"/>
        <vehicle id="stopped2" x="50.00" y="-1.65" angle="90.00" type="DEFAULT_VEHTYPE" speed="0.00" pos="50.00" lane="VODUGES_beg_0" slope="0.00" signals="0"/>
    </timestep>
    <timestep time="17.00">
        <vehicle id="oncoming3" x="108.07" y="1.65" angle="270.00" type="DEFAULT_VEHTYPE" speed="13.89" pos="91.93" lane="-VODUGES_beg_0" slope="0.00" signals="0"/>
        <vehicle id="overtaking" x="90.00" y="1.65" angle="90.00" type="DEFAULT_VEHTYPE" speed="8.50" pos="110.00" lane="-VODUGES_beg_0" slope="0.00" signals="8"/>
        <vehicle id="stopped" x="85.81" y="-1.65" angle="90.00" type="noCoop" speed="11.20" pos="85.81" lane="VODUGES_beg_0" slope="0.00" signals="0"/>
        <vehicle id="stopped2" x="50.00" y="-1.65" angle="90.00" type="DEFAULT_VEHTYPE" speed="0.00" pos="50.00" lane="VODUGES_beg_0" slope="0.00" signals="0"/>
    </timestep>
    <timestep time="18.00">
        <vehicle id="oncoming3" x="95.38" y="1.65" angle="270.00" type="DEFAULT_VEHTYPE" speed="12.69" pos="104.62" lane="-VODUGES_beg_0" slope="0.00" signals="0"/>
        <vehicle id="overtaking" x="94.00" y="1.65" angle="90.00" type="DEFAULT_VEHTYPE" speed="4.00" pos="106.00" lane="-VODUGES_beg_0" slope="0.00" signals="8"/>
        <vehicle id="stopped" x="99.34" y="-1.65" angle="90.00" type="noCoop" speed="13.53" pos="99.34" lane="VODUGES_beg_0" slope="0.00" signals="0"/>
        <vehicle id="stopped2" x="50.00" y="-1.65" angle="90.00" type="DEFAULT_VEHTYPE" speed="0.00" pos="50.00" lane="VODUGES_beg_0" slope="0.00" signals="0"/>
    </timestep>
    <timestep time="19.00">
        <vehicle id="overtaking" x="100.60" y="-1.65" angle="90.00" type="DEFAULT_VEHTYPE" speed="6.60" pos="100.60" lane="VODUGES_beg_0" slope="0.00" signals="0"/>
        <vehicle id="stopped" x="112.87" y="-1.65" angle="90.00" type="noCoop" speed="13.54" pos="112.87" lane="VODUGES_beg_0" slope="0.00" signals="0"/>
        <vehicle id="stopped2" x="50.00" y="-1.65" angle="90.00" type="DEFAULT_VEHTYPE" speed="0.00" pos="50.00" lane="VODUGES_beg_0" slope="0.00" signals="0"/>
    </timestep>
    <timestep time="20.00">
        <vehicle id="overtaking" x="109.80" y="-1.65" angle="90.00" type="DEFAULT_VEHTYPE" speed="9.20" pos="109.80" lane="VODUGES_beg_0" slope="0.00" signals="0"/>
        <vehicle id="stopped" x="126.34" y="-1.65" angle="90.00" type="noCoop" speed="13.47" pos="126.34" lane="VODUGES_beg_0" slope="0.00" signals="0"/>
        <vehicle id="stopped2" x="50.00" y="-1.65" angle="90.00" type="DEFAULT_VEHTYPE" speed="0.00" pos="50.00" lane="VODUGES_beg_0" slope="0.00" signals="0"/>
    </timestep>
    <timestep time="21.00">
        <vehicle id="overtaking" x="121.60" y="-1.65" angle="90.00" type="DEFAULT_VEHTYPE" speed="11.80" pos="121.60" lane="VODUGES_beg_0" slope="0.00" signals="0"/>
        <vehicle id="stopped" x="139.00" y="-1.65" angle="90.00" type="noCoop" speed="12.66" pos="139.00" lane="VODUGES_beg_0" slope="0.00" signals="0"/>
        <vehicle id="stopped2" x="50.00" y="-1.65" angle="90.00" type="DEFAULT_VEHTYPE" speed="0.00" pos="50.00" lane="VODUGES_beg_0" slope="0.00" signals="0"/>
    </timestep>
    <timestep time="22.00">
        <vehicle id="overtaking" x="133.34" y="-1.65" angle="90.00" type="DEFAULT_VEHTYPE" speed="11.74" pos="133.34" lane="VODUGES_beg_0" slope="0.00" signals="0"/>
        <vehicle id="stopped" x="151.24" y="-1.65" angle="90.00" type="noCoop" speed="12.24" pos="151.24" lane="VODUGES_beg_0" slope="0.00" signals="0"/>
        <vehicle id="stopped2" x="50.00" y="-1.65" angle="90.00" type="DEFAULT_VEHTYPE" speed="0.00" pos="50.00" lane="VODUGES_beg_0" slope="0.00" signals="0"/>
    </timestep>
    <timestep time="23.00">
        <vehicle id="overtaking" x="144.96" y="-1.65" angle="90.00" type="DEFAULT_VEHTYPE" speed="11.63" pos="144.96" lane="VODUGES_beg_0" slope="0.00" signals="0"/>
        <vehicle id="stopped" x="164.40" y="-1.65" angle="90.00" type="noCoop" speed="13.16" pos="164.40" lane="VODUGES_beg_0" slope="0.00" signals="0"/>
        <vehicle id="stopped2" x="50.00" y="-1.65" angle="90.00" type="DEFAULT_VEHTYPE" speed="0.00" pos="50.00" lane="VODUGES_beg_0" slope="0.00" signals="0"/>
    </timestep>
    <timestep time="24.00">
        <vehicle id="overtaking" x="157.71" y="-1.65" angle="90.00" type="DEFAULT_VEHTYPE" speed="12.75" pos="157.71" lane="VODUGES_beg_0" slope="0.00" signals="0"/>
        <vehicle id="stopped" x="177.68" y="-1.65" angle="90.00" type="noCoop" speed="13.28" pos="177.68" lane="VODUGES_beg_0" slope="0.00" signals="0"/>
        <vehicle id="stopped2" x="50.00" y="-1.65" angle="90.00" type="DEFAULT_VEHTYPE" speed="0.00" pos="50.00" lane="VODUGES_beg_0" slope="0.00" signals="0"/>
    </timestep>
    <timestep time="25.00">
        <vehicle id="overtaking" x="170.73" y="-1.65" angle="90.00" type="DEFAULT_VEHTYPE" speed="13.01" pos="170.73" lane="VODUGES_beg_0" slope="0.00" signals="0"/>
        <vehicle id="stopped" x="190.32" y="-1.65" angle="90.00" type="noCoop" speed="12.64" pos="190.32" lane="VODUGES_beg_0" slope="0.00" signals="0"/>
        <vehicle id="stopped2" x="50.00" y="-1.65" angle="90.00" type="DEFAULT_VEHTYPE" speed="0.00" pos="50.00" lane="VODUGES_beg_0" slope="0.00" signals="0"/>
    </timestep>
    <timestep time="26.00">
        <vehicle id="overtaking" x="183.18" y="-1.65" angle="90.00" type="DEFAULT_VEHTYPE" speed="12.46" pos="183.18" lane="VODUGES_beg_0" slope="0.00" signals="0"/>
        <vehicle id="stopped2" x="50.00" y="-1.65" angle="90.00" type="DEFAULT_VEHTYPE" speed="0.00" pos="50.00" lane="VODUGES_beg_0" slope="0.00" signals="0"/>
    </timestep>
    <timestep time="27.00">
        <vehicle id="overtaking" x="197.07" y="-1.65" angle="90.00" type="DEFAULT_VEHTYPE" speed="13.89" pos="197.07" lane="VODUGES_beg_0" slope="0.00" signals="0"/>
        <vehicle id="stopped2" x="50.00" y="-1.65" angle="90.00" type="DEFAULT_VEHTYPE" speed="0.00" pos="50.00" lane="VODUGES_beg_0" slope="0.00" signals="0"/>
    </timestep>
    <timestep time="28.00">
        <vehicle id="stopped2" x="50.00" y="-1.65" angle="90.00" type="DEFAULT_VEHTYPE" speed="0.00" pos="50.00" lane="VODUGES_beg_0" slope="0.00" signals="0"/>
    </timestep>
    <timestep time="29.00">
        <vehicle id="stopped2" x="50.00" y="-1.65" angle="90.00" type="DEFAULT_VEHTYPE" speed="0.00" pos="50.00" lane="VODUGES_beg_0" slope="0.00" signals="0"/>
    </timestep>
    <timestep time="30.00">
        <vehicle id="stopped2" x="50.00" y="-1.65" angle="90.00" type="DEFAULT_VEHTYPE" speed="0.00" pos="50.00" lane="VODUGES_beg_0" slope="0.00" signals="0"/>
    </timestep>
    <timestep time="31.00">
        <vehicle id="stopped2" x="50.00" y="-1.65" angle="90.00" type="DEFAULT_VEHTYPE" speed="0.00" pos="50.00" lane="VODUGES_beg_0" slope="0.00" signals="0"/>
    </timestep>
    <timestep time="32.00">
        <vehicle id="stopped2" x="50.00" y="-1.65" angle="90.00" type="DEFAULT_VEHTYPE" speed="0.00" pos="50.00" lane="VODUGES_beg_0" slope="0.00" signals="0"/>
    </timestep>
    <timestep time="33.00">
        <vehicle id="stopped2" x="50.00" y="-1.65" angle="90.00" type="DEFAULT_VEHTYPE" speed="0.00" pos="50.00" lane="VODUGES_beg_0" slope="0.00" signals="0"/>
    </timestep>
    <timestep time="34.00">
        <vehicle id="stopped2" x="50.00" y="-1.65" angle="90.00" type="DEFAULT_VEHTYPE" speed="0.00" pos="50.00" lane="VODUGES_beg_0" slope="0.00" signals="0"/>
    </timestep>
    <timestep time="35.00">
        <vehicle id="stopped2" x="50.00" y="-1.65" angle="90.00" type="DEFAULT_VEHTYPE" speed="0.00" pos="50.00" lane="VODUGES_beg_0" slope="0.00" signals="0"/>
    </timestep>
    <timestep time="36.00">
        <vehicle id="stopped2" x="50.00" y="-1.65" angle="90.00" type="DEFAULT_VEHTYPE" speed="0.00" pos="50.00" lane="VODUGES_beg_0" slope="0.00" signals="0"/>
    </timestep>
    <timestep time="37.00">
        <vehicle id="stopped2" x="50.00" y="-1.65" angle="90.00" type="DEFAULT_VEHTYPE" speed="0.00" pos="50.00" lane="VODUGES_beg_0" slope="0.00" signals="0"/>
    </timestep>
    <timestep time="38.00">
        <vehicle id="stopped2" x="50.00" y="-1.65" angle="90.00" type="DEFAULT_VEHTYPE" speed="0.00" pos="50.00" lane="VODUGES_beg_0" slope="0.00" signals="0"/>
    </timestep>
    <timestep time="39.00">
        <vehicle id="stopped2" x="50.00" y="-1.65" angle="90.00" type="DEFAULT_VEHTYPE" speed="0.00" pos="50.00" lane="VODUGES_beg_0" slope="0.00" signals="0"/>
    </timestep>
    <timestep time="40.00">
        <vehicle id="stopped2" x="50.00" y="-1.65" angle="90.00" type="DEFAULT_VEHTYPE" speed="0.00" pos="50.00" lane="VODUGES_beg_0" slope="0.00" signals="0"/>
    </timestep>
    <timestep time="41.00">
        <vehicle id="stopped2" x="50.00" y="-1.65" angle="90.00" type="DEFAULT_VEHTYPE" speed="0.00" pos="50.00" lane="VODUGES_beg_0" slope="0.00" signals="0"/>
    </timestep>
    <timestep time="42.00">
        <vehicle id="stopped2" x="50.00" y="-1.65" angle="90.00" type="DEFAULT_VEHTYPE" speed="0.00" pos="50.00" lane="VODUGES_beg_0" slope="0.00" signals="0"/>
    </timestep>
    <timestep time="43.00">
        <vehicle id="stopped2" x="50.00" y="-1.65" angle="90.00" type="DEFAULT_VEHTYPE" speed="0.00" pos="50.00" lane="VODUGES_beg_0" slope="0.00" signals="0"/>
    </timestep>
    <timestep time="44.00">
        <vehicle id="stopped2" x="50.00" y="-1.65" angle="90.00" type="DEFAULT_VEHTYPE" speed="0.00" pos="50.00" lane="VODUGES_beg_0" slope="0.00" signals="0"/>
    </timestep>
    <timestep time="45.00">
        <vehicle id="stopped2" x="50.00" y="-1.65" angle="90.00" type="DEFAULT_VEHTYPE" speed="0.00" pos="50.00" lane="VODUGES_beg_0" slope="0.00" signals="0"/>
    </timestep>
    <timestep time="46.00">
        <vehicle id="stopped2" x="50.00" y="-1.65" angle="90.00" type="DEFAULT_VEHTYPE" speed="0.00" pos="50.00" lane="VODUGES_beg_0" slope="0.00" signals="0"/>
    </timestep>
    <timestep time="47.00">
        <vehicle id="stopped2" x="50.00" y="-1.65" angle="90.00" type="DEFAULT_VEHTYPE" speed="0.00" pos="50.00" lane="VODUGES_beg_0" slope="0.00" signals="0"/>
    </timestep>
    <timestep time="48.00">
        <vehicle id="stopped2" x="50.00" y="-1.65" angle="90.00" type="DEFAULT_VEHTYPE" speed="0.00" pos="50.00" lane="VODUGES_beg_0" slope="0.00" signals="0"/>
    </timestep>
    <timestep time="49.00">
        <vehicle id="stopped2" x="50.00" y="-1.65" angle="90.00" type="DEFAULT_VEHTYPE" speed="0.00" pos="50.00" lane="VODUGES_beg_0" slope="0.00" signals="0"/>
    </timestep>
    <timestep time="50.00">
        <vehicle id="stopped2" x="50.00" y="-1.65" angle="90.00" type="DEFAULT_VEHTYPE" speed="0.00" pos="50.00" lane="VODUGES_beg_0" slope="0.00" signals="0"/>
    </timestep>
    <timestep time="51.00">
        <vehicle id="stopped2" x="50.00" y="-1.65" angle="90.00" type="DEFAULT_VEHTYPE" speed="0.00" pos="50.00" lane="VODUGES_beg_0" slope="0.00" signals="0"/>
    </timestep>
    <timestep time="52.00">
        <vehicle id="stopped2" x="50.00" y="-1.65" angle="90.00" type="DEFAULT_VEHTYPE" speed="0.00" pos="50.00" lane="VODUGES_beg_0" slope="0.00" signals="0"/>
    </timestep>
    <timestep time="53.00">
        <vehicle id="stopped2" x="50.00" y="-1.65" angle="90.00" type="DEFAULT_VEHTYPE" speed="0.00" pos="50.00" lane="VODUGES_beg_0" slope="0.00" signals="0"/>
    </timestep>
    <timestep time="54.00">
        <vehicle id="stopped2" x="50.00" y="-1.65" angle="90.00" type="DEFAULT_VEHTYPE" speed="0.00" pos="50.00" lane="VODUGES_beg_0" slope="0.00" signals="0"/>
    </timestep>
    <timestep time="55.00">
        <vehicle id="stopped2" x="50.00" y="-1.65" angle="90.00" type="DEFAULT_VEHTYPE" speed="0.00" pos="50.00" lane="VODUGES_beg_0" slope="0.00" signals="0"/>
    </timestep>
    <timestep time="56.00">
        <vehicle id="stopped2" x="50.00" y="-1.65" angle="90.00" type="DEFAULT_VEHTYPE" speed="0.00" pos="50.00" lane="VODUGES_beg_0" slope="0.00" signals="0"/>
    </timestep>
    <timestep time="57.00">
        <vehicle id="stopped2" x="50.00" y="-1.65" angle="90.00" type="DEFAULT_VEHTYPE" speed="0.00" pos="50.00" lane="VODUGES_beg_0" slope="0.00" signals="0"/>
    </timestep>
    <timestep time="58.00">
        <vehicle id="stopped2" x="50.00" y="-1.65" angle="90.00" type="DEFAULT_VEHTYPE" speed="0.00" pos="50.00" lane="VODUGES_beg_0" slope="0.00" signals="0"/>
    </timestep>
    <timestep time="59.00">
        <vehicle id="stopped2" x="50.00" y="-1.65" angle="90.00" type="DEFAULT_VEHTYPE" speed="0.00" pos="50.00" lane="VODUGES_beg_0" slope="0.00" signals="0"/>
    </timestep>
    <timestep time="60.00">
        <vehicle id="stopped2" x="50.00" y="-1.65" angle="90.00" type="DEFAULT_VEHTYPE" speed="0.00" pos="50.00" lane="VODUGES_beg_0" slope="0.00" signals="0"/>
    </timestep>
    <timestep time="61.00">
        <vehicle id="stopped2" x="50.00" y="-1.65" angle="90.00" type="DEFAULT_VEHTYPE" speed="0.00" pos="50.00" lane="VODUGES_beg_0" slope="0.00" signals="0"/>
    </timestep>
    <timestep time="62.00">
        <vehicle id="stopped2" x="50.00" y="-1.65" angle="90.00" type="DEFAULT_VEHTYPE" speed="0.00" pos="50.00" lane="VODUGES_beg_0" slope="0.00" signals="0"/>
    </timestep>
    <timestep time="63.00">
        <vehicle id="stopped2" x="50.00" y="-1.65" angle="90.00" type="DEFAULT_VEHTYPE" speed="0.00" pos="50.00" lane="VODUGES_beg_0" slope="0.00" signals="0"/>
    </timestep>
    <timestep time="64.00">
        <vehicle id="stopped2" x="50.00" y="-1.65" angle="90.00" type="DEFAULT_VEHTYPE" speed="0.00" pos="50.00" lane="VODUGES_beg_0" slope="0.00" signals="0"/>
    </timestep>
    <timestep time="65.00">
        <vehicle id="stopped2" x="50.00" y="-1.65" angle="90.00" type="DEFAULT_VEHTYPE" speed="0.00" pos="50.00" lane="VODUGES_beg_0" slope="0.00" signals="0"/>
    </timestep>
    <timestep time="66.00">
        <vehicle id="stopped2" x="50.00" y="-1.65" angle="90.00" type="DEFAULT_VEHTYPE" speed="0.00" pos="50.00" lane="VODUGES_beg_0" slope="0.00" signals="0"/>
    </timestep>
    <timestep time="67.00">
        <vehicle id="stopped2" x="50.00" y="-1.65" angle="90.00" type="DEFAULT_VEHTYPE" speed="0.00" pos="50.00" lane="VODUGES_beg_0" slope="0.00" signals="0"/>
    </timestep>
    <timestep time="68.00">
        <vehicle id="stopped2" x="50.00" y="-1.65" angle="90.00" type="DEFAULT_VEHTYPE" speed="0.00" pos="50.00" lane="VODUGES_beg_0" slope="0.00" signals="0"/>
    </timestep>
    <timestep time="69.00">
        <vehicle id="stopped2" x="50.00" y="-1.65" angle="90.00" type="DEFAULT_VEHTYPE" speed="0.00" pos="50.00" lane="VODUGES_beg_0" slope="0.00" signals="0"/>
    </timestep>
    <timestep time="70.00">
        <vehicle id="stopped2" x="50.00" y="-1.65" angle="90.00" type="DEFAULT_VEHTYPE" speed="0.00" pos="50.00" lane="VODUGES_beg_0" slope="0.00" signals="0"/>
    </timestep>
    <timestep time="71.00">
        <vehicle id="stopped2" x="50.00" y="-1.65" angle="90.00" type="DEFAULT_VEHTYPE" speed="0.00" pos="50.00" lane="VODUGES_beg_0" slope="0.00" signals="0"/>
    </timestep>
    <timestep time="72.00">
        <vehicle id="stopped2" x="50.00" y="-1.65" angle="90.00" type="DEFAULT_VEHTYPE" speed="0.00" pos="50.00" lane="VODUGES_beg_0" slope="0.00" signals="0"/>
    </timestep>
    <timestep time="73.00">
        <vehicle id="stopped2" x="50.00" y="-1.65" angle="90.00" type="DEFAULT_VEHTYPE" speed="0.00" pos="50.00" lane="VODUGES_beg_0" slope="0.00" signals="0"/>
    </timestep>
    <timestep time="74.00">
        <vehicle id="stopped2" x="50.00" y="-1.65" angle="90.00" type="DEFAULT_VEHTYPE" speed="0.00" pos="50.00" lane="VODUGES_beg_0" slope="0.00" signals="0"/>
    </timestep>
    <timestep time="75.00">
        <vehicle id="stopped2" x="50.00" y="-1.65" angle="90.00" type="DEFAULT_VEHTYPE" speed="0.00" pos="50.00" lane="VODUGES_beg_0" slope="0.00" signals="0"/>
    </timestep>
    <timestep time="76.00">
        <vehicle id="stopped2" x="50.00" y="-1.65" angle="90.00" type="DEFAULT_VEHTYPE" speed="0.00" pos="50.00" lane="VODUGES_beg_0" slope="0.00" signals="0"/>
    </timestep>
    <timestep time="77.00">
        <vehicle id="stopped2" x="50.00" y="-1.65" angle="90.00" type="DEFAULT_VEHTYPE" speed="0.00" pos="50.00" lane="VODUGES_beg_0" slope="0.00" signals="0"/>
    </timestep>
    <timestep time="78.00">
        <vehicle id="stopped2" x="50.00" y="-1.65" angle="90.00" type="DEFAULT_VEHTYPE" speed="0.00" pos="50.00" lane="VODUGES_beg_0" slope="0.00" signals="0"/>
    </timestep>
    <timestep time="79.00">