<?xml version="1.0" encoding="UTF-8"?>

<!-- generated on Wed Jan 20 21:51:59 2021 by Eclipse SUMO sumo Version v1_8_0+0619-4355f5b
This data file and the accompanying materials
are made available under the terms of the Eclipse Public License v2.0
which accompanies this distribution, and is available at
http://www.eclipse.org/legal/epl-v20.html
SPDX-License-Identifier: EPL-2.0
<configuration xmlns:xsi="http://www.w3.org/2001/XMLSchema-instance" xsi:noNamespaceSchemaLocation="http://sumo.dlr.de/xsd/sumoConfiguration.xsd">

    <input>
        <net-file value="net.net.xml"/>
        <route-files value="input_routes.rou.xml"/>
    </input>

    <output>
        <write-license value="true"/>
        <fcd-output value="fcd.xml"/>
        <fcd-output.signals value="true"/>
        <tripinfo-output value="tripinfos.xml"/>
        <collision-output value="collisions.xml"/>
    </output>

    <time>
        <step-length value="0.5"/>
    </time>

    <processing>
        <default.speeddev value="0"/>
    </processing>

    <report>
        <xml-validation value="never"/>
        <xml-validation.routes value="never"/>
        <no-step-log value="true"/>
    </report>

    <gui_only>
        <tracker-interval value="0.5"/>
    </gui_only>

</configuration>
-->

<fcd-export xmlns:xsi="http://www.w3.org/2001/XMLSchema-instance" xsi:noNamespaceSchemaLocation="http://sumo.dlr.de/xsd/fcd_file.xsd">
    <timestep time="0.00">
        <vehicle id="stopped" x="40.00" y="-1.65" angle="90.00" type="noCoop" speed="0.00" pos="40.00" lane="VODUGES_beg_0" slope="0.00" signals="0"/>
    </timestep>
    <timestep time="0.50">
        <vehicle id="stopped" x="41.00" y="-1.65" angle="90.00" type="noCoop" speed="2.00" pos="41.00" lane="VODUGES_beg_0" slope="0.00" signals="0"/>
    </timestep>
    <timestep time="1.00">
        <vehicle id="stopped" x="42.84" y="-1.65" angle="90.00" type="noCoop" speed="3.69" pos="42.84" lane="VODUGES_beg_0" slope="0.00" signals="0"/>
    </timestep>
    <timestep time="1.50">
        <vehicle id="stopped" x="45.33" y="-1.65" angle="90.00" type="noCoop" speed="4.98" pos="45.33" lane="VODUGES_beg_0" slope="0.00" signals="0"/>
    </timestep>
    <timestep time="2.00">
        <vehicle id="overtaking" x="0.00" y="-1.65" angle="90.00" type="DEFAULT_VEHTYPE" speed="0.00" pos="0.00" lane="VODUGES_beg_0" slope="0.00" signals="0"/>
        <vehicle id="stopped" x="48.50" y="-1.65" angle="90.00" type="noCoop" speed="6.32" pos="48.50" lane="VODUGES_beg_0" slope="0.00" signals="0"/>
        <vehicle id="stopped2" x="40.00" y="-1.65" angle="90.00" type="noCoop" speed="0.00" pos="40.00" lane="VODUGES_beg_0" slope="0.00" signals="0"/>
    </timestep>
    <timestep time="2.50">
        <vehicle id="overtaking" x="0.65" y="-1.65" angle="90.00" type="DEFAULT_VEHTYPE" speed="1.30" pos="0.65" lane="VODUGES_beg_0" slope="0.00" signals="0"/>
        <vehicle id="stopped" x="52.22" y="-1.65" angle="90.00" type="noCoop" speed="7.44" pos="52.22" lane="VODUGES_beg_0" slope="0.00" signals="0"/>
        <vehicle id="stopped2" x="40.76" y="-1.65" angle="90.00" type="noCoop" speed="1.53" pos="40.76" lane="VODUGES_beg_0" slope="0.00" signals="0"/>
    </timestep>
    <timestep time="3.00">
        <vehicle id="oncoming1" x="100.00" y="1.65" angle="270.00" type="DEFAULT_VEHTYPE" speed="0.00" pos="100.00" lane="-VODUGES_beg_0" slope="0.00" signals="0"/>
        <vehicle id="overtaking" x="1.95" y="-1.65" angle="90.00" type="DEFAULT_VEHTYPE" speed="2.60" pos="1.95" lane="VODUGES_beg_0" slope="0.00" signals="0"/>
        <vehicle id="stopped" x="54.88" y="-1.65" angle="90.00" type="noCoop" speed="5.33" pos="54.88" lane="VODUGES_beg_0" slope="0.00" signals="8"/>
        <vehicle id="stopped2" x="42.49" y="-1.65" angle="90.00" type="noCoop" speed="3.46" pos="42.49" lane="VODUGES_beg_0" slope="0.00" signals="0"/>
    </timestep>
    <timestep time="3.50">
        <vehicle id="oncoming1" x="99.35" y="1.65" angle="270.00" type="DEFAULT_VEHTYPE" speed="1.30" pos="100.65" lane="-VODUGES_beg_0" slope="0.00" signals="0"/>
        <vehicle id="overtaking" x="3.90" y="-1.65" angle="90.00" type="DEFAULT_VEHTYPE" speed="3.90" pos="3.90" lane="VODUGES_beg_0" slope="0.00" signals="0"/>
        <vehicle id="stopped" x="56.78" y="-1.65" angle="90.00" type="noCoop" speed="3.79" pos="56.78" lane="VODUGES_beg_0" slope="0.00" signals="8"/>
        <vehicle id="stopped2" x="44.66" y="-1.65" angle="90.00" type="noCoop" speed="4.33" pos="44.66" lane="VODUGES_beg_0" slope="0.00" signals="0"/>
    </timestep>
    <timestep time="4.00">
        <vehicle id="oncoming1" x="98.05" y="1.65" angle="270.00" type="DEFAULT_VEHTYPE" speed="2.60" pos="101.95" lane="-VODUGES_beg_0" slope="0.00" signals="0"/>
        <vehicle id="overtaking" x="6.50" y="-1.65" angle="90.00" type="DEFAULT_VEHTYPE" speed="5.20" pos="6.50" lane="VODUGES_beg_0" slope="0.00" signals="0"/>
        <vehicle id="stopped" x="57.71" y="-1.65" angle="90.00" type="noCoop" speed="1.86" pos="57.71" lane="VODUGES_beg_0" slope="0.00" signals="8"/>
        <vehicle id="stopped2" x="46.60" y="-1.65" angle="90.00" type="noCoop" speed="3.88" pos="46.60" lane="VODUGES_beg_0" slope="0.00" signals="8"/>
    </timestep>
    <timestep time="4.50">
        <vehicle id="oncoming1" x="96.10" y="1.65" angle="270.00" type="DEFAULT_VEHTYPE" speed="3.90" pos="103.90" lane="-VODUGES_beg_0" slope="0.00" signals="0"/>
        <vehicle id="overtaking" x="9.75" y="-1.65" angle="90.00" type="DEFAULT_VEHTYPE" speed="6.50" pos="9.75" lane="VODUGES_beg_0" slope="0.00" signals="0"/>
        <vehicle id="stopped" x="57.97" y="-1.65" angle="90.00" type="noCoop" speed="0.53" pos="57.97" lane="VODUGES_beg_0" slope="0.00" signals="8"/>
        <vehicle id="stopped2" x="47.97" y="-1.65" angle="90.00" type="noCoop" speed="2.74" pos="47.97" lane="VODUGES_beg_0" slope="0.00" signals="8"/>
    </timestep>
    <timestep time="5.00">
        <vehicle id="oncoming1" x="93.50" y="1.65" angle="270.00" type="DEFAULT_VEHTYPE" speed="5.20" pos="106.50" lane="-VODUGES_beg_0" slope="0.00" signals="0"/>
        <vehicle id="overtaking" x="13.65" y="-1.65" angle="90.00" type="DEFAULT_VEHTYPE" speed="7.80" pos="13.65" lane="VODUGES_beg_0" slope="0.00" signals="0"/>
        <vehicle id="stopped" x="58.00" y="-1.65" angle="90.00" type="noCoop" speed="0.04" pos="58.00" lane="VODUGES_beg_0" slope="0.00" signals="0"/>
        <vehicle id="stopped2" x="49.15" y="-1.65" angle="90.00" type="noCoop" speed="2.37" pos="49.15" lane="VODUGES_beg_0" slope="0.00" signals="8"/>
    </timestep>
    <timestep time="5.50">
        <vehicle id="oncoming1" x="90.25" y="1.65" angle="270.00" type="DEFAULT_VEHTYPE" speed="6.50" pos="109.75" lane="-VODUGES_beg_0" slope="0.00" signals="0"/>
        <vehicle id="overtaking" x="18.20" y="-1.65" angle="90.00" type="DEFAULT_VEHTYPE" speed="9.10" pos="18.20" lane="VODUGES_beg_0" slope="0.00" signals="0"/>
        <vehicle id="stopped" x="58.00" y="-1.65" angle="90.00" type="noCoop" speed="0.00" pos="58.00" lane="VODUGES_beg_0" slope="0.00" signals="0"/>
        <vehicle id="stopped2" x="49.66" y="-1.65" angle="90.00" type="noCoop" speed="1.02" pos="49.66" lane="VODUGES_beg_0" slope="0.00" signals="8"/>
    </timestep>
    <timestep time="6.00">
        <vehicle id="oncoming1" x="86.35" y="1.65" angle="270.00" type="DEFAULT_VEHTYPE" speed="7.80" pos="113.65" lane="-VODUGES_beg_0" slope="0.00" signals="0"/>
        <vehicle id="overtaking" x="23.40" y="-1.65" angle="90.00" type="DEFAULT_VEHTYPE" speed="10.40" pos="23.40" lane="VODUGES_beg_0" slope="0.00" signals="0"/>
        <vehicle id="stopped" x="58.00" y="-1.65" angle="90.00" type="noCoop" speed="0.00" pos="58.00" lane="VODUGES_beg_0" slope="0.00" signals="0"/>
        <vehicle id="stopped2" x="49.98" y="-1.65" angle="90.00" type="noCoop" speed="0.64" pos="49.98" lane="VODUGES_beg_0" slope="0.00" signals="8"/>
    </timestep>
    <timestep time="6.50">
        <vehicle id="oncoming1" x="81.80" y="1.65" angle="270.00" type="DEFAULT_VEHTYPE" speed="9.10" pos="118.20" lane="-VODUGES_beg_0" slope="0.00" signals="0"/>
        <vehicle id="overtaking" x="28.46" y="-1.65" angle="90.00" type="DEFAULT_VEHTYPE" speed="10.11" pos="28.46" lane="VODUGES_beg_0" slope="0.00" signals="0"/>
        <vehicle id="stopped" x="58.00" y="-1.65" angle="90.00" type="noCoop" speed="0.00" pos="58.00" lane="VODUGES_beg_0" slope="0.00" signals="0"/>
        <vehicle id="stopped2" x="50.00" y="-1.65" angle="90.00" type="noCoop" speed="0.03" pos="50.00" lane="VODUGES_beg_0" slope="0.00" signals="0"/>
    </timestep>
    <timestep time="7.00">
        <vehicle id="oncoming1" x="76.60" y="1.65" angle="270.00" type="DEFAULT_VEHTYPE" speed="10.40" pos="123.40" lane="-VODUGES_beg_0" slope="0.00" signals="0"/>
        <vehicle id="overtaking" x="32.61" y="-1.65" angle="90.00" type="DEFAULT_VEHTYPE" speed="8.32" pos="32.61" lane="VODUGES_beg_0" slope="0.00" signals="8"/>
        <vehicle id="stopped" x="58.00" y="-1.65" angle="90.00" type="noCoop" speed="0.00" pos="58.00" lane="VODUGES_beg_0" slope="0.00" signals="0"/>
        <vehicle id="stopped2" x="50.00" y="-1.65" angle="90.00" type="noCoop" speed="0.00" pos="50.00" lane="VODUGES_beg_0" slope="0.00" signals="0"/>
    </timestep>
    <timestep time="7.50">
        <vehicle id="oncoming1" x="70.75" y="1.65" angle="270.00" type="DEFAULT_VEHTYPE" speed="11.70" pos="129.25" lane="-VODUGES_beg_0" slope="0.00" signals="0"/>
        <vehicle id="overtaking" x="35.93" y="-1.65" angle="90.00" type="DEFAULT_VEHTYPE" speed="6.63" pos="35.93" lane="VODUGES_beg_0" slope="0.00" signals="8"/>
        <vehicle id="stopped" x="58.00" y="-1.65" angle="90.00" type="noCoop" speed="0.00" pos="58.00" lane="VODUGES_beg_0" slope="0.00" signals="0"/>
        <vehicle id="stopped2" x="50.00" y="-1.65" angle="90.00" type="noCoop" speed="0.00" pos="50.00" lane="VODUGES_beg_0" slope="0.00" signals="0"/>
    </timestep>
    <timestep time="8.00">
        <vehicle id="oncoming1" x="64.25" y="1.65" angle="270.00" type="DEFAULT_VEHTYPE" speed="13.00" pos="135.75" lane="-VODUGES_beg_0" slope="0.00" signals="0"/>
        <vehicle id="oncoming2" x="180.00" y="1.65" angle="270.00" type="DEFAULT_VEHTYPE" speed="0.00" pos="20.00" lane="-VODUGES_beg_0" slope="0.00" signals="0"/>
        <vehicle id="oncoming3" x="200.00" y="1.65" angle="270.00" type="DEFAULT_VEHTYPE" speed="0.00" pos="0.00" lane="-VODUGES_beg_0" slope="0.00" signals="0"/>
        <vehicle id="overtaking" x="38.41" y="-1.65" angle="90.00" type="DEFAULT_VEHTYPE" speed="4.97" pos="38.41" lane="VODUGES_beg_0" slope="0.00" signals="8"/>
        <vehicle id="stopped" x="58.00" y="-1.65" angle="90.00" type="noCoop" speed="0.00" pos="58.00" lane="VODUGES_beg_0" slope="0.00" signals="0"/>
        <vehicle id="stopped2" x="50.00" y="-1.65" angle="90.00" type="noCoop" speed="0.00" pos="50.00" lane="VODUGES_beg_0" slope="0.00" signals="0"/>
    </timestep>
    <timestep time="8.50">
        <vehicle id="oncoming1" x="57.31" y="1.65" angle="270.00" type="DEFAULT_VEHTYPE" speed="13.89" pos="142.69" lane="-VODUGES_beg_0" slope="0.00" signals="0"/>
        <vehicle id="oncoming2" x="179.35" y="1.65" angle="270.00" type="DEFAULT_VEHTYPE" speed="1.30" pos="20.65" lane="-VODUGES_beg_0" slope="0.00" signals="0"/>
        <vehicle id="oncoming3" x="199.35" y="1.65" angle="270.00" type="DEFAULT_VEHTYPE" speed="1.30" pos="0.65" lane="-VODUGES_beg_0" slope="0.00" signals="0"/>
        <vehicle id="overtaking" x="40.15" y="-1.65" angle="90.00" type="DEFAULT_VEHTYPE" speed="3.47" pos="40.15" lane="VODUGES_beg_0" slope="0.00" signals="8"/>
        <vehicle id="stopped" x="58.00" y="-1.65" angle="90.00" type="noCoop" speed="0.00" pos="58.00" lane="VODUGES_beg_0" slope="0.00" signals="0"/>
        <vehicle id="stopped2" x="50.00" y="-1.65" angle="90.00" type="noCoop" speed="0.00" pos="50.00" lane="VODUGES_beg_0" slope="0.00" signals="0"/>
    </timestep>
    <timestep time="9.00">
        <vehicle id="oncoming1" x="50.36" y="1.65" angle="270.00" type="DEFAULT_VEHTYPE" speed="13.89" pos="149.64" lane="-VODUGES_beg_0" slope="0.00" signals="0"/>
        <vehicle id="oncoming2" x="178.05" y="1.65" angle="270.00" type="DEFAULT_VEHTYPE" speed="2.60" pos="21.95" lane="-VODUGES_beg_0" slope="0.00" signals="0"/>
        <vehicle id="oncoming3" x="198.05" y="1.65" angle="270.00" type="DEFAULT_VEHTYPE" speed="2.60" pos="1.95" lane="-VODUGES_beg_0" slope="0.00" signals="0"/>
        <vehicle id="overtaking" x="41.31" y="-1.65" angle="90.00" type="DEFAULT_VEHTYPE" speed="2.31" pos="41.31" lane="VODUGES_beg_0" slope="0.00" signals="8"/>
        <vehicle id="stopped" x="58.00" y="-1.65" angle="90.00" type="noCoop" speed="0.00" pos="58.00" lane="VODUGES_beg_0" slope="0.00" signals="0"/>
        <vehicle id="stopped2" x="50.00" y="-1.65" angle="90.00" type="noCoop" speed="0.00" pos="50.00" lane="VODUGES_beg_0" slope="0.00" signals="0"/>
    </timestep>
    <timestep time="9.50">
        <vehicle id="oncoming1" x="43.42" y="1.65" angle="270.00" type="DEFAULT_VEHTYPE" speed="13.89" pos="156.58" lane="-VODUGES_beg_0" slope="0.00" signals="0"/>
        <vehicle id="oncoming2" x="176.10" y="1.65" angle="270.00" type="DEFAULT_VEHTYPE" speed="3.90" pos="23.90" lane="-VODUGES_beg_0" slope="0.00" signals="0"/>
        <vehicle id="oncoming3" x="196.10" y="1.65" angle="270.00" type="DEFAULT_VEHTYPE" speed="3.90" pos="3.90" lane="-VODUGES_beg_0" slope="0.00" signals="0"/>
        <vehicle id="overtaking" x="41.90" y="-1.65" angle="90.00" type="DEFAULT_VEHTYPE" speed="1.19" pos="41.90" lane="VODUGES_beg_0" slope="0.00" signals="8"/>
        <vehicle id="stopped" x="58.00" y="-1.65" angle="90.00" type="noCoop" speed="0.00" pos="58.00" lane="VODUGES_beg_0" slope="0.00" signals="0"/>
        <vehicle id="stopped2" x="50.00" y="-1.65" angle="90.00" type="noCoop" speed="0.00" pos="50.00" lane="VODUGES_beg_0" slope="0.00" signals="0"/>
    </timestep>
    <timestep time="10.00">
        <vehicle id="oncoming1" x="36.47" y="1.65" angle="270.00" type="DEFAULT_VEHTYPE" speed="13.89" pos="163.53" lane="-VODUGES_beg_0" slope="0.00" signals="0"/>
        <vehicle id="oncoming2" x="173.50" y="1.65" angle="270.00" type="DEFAULT_VEHTYPE" speed="5.20" pos="26.50" lane="-VODUGES_beg_0" slope="0.00" signals="0"/>
        <vehicle id="oncoming3" x="193.50" y="1.65" angle="270.00" type="DEFAULT_VEHTYPE" speed="5.20" pos="6.50" lane="-VODUGES_beg_0" slope="0.00" signals="0"/>
        <vehicle id="overtaking" x="42.20" y="-1.65" angle="90.00" type="DEFAULT_VEHTYPE" speed="0.59" pos="42.20" lane="VODUGES_beg_0" slope="0.00" signals="8"/>
        <vehicle id="stopped" x="58.00" y="-1.65" angle="90.00" type="noCoop" speed="0.00" pos="58.00" lane="VODUGES_beg_0" slope="0.00" signals="0"/>
        <vehicle id="stopped2" x="50.00" y="-1.65" angle="90.00" type="noCoop" speed="0.00" pos="50.00" lane="VODUGES_beg_0" slope="0.00" signals="0"/>
    </timestep>
    <timestep time="10.50">
        <vehicle id="oncoming1" x="29.53" y="1.65" angle="270.00" type="DEFAULT_VEHTYPE" speed="13.89" pos="170.47" lane="-VODUGES_beg_0" slope="0.00" signals="0"/>
        <vehicle id="oncoming2" x="170.25" y="1.65" angle="270.00" type="DEFAULT_VEHTYPE" speed="6.50" pos="29.75" lane="-VODUGES_beg_0" slope="0.00" signals="0"/>
        <vehicle id="oncoming3" x="190.25" y="1.65" angle="270.00" type="DEFAULT_VEHTYPE" speed="6.50" pos="9.75" lane="-VODUGES_beg_0" slope="0.00" signals="0"/>
        <vehicle id="overtaking" x="42.35" y="1.65" angle="90.00" type="DEFAULT_VEHTYPE" speed="0.30" pos="157.65" lane="-VODUGES_beg_0" slope="0.00" signals="10"/>
        <vehicle id="stopped" x="58.00" y="-1.65" angle="90.00" type="noCoop" speed="0.00" pos="58.00" lane="VODUGES_beg_0" slope="0.00" signals="0"/>
        <vehicle id="stopped2" x="50.00" y="-1.65" angle="90.00" type="noCoop" speed="0.00" pos="50.00" lane="VODUGES_beg_0" slope="0.00" signals="0"/>
    </timestep>
    <timestep time="11.00">
        <vehicle id="oncoming1" x="22.58" y="1.65" angle="270.00" type="DEFAULT_VEHTYPE" speed="13.89" pos="177.42" lane="-VODUGES_beg_0" slope="0.00" signals="0"/>
        <vehicle id="oncoming2" x="166.35" y="1.65" angle="270.00" type="DEFAULT_VEHTYPE" speed="7.80" pos="33.65" lane="-VODUGES_beg_0" slope="0.00" signals="0"/>
        <vehicle id="oncoming3" x="186.35" y="1.65" angle="270.00" type="DEFAULT_VEHTYPE" speed="7.80" pos="13.65" lane="-VODUGES_beg_0" slope="0.00" signals="0"/>
        <vehicle id="overtaking" x="43.15" y="1.65" angle="90.00" type="DEFAULT_VEHTYPE" speed="1.60" pos="156.85" lane="-VODUGES_beg_0" slope="0.00" signals="0"/>
        <vehicle id="stopped" x="58.00" y="-1.65" angle="90.00" type="noCoop" speed="0.00" pos="58.00" lane="VODUGES_beg_0" slope="0.00" signals="0"/>
        <vehicle id="stopped2" x="50.00" y="-1.65" angle="90.00" type="noCoop" speed="0.00" pos="50.00" lane="VODUGES_beg_0" slope="0.00" signals="0"/>
    </timestep>
    <timestep time="11.50">
        <vehicle id="oncoming1" x="15.64" y="1.65" angle="270.00" type="DEFAULT_VEHTYPE" speed="13.89" pos="184.36" lane="-VODUGES_beg_0" slope="0.00" signals="0"/>
        <vehicle id="oncoming2" x="161.80" y="1.65" angle="270.00" type="DEFAULT_VEHTYPE" speed="9.10" pos="38.20" lane="-VODUGES_beg_0" slope="0.00" signals="0"/>
        <vehicle id="oncoming3" x="181.80" y="1.65" angle="270.00" type="DEFAULT_VEHTYPE" speed="9.10" pos="18.20" lane="-VODUGES_beg_0" slope="0.00" signals="0"/>
        <vehicle id="overtaking" x="44.60" y="1.65" angle="90.00" type="DEFAULT_VEHTYPE" speed="2.90" pos="155.40" lane="-VODUGES_beg_0" slope="0.00" signals="0"/>
        <vehicle id="stopped" x="58.00" y="-1.65" angle="90.00" type="noCoop" speed="0.00" pos="58.00" lane="VODUGES_beg_0" slope="0.00" signals="0"/>
        <vehicle id="stopped2" x="50.00" y="-1.65" angle="90.00" type="noCoop" speed="0.00" pos="50.00" lane="VODUGES_beg_0" slope="0.00" signals="0"/>
    </timestep>
    <timestep time="12.00">
        <vehicle id="oncoming1" x="8.69" y="1.65" angle="270.00" type="DEFAULT_VEHTYPE" speed="13.89" pos="191.31" lane="-VODUGES_beg_0" slope="0.00" signals="0"/>
        <vehicle id="oncoming2" x="156.60" y="1.65" angle="270.00" type="DEFAULT_VEHTYPE" speed="10.40" pos="43.40" lane="-VODUGES_beg_0" slope="0.00" signals="0"/>
        <vehicle id="oncoming3" x="176.68" y="1.65" angle="270.00" type="DEFAULT_VEHTYPE" speed="10.23" pos="23.32" lane="-VODUGES_beg_0" slope="0.00" signals="0"/>
        <vehicle id="overtaking" x="46.69" y="1.65" angle="90.00" type="DEFAULT_VEHTYPE" speed="4.20" pos="153.31" lane="-VODUGES_beg_0" slope="0.00" signals="0"/>
        <vehicle id="stopped" x="58.98" y="-1.65" angle="90.00" type="noCoop" speed="1.96" pos="58.98" lane="VODUGES_beg_0" slope="0.00" signals="0"/>
        <vehicle id="stopped2" x="50.00" y="-1.65" angle="90.00" type="noCoop" speed="0.00" pos="50.00" lane="VODUGES_beg_0" slope="0.00" signals="0"/>
    </timestep>
    <timestep time="12.50">
        <vehicle id="oncoming1" x="1.75" y="1.65" angle="270.00" type="DEFAULT_VEHTYPE" speed="13.89" pos="198.25" lane="-VODUGES_beg_0" slope="0.00" signals="0"/>
        <vehicle id="oncoming2" x="150.75" y="1.65" angle="270.00" type="DEFAULT_VEHTYPE" speed="11.70" pos="49.25" lane="-VODUGES_beg_0" slope="0.00" signals="0"/>
        <vehicle id="oncoming3" x="171.12" y="1.65" angle="270.00" type="DEFAULT_VEHTYPE" speed="11.13" pos="28.88" lane="-VODUGES_beg_0" slope="0.00" signals="0"/>
        <vehicle id="overtaking" x="49.44" y="1.65" angle="90.00" type="DEFAULT_VEHTYPE" speed="5.50" pos="150.56" lane="-VODUGES_beg_0" slope="0.00" signals="1"/>
        <vehicle id="stopped" x="60.72" y="-1.65" angle="90.00" type="noCoop" speed="3.48" pos="60.72" lane="VODUGES_beg_0" slope="0.00" signals="0"/>
        <vehicle id="stopped2" x="50.71" y="-1.65" angle="90.00" type="noCoop" speed="1.42" pos="50.71" lane="VODUGES_beg_0" slope="0.00" signals="0"/>
    </timestep>
    <timestep time="13.00">
        <vehicle id="oncoming2" x="144.25" y="1.65" angle="270.00" type="DEFAULT_VEHTYPE" speed="13.00" pos="55.75" lane="-VODUGES_beg_0" slope="0.00" signals="0"/>
        <vehicle id="oncoming3" x="165.10" y="1.65" angle="270.00" type="DEFAULT_VEHTYPE" speed="12.03" pos="34.90" lane="-VODUGES_beg_0" slope="0.00" signals="0"/>
        <vehicle id="overtaking" x="51.07" y="1.65" angle="90.00" type="DEFAULT_VEHTYPE" speed="3.25" pos="148.93" lane="-VODUGES_beg_0" slope="0.00" signals="9"/>
        <vehicle id="stopped" x="63.05" y="-1.65" angle="90.00" type="noCoop" speed="4.66" pos="63.05" lane="VODUGES_beg_0" slope="0.00" signals="0"/>
        <vehicle id="stopped2" x="52.03" y="-1.65" angle="90.00" type="noCoop" speed="2.64" pos="52.03" lane="VODUGES_beg_0" slope="0.00" signals="0"/>
    </timestep>
    <timestep time="13.50">
        <vehicle id="oncoming2" x="137.31" y="1.65" angle="270.00" type="DEFAULT_VEHTYPE" speed="13.89" pos="62.70" lane="-VODUGES_beg_0" slope="0.00" signals="0"/>
        <vehicle id="oncoming3" x="158.55" y="1.65" angle="270.00" type="DEFAULT_VEHTYPE" speed="13.10" pos="41.45" lane="-VODUGES_beg_0" slope="0.00" signals="0"/>
        <vehicle id="overtaking" x="51.56" y="1.65" angle="90.00" type="DEFAULT_VEHTYPE" speed="1.00" pos="148.44" lane="-VODUGES_beg_0" slope="0.00" signals="9"/>
        <vehicle id="stopped" x="66.28" y="-1.65" angle="90.00" type="noCoop" speed="6.46" pos="66.28" lane="VODUGES_beg_0" slope="0.00" signals="0"/>
        <vehicle id="stopped2" x="53.82" y="-1.65" angle="90.00" type="noCoop" speed="3.58" pos="53.82" lane="VODUGES_beg_0" slope="0.00" signals="0"/>
    </timestep>
    <timestep time="14.00">
        <vehicle id="oncoming2" x="130.36" y="1.65" angle="270.00" type="DEFAULT_VEHTYPE" speed="13.89" pos="69.64" lane="-VODUGES_beg_0" slope="0.00" signals="0"/>
        <vehicle id="oncoming3" x="151.63" y="1.65" angle="270.00" type="DEFAULT_VEHTYPE" speed="13.85" pos="48.37" lane="-VODUGES_beg_0" slope="0.00" signals="0"/>
        <vehicle id="overtaking" x="51.56" y="1.65" angle="90.00" type="DEFAULT_VEHTYPE" speed="0.00" pos="148.44" lane="-VODUGES_beg_0" slope="0.00" signals="9"/>
        <vehicle id="stopped" x="70.26" y="-1.65" angle="90.00" type="noCoop" speed="7.96" pos="70.26" lane="VODUGES_beg_0" slope="0.00" signals="0"/>
        <vehicle id="stopped2" x="56.41" y="-1.65" angle="90.00" type="noCoop" speed="5.17" pos="56.41" lane="VODUGES_beg_0" slope="0.00" signals="0"/>
    </timestep>
    <timestep time="14.50">
        <vehicle id="oncoming2" x="123.41" y="1.65" angle="270.00" type="DEFAULT_VEHTYPE" speed="13.89" pos="76.59" lane="-VODUGES_beg_0" slope="0.00" signals="0"/>
        <vehicle id="oncoming3" x="144.70" y="1.65" angle="270.00" type="DEFAULT_VEHTYPE" speed="13.86" pos="55.30" lane="-VODUGES_beg_0" slope="0.00" signals="0"/>
        <vehicle id="overtaking" x="52.05" y="-1.65" angle="90.00" type="DEFAULT_VEHTYPE" speed="0.97" pos="52.05" lane="VODUGES_beg_0" slope="0.00" signals="1"/>
        <vehicle id="stopped" x="75.22" y="-1.65" angle="90.00" type="noCoop" speed="9.92" pos="75.22" lane="VODUGES_beg_0" slope="0.00" signals="0"/>
        <vehicle id="stopped2" x="59.88" y="-1.65" angle="90.00" type="noCoop" speed="6.95" pos="59.88" lane="VODUGES_beg_0" slope="0.00" signals="0"/>
    </timestep>
    <timestep time="15.00">
        <vehicle id="oncoming2" x="116.47" y="1.65" angle="270.00" type="DEFAULT_VEHTYPE" speed="13.89" pos="83.53" lane="-VODUGES_beg_0" slope="0.00" signals="0"/>
        <vehicle id="oncoming3" x="137.76" y="1.65" angle="270.00" type="DEFAULT_VEHTYPE" speed="13.86" pos="62.24" lane="-VODUGES_beg_0" slope="0.00" signals="0"/>
        <vehicle id="overtaking" x="53.18" y="-1.65" angle="90.00" type="DEFAULT_VEHTYPE" speed="2.27" pos="53.18" lane="VODUGES_beg_0" slope="0.00" signals="0"/>
        <vehicle id="stopped" x="80.76" y="-1.65" angle="90.00" type="noCoop" speed="11.09" pos="80.76" lane="VODUGES_beg_0" slope="0.00" signals="0"/>
        <vehicle id="stopped2" x="63.90" y="-1.65" angle="90.00" type="noCoop" speed="8.05" pos="63.90" lane="VODUGES_beg_0" slope="0.00" signals="0"/>
    </timestep>
    <timestep time="15.50">
        <vehicle id="oncoming2" x="109.53" y="1.65" angle="270.00" type="DEFAULT_VEHTYPE" speed="13.89" pos="90.47" lane="-VODUGES_beg_0" slope="0.00" signals="0"/>
        <vehicle id="oncoming3" x="130.83" y="1.65" angle="270.00" type="DEFAULT_VEHTYPE" speed="13.87" pos="69.17" lane="-VODUGES_beg_0" slope="0.00" signals="0"/>
        <vehicle id="overtaking" x="54.97" y="-1.65" angle="90.00" type="DEFAULT_VEHTYPE" speed="3.57" pos="54.97" lane="VODUGES_beg_0" slope="0.00" signals="0"/>
        <vehicle id="stopped" x="86.89" y="-1.65" angle="90.00" type="noCoop" speed="12.27" pos="86.89" lane="VODUGES_beg_0" slope="0.00" signals="0"/>
        <vehicle id="stopped2" x="68.59" y="-1.65" angle="90.00" type="noCoop" speed="9.37" pos="68.59" lane="VODUGES_beg_0" slope="0.00" signals="0"/>
    </timestep>
    <timestep time="16.00">
        <vehicle id="oncoming2" x="102.58" y="1.65" angle="270.00" type="DEFAULT_VEHTYPE" speed="13.89" pos="97.42" lane="-VODUGES_beg_0" slope="0.00" signals="0"/>
        <vehicle id="oncoming3" x="123.90" y="1.65" angle="270.00" type="DEFAULT_VEHTYPE" speed="13.87" pos="76.10" lane="-VODUGES_beg_0" slope="0.00" signals="0"/>
        <vehicle id="overtaking" x="57.40" y="-1.65" angle="90.00" type="DEFAULT_VEHTYPE" speed="4.87" pos="57.40" lane="VODUGES_beg_0" slope="0.00" signals="0"/>
        <vehicle id="stopped" x="93.52" y="-1.65" angle="90.00" type="noCoop" speed="13.24" pos="93.52" lane="VODUGES_beg_0" slope="0.00" signals="0"/>
        <vehicle id="stopped2" x="74.21" y="-1.65" angle="90.00" type="noCoop" speed="11.25" pos="74.21" lane="VODUGES_beg_0" slope="0.00" signals="0"/>
    </timestep>
    <timestep time="16.50">
        <vehicle id="oncoming2" x="95.64" y="1.65" angle="270.00" type="DEFAULT_VEHTYPE" speed="13.89" pos="104.36" lane="-VODUGES_beg_0" slope="0.00" signals="0"/>
        <vehicle id="oncoming3" x="116.96" y="1.65" angle="270.00" type="DEFAULT_VEHTYPE" speed="13.87" pos="83.04" lane="-VODUGES_beg_0" slope="0.00" signals="0"/>
        <vehicle id="overtaking" x="60.48" y="-1.65" angle="90.00" type="DEFAULT_VEHTYPE" speed="6.17" pos="60.48" lane="VODUGES_beg_0" slope="0.00" signals="0"/>
        <vehicle id="stopped" x="100.19" y="-1.65" angle="90.00" type="noCoop" speed="13.34" pos="100.19" lane="VODUGES_beg_0" slope="0.00" signals="0"/>
        <vehicle id="stopped2" x="80.37" y="-1.65" angle="90.00" type="noCoop" speed="12.33" pos="80.37" lane="VODUGES_beg_0" slope="0.00" signals="0"/>
    </timestep>
    <timestep time="17.00">
        <vehicle id="oncoming2" x="88.69" y="1.65" angle="270.00" type="DEFAULT_VEHTYPE" speed="13.89" pos="111.31" lane="-VODUGES_beg_0" slope="0.00" signals="0"/>
        <vehicle id="oncoming3" x="110.02" y="1.65" angle="270.00" type="DEFAULT_VEHTYPE" speed="13.87" pos="89.98" lane="-VODUGES_beg_0" slope="0.00" signals="0"/>
        <vehicle id="overtaking" x="64.22" y="-1.65" angle="90.00" type="DEFAULT_VEHTYPE" speed="7.47" pos="64.22" lane="VODUGES_beg_0" slope="0.00" signals="0"/>
        <vehicle id="stopped" x="106.85" y="-1.65" angle="90.00" type="noCoop" speed="13.32" pos="106.85" lane="VODUGES_beg_0" slope="0.00" signals="0"/>
        <vehicle id="stopped2" x="86.70" y="-1.65" angle="90.00" type="noCoop" speed="12.66" pos="86.70" lane="VODUGES_beg_0" slope="0.00" signals="0"/>
    </timestep>
    <timestep time="17.50">
        <vehicle id="oncoming2" x="81.75" y="1.65" angle="270.00" type="DEFAULT_VEHTYPE" speed="13.89" pos="118.25" lane="-VODUGES_beg_0" slope="0.00" signals="0"/>
        <vehicle id="oncoming3" x="103.09" y="1.65" angle="270.00" type="DEFAULT_VEHTYPE" speed="13.88" pos="96.91" lane="-VODUGES_beg_0" slope="0.00" signals="0"/>
        <vehicle id="overtaking" x="68.60" y="-1.65" angle="90.00" type="DEFAULT_VEHTYPE" speed="8.77" pos="68.60" lane="VODUGES_beg_0" slope="0.00" signals="0"/>
        <vehicle id="stopped" x="113.33" y="-1.65" angle="90.00" type="noCoop" speed="12.98" pos="113.33" lane="VODUGES_beg_0" slope="0.00" signals="0"/>
        <vehicle id="stopped2" x="93.07" y="-1.65" angle="90.00" type="noCoop" speed="12.74" pos="93.07" lane="VODUGES_beg_0" slope="0.00" signals="0"/>
    </timestep>
    <timestep time="18.00">
        <vehicle id="oncoming2" x="74.80" y="1.65" angle="270.00" type="DEFAULT_VEHTYPE" speed="13.89" pos="125.20" lane="-VODUGES_beg_0" slope="0.00" signals="0"/>
        <vehicle id="oncoming3" x="96.15" y="1.65" angle="270.00" type="DEFAULT_VEHTYPE" speed="13.88" pos="103.85" lane="-VODUGES_beg_0" slope="0.00" signals="0"/>
        <vehicle id="overtaking" x="73.63" y="-1.65" angle="90.00" type="DEFAULT_VEHTYPE" speed="10.07" pos="73.63" lane="VODUGES_beg_0" slope="0.00" signals="0"/>
        <vehicle id="stopped" x="119.79" y="-1.65" angle="90.00" type="noCoop" speed="12.92" pos="119.79" lane="VODUGES_beg_0" slope="0.00" signals="0"/>
        <vehicle id="stopped2" x="99.12" y="-1.65" angle="90.00" type="noCoop" speed="12.09" pos="99.12" lane="VODUGES_beg_0" slope="0.00" signals="0"/>
    </timestep>
    <timestep time="18.50">
        <vehicle id="oncoming2" x="67.86" y="1.65" angle="270.00" type="DEFAULT_VEHTYPE" speed="13.89" pos="132.14" lane="-VODUGES_beg_0" slope="0.00" signals="0"/>
        <vehicle id="oncoming3" x="89.21" y="1.65" angle="270.00" type="DEFAULT_VEHTYPE" speed="13.88" pos="110.79" lane="-VODUGES_beg_0" slope="0.00" signals="0"/>
        <vehicle id="overtaking" x="79.32" y="-1.65" angle="90.00" type="DEFAULT_VEHTYPE" speed="11.37" pos="79.32" lane="VODUGES_beg_0" slope="0.00" signals="0"/>
        <vehicle id="stopped" x="126.62" y="-1.65" angle="90.00" type="noCoop" speed="13.65" pos="126.62" lane="VODUGES_beg_0" slope="0.00" signals="0"/>