<?xml version="1.0" encoding="UTF-8"?>

<!-- generated on Wed Mar 11 22:23:46 2020 by Eclipse SUMO Version v1_5_0+0662-a598ecae47
This data file and the accompanying materials
are made available under the terms of the Eclipse Public License v2.0
which accompanies this distribution, and is available at
http://www.eclipse.org/legal/epl-v20.html
SPDX-License-Identifier: EPL-2.0
<configuration xmlns:xsi="http://www.w3.org/2001/XMLSchema-instance" xsi:noNamespaceSchemaLocation="http://sumo.dlr.de/xsd/sumoConfiguration.xsd">

    <input>
        <net-file value="net.net.xml"/>
        <route-files value="input_routes.rou.xml"/>
    </input>

    <output>
        <write-license value="true"/>
        <fcd-output value="fcd.xml"/>
        <fcd-output.signals value="true"/>
        <tripinfo-output value="tripinfos.xml"/>
    </output>

    <processing>
        <default.speeddev value="0"/>
    </processing>

    <report>
        <xml-validation value="never"/>
        <no-step-log value="true"/>
    </report>

</configuration>
-->

<fcd-export xmlns:xsi="http://www.w3.org/2001/XMLSchema-instance" xsi:noNamespaceSchemaLocation="http://sumo.dlr.de/xsd/fcd_file.xsd">
    <timestep time="0.00">
        <vehicle id="stopped" x="40.00" y="-1.65" angle="90.00" type="noCoop" speed="0.00" pos="40.00" lane="VODUGES_beg_0" slope="0.00" signals="0"/>
    </timestep>
    <timestep time="1.00">
        <vehicle id="stopped" x="43.99" y="-1.65" angle="90.00" type="noCoop" speed="3.99" pos="43.99" lane="VODUGES_beg_0" slope="0.00" signals="0"/>
    </timestep>
    <timestep time="2.00">
        <vehicle id="overtaking" x="0.00" y="-1.65" angle="90.00" type="DEFAULT_VEHTYPE" speed="0.00" pos="0.00" lane="VODUGES_beg_0" slope="0.00" signals="0"/>
        <vehicle id="stopped" x="51.37" y="-1.65" angle="90.00" type="noCoop" speed="7.37" pos="51.37" lane="VODUGES_beg_0" slope="0.00" signals="0"/>
        <vehicle id="stopped2" x="40.00" y="-1.65" angle="90.00" type="DEFAULT_VEHTYPE" speed="0.00" pos="40.00" lane="VODUGES_beg_0" slope="0.00" signals="0"/>
    </timestep>
    <timestep time="3.00">
        <vehicle id="oncoming1" x="100.00" y="1.65" angle="270.00" type="DEFAULT_VEHTYPE" speed="0.00" pos="100.00" lane="-VODUGES_beg_0" slope="0.00" signals="0"/>
        <vehicle id="overtaking" x="2.60" y="-1.65" angle="90.00" type="DEFAULT_VEHTYPE" speed="2.60" pos="2.60" lane="VODUGES_beg_0" slope="0.00" signals="0"/>
        <vehicle id="stopped" x="55.52" y="-1.65" angle="90.00" type="noCoop" speed="4.16" pos="55.52" lane="VODUGES_beg_0" slope="0.00" signals="8"/>
        <vehicle id="stopped2" x="42.60" y="-1.65" angle="90.00" type="DEFAULT_VEHTYPE" speed="2.60" pos="42.60" lane="VODUGES_beg_0" slope="0.00" signals="0"/>
    </timestep>
    <timestep time="4.00">
        <vehicle id="oncoming1" x="97.40" y="1.65" angle="270.00" type="DEFAULT_VEHTYPE" speed="2.60" pos="102.60" lane="-VODUGES_beg_0" slope="0.00" signals="0"/>
        <vehicle id="overtaking" x="7.80" y="-1.65" angle="90.00" type="DEFAULT_VEHTYPE" speed="5.20" pos="7.80" lane="VODUGES_beg_0" slope="0.00" signals="0"/>
        <vehicle id="stopped" x="56.83" y="-1.65" angle="90.00" type="noCoop" speed="1.30" pos="56.83" lane="VODUGES_beg_0" slope="0.00" signals="8"/>
        <vehicle id="stopped2" x="47.56" y="-1.65" angle="90.00" type="DEFAULT_VEHTYPE" speed="4.96" pos="47.56" lane="VODUGES_beg_0" slope="0.00" signals="0"/>
    </timestep>
    <timestep time="5.00">
        <vehicle id="oncoming1" x="92.20" y="1.65" angle="270.00" type="DEFAULT_VEHTYPE" speed="5.20" pos="107.80" lane="-VODUGES_beg_0" slope="0.00" signals="0"/>
        <vehicle id="overtaking" x="15.60" y="-1.65" angle="90.00" type="DEFAULT_VEHTYPE" speed="7.80" pos="15.60" lane="VODUGES_beg_0" slope="0.00" signals="0"/>
        <vehicle id="stopped" x="57.95" y="-1.65" angle="90.00" type="noCoop" speed="1.13" pos="57.95" lane="VODUGES_beg_0" slope="0.00" signals="8"/>
        <vehicle id="stopped2" x="49.33" y="-1.65" angle="90.00" type="DEFAULT_VEHTYPE" speed="1.77" pos="49.33" lane="VODUGES_beg_0" slope="0.00" signals="8"/>
    </timestep>
    <timestep time="6.00">
        <vehicle id="oncoming1" x="84.40" y="1.65" angle="270.00" type="DEFAULT_VEHTYPE" speed="7.80" pos="115.60" lane="-VODUGES_beg_0" slope="0.00" signals="0"/>
        <vehicle id="overtaking" x="26.00" y="-1.65" angle="90.00" type="DEFAULT_VEHTYPE" speed="10.40" pos="26.00" lane="VODUGES_beg_0" slope="0.00" signals="0"/>
        <vehicle id="stopped" x="57.98" y="-1.65" angle="90.00" type="noCoop" speed="0.03" pos="57.98" lane="VODUGES_beg_0" slope="0.00" signals="0"/>
        <vehicle id="stopped2" x="50.00" y="-1.65" angle="90.00" type="DEFAULT_VEHTYPE" speed="0.67" pos="50.00" lane="VODUGES_beg_0" slope="0.00" signals="8"/>
    </timestep>
    <timestep time="7.00">
        <vehicle id="oncoming1" x="74.00" y="1.65" angle="270.00" type="DEFAULT_VEHTYPE" speed="10.40" pos="126.00" lane="-VODUGES_beg_0" slope="0.00" signals="0"/>
        <vehicle id="overtaking" x="36.00" y="-1.65" angle="90.00" type="DEFAULT_VEHTYPE" speed="10.00" pos="36.00" lane="VODUGES_beg_0" slope="0.00" signals="0"/>
        <vehicle id="stopped" x="57.98" y="-1.65" angle="90.00" type="noCoop" speed="0.00" pos="57.98" lane="VODUGES_beg_0" slope="0.00" signals="0"/>
        <vehicle id="stopped2" x="50.00" y="-1.65" angle="90.00" type="DEFAULT_VEHTYPE" speed="0.00" pos="50.00" lane="VODUGES_beg_0" slope="0.00" signals="0"/>
    </timestep>
    <timestep time="8.00">
        <vehicle id="oncoming1" x="61.00" y="1.65" angle="270.00" type="DEFAULT_VEHTYPE" speed="13.00" pos="139.00" lane="-VODUGES_beg_0" slope="0.00" signals="0"/>
        <vehicle id="oncoming2" x="180.00" y="1.65" angle="270.00" type="DEFAULT_VEHTYPE" speed="0.00" pos="20.00" lane="-VODUGES_beg_0" slope="0.00" signals="0"/>
        <vehicle id="oncoming3" x="200.00" y="1.65" angle="270.00" type="DEFAULT_VEHTYPE" speed="0.00" pos="0.00" lane="-VODUGES_beg_0" slope="0.00" signals="0"/>
        <vehicle id="overtaking" x="41.50" y="-1.65" angle="90.00" type="DEFAULT_VEHTYPE" speed="5.50" pos="41.50" lane="VODUGES_beg_0" slope="0.00" signals="8"/>
        <vehicle id="stopped" x="57.98" y="-1.65" angle="90.00" type="noCoop" speed="0.00" pos="57.98" lane="VODUGES_beg_0" slope="0.00" signals="0"/>
        <vehicle id="stopped2" x="50.00" y="-1.65" angle="90.00" type="DEFAULT_VEHTYPE" speed="0.00" pos="50.00" lane="VODUGES_beg_0" slope="0.00" signals="0"/>
    </timestep>
    <timestep time="9.00">
        <vehicle id="oncoming1" x="47.11" y="1.65" angle="270.00" type="DEFAULT_VEHTYPE" speed="13.89" pos="152.89" lane="-VODUGES_beg_0" slope="0.00" signals="0"/>
        <vehicle id="oncoming2" x="177.40" y="1.65" angle="270.00" type="DEFAULT_VEHTYPE" speed="2.60" pos="22.60" lane="-VODUGES_beg_0" slope="0.00" signals="0"/>
        <vehicle id="oncoming3" x="197.40" y="1.65" angle="270.00" type="DEFAULT_VEHTYPE" speed="2.60" pos="2.60" lane="-VODUGES_beg_0" slope="0.00" signals="0"/>
        <vehicle id="overtaking" x="42.50" y="-1.65" angle="90.00" type="DEFAULT_VEHTYPE" speed="1.00" pos="42.50" lane="VODUGES_beg_0" slope="0.00" signals="8"/>
        <vehicle id="stopped" x="57.98" y="-1.65" angle="90.00" type="noCoop" speed="0.00" pos="57.98" lane="VODUGES_beg_0" slope="0.00" signals="0"/>
        <vehicle id="stopped2" x="50.00" y="-1.65" angle="90.00" type="DEFAULT_VEHTYPE" speed="0.00" pos="50.00" lane="VODUGES_beg_0" slope="0.00" signals="0"/>
    </timestep>
    <timestep time="10.00">
        <vehicle id="oncoming1" x="33.22" y="1.65" angle="270.00" type="DEFAULT_VEHTYPE" speed="13.89" pos="166.78" lane="-VODUGES_beg_0" slope="0.00" signals="0"/>
        <vehicle id="oncoming2" x="172.20" y="1.65" angle="270.00" type="DEFAULT_VEHTYPE" speed="5.20" pos="27.80" lane="-VODUGES_beg_0" slope="0.00" signals="0"/>
        <vehicle id="oncoming3" x="192.20" y="1.65" angle="270.00" type="DEFAULT_VEHTYPE" speed="5.20" pos="7.80" lane="-VODUGES_beg_0" slope="0.00" signals="0"/>
        <vehicle id="overtaking" x="42.50" y="-1.65" angle="90.00" type="DEFAULT_VEHTYPE" speed="0.00" pos="42.50" lane="VODUGES_beg_0" slope="0.00" signals="8"/>
        <vehicle id="stopped" x="57.98" y="-1.65" angle="90.00" type="noCoop" speed="0.00" pos="57.98" lane="VODUGES_beg_0" slope="0.00" signals="0"/>
        <vehicle id="stopped2" x="50.00" y="-1.65" angle="90.00" type="DEFAULT_VEHTYPE" speed="0.00" pos="50.00" lane="VODUGES_beg_0" slope="0.00" signals="0"/>
    </timestep>
    <timestep time="11.00">
        <vehicle id="oncoming1" x="19.33" y="1.65" angle="270.00" type="DEFAULT_VEHTYPE" speed="13.89" pos="180.67" lane="-VODUGES_beg_0" slope="0.00" signals="0"/>
        <vehicle id="oncoming2" x="164.40" y="1.65" angle="270.00" type="DEFAULT_VEHTYPE" speed="7.80" pos="35.60" lane="-VODUGES_beg_0" slope="0.00" signals="0"/>
        <vehicle id="oncoming3" x="184.40" y="1.65" angle="270.00" type="DEFAULT_VEHTYPE" speed="7.80" pos="15.60" lane="-VODUGES_beg_0" slope="0.00" signals="0"/>
        <vehicle id="overtaking" x="42.50" y="1.65" angle="90.00" type="DEFAULT_VEHTYPE" speed="0.00" pos="157.50" lane="-VODUGES_beg_0" slope="0.00" signals="10"/>
        <vehicle id="stopped" x="57.98" y="-1.65" angle="90.00" type="noCoop" speed="0.00" pos="57.98" lane="VODUGES_beg_0" slope="0.00" signals="0"/>
        <vehicle id="stopped2" x="50.00" y="-1.65" angle="90.00" type="DEFAULT_VEHTYPE" speed="0.00" pos="50.00" lane="VODUGES_beg_0" slope="0.00" signals="0"/>
    </timestep>
    <timestep time="12.00">
        <vehicle id="oncoming1" x="5.44" y="1.65" angle="270.00" type="DEFAULT_VEHTYPE" speed="13.89" pos="194.56" lane="-VODUGES_beg_0" slope="0.00" signals="0"/>
        <vehicle id="oncoming2" x="154.00" y="1.65" angle="270.00" type="DEFAULT_VEHTYPE" speed="10.40" pos="46.00" lane="-VODUGES_beg_0" slope="0.00" signals="0"/>
        <vehicle id="oncoming3" x="174.63" y="1.65" angle="270.00" type="DEFAULT_VEHTYPE" speed="9.77" pos="25.37" lane="-VODUGES_beg_0" slope="0.00" signals="0"/>
        <vehicle id="overtaking" x="45.10" y="1.65" angle="90.00" type="DEFAULT_VEHTYPE" speed="2.60" pos="154.90" lane="-VODUGES_beg_0" slope="0.00" signals="0"/>
        <vehicle id="stopped" x="57.98" y="-1.65" angle="90.00" type="noCoop" speed="0.00" pos="57.98" lane="VODUGES_beg_0" slope="0.00" signals="0"/>
        <vehicle id="stopped2" x="50.00" y="-1.65" angle="90.00" type="DEFAULT_VEHTYPE" speed="0.00" pos="50.00" lane="VODUGES_beg_0" slope="0.00" signals="0"/>
    </timestep>
    <timestep time="13.00">
        <vehicle id="oncoming2" x="141.00" y="1.65" angle="270.00" type="DEFAULT_VEHTYPE" speed="13.00" pos="59.00" lane="-VODUGES_beg_0" slope="0.00" signals="0"/>
        <vehicle id="oncoming3" x="163.32" y="1.65" angle="270.00" type="DEFAULT_VEHTYPE" speed="11.31" pos="36.68" lane="-VODUGES_beg_0" slope="0.00" signals="0"/>
        <vehicle id="overtaking" x="50.30" y="1.65" angle="90.00" type="DEFAULT_VEHTYPE" speed="5.20" pos="149.70" lane="-VODUGES_beg_0" slope="0.00" signals="0"/>
        <vehicle id="stopped" x="60.37" y="-1.65" angle="90.00" type="noCoop" speed="2.38" pos="60.37" lane="VODUGES_beg_0" slope="0.00" signals="0"/>
        <vehicle id="stopped2" x="50.48" y="-1.65" angle="90.00" type="DEFAULT_VEHTYPE" speed="0.48" pos="50.48" lane="VODUGES_beg_0" slope="0.00" signals="0"/>
    </timestep>
    <timestep time="14.00">
        <vehicle id="oncoming2" x="127.11" y="1.65" angle="270.00" type="DEFAULT_VEHTYPE" speed="13.89" pos="72.89" lane="-VODUGES_beg_0" slope="0.00" signals="0"/>
        <vehicle id="oncoming3" x="149.74" y="1.65" angle="270.00" type="DEFAULT_VEHTYPE" speed="13.58" pos="50.26" lane="-VODUGES_beg_0" slope="0.00" signals="0"/>
        <vehicle id="overtaking" x="58.10" y="1.65" angle="90.00" type="DEFAULT_VEHTYPE" speed="7.80" pos="141.90" lane="-VODUGES_beg_0" slope="0.00" signals="1"/>
        <vehicle id="stopped" x="65.08" y="-1.65" angle="90.00" type="noCoop" speed="4.71" pos="65.08" lane="VODUGES_beg_0" slope="0.00" signals="0"/>
        <vehicle id="stopped2" x="50.96" y="-1.65" angle="90.00" type="DEFAULT_VEHTYPE" speed="0.48" pos="50.96" lane="VODUGES_beg_0" slope="0.00" signals="0"/>
    </timestep>
    <timestep time="15.00">
        <vehicle id="oncoming2" x="113.22" y="1.65" angle="270.00" type="DEFAULT_VEHTYPE" speed="13.89" pos="86.78" lane="-VODUGES_beg_0" slope="0.00" signals="0"/>
        <vehicle id="oncoming3" x="135.85" y="1.65" angle="270.00" type="DEFAULT_VEHTYPE" speed="13.89" pos="64.15" lane="-VODUGES_beg_0" slope="0.00" signals="0"/>
        <vehicle id="overtaking" x="61.40" y="-1.65" angle="90.00" type="DEFAULT_VEHTYPE" speed="3.30" pos="61.40" lane="VODUGES_beg_0" slope="0.00" signals="9"/>
        <vehicle id="stopped" x="73.28" y="-1.65" angle="90.00" type="noCoop" speed="8.21" pos="73.28" lane="VODUGES_beg_0" slope="0.00" signals="0"/>
        <vehicle id="stopped2" x="51.49" y="-1.65" angle="90.00" type="DEFAULT_VEHTYPE" speed="0.52" pos="51.49" lane="VODUGES_beg_0" slope="0.00" signals="0"/>
    </timestep>
    <timestep time="16.00">
        <vehicle id="oncoming2" x="99.33" y="1.65" angle="270.00" type="DEFAULT_VEHTYPE" speed="13.89" pos="100.67" lane="-VODUGES_beg_0" slope="0.00" signals="0"/>
        <vehicle id="oncoming3" x="121.96" y="1.65" angle="270.00" type="DEFAULT_VEHTYPE" speed="13.89" pos="78.04" lane="-VODUGES_beg_0" slope="0.00" signals="0"/>
        <vehicle id="overtaking" x="67.30" y="-1.65" angle="90.00" type="DEFAULT_VEHTYPE" speed="5.90" pos="67.30" lane="VODUGES_beg_0" slope="0.00" signals="0"/>
        <vehicle id="stopped" x="85.11" y="-1.65" angle="90.00" type="noCoop" speed="11.82" pos="85.11" lane="VODUGES_beg_0" slope="0.00" signals="0"/>
        <vehicle id="stopped2" x="53.90" y="-1.65" angle="90.00" type="DEFAULT_VEHTYPE" speed="2.41" pos="53.90" lane="VODUGES_beg_0" slope="0.00" signals="0"/>
    </timestep>
    <timestep time="17.00">
        <vehicle id="oncoming2" x="85.44" y="1.65" angle="270.00" type="DEFAULT_VEHTYPE" speed="13.89" pos="114.56" lane="-VODUGES_beg_0" slope="0.00" signals="0"/>
        <vehicle id="oncoming3" x="108.07" y="1.65" angle="270.00" type="DEFAULT_VEHTYPE" speed="13.89" pos="91.93" lane="-VODUGES_beg_0" slope="0.00" signals="0"/>
        <vehicle id="overtaking" x="75.80" y="-1.65" angle="90.00" type="DEFAULT_VEHTYPE" speed="8.50" pos="75.80" lane="VODUGES_beg_0" slope="0.00" signals="0"/>
        <vehicle id="stopped" x="97.70" y="-1.65" angle="90.00" type="noCoop" speed="12.59" pos="97.70" lane="VODUGES_beg_0" slope="0.00" signals="0"/>
        <vehicle id="stopped2" x="58.91" y="-1.65" angle="90.00" type="DEFAULT_VEHTYPE" speed="5.01" pos="58.91" lane="VODUGES_beg_0" slope="0.00" signals="0"/>
    </timestep>
    <timestep time="18.00">
        <vehicle id="oncoming2" x="71.55" y="1.65" angle="270.00" type="DEFAULT_VEHTYPE" speed="13.89" pos="128.45" lane="-VODUGES_beg_0" slope="0.00" signals="0"/>
        <vehicle id="oncoming3" x="94.18" y="1.65" angle="270.00" type="DEFAULT_VEHTYPE" speed="13.89" pos="105.82" lane="-VODUGES_beg_0" slope="0.00" signals="0"/>
        <vehicle id="overtaking" x="86.90" y="-1.65" angle="90.00" type="DEFAULT_VEHTYPE" speed="11.10" pos="86.90" lane="VODUGES_beg_0" slope="0.00" signals="0"/>
        <vehicle id="stopped" x="110.34" y="-1.65" angle="90.00" type="noCoop" speed="12.64" pos="110.34" lane="VODUGES_beg_0" slope="0.00" signals="0"/>
        <vehicle id="stopped2" x="66.52" y="-1.65" angle="90.00" type="DEFAULT_VEHTYPE" speed="7.61" pos="66.52" lane="VODUGES_beg_0" slope="0.00" signals="0"/>
    </timestep>
    <timestep time="19.00">
        <vehicle id="oncoming2" x="57.66" y="1.65" angle="270.00" type="DEFAULT_VEHTYPE" speed="13.89" pos="142.34" lane="-VODUGES_beg_0" slope="0.00" signals="0"/>
        <vehicle id="oncoming3" x="80.29" y="1.65" angle="270.00" type="DEFAULT_VEHTYPE" speed="13.89" pos="119.71" lane="-VODUGES_beg_0" slope="0.00" signals="0"/>
        <vehicle id="overtaking" x="100.58" y="-1.65" angle="90.00" type="DEFAULT_VEHTYPE" speed="13.68" pos="100.58" lane="VODUGES_beg_0" slope="0.00" signals="0"/>
        <vehicle id="stopped" x="123.22" y="-1.65" angle="90.00" type="noCoop" speed="12.88" pos="123.22" lane="VODUGES_beg_0" slope="0.00" signals="0"/>
        <vehicle id="stopped2" x="76.74" y="-1.65" angle="90.00" type="DEFAULT_VEHTYPE" speed="10.21" pos="76.74" lane="VODUGES_beg_0" slope="0.00" signals="0"/>
    </timestep>
    <timestep time="20.00">
        <vehicle id="oncoming2" x="43.77" y="1.65" angle="270.00" type="DEFAULT_VEHTYPE" speed="13.89" pos="156.23" lane="-VODUGES_beg_0" slope="0.00" signals="0"/>
        <vehicle id="oncoming3" x="66.40" y="1.65" angle="270.00" type="DEFAULT_VEHTYPE" speed="13.89" pos="133.60" lane="-VODUGES_beg_0" slope="0.00" signals="0"/>
        <vehicle id="overtaking" x="114.18" y="-1.65" angle="90.00" type="DEFAULT_VEHTYPE" speed="13.60" pos="114.18" lane="VODUGES_beg_0" slope="0.00" signals="0"/>
        <vehicle id="stopped" x="136.10" y="-1.65" angle="90.00" type="noCoop" speed="12.88" pos="136.10" lane="VODUGES_beg_0" slope="0.00" signals="0"/>
        <vehicle id="stopped2" x="89.55" y="-1.65" angle="90.00" type="DEFAULT_VEHTYPE" speed="12.81" pos="89.55" lane="VODUGES_beg_0" slope="0.00" signals="0"/>
    </timestep>
    <timestep time="21.00">
        <vehicle id="oncoming2" x="29.88" y="1.65" angle="270.00" type="DEFAULT_VEHTYPE" speed="13.89" pos="170.12" lane="-VODUGES_beg_0" slope="0.00" signals="0"/>
        <vehicle id="oncoming3" x="52.51" y="1.65" angle="270.00" type="DEFAULT_VEHTYPE" speed="13.89" pos="147.49" lane="-VODUGES_beg_0" slope="0.00" signals="0"/>
        <vehicle id="overtaking" x="127.57" y="-1.65" angle="90.00" type="DEFAULT_VEHTYPE" speed="13.39" pos="127.57" lane="VODUGES_beg_0" slope="0.00" signals="0"/>
        <vehicle id="stopped" x="148.90" y="-1.65" angle="90.00" type="noCoop" speed="12.80" pos="148.90" lane="VODUGES_beg_0" slope="0.00" signals="0"/>
        <vehicle id="stopped2" x="103.44" y="-1.65" angle="90.00" type="DEFAULT_VEHTYPE" speed="13.89" pos="103.44" lane="VODUGES_beg_0" slope="0.00" signals="0"/>
    </timestep>
    <timestep time="22.00">
        <vehicle id="oncoming2" x="15.99" y="1.65" angle="270.00" type="DEFAULT_VEHTYPE" speed="13.89" pos="184.01" lane="-VODUGES_beg_0" slope="0.00" signals="0"/>
        <vehicle id="oncoming3" x="38.62" y="1.65" angle="270.00" type="DEFAULT_VEHTYPE" speed="13.89" pos="161.38" lane="-VODUGES_beg_0" slope="0.00" signals="0"/>
        <vehicle id="overtaking" x="140.72" y="-1.65" angle="90.00" type="DEFAULT_VEHTYPE" speed="13.14" pos="140.72" lane="VODUGES_beg_0" slope="0.00" signals="0"/>
        <vehicle id="stopped" x="161.45" y="-1.65" angle="90.00" type="noCoop" speed="12.55" pos="161.45" lane="VODUGES_beg_0" slope="0.00" signals="0"/>
        <vehicle id="stopped2" x="117.33" y="-1.65" angle="90.00" type="DEFAULT_VEHTYPE" speed="13.89" pos="117.33" lane="VODUGES_beg_0" slope="0.00" signals="0"/>
    </timestep>
    <timestep time="23.00">
        <vehicle id="oncoming2" x="2.10" y="1.65" angle="270.00" type="DEFAULT_VEHTYPE" speed="13.89" pos="197.90" lane="-VODUGES_beg_0" slope="0.00" signals="0"/>
        <vehicle id="oncoming3" x="24.73" y="1.65" angle="270.00" type="DEFAULT_VEHTYPE" speed="13.89" pos="175.27" lane="-VODUGES_beg_0" slope="0.00" signals="0"/>
        <vehicle id="overtaking" x="153.49" y="-1.65" angle="90.00" type="DEFAULT_VEHTYPE" speed="12.78" pos="153.49" lane="VODUGES_beg_0" slope="0.00" signals="0"/>
        <vehicle id="stopped" x="174.41" y="-1.65" angle="90.00" type="noCoop" speed="12.96" pos="174.41" lane="VODUGES_beg_0" slope="0.00" signals="0"/>
        <vehicle id="stopped2" x="131.22" y="-1.65" angle="90.00" type="DEFAULT_VEHTYPE" speed="13.89" pos="131.22" lane="VODUGES_beg_0" slope="0.00" signals="0"/>
    </timestep>
    <timestep time="24.00">
        <vehicle id="oncoming3" x="10.84" y="1.65" angle="270.00" type="DEFAULT_VEHTYPE" speed="13.89" pos="189.16" lane="-VODUGES_beg_0" slope="0.00" signals="0"/>
        <vehicle id="overtaking" x="166.61" y="-1.65" angle="90.00" type="DEFAULT_VEHTYPE" speed="13.11" pos="166.61" lane="VODUGES_beg_0" slope="0.00" signals="0"/>
        <vehicle id="stopped" x="187.32" y="-1.65" angle="90.00" type="noCoop" speed="12.91" pos="187.32" lane="VODUGES_beg_0" slope="0.00" signals="0"/>
        <vehicle id="stopped2" x="144.66" y="-1.65" angle="90.00" type="DEFAULT_VEHTYPE" speed="13.44" pos="144.66" lane="VODUGES_beg_0" slope="0.00" signals="0"/>
    </timestep>
    <timestep time="25.00">
        <vehicle id="overtaking" x="179.61" y="-1.65" angle="90.00" type="DEFAULT_VEHTYPE" speed="13.01" pos="179.61" lane="VODUGES_beg_0" slope="0.00" signals="0"/>
        <vehicle id="stopped2" x="158.20" y="-1.65" angle="90.00" type="DEFAULT_VEHTYPE" speed="13.54" pos="158.20" lane="VODUGES_beg_0" slope="0.00" signals="0"/>
    </timestep>
    <timestep time="26.00">
        <vehicle id="overtaking" x="193.50" y="-1.65" angle="90.00" type="DEFAULT_VEHTYPE" speed="13.89" pos="193.50" lane="VODUGES_beg_0" slope="0.00" signals="0"/>
        <vehicle id="stopped2" x="171.51" y="-1.65" angle="90.00" type="DEFAULT_VEHTYPE" speed="13.31" pos="171.51" lane="VODUGES_beg_0" slope="0.00" signals="0"/>
    </timestep>
    <timestep time="27.00">
        <vehicle id="stopped2" x="185.40" y="-1.65" angle="90.00" type="DEFAULT_VEHTYPE" speed="13.89" pos="185.40" lane="VODUGES_beg_0" slope="0.00" signals="0"/>
    </timestep>
    <timestep time="28.00">
        <vehicle id="stopped2" x="199.29" y="-1.65" angle="90.00" type="DEFAULT_VEHTYPE" speed="13.89" pos="199.29" lane="VODUGES_beg_0" slope="0.00" signals="0"/>
    </timestep>
    <timestep time="29.00"/>
</fcd-export>
