<?xml version="1.0" encoding="UTF-8"?>

<!-- generated on Thu Jan  3 13:05:53 2019 by Eclipse SUMO Version v1_0_1+1015-8e01b2d
This data file and the accompanying materials
are made available under the terms of the Eclipse Public License v2.0
which accompanies this distribution, and is available at
http://www.eclipse.org/legal/epl-v20.html
SPDX-License-Identifier: EPL-2.0
<configuration xmlns:xsi="http://www.w3.org/2001/XMLSchema-instance" xsi:noNamespaceSchemaLocation="http://sumo.dlr.de/xsd/sumoConfiguration.xsd">

    <input>
        <net-file value="three_split.net.xml"/>
        <route-files value="input_routes.rou.xml"/>
        <additional-files value="input_additional.add.xml"/>
    </input>

    <output>
        <write-license value="true"/>
        <vehroute-output value="vehroutes.xml"/>
    </output>

    <time>
        <begin value="0"/>
    </time>

    <processing>
        <ignore-route-errors value="true"/>
        <default.speeddev value="0"/>
    </processing>

    <routing>
        <device.rerouting.pre-period value="0"/>
    </routing>

    <report>
        <xml-validation value="never"/>
        <duration-log.disable value="true"/>
        <no-step-log value="true"/>
    </report>

</configuration>
-->

<routes xmlns:xsi="http://www.w3.org/2001/XMLSchema-instance" xsi:noNamespaceSchemaLocation="http://sumo.dlr.de/xsd/routes_file.xsd">
    <vehicle id="rerouting_device.0" depart="0.00" color="blue" arrival="207.00">
        <routeDistribution>
            <route replacedOnEdge="beg" reason="rerouter" replacedAtTime="0.00" probability="0" edges="beg beg2left left left2end end rend"/>
            <route edges="beg beg2right right right2end end rend"/>
        </routeDistribution>
        <param key="has.rerouting.device" value="true"/>
    </vehicle>

    <vehicle id="rerouting_device.1" depart="4.00" color="blue" arrival="211.00">
        <routeDistribution>
            <route replacedOnEdge="beg" reason="rerouter" replacedAtTime="4.00" probability="0" edges="beg beg2left left left2end end rend"/>
            <route edges="beg beg2right right right2end end rend"/>
        </routeDistribution>
        <param key="has.rerouting.device" value="true"/>
    </vehicle>

    <vehicle id="rerouting_device.2" depart="8.00" color="blue" arrival="215.00">
        <routeDistribution>
            <route replacedOnEdge="beg" reason="rerouter" replacedAtTime="8.00" probability="0" edges="beg beg2left left left2end end rend"/>
            <route edges="beg beg2right right right2end end rend"/>
        </routeDistribution>
        <param key="has.rerouting.device" value="true"/>
    </vehicle>

    <vehicle id="rerouting_device.3" depart="12.00" color="blue" arrival="219.00">
        <routeDistribution>
            <route replacedOnEdge="beg" reason="rerouter" replacedAtTime="12.00" probability="0" edges="beg beg2left left left2end end rend"/>
            <route edges="beg beg2right right right2end end rend"/>
        </routeDistribution>
        <param key="has.rerouting.device" value="true"/>
    </vehicle>

    <vehicle id="rerouting_device.4" depart="16.00" color="blue" arrival="223.00">
        <routeDistribution>
            <route replacedOnEdge="beg" reason="rerouter" replacedAtTime="16.00" probability="0" edges="beg beg2left left left2end end rend"/>
            <route edges="beg beg2right right right2end end rend"/>
        </routeDistribution>
        <param key="has.rerouting.device" value="true"/>
    </vehicle>

    <vehicle id="rerouting_device.5" depart="20.00" color="blue" arrival="227.00">
        <routeDistribution>
            <route replacedOnEdge="beg" reason="rerouter" replacedAtTime="20.00" probability="0" edges="beg beg2left left left2end end rend"/>
            <route edges="beg beg2right right right2end end rend"/>
        </routeDistribution>
        <param key="has.rerouting.device" value="true"/>
    </vehicle>

    <vehicle id="rerouting_device.6" depart="24.00" color="blue" arrival="231.00">
        <routeDistribution>
            <route replacedOnEdge="beg" reason="rerouter" replacedAtTime="24.00" probability="0" edges="beg beg2left left left2end end rend"/>
            <route edges="beg beg2right right right2end end rend"/>
        </routeDistribution>
        <param key="has.rerouting.device" value="true"/>
    </vehicle>

    <vehicle id="rerouting_device.7" depart="28.00" color="blue" arrival="235.00">
        <routeDistribution>
            <route replacedOnEdge="beg" reason="rerouter" replacedAtTime="28.00" probability="0" edges="beg beg2left left left2end end rend"/>
            <route edges="beg beg2right right right2end end rend"/>
        </routeDistribution>
        <param key="has.rerouting.device" value="true"/>
    </vehicle>

    <vehicle id="rerouting_device.8" depart="32.00" color="blue" arrival="239.00">
        <routeDistribution>
            <route replacedOnEdge="beg" reason="rerouter" replacedAtTime="32.00" probability="0" edges="beg beg2left left left2end end rend"/>
            <route edges="beg beg2right right right2end end rend"/>
        </routeDistribution>
        <param key="has.rerouting.device" value="true"/>
    </vehicle>

    <vehicle id="rerouting_device.9" depart="36.00" color="blue" arrival="243.00">
        <routeDistribution>
            <route replacedOnEdge="beg" reason="rerouter" replacedAtTime="36.00" probability="0" edges="beg beg2left left left2end end rend"/>
            <route edges="beg beg2right right right2end end rend"/>
        </routeDistribution>
        <param key="has.rerouting.device" value="true"/>
    </vehicle>

    <vehicle id="obstruction" type="slow" depart="0.00" arrival="499.00">
        <route edges="middle"/>
    </vehicle>

    <vehicle id="no_device.0" depart="2.00" color="yellow" arrival="540.00">
        <routeDistribution>
            <route replacedOnEdge="beg" reason="rerouter" replacedAtTime="2.00" probability="0" edges="beg beg2left left left2end end rend"/>
            <route edges="beg middle end rend"/>
        </routeDistribution>
    </vehicle>

    <vehicle id="no_device.1" depart="6.00" color="yellow" arrival="541.00">
        <routeDistribution>
            <route replacedOnEdge="beg" reason="rerouter" replacedAtTime="6.00" probability="0" edges="beg beg2left left left2end end rend"/>
            <route edges="beg middle end rend"/>
        </routeDistribution>
    </vehicle>

    <vehicle id="no_device.2" depart="10.00" color="yellow" arrival="542.00">
        <routeDistribution>
            <route replacedOnEdge="beg" reason="rerouter" replacedAtTime="10.00" probability="0" edges="beg beg2left left left2end end rend"/>
            <route edges="beg middle end rend"/>
        </routeDistribution>
    </vehicle>

    <vehicle id="no_device.3" depart="14.00" color="yellow" arrival="543.00">
        <routeDistribution>
            <route replacedOnEdge="beg" reason="rerouter" replacedAtTime="14.00" probability="0" edges="beg beg2left left left2end end rend"/>
            <route edges="beg middle end rend"/>
        </routeDistribution>
    </vehicle>

    <vehicle id="no_device.4" depart="18.00" color="yellow" arrival="545.00">
        <routeDistribution>
            <route replacedOnEdge="beg" reason="rerouter" replacedAtTime="18.00" probability="0" edges="beg beg2left left left2end end rend"/>
            <route edges="beg middle end rend"/>
        </routeDistribution>
    </vehicle>

    <vehicle id="no_device.5" depart="22.00" color="yellow" arrival="546.00">
        <routeDistribution>
            <route replacedOnEdge="beg" reason="rerouter" replacedAtTime="22.00" probability="0" edges="beg beg2left left left2end end rend"/>
            <route edges="beg middle end rend"/>
        </routeDistribution>
    </vehicle>

    <vehicle id="no_device.6" depart="26.00" color="yellow" arrival="547.00">
        <routeDistribution>
            <route replacedOnEdge="beg" reason="rerouter" replacedAtTime="26.00" probability="0" edges="beg beg2left left left2end end rend"/>
            <route edges="beg middle end rend"/>
        </routeDistribution>
    </vehicle>

    <vehicle id="no_device.7" depart="30.00" color="yellow" arrival="548.00">
        <routeDistribution>
            <route replacedOnEdge="beg" reason="rerouter" replacedAtTime="30.00" probability="0" edges="beg beg2left left left2end end rend"/>
            <route edges="beg middle end rend"/>
        </routeDistribution>
    </vehicle>

    <vehicle id="no_device.8" depart="34.00" color="yellow" arrival="549.00">
        <routeDistribution>
            <route replacedOnEdge="beg" reason="rerouter" replacedAtTime="34.00" probability="0" edges="beg beg2left left left2end end rend"/>
            <route edges="beg middle end rend"/>
        </routeDistribution>
    </vehicle>

    <vehicle id="no_device.9" depart="38.00" color="yellow" arrival="550.00">
        <routeDistribution>
            <route replacedOnEdge="beg" reason="rerouter" replacedAtTime="38.00" probability="0" edges="beg beg2left left left2end end rend"/>
            <route edges="beg middle end rend"/>
        </routeDistribution>
    </vehicle>

</routes>
