<?xml version="1.0" encoding="UTF-8"?>

<!-- generated on 2024-08-26 15:32:54 by Eclipse SUMO sumo Version v1_20_0+1721-016cfd09667
This data file and the accompanying materials
are made available under the terms of the Eclipse Public License v2.0
which accompanies this distribution, and is available at
http://www.eclipse.org/legal/epl-v20.html
This file may also be made available under the following Secondary
Licenses when the conditions for such availability set forth in the Eclipse
Public License 2.0 are satisfied: GNU General Public License, version 2
or later which is available at
https://www.gnu.org/licenses/old-licenses/gpl-2.0-standalone.html
SPDX-License-Identifier: EPL-2.0 OR GPL-2.0-or-later
<sumoConfiguration xmlns:xsi="http://www.w3.org/2001/XMLSchema-instance" xsi:noNamespaceSchemaLocation="http://sumo.dlr.de/xsd/sumoConfiguration.xsd">

    <input>
        <net-file value="net.net.xml"/>
        <route-files value="input_routes.rou.xml"/>
        <additional-files value="input_additional.add.xml"/>
    </input>

    <output>
        <write-license value="true"/>
        <tripinfo-output value="tripinfos.xml"/>
    </output>

    <processing>
        <default.speeddev value="0"/>
    </processing>

    <report>
        <xml-validation value="never"/>
        <duration-log.statistics value="true"/>
        <no-step-log value="true"/>
    </report>

    <mesoscopic>
        <mesosim value="true"/>
        <meso-junction-control value="true"/>
    </mesoscopic>

</sumoConfiguration>
-->

<tripinfos xmlns:xsi="http://www.w3.org/2001/XMLSchema-instance" xsi:noNamespaceSchemaLocation="http://sumo.dlr.de/xsd/tripinfo_file.xsd">
    <tripinfo id="0.0" depart="0.00" departLane="a_0" departPos="0.00" departSpeed="13.89" departDelay="0.00" arrival="536.00" arrivalLane="f_0" arrivalPos="145.00" arrivalSpeed="13.89" duration="536.00" routeLength="473.60" waitingTime="0.00" waitingCount="0" stopTime="500.00" timeLoss="0.00" rerouteNo="0" devices="tripinfo_0.0 routing_0.0" vType="DEFAULT_VEHTYPE" speedFactor="1.00" vaporized=""/>
    <tripinfo id="0.1" depart="18.00" departLane="a_0" departPos="0.00" departSpeed="13.89" departDelay="0.00" arrival="554.00" arrivalLane="f_0" arrivalPos="145.00" arrivalSpeed="13.89" duration="536.00" routeLength="473.60" waitingTime="0.00" waitingCount="0" stopTime="500.00" timeLoss="0.00" rerouteNo="0" devices="tripinfo_0.1 routing_0.1" vType="DEFAULT_VEHTYPE" speedFactor="1.00" vaporized=""/>
    <tripinfo id="0.2" depart="36.00" departLane="a_0" departPos="0.00" departSpeed="13.89" departDelay="0.00" arrival="572.00" arrivalLane="f_0" arrivalPos="145.00" arrivalSpeed="13.89" duration="536.00" routeLength="473.60" waitingTime="0.00" waitingCount="0" stopTime="500.00" timeLoss="0.00" rerouteNo="0" devices="tripinfo_0.2 routing_0.2" vType="DEFAULT_VEHTYPE" speedFactor="1.00" vaporized=""/>
    <tripinfo id="0.3" depart="54.00" departLane="a_0" departPos="0.00" departSpeed="13.89" departDelay="0.00" arrival="590.00" arrivalLane="f_0" arrivalPos="145.00" arrivalSpeed="13.89" duration="536.00" routeLength="473.60" waitingTime="0.00" waitingCount="0" stopTime="500.00" timeLoss="0.00" rerouteNo="0" devices="tripinfo_0.3 routing_0.3" vType="DEFAULT_VEHTYPE" speedFactor="1.00" vaporized=""/>
    <tripinfo id="0.4" depart="72.00" departLane="a_0" departPos="0.00" departSpeed="13.89" departDelay="0.00" arrival="608.00" arrivalLane="f_0" arrivalPos="145.00" arrivalSpeed="13.89" duration="536.00" routeLength="473.60" waitingTime="0.00" waitingCount="0" stopTime="500.00" timeLoss="0.00" rerouteNo="0" devices="tripinfo_0.4 routing_0.4" vType="DEFAULT_VEHTYPE" speedFactor="1.00" vaporized=""/>
    <tripinfo id="0.5" depart="90.00" departLane="a_0" departPos="0.00" departSpeed="13.89" departDelay="0.00" arrival="626.00" arrivalLane="f_0" arrivalPos="145.00" arrivalSpeed="13.89" duration="536.00" routeLength="473.60" waitingTime="0.00" waitingCount="0" stopTime="500.00" timeLoss="0.00" rerouteNo="0" devices="tripinfo_0.5 routing_0.5" vType="DEFAULT_VEHTYPE" speedFactor="1.00" vaporized=""/>
    <tripinfo id="0.6" depart="108.00" departLane="a_0" departPos="0.00" departSpeed="13.89" departDelay="0.00" arrival="644.00" arrivalLane="f_0" arrivalPos="145.00" arrivalSpeed="13.89" duration="536.00" routeLength="473.60" waitingTime="0.00" waitingCount="0" stopTime="500.00" timeLoss="0.00" rerouteNo="0" devices="tripinfo_0.6 routing_0.6" vType="DEFAULT_VEHTYPE" speedFactor="1.00" vaporized=""/>
    <tripinfo id="0.7" depart="126.00" departLane="a_0" departPos="0.00" departSpeed="13.89" departDelay="0.00" arrival="662.00" arrivalLane="f_0" arrivalPos="145.00" arrivalSpeed="13.89" duration="536.00" routeLength="473.60" waitingTime="0.00" waitingCount="0" stopTime="500.00" timeLoss="0.00" rerouteNo="0" devices="tripinfo_0.7 routing_0.7" vType="DEFAULT_VEHTYPE" speedFactor="1.00" vaporized=""/>
    <tripinfo id="0.8" depart="144.00" departLane="a_0" departPos="0.00" departSpeed="13.89" departDelay="0.00" arrival="680.00" arrivalLane="f_0" arrivalPos="145.00" arrivalSpeed="13.89" duration="536.00" routeLength="473.60" waitingTime="0.00" waitingCount="0" stopTime="500.00" timeLoss="0.00" rerouteNo="0" devices="tripinfo_0.8 routing_0.8" vType="DEFAULT_VEHTYPE" speedFactor="1.00" vaporized=""/>
    <tripinfo id="0.9" depart="162.00" departLane="a_0" departPos="0.00" departSpeed="13.89" departDelay="0.00" arrival="698.00" arrivalLane="f_0" arrivalPos="145.00" arrivalSpeed="13.89" duration="536.00" routeLength="473.60" waitingTime="0.00" waitingCount="0" stopTime="500.00" timeLoss="0.00" rerouteNo="0" devices="tripinfo_0.9 routing_0.9" vType="DEFAULT_VEHTYPE" speedFactor="1.00" vaporized=""/>
</tripinfos>
