<?xml version="1.0"?>

<!-- generated on 07/30/09 12:28:36 by SUMO sumo Version dev-SVN-r7577
<configuration>

    <input
        net-file="net.net.xml"
        additional-files="input_routes.rou.xml,input_additional.add.xml,input_additional2.add.xml"
    />

    <time
        begin="0"
        end="1000"
    />

    <report
        no-duration-log="true"
        no-step-log="true"
    />

</configuration>
-->

<detector>
   <interval begin="0" end="100" id="3/1to2/1" nSamples="180" meanSpeed="3.22" meanOccupancy="9.94" maxOccupancy="44.20" meanMaxJamLengthInVehicles="1.07" meanMaxJamLengthInMeters="5.36" maxJamLengthInVehicles="7" maxJamLengthInMeters="35.09" jamLengthInVehiclesSum="107" jamLengthInMetersSum="536.34" meanHaltingDuration="0.59" maxHaltingDuration="30" haltingDurationSum="107" meanIntervalHaltingDuration="0.59" maxIntervalHaltingDuration="30" intervalHaltingDurationSum="107" startedHalts="7.00" meanVehicleNumber="1.80" maxVehicleNumber="8" />
   <interval begin="100" end="200" id="3/1to2/1" nSamples="995" meanSpeed="0.10" meanOccupancy="54.97" maxOccupancy="55.25" meanMaxJamLengthInVehicles="9.78" meanMaxJamLengthInMeters="49.04" maxJamLengthInVehicles="10" maxJamLengthInMeters="50.15" jamLengthInVehiclesSum="978" jamLengthInMetersSum="4904.24" meanHaltingDuration="0.98" maxHaltingDuration="130" haltingDurationSum="978" meanIntervalHaltingDuration="0.98" maxIntervalHaltingDuration="100" intervalHaltingDurationSum="978" startedHalts="3.00" meanVehicleNumber="9.95" maxVehicleNumber="10" />
   <interval begin="200" end="300" id="3/1to2/1" nSamples="1000" meanSpeed="0.00" meanOccupancy="55.25" maxOccupancy="55.25" meanMaxJamLengthInVehicles="10.00" meanMaxJamLengthInMeters="50.15" maxJamLengthInVehicles="10" maxJamLengthInMeters="50.15" jamLengthInVehiclesSum="1000" jamLengthInMetersSum="5014.66" meanHaltingDuration="1.00" maxHaltingDuration="230" haltingDurationSum="1000" meanIntervalHaltingDuration="1.00" maxIntervalHaltingDuration="100" intervalHaltingDurationSum="1000" startedHalts="0.00" meanVehicleNumber="10.00" maxVehicleNumber="10" />
   <interval begin="300" end="400" id="3/1to2/1" nSamples="125" meanSpeed="2.05" meanOccupancy="6.53" maxOccupancy="54.37" meanMaxJamLengthInVehicles="0.54" meanMaxJamLengthInMeters="2.77" maxJamLengthInVehicles="9" maxJamLengthInMeters="45.92" jamLengthInVehiclesSum="55" jamLengthInMetersSum="282.10" meanHaltingDuration="0.44" maxHaltingDuration="231" haltingDurationSum="55" meanIntervalHaltingDuration="0.44" maxIntervalHaltingDuration="10" intervalHaltingDurationSum="55" startedHalts="0.00" meanVehicleNumber="1.25" maxVehicleNumber="10" />
   <interval begin="400" end="500" id="3/1to2/1" nSamples="0" meanSpeed="-1.00" meanOccupancy="0.00" maxOccupancy="0.00" meanMaxJamLengthInVehicles="0.00" meanMaxJamLengthInMeters="0.00" maxJamLengthInVehicles="0" maxJamLengthInMeters="0.00" jamLengthInVehiclesSum="0" jamLengthInMetersSum="0.00" meanHaltingDuration="0.00" maxHaltingDuration="0" haltingDurationSum="0" meanIntervalHaltingDuration="0.00" maxIntervalHaltingDuration="0" intervalHaltingDurationSum="0" startedHalts="0.00" meanVehicleNumber="0.00" maxVehicleNumber="0" />
   <interval begin="500" end="600" id="3/1to2/1" nSamples="0" meanSpeed="-1.00" meanOccupancy="0.00" maxOccupancy="0.00" meanMaxJamLengthInVehicles="0.00" meanMaxJamLengthInMeters="0.00" maxJamLengthInVehicles="0" maxJamLengthInMeters="0.00" jamLengthInVehiclesSum="0" jamLengthInMetersSum="0.00" meanHaltingDuration="0.00" maxHaltingDuration="0" haltingDurationSum="0" meanIntervalHaltingDuration="0.00" maxIntervalHaltingDuration="0" intervalHaltingDurationSum="0" startedHalts="0.00" meanVehicleNumber="0.00" maxVehicleNumber="0" />
   <interval begin="600" end="700" id="3/1to2/1" nSamples="0" meanSpeed="-1.00" meanOccupancy="0.00" maxOccupancy="0.00" meanMaxJamLengthInVehicles="0.00" meanMaxJamLengthInMeters="0.00" maxJamLengthInVehicles="0" maxJamLengthInMeters="0.00" jamLengthInVehiclesSum="0" jamLengthInMetersSum="0.00" meanHaltingDuration="0.00" maxHaltingDuration="0" haltingDurationSum="0" meanIntervalHaltingDuration="0.00" maxIntervalHaltingDuration="0" intervalHaltingDurationSum="0" startedHalts="0.00" meanVehicleNumber="0.00" maxVehicleNumber="0" />
   <interval begin="700" end="800" id="3/1to2/1" nSamples="0" meanSpeed="-1.00" meanOccupancy="0.00" maxOccupancy="0.00" meanMaxJamLengthInVehicles="0.00" meanMaxJamLengthInMeters="0.00" maxJamLengthInVehicles="0" maxJamLengthInMeters="0.00" jamLengthInVehiclesSum="0" jamLengthInMetersSum="0.00" meanHaltingDuration="0.00" maxHaltingDuration="0" haltingDurationSum="0" meanIntervalHaltingDuration="0.00" maxIntervalHaltingDuration="0" intervalHaltingDurationSum="0" startedHalts="0.00" meanVehicleNumber="0.00" maxVehicleNumber="0" />
   <interval begin="800" end="900" id="3/1to2/1" nSamples="0" meanSpeed="-1.00" meanOccupancy="0.00" maxOccupancy="0.00" meanMaxJamLengthInVehicles="0.00" meanMaxJamLengthInMeters="0.00" maxJamLengthInVehicles="0" maxJamLengthInMeters="0.00" jamLengthInVehiclesSum="0" jamLengthInMetersSum="0.00" meanHaltingDuration="0.00" maxHaltingDuration="0" haltingDurationSum="0" meanIntervalHaltingDuration="0.00" maxIntervalHaltingDuration="0" intervalHaltingDurationSum="0" startedHalts="0.00" meanVehicleNumber="0.00" maxVehicleNumber="0" />
   <interval begin="900" end="1000" id="3/1to2/1" nSamples="0" meanSpeed="-1.00" meanOccupancy="0.00" maxOccupancy="0.00" meanMaxJamLengthInVehicles="0.00" meanMaxJamLengthInMeters="0.00" maxJamLengthInVehicles="0" maxJamLengthInMeters="0.00" jamLengthInVehiclesSum="0" jamLengthInMetersSum="0.00" meanHaltingDuration="0.00" maxHaltingDuration="0" haltingDurationSum="0" meanIntervalHaltingDuration="0.00" maxIntervalHaltingDuration="0" intervalHaltingDurationSum="0" startedHalts="0.00" meanVehicleNumber="0.00" maxVehicleNumber="0" />
</detector>
