<?xml version="1.0" encoding="UTF-8"?>

<!-- generated on Mon Jan  9 14:03:05 2017 by SUMO Version dev-SVN-r22519
<?xml version="1.0" encoding="UTF-8"?>

<configuration xmlns:xsi="http://www.w3.org/2001/XMLSchema-instance" xsi:noNamespaceSchemaLocation="http://sumo.dlr.de/xsd/sumoConfiguration.xsd">

    <input>
        <net-file value="net.net.xml"/>
        <additional-files value="input_routes.rou.xml,input_additional.add.xml,input_additional2.add.xml"/>
    </input>

    <time>
        <begin value="0"/>
        <end value="1000"/>
    </time>

    <report>
        <xml-validation value="never"/>
        <duration-log.disable value="true"/>
        <no-step-log value="true"/>
    </report>

</configuration>
-->

<detector xmlns:xsi="http://www.w3.org/2001/XMLSchema-instance" xsi:noNamespaceSchemaLocation="http://sumo.dlr.de/xsd/det_e2_file.xsd">
   <interval begin="0.00" end="100.00" id="3/1to2/1" sampledSeconds="118.45" nVehEntered="8" meanSpeed="5.25" meanTimeLoss="47.27" meanOccupancy="3.88" maxOccupancy="19.89" meanMaxJamLengthInVehicles="0.46" meanMaxJamLengthInMeters="1.94" maxJamLengthInVehicles="4" maxJamLengthInMeters="18.00" jamLengthInVehiclesSum="46" jamLengthInMetersSum="194.03" meanHaltingDuration="10.20" maxHaltingDuration="19.00" haltingDurationSum="51.00" meanIntervalHaltingDuration="10.20" maxIntervalHaltingDuration="19.00" intervalHaltingDurationSum="51.00" startedHalts="5.00" meanVehicleNumber="1.19" maxVehicleNumber="6" />
   <interval begin="100.00" end="200.00" id="3/1to2/1" sampledSeconds="793.00" nVehEntered="2" meanSpeed="0.17" meanTimeLoss="98.27" meanOccupancy="26.29" maxOccupancy="26.52" meanMaxJamLengthInVehicles="7.74" meanMaxJamLengthInMeters="36.71" maxJamLengthInVehicles="8" maxJamLengthInMeters="38.01" jamLengthInVehiclesSum="774" jamLengthInMetersSum="3670.67" meanHaltingDuration="103.50" maxHaltingDuration="119.00" haltingDurationSum="828.00" meanIntervalHaltingDuration="97.12" maxIntervalHaltingDuration="100.00" intervalHaltingDurationSum="777.00" startedHalts="3.00" meanVehicleNumber="7.93" maxVehicleNumber="8" />
   <interval begin="200.00" end="300.00" id="3/1to2/1" sampledSeconds="800.00" nVehEntered="0" meanSpeed="0.00" meanTimeLoss="100.00" meanOccupancy="26.52" maxOccupancy="26.52" meanMaxJamLengthInVehicles="8.00" meanMaxJamLengthInMeters="38.01" maxJamLengthInVehicles="8" maxJamLengthInMeters="38.01" jamLengthInVehiclesSum="800" jamLengthInMetersSum="3800.70" meanHaltingDuration="203.50" maxHaltingDuration="219.00" haltingDurationSum="1628.00" meanIntervalHaltingDuration="100.00" maxIntervalHaltingDuration="100.00" intervalHaltingDurationSum="800.00" startedHalts="0.00" meanVehicleNumber="8.00" maxVehicleNumber="8" />
   <interval begin="300.00" end="400.00" id="3/1to2/1" sampledSeconds="96.92" nVehEntered="0" meanSpeed="1.82" meanTimeLoss="78.53" meanOccupancy="3.01" maxOccupancy="26.52" meanMaxJamLengthInVehicles="0.52" meanMaxJamLengthInMeters="2.46" maxJamLengthInVehicles="8" maxJamLengthInMeters="38.81" jamLengthInVehiclesSum="52" jamLengthInMetersSum="245.64" meanHaltingDuration="210.00" maxHaltingDuration="222.00" haltingDurationSum="1680.00" meanIntervalHaltingDuration="6.50" maxIntervalHaltingDuration="10.00" intervalHaltingDurationSum="52.00" startedHalts="0.00" meanVehicleNumber="1.01" maxVehicleNumber="8" />
   <interval begin="400.00" end="500.00" id="3/1to2/1" sampledSeconds="0.00" nVehEntered="0" meanSpeed="-1.00" meanTimeLoss="-1.00" meanOccupancy="0.00" maxOccupancy="0.00" meanMaxJamLengthInVehicles="0.00" meanMaxJamLengthInMeters="0.00" maxJamLengthInVehicles="0" maxJamLengthInMeters="0.00" jamLengthInVehiclesSum="0" jamLengthInMetersSum="0.00" meanHaltingDuration="0.00" maxHaltingDuration="0.00" haltingDurationSum="0.00" meanIntervalHaltingDuration="0.00" maxIntervalHaltingDuration="0.00" intervalHaltingDurationSum="0.00" startedHalts="0.00" meanVehicleNumber="0.00" maxVehicleNumber="0" />
   <interval begin="500.00" end="600.00" id="3/1to2/1" sampledSeconds="0.00" nVehEntered="0" meanSpeed="-1.00" meanTimeLoss="-1.00" meanOccupancy="0.00" maxOccupancy="0.00" meanMaxJamLengthInVehicles="0.00" meanMaxJamLengthInMeters="0.00" maxJamLengthInVehicles="0" maxJamLengthInMeters="0.00" jamLengthInVehiclesSum="0" jamLengthInMetersSum="0.00" meanHaltingDuration="0.00" maxHaltingDuration="0.00" haltingDurationSum="0.00" meanIntervalHaltingDuration="0.00" maxIntervalHaltingDuration="0.00" intervalHaltingDurationSum="0.00" startedHalts="0.00" meanVehicleNumber="0.00" maxVehicleNumber="0" />
   <interval begin="600.00" end="700.00" id="3/1to2/1" sampledSeconds="0.00" nVehEntered="0" meanSpeed="-1.00" meanTimeLoss="-1.00" meanOccupancy="0.00" maxOccupancy="0.00" meanMaxJamLengthInVehicles="0.00" meanMaxJamLengthInMeters="0.00" maxJamLengthInVehicles="0" maxJamLengthInMeters="0.00" jamLengthInVehiclesSum="0" jamLengthInMetersSum="0.00" meanHaltingDuration="0.00" maxHaltingDuration="0.00" haltingDurationSum="0.00" meanIntervalHaltingDuration="0.00" maxIntervalHaltingDuration="0.00" intervalHaltingDurationSum="0.00" startedHalts="0.00" meanVehicleNumber="0.00" maxVehicleNumber="0" />
   <interval begin="700.00" end="800.00" id="3/1to2/1" sampledSeconds="0.00" nVehEntered="0" meanSpeed="-1.00" meanTimeLoss="-1.00" meanOccupancy="0.00" maxOccupancy="0.00" meanMaxJamLengthInVehicles="0.00" meanMaxJamLengthInMeters="0.00" maxJamLengthInVehicles="0" maxJamLengthInMeters="0.00" jamLengthInVehiclesSum="0" jamLengthInMetersSum="0.00" meanHaltingDuration="0.00" maxHaltingDuration="0.00" haltingDurationSum="0.00" meanIntervalHaltingDuration="0.00" maxIntervalHaltingDuration="0.00" intervalHaltingDurationSum="0.00" startedHalts="0.00" meanVehicleNumber="0.00" maxVehicleNumber="0" />
   <interval begin="800.00" end="900.00" id="3/1to2/1" sampledSeconds="0.00" nVehEntered="0" meanSpeed="-1.00" meanTimeLoss="-1.00" meanOccupancy="0.00" maxOccupancy="0.00" meanMaxJamLengthInVehicles="0.00" meanMaxJamLengthInMeters="0.00" maxJamLengthInVehicles="0" maxJamLengthInMeters="0.00" jamLengthInVehiclesSum="0" jamLengthInMetersSum="0.00" meanHaltingDuration="0.00" maxHaltingDuration="0.00" haltingDurationSum="0.00" meanIntervalHaltingDuration="0.00" maxIntervalHaltingDuration="0.00" intervalHaltingDurationSum="0.00" startedHalts="0.00" meanVehicleNumber="0.00" maxVehicleNumber="0" />
   <interval begin="900.00" end="1000.00" id="3/1to2/1" sampledSeconds="0.00" nVehEntered="0" meanSpeed="-1.00" meanTimeLoss="-1.00" meanOccupancy="0.00" maxOccupancy="0.00" meanMaxJamLengthInVehicles="0.00" meanMaxJamLengthInMeters="0.00" maxJamLengthInVehicles="0" maxJamLengthInMeters="0.00" jamLengthInVehiclesSum="0" jamLengthInMetersSum="0.00" meanHaltingDuration="0.00" maxHaltingDuration="0.00" haltingDurationSum="0.00" meanIntervalHaltingDuration="0.00" maxIntervalHaltingDuration="0.00" intervalHaltingDurationSum="0.00" startedHalts="0.00" meanVehicleNumber="0.00" maxVehicleNumber="0" />
</detector>
