<?xml version="1.0" encoding="UTF-8"?>

<!-- generated on Tue Dec  3 15:39:57 2013 by SUMO sumo Version dev-SVN-r15233
<?xml version="1.0" encoding="UTF-8"?>

<configuration xmlns:xsi="http://www.w3.org/2001/XMLSchema-instance" xsi:noNamespaceSchemaLocation="http://sumo-sim.org/xsd/sumoConfiguration.xsd">

    <input>
        <net-file value="net.net.xml"/>
        <additional-files value="input_routes.rou.xml,input_additional.add.xml,input_additional2.add.xml"/>
    </input>

    <time>
        <begin value="0"/>
        <end value="1000"/>
    </time>

    <report>
        <no-duration-log value="true"/>
        <no-step-log value="true"/>
    </report>

</configuration>
-->

<detector xmlns:xsi="http://www.w3.org/2001/XMLSchema-instance" xsi:noNamespaceSchemaLocation="http://sumo-sim.org/xsd/det_e2_file.xsd">
   <interval begin="0.00" end="100.00" id="3/1to2/1" nSamples="180" meanSpeed="3.15" meanOccupancy="5.97" maxOccupancy="26.52" meanMaxJamLengthInVehicles="1.10" meanMaxJamLengthInMeters="5.50" maxJamLengthInVehicles="7" maxJamLengthInMeters="35.01" jamLengthInVehiclesSum="110" jamLengthInMetersSum="550.08" meanHaltingDuration="16.71" maxHaltingDuration="30.00" haltingDurationSum="117.00" meanIntervalHaltingDuration="16.71" maxIntervalHaltingDuration="30.00" intervalHaltingDurationSum="117.00" startedHalts="7.00" meanVehicleNumber="1.80" maxVehicleNumber="8" />
   <interval begin="100.00" end="200.00" id="3/1to2/1" nSamples="995" meanSpeed="0.10" meanOccupancy="32.98" maxOccupancy="33.15" meanMaxJamLengthInVehicles="9.80" meanMaxJamLengthInMeters="49.01" maxJamLengthInVehicles="10" maxJamLengthInMeters="50.01" jamLengthInVehiclesSum="980" jamLengthInMetersSum="4900.88" meanHaltingDuration="110.00" maxHaltingDuration="130.00" haltingDurationSum="1100.00" meanIntervalHaltingDuration="98.30" maxIntervalHaltingDuration="100.00" intervalHaltingDurationSum="983.00" startedHalts="3.00" meanVehicleNumber="9.95" maxVehicleNumber="10" />
   <interval begin="200.00" end="300.00" id="3/1to2/1" nSamples="1000" meanSpeed="0.00" meanOccupancy="33.15" maxOccupancy="33.15" meanMaxJamLengthInVehicles="10.00" meanMaxJamLengthInMeters="50.01" maxJamLengthInVehicles="10" maxJamLengthInMeters="50.01" jamLengthInVehiclesSum="1000" jamLengthInMetersSum="5000.90" meanHaltingDuration="210.00" maxHaltingDuration="230.00" haltingDurationSum="2100.00" meanIntervalHaltingDuration="100.00" maxIntervalHaltingDuration="100.00" intervalHaltingDurationSum="1000.00" startedHalts="0.00" meanVehicleNumber="10.00" maxVehicleNumber="10" />
   <interval begin="300.00" end="400.00" id="3/1to2/1" nSamples="109" meanSpeed="2.00" meanOccupancy="3.61" maxOccupancy="33.15" meanMaxJamLengthInVehicles="0.55" meanMaxJamLengthInMeters="2.82" maxJamLengthInVehicles="10" maxJamLengthInMeters="50.81" jamLengthInVehiclesSum="55" jamLengthInMetersSum="282.24" meanHaltingDuration="213.78" maxHaltingDuration="228.00" haltingDurationSum="1924.00" meanIntervalHaltingDuration="6.00" maxIntervalHaltingDuration="10.00" intervalHaltingDurationSum="54.00" startedHalts="0.00" meanVehicleNumber="1.09" maxVehicleNumber="10" />
   <interval begin="400.00" end="500.00" id="3/1to2/1" nSamples="0" meanSpeed="-1.00" meanOccupancy="0.00" maxOccupancy="0.00" meanMaxJamLengthInVehicles="0.00" meanMaxJamLengthInMeters="0.00" maxJamLengthInVehicles="0" maxJamLengthInMeters="0.00" jamLengthInVehiclesSum="0" jamLengthInMetersSum="0.00" meanHaltingDuration="0.00" maxHaltingDuration="0.00" haltingDurationSum="0.00" meanIntervalHaltingDuration="0.00" maxIntervalHaltingDuration="0.00" intervalHaltingDurationSum="0.00" startedHalts="0.00" meanVehicleNumber="0.00" maxVehicleNumber="0" />
   <interval begin="500.00" end="600.00" id="3/1to2/1" nSamples="0" meanSpeed="-1.00" meanOccupancy="0.00" maxOccupancy="0.00" meanMaxJamLengthInVehicles="0.00" meanMaxJamLengthInMeters="0.00" maxJamLengthInVehicles="0" maxJamLengthInMeters="0.00" jamLengthInVehiclesSum="0" jamLengthInMetersSum="0.00" meanHaltingDuration="0.00" maxHaltingDuration="0.00" haltingDurationSum="0.00" meanIntervalHaltingDuration="0.00" maxIntervalHaltingDuration="0.00" intervalHaltingDurationSum="0.00" startedHalts="0.00" meanVehicleNumber="0.00" maxVehicleNumber="0" />
   <interval begin="600.00" end="700.00" id="3/1to2/1" nSamples="0" meanSpeed="-1.00" meanOccupancy="0.00" maxOccupancy="0.00" meanMaxJamLengthInVehicles="0.00" meanMaxJamLengthInMeters="0.00" maxJamLengthInVehicles="0" maxJamLengthInMeters="0.00" jamLengthInVehiclesSum="0" jamLengthInMetersSum="0.00" meanHaltingDuration="0.00" maxHaltingDuration="0.00" haltingDurationSum="0.00" meanIntervalHaltingDuration="0.00" maxIntervalHaltingDuration="0.00" intervalHaltingDurationSum="0.00" startedHalts="0.00" meanVehicleNumber="0.00" maxVehicleNumber="0" />
   <interval begin="700.00" end="800.00" id="3/1to2/1" nSamples="0" meanSpeed="-1.00" meanOccupancy="0.00" maxOccupancy="0.00" meanMaxJamLengthInVehicles="0.00" meanMaxJamLengthInMeters="0.00" maxJamLengthInVehicles="0" maxJamLengthInMeters="0.00" jamLengthInVehiclesSum="0" jamLengthInMetersSum="0.00" meanHaltingDuration="0.00" maxHaltingDuration="0.00" haltingDurationSum="0.00" meanIntervalHaltingDuration="0.00" maxIntervalHaltingDuration="0.00" intervalHaltingDurationSum="0.00" startedHalts="0.00" meanVehicleNumber="0.00" maxVehicleNumber="0" />
   <interval begin="800.00" end="900.00" id="3/1to2/1" nSamples="0" meanSpeed="-1.00" meanOccupancy="0.00" maxOccupancy="0.00" meanMaxJamLengthInVehicles="0.00" meanMaxJamLengthInMeters="0.00" maxJamLengthInVehicles="0" maxJamLengthInMeters="0.00" jamLengthInVehiclesSum="0" jamLengthInMetersSum="0.00" meanHaltingDuration="0.00" maxHaltingDuration="0.00" haltingDurationSum="0.00" meanIntervalHaltingDuration="0.00" maxIntervalHaltingDuration="0.00" intervalHaltingDurationSum="0.00" startedHalts="0.00" meanVehicleNumber="0.00" maxVehicleNumber="0" />
   <interval begin="900.00" end="1000.00" id="3/1to2/1" nSamples="0" meanSpeed="-1.00" meanOccupancy="0.00" maxOccupancy="0.00" meanMaxJamLengthInVehicles="0.00" meanMaxJamLengthInMeters="0.00" maxJamLengthInVehicles="0" maxJamLengthInMeters="0.00" jamLengthInVehiclesSum="0" jamLengthInMetersSum="0.00" meanHaltingDuration="0.00" maxHaltingDuration="0.00" haltingDurationSum="0.00" meanIntervalHaltingDuration="0.00" maxIntervalHaltingDuration="0.00" intervalHaltingDurationSum="0.00" startedHalts="0.00" meanVehicleNumber="0.00" maxVehicleNumber="0" />
</detector>
