<?xml version="1.0" encoding="UTF-8"?>

<!-- generated on 2026-04-24T09:19:06.086434+01:00 by Eclipse SUMO sumo v1_26_0+1366-8b27a71a755
<sumoConfiguration xmlns:xsi="http://www.w3.org/2001/XMLSchema-instance" xsi:noNamespaceSchemaLocation="http://sumo.dlr.de/xsd/sumoConfiguration.xsd">

    <input>
        <net-file value="net.net.xml"/>
        <route-files value="input_routes.rou.xml,input_routes2.rou.xml"/>
        <additional-files value="input_additional.add.xml"/>
    </input>

    <output>
        <tripinfo-output value="tripinfo.xml"/>
        <tripinfo-output.write-unfinished value="true"/>
        <vehroute-output value="vehroutes.xml"/>
        <vehroute-output.last-route value="true"/>
        <vehroute-output.write-unfinished value="true"/>
        <save-state.times value="91"/>
        <save-state.files value="state.xml"/>
        <save-state.rng value="true"/>
        <save-state.transportables value="true"/>
        <save-state.precision value="6"/>
    </output>

    <processing>
        <default.departspeed value="0"/>
        <default.departlane value="first"/>
    </processing>

    <report>
        <duration-log.statistics value="true"/>
        <no-step-log value="true"/>
    </report>

    <taxi_device>
        <device.taxi.dispatch-algorithm.output value="dispatchinfos.xml"/>
        <device.taxi.idle-algorithm value="randomCircling"/>
    </taxi_device>

    <mesoscopic>
        <mesosim value="true"/>
    </mesoscopic>

</sumoConfiguration>
-->

<snapshot type="meso" version="v1_26_0+1366-8b27a71a755" time="91.000" xmlns:xsi="http://www.w3.org/2001/XMLSchema-instance" xsi:noNamespaceSchemaLocation="http://sumo.dlr.de/xsd/state_file.xsd">
    <rngState default="0" routeHandler="6" insertionControl="0" device="0" device.btreceiver="0" driverState="0" device.toc="0">
        <rngLane index="0" state="0"/>
        <rngLane index="1" state="0"/>
        <rngLane index="2" state="0"/>
        <rngLane index="3" state="0"/>
        <rngLane index="4" state="0"/>
        <rngLane index="5" state="0"/>
        <rngLane index="6" state="0"/>
        <rngLane index="7" state="0"/>
        <rngLane index="8" state="0"/>
        <rngLane index="9" state="0"/>
        <rngLane index="10" state="0"/>
        <rngLane index="11" state="0"/>
        <rngLane index="12" state="0"/>
        <rngLane index="13" state="0"/>
        <rngLane index="14" state="0"/>
        <rngLane index="15" state="0"/>
        <rngLane index="16" state="0"/>
        <rngLane index="17" state="0"/>
        <rngLane index="18" state="0"/>
        <rngLane index="19" state="0"/>
        <rngLane index="20" state="0"/>
        <rngLane index="21" state="0"/>
        <rngLane index="22" state="0"/>
        <rngLane index="23" state="0"/>
        <rngLane index="24" state="4"/>
        <rngLane index="25" state="0"/>
        <rngLane index="26" state="0"/>
        <rngLane index="27" state="0"/>
        <rngLane index="28" state="0"/>
        <rngLane index="29" state="0"/>
        <rngLane index="30" state="0"/>
        <rngLane index="31" state="0"/>
        <rngLane index="32" state="0"/>
        <rngLane index="33" state="0"/>
        <rngLane index="34" state="0"/>
        <rngLane index="35" state="0"/>
        <rngLane index="36" state="0"/>
        <rngLane index="37" state="0"/>
        <rngLane index="38" state="0"/>
        <rngLane index="39" state="0"/>
        <rngLane index="40" state="3"/>
        <rngLane index="41" state="0"/>
        <rngLane index="42" state="0"/>
        <rngLane index="43" state="0"/>
        <rngLane index="44" state="0"/>
        <rngLane index="45" state="0"/>
        <rngLane index="46" state="0"/>
        <rngLane index="47" state="0"/>
        <rngLane index="48" state="0"/>
        <rngLane index="49" state="0"/>
        <rngLane index="50" state="0"/>
        <rngLane index="51" state="0"/>
        <rngLane index="52" state="0"/>
        <rngLane index="53" state="0"/>
        <rngLane index="54" state="0"/>
        <rngLane index="55" state="0"/>
        <rngLane index="56" state="0"/>
        <rngLane index="57" state="0"/>
        <rngLane index="58" state="0"/>
        <rngLane index="59" state="0"/>
        <rngLane index="60" state="0"/>
        <rngLane index="61" state="0"/>
        <rngLane index="62" state="0"/>
        <rngLane index="63" state="0"/>
    </rngState>
    <dispatcher next="120000" count="2" customers=""/>
    <route id="!trip_0!var#2" state="0" edges="C0C1 C1C2 C2B2 B2B1 B1B0 B0C0 C0B0 B0B1 B1B0 B0A0"/>
    <route id="!trip_1!var#1" state="0" edges="C0C1 C1C2 C2B2 B2B1 B1B0 B0C0 C0B0 B0C0 C0B0"/>
    <delay number="2" begin="2" end="0" depart="0.000000" time="0.000000" speedFactor="1.220000" decel="4.500000"/>
    <vType id="DEFAULT_PEDTYPE" vClass="pedestrian"/>
    <vType id="taxi" vClass="taxi" personCapacity="1" boardingDuration="7.000">
        <param key="device.taxi.dropOffDuration" value="0"/>
        <param key="device.taxi.end" value="1000"/>
        <param key="device.taxi.parking" value="false"/>
        <param key="has.taxi.device" value="true"/>
    </vType>
    <vehicle id="trip_0" type="taxi" depart="0.000" departPos="last" route="!trip_0!var#2" distance="2112.8 6" speedFactor="1.030000" reroute="1" line="taxi" state="262154 0 6 0 0 0 90025 89394 9223372036854774807 0 2">
        <stop lane="C1C2_1" startPos="0.000000" endPos="5.000000" duration="0.000" triggered="person" parking="0" permitted="p0.0" actType="pickup p0.0 (0)" started="6.990" ended="14.000"/>
        <stop busStop="stop_B0C0" duration="0.000" parking="0" actType="dropOff p0.0 (0)" started="62.614" ended="70.000"/>
        <device id="vehroute_trip_0" state="14.306700 0.000000 0"/>
        <device id="tripinfo_trip_0" state="C0C1_1 14.3067 1264.65 0 0 0 1000 -1 -1000 NONE -1 0 -1"/>
        <device id="routing_trip_0" state="0 0"/>
        <device id="taxi_trip_0" state="0 1 781.51 56624"/>
        <device id="person_trip_0" state="0 0 0"/>
    </vehicle>
    <vehicle id="trip_1" type="taxi" depart="0.000" departPos="last" speedFactor="1.220000" route="!trip_1!var#1" distance="1827.2 5" reroute="1" line="taxi" state="33816586 0 6 0 2 1 91063 84409 9223372036854774807 0 2">
        <stop lane="C1C2_1" startPos="0.000000" endPos="5.000000" duration="0.000" triggered="person" parking="0" permitted="p0.1" actType="pickup p0.1 (1)" started="8.659" ended="16.000"/>
        <stop busStop="stop_B0C0" duration="0.000" parking="0" actType="dropOff p0.1 (1)" started="64.283" ended="71.000"/>
        <device id="vehroute_trip_1" state="11.186618 0.000000 0"/>
        <device id="tripinfo_trip_1" state="C0C1_1 11.1866 979.05 0 0 0 1000 -1 -1000 NONE -1 0 -1"/>
        <device id="routing_trip_1" state="0 0"/>
        <device id="taxi_trip_1" state="0 1 781.51 56624"/>
        <device id="person_trip_1" state="0 0 0"/>
        <rem id="person_trip_1" time="84409" pos="190.400000"/>
        <rem id="vehroute_trip_1" time="84409" pos="190.400000"/>
        <rem id="tripinfo_trip_1" time="84409" pos="190.400000"/>
        <rem id="taxi_trip_1" time="84409" pos="190.400000"/>
    </vehicle>
    <transportables type="person" state="0 2 2 0 2 0 0 0 0 0"/>
    <segment id=":B0_1:0">
        <vehicles time="53440" blockTime="52049" value=""/>
    </segment>
    <segment id=":B0_3:0">
        <vehicles time="-1" blockTime="91675" value="trip_0"/>
    </segment>
    <segment id=":B1_1:0">
        <vehicles time="45669" blockTime="44661" value=""/>
    </segment>
    <segment id=":B2_1:0">
        <vehicles time="39475" blockTime="38662" value=""/>
    </segment>
    <segment id=":C0_8:0">
        <vehicles time="75800" blockTime="74120" value=""/>
    </segment>
    <segment id=":C1_9:0">
        <vehicles time="10328" blockTime="9320" value=""/>
    </segment>
    <segment id=":C2_4:0">
        <vehicles time="19099" blockTime="17708" value=""/>
    </segment>
    <segment id="B0C0:0">
        <vehicles time="59298" blockTime="53041" value=""/>
    </segment>
    <segment id="B0C0:1">
        <vehicles time="65952" blockTime="59297" value=""/>
    </segment>
    <segment id="B0C0:2">
        <vehicles time="-1" blockTime="-9223372036854775808" value=""/>
        <vehicles time="72606" blockTime="65951" value=""/>
    </segment>
    <segment id="B1B0:0">
        <vehicles time="-1" blockTime="-9223372036854775808" value=""/>
        <vehicles time="51652" blockTime="45668" value=""/>
    </segment>
    <segment id="B2B1:0">
        <vehicles time="-1" blockTime="-9223372036854775808" value=""/>
        <vehicles time="44662" blockTime="39076" value=""/>
    </segment>
    <segment id="C0B0:0">
        <vehicles time="79903" blockTime="74284" value=""/>
    </segment>
    <segment id="C0B0:1">
        <vehicles time="86078" blockTime="79902" value=""/>
    </segment>
    <segment id="C0B0:2">
        <vehicles time="-1" blockTime="-9223372036854775808" value=""/>
        <vehicles time="91063" blockTime="86077" value="trip_1"/>
    </segment>
    <segment id="C0C1:0">
        <vehicles time="-1" blockTime="-9223372036854775808" value=""/>
        <vehicles time="9321" blockTime="-9223372036854775808" value=""/>
    </segment>
    <segment id="C1C2:0">
        <vehicles time="-1" blockTime="-9223372036854775808" value=""/>
        <vehicles time="17311" blockTime="10327" value=""/>
    </segment>
    <segment id="C2B2:0">
        <vehicles time="24957" blockTime="18700" value=""/>
    </segment>
    <segment id="C2B2:1">
        <vehicles time="31611" blockTime="24956" value=""/>
    </segment>
    <segment id="C2B2:2">
        <vehicles time="-1" blockTime="-9223372036854775808" value=""/>
        <vehicles time="38265" blockTime="31610" value=""/>
    </segment>
    <routingEngine last="90000" index="91">
        <edge id=":B0_1" speed="4.455136" pastSpeed="4.334479 4.334479 4.334479 4.334479 4.334479 4.334479 4.334479 4.334479 4.334479 4.334479 4.334479 4.334479 4.334479 4.334479 4.334479 4.334479 4.334479 4.334479 4.334479 4.334479 4.334479 4.334479 4.334479 4.334479 4.334479 4.334479 4.334479 4.334479 4.334479 4.334479 4.334479 4.334479 4.334479 4.334479 4.334479 4.334479 4.334479 4.334479 4.334479 4.334479 4.334479 4.334479 4.334479 4.334479 4.334479 4.334479 4.334479 4.334479 4.334479 14.304435 10.208633 10.208633 4.334479 4.334479 4.334479 4.334479 4.334479 4.334479 4.334479 4.334479 4.334479 4.334479 4.334479 4.334479 4.334479 4.334479 4.334479 4.334479 4.334479 4.334479 4.334479 4.334479 4.334479 4.334479 4.334479 4.334479 4.334479 4.334479 4.334479 4.334479 4.334479 4.334479 4.334479 4.334479 4.334479 4.334479 4.334479 4.334479 4.334479 4.334479 4.334479 4.334479 4.334479 4.334479 4.334479 4.334479 4.334479 4.334479 4.334479 4.334479 4.334479 4.334479 4.334479 4.334479 4.334479 4.334479 4.334479 4.334479 4.334479 4.334479 4.334479 4.334479 4.334479 4.334479 4.334479 4.334479 4.334479 4.334479 4.334479 4.334479 4.334479 4.334479 4.334479 4.334479 4.334479 4.334479 4.334479 4.334479 4.334479 4.334479 4.334479 4.334479 4.334479 4.334479 4.334479 4.334479 4.334479 4.334479 4.334479 4.334479 4.334479 4.334479 4.334479 4.334479 4.334479 4.334479 4.334479 4.334479 4.334479 4.334479 4.334479 4.334479 4.334479 4.334479 4.334479 4.334479 4.334479 4.334479 4.334479 4.334479 4.334479 4.334479 4.334479 4.334479 4.334479 4.334479 4.334479 4.334479 4.334479 4.334479 4.334479 4.334479 4.334479 4.334479 4.334479 4.334479 4.334479 4.334479 4.334479 4.334479"/>
        <edge id=":B0_3" speed="6.553337" pastSpeed="6.510000 6.510000 6.510000 6.510000 6.510000 6.510000 6.510000 6.510000 6.510000 6.510000 6.510000 6.510000 6.510000 6.510000 6.510000 6.510000 6.510000 6.510000 6.510000 6.510000 6.510000 6.510000 6.510000 6.510000 6.510000 6.510000 6.510000 6.510000 6.510000 6.510000 6.510000 6.510000 6.510000 6.510000 6.510000 6.510000 6.510000 6.510000 6.510000 6.510000 6.510000 6.510000 6.510000 6.510000 6.510000 6.510000 6.510000 6.510000 6.510000 6.510000 6.510000 6.510000 6.510000 6.510000 6.510000 6.510000 6.510000 6.510000 6.510000 6.510000 6.510000 6.510000 6.510000 6.510000 6.510000 6.510000 6.510000 6.510000 6.510000 6.510000 6.510000 6.510000 6.510000 6.510000 6.510000 6.510000 6.510000 6.510000 6.510000 6.510000 6.510000 6.510000 6.510000 6.510000 6.510000 6.510000 6.510000 6.510000 6.510000 6.510000 14.310618 6.510000 6.510000 6.510000 6.510000 6.510000 6.510000 6.510000 6.510000 6.510000 6.510000 6.510000 6.510000 6.510000 6.510000 6.510000 6.510000 6.510000 6.510000 6.510000 6.510000 6.510000 6.510000 6.510000 6.510000 6.510000 6.510000 6.510000 6.510000 6.510000 6.510000 6.510000 6.510000 6.510000 6.510000 6.510000 6.510000 6.510000 6.510000 6.510000 6.510000 6.510000 6.510000 6.510000 6.510000 6.510000 6.510000 6.510000 6.510000 6.510000 6.510000 6.510000 6.510000 6.510000 6.510000 6.510000 6.510000 6.510000 6.510000 6.510000 6.510000 6.510000 6.510000 6.510000 6.510000 6.510000 6.510000 6.510000 6.510000 6.510000 6.510000 6.510000 6.510000 6.510000 6.510000 6.510000 6.510000 6.510000 6.510000 6.510000 6.510000 6.510000 6.510000 6.510000 6.510000 6.510000 6.510000 6.510000 6.510000 6.510000"/>
        <edge id=":B1_1" speed="13.894554" pastSpeed="13.890000 13.890000 13.890000 13.890000 13.890000 13.890000 13.890000 13.890000 13.890000 13.890000 13.890000 13.890000 13.890000 13.890000 13.890000 13.890000 13.890000 13.890000 13.890000 13.890000 13.890000 13.890000 13.890000 13.890000 13.890000 13.890000 13.890000 13.890000 13.890000 13.890000 13.890000 13.890000 13.890000 13.890000 13.890000 13.890000 13.890000 13.890000 13.890000 13.890000 13.890000 13.890000 14.299901 14.299901 13.890000 13.890000 13.890000 13.890000 13.890000 13.890000 13.890000 13.890000 13.890000 13.890000 13.890000 13.890000 13.890000 13.890000 13.890000 13.890000 13.890000 13.890000 13.890000 13.890000 13.890000 13.890000 13.890000 13.890000 13.890000 13.890000 13.890000 13.890000 13.890000 13.890000 13.890000 13.890000 13.890000 13.890000 13.890000 13.890000 13.890000 13.890000 13.890000 13.890000 13.890000 13.890000 13.890000 13.890000 13.890000 13.890000 13.890000 13.890000 13.890000 13.890000 13.890000 13.890000 13.890000 13.890000 13.890000 13.890000 13.890000 13.890000 13.890000 13.890000 13.890000 13.890000 13.890000 13.890000 13.890000 13.890000 13.890000 13.890000 13.890000 13.890000 13.890000 13.890000 13.890000 13.890000 13.890000 13.890000 13.890000 13.890000 13.890000 13.890000 13.890000 13.890000 13.890000 13.890000 13.890000 13.890000 13.890000 13.890000 13.890000 13.890000 13.890000 13.890000 13.890000 13.890000 13.890000 13.890000 13.890000 13.890000 13.890000 13.890000 13.890000 13.890000 13.890000 13.890000 13.890000 13.890000 13.890000 13.890000 13.890000 13.890000 13.890000 13.890000 13.890000 13.890000 13.890000 13.890000 13.890000 13.890000 13.890000 13.890000 13.890000 13.890000 13.890000 13.890000 13.890000 13.890000 13.890000 13.890000 13.890000 13.890000 13.890000 13.890000 13.890000 13.890000 13.890000 13.890000"/>
        <edge id=":B2_1" speed="2.736595" pastSpeed="2.645845 2.645845 2.645845 2.645845 2.645845 2.645845 2.645845 2.645845 2.645845 2.645845 2.645845 2.645845 2.645845 2.645845 2.645845 2.645845 2.645845 2.645845 2.645845 2.645845 2.645845 2.645845 2.645845 2.645845 2.645845 2.645845 2.645845 2.645845 2.645845 2.645845 2.645845 2.645845 2.645845 2.645845 2.645845 14.323671 2.645845 7.302956 2.645845 2.645845 2.645845 2.645845 2.645845 2.645845 2.645845 2.645845 2.645845 2.645845 2.645845 2.645845 2.645845 2.645845 2.645845 2.645845 2.645845 2.645845 2.645845 2.645845 2.645845 2.645845 2.645845 2.645845 2.645845 2.645845 2.645845 2.645845 2.645845 2.645845 2.645845 2.645845 2.645845 2.645845 2.645845 2.645845 2.645845 2.645845 2.645845 2.645845 2.645845 2.645845 2.645845 2.645845 2.645845 2.645845 2.645845 2.645845 2.645845 2.645845 2.645845 2.645845 2.645845 2.645845 2.645845 2.645845 2.645845 2.645845 2.645845 2.645845 2.645845 2.645845 2.645845 2.645845 2.645845 2.645845 2.645845 2.645845 2.645845 2.645845 2.645845 2.645845 2.645845 2.645845 2.645845 2.645845 2.645845 2.645845 2.645845 2.645845 2.645845 2.645845 2.645845 2.645845 2.645845 2.645845 2.645845 2.645845 2.645845 2.645845 2.645845 2.645845 2.645845 2.645845 2.645845 2.645845 2.645845 2.645845 2.645845 2.645845 2.645845 2.645845 2.645845 2.645845 2.645845 2.645845 2.645845 2.645845 2.645845 2.645845 2.645845 2.645845 2.645845 2.645845 2.645845 2.645845 2.645845 2.645845 2.645845 2.645845 2.645845 2.645845 2.645845 2.645845 2.645845 2.645845 2.645845 2.645845 2.645845 2.645845 2.645845 2.645845 2.645845 2.645845 2.645845 2.645845 2.645845 2.645845 2.645845 2.645845 2.645845 2.645845"/>
        <edge id=":C0_8" speed="0.425689" pastSpeed="0.414813 0.414813 0.414813 0.414813 0.414813 0.414813 0.414813 0.414813 0.414813 0.414813 0.414813 0.414813 0.414813 0.414813 0.414813 0.414813 0.414813 0.414813 0.414813 0.414813 0.414813 0.414813 0.414813 0.414813 0.414813 0.414813 0.414813 0.414813 0.414813 0.414813 0.414813 0.414813 0.414813 0.414813 0.414813 0.414813 0.414813 0.414813 0.414813 0.414813 0.414813 0.414813 0.414813 0.414813 0.414813 0.414813 0.414813 0.414813 0.414813 0.414813 0.414813 0.414813 0.414813 0.414813 0.414813 0.414813 0.414813 0.414813 0.414813 0.414813 0.414813 0.414813 0.414813 0.414813 0.414813 0.414813 0.414813 0.414813 0.414813 0.414813 0.414813 1.393687 1.393687 0.414813 0.414813 0.414813 0.414813 0.414813 0.414813 0.414813 0.414813 0.414813 0.414813 0.414813 0.414813 0.414813 0.414813 0.414813 0.414813 0.414813 0.414813 0.414813 0.414813 0.414813 0.414813 0.414813 0.414813 0.414813 0.414813 0.414813 0.414813 0.414813 0.414813 0.414813 0.414813 0.414813 0.414813 0.414813 0.414813 0.414813 0.414813 0.414813 0.414813 0.414813 0.414813 0.414813 0.414813 0.414813 0.414813 0.414813 0.414813 0.414813 0.414813 0.414813 0.414813 0.414813 0.414813 0.414813 0.414813 0.414813 0.414813 0.414813 0.414813 0.414813 0.414813 0.414813 0.414813 0.414813 0.414813 0.414813 0.414813 0.414813 0.414813 0.414813 0.414813 0.414813 0.414813 0.414813 0.414813 0.414813 0.414813 0.414813 0.414813 0.414813 0.414813 0.414813 0.414813 0.414813 0.414813 0.414813 0.414813 0.414813 0.414813 0.414813 0.414813 0.414813 0.414813 0.414813 0.414813 0.414813 0.414813 0.414813 0.414813 0.414813 0.414813 0.414813 0.414813 0.414813 0.414813 0.414813"/>
        <edge id=":C1_9" speed="13.894554" pastSpeed="13.890000 13.890000 13.890000 13.890000 13.890000 13.890000 14.299901 13.890000 14.299901 13.890000 13.890000 13.890000 13.890000 13.890000 13.890000 13.890000 13.890000 13.890000 13.890000 13.890000 13.890000 13.890000 13.890000 13.890000 13.890000 13.890000 13.890000 13.890000 13.890000 13.890000 13.890000 13.890000 13.890000 13.890000 13.890000 13.890000 13.890000 13.890000 13.890000 13.890000 13.890000 13.890000 13.890000 13.890000 13.890000 13.890000 13.890000 13.890000 13.890000 13.890000 13.890000 13.890000 13.890000 13.890000 13.890000 13.890000 13.890000 13.890000 13.890000 13.890000 13.890000 13.890000 13.890000 13.890000 13.890000 13.890000 13.890000 13.890000 13.890000 13.890000 13.890000 13.890000 13.890000 13.890000 13.890000 13.890000 13.890000 13.890000 13.890000 13.890000 13.890000 13.890000 13.890000 13.890000 13.890000 13.890000 13.890000 13.890000 13.890000 13.890000 13.890000 13.890000 13.890000 13.890000 13.890000 13.890000 13.890000 13.890000 13.890000 13.890000 13.890000 13.890000 13.890000 13.890000 13.890000 13.890000 13.890000 13.890000 13.890000 13.890000 13.890000 13.890000 13.890000 13.890000 13.890000 13.890000 13.890000 13.890000 13.890000 13.890000 13.890000 13.890000 13.890000 13.890000 13.890000 13.890000 13.890000 13.890000 13.890000 13.890000 13.890000 13.890000 13.890000 13.890000 13.890000 13.890000 13.890000 13.890000 13.890000 13.890000 13.890000 13.890000 13.890000 13.890000 13.890000 13.890000 13.890000 13.890000 13.890000 13.890000 13.890000 13.890000 13.890000 13.890000 13.890000 13.890000 13.890000 13.890000 13.890000 13.890000 13.890000 13.890000 13.890000 13.890000 13.890000 13.890000 13.890000 13.890000 13.890000 13.890000 13.890000 13.890000 13.890000 13.890000 13.890000 13.890000 13.890000 13.890000 13.890000 13.890000"/>
        <edge id=":C2_4" speed="4.455136" pastSpeed="4.334479 4.334479 4.334479 4.334479 4.334479 4.334479 4.334479 4.334479 4.334479 4.334479 4.334479 4.334479 4.334479 4.334479 14.304435 4.334479 10.208633 10.208633 4.334479 4.334479 4.334479 4.334479 4.334479 4.334479 4.334479 4.334479 4.334479 4.334479 4.334479 4.334479 4.334479 4.334479 4.334479 4.334479 4.334479 4.334479 4.334479 4.334479 4.334479 4.334479 4.334479 4.334479 4.334479 4.334479 4.334479 4.334479 4.334479 4.334479 4.334479 4.334479 4.334479 4.334479 4.334479 4.334479 4.334479 4.334479 4.334479 4.334479 4.334479 4.334479 4.334479 4.334479 4.334479 4.334479 4.334479 4.334479 4.334479 4.334479 4.334479 4.334479 4.334479 4.334479 4.334479 4.334479 4.334479 4.334479 4.334479 4.334479 4.334479 4.334479 4.334479 4.334479 4.334479 4.334479 4.334479 4.334479 4.334479 4.334479 4.334479 4.334479 4.334479 4.334479 4.334479 4.334479 4.334479 4.334479 4.334479 4.334479 4.334479 4.334479 4.334479 4.334479 4.334479 4.334479 4.334479 4.334479 4.334479 4.334479 4.334479 4.334479 4.334479 4.334479 4.334479 4.334479 4.334479 4.334479 4.334479 4.334479 4.334479 4.334479 4.334479 4.334479 4.334479 4.334479 4.334479 4.334479 4.334479 4.334479 4.334479 4.334479 4.334479 4.334479 4.334479 4.334479 4.334479 4.334479 4.334479 4.334479 4.334479 4.334479 4.334479 4.334479 4.334479 4.334479 4.334479 4.334479 4.334479 4.334479 4.334479 4.334479 4.334479 4.334479 4.334479 4.334479 4.334479 4.334479 4.334479 4.334479 4.334479 4.334479 4.334479 4.334479 4.334479 4.334479 4.334479 4.334479 4.334479 4.334479 4.334479 4.334479 4.334479 4.334479 4.334479 4.334479 4.334479 4.334479 4.334479 4.334479 4.334479 4.334479"/>
        <edge id="B0C0" speed="13.953842" pastSpeed="13.890000 13.890000 13.890000 13.890000 13.890000 13.890000 13.890000 13.890000 13.890000 13.890000 13.890000 13.890000 13.890000 13.890000 13.890000 13.890000 13.890000 13.890000 13.890000 13.890000 13.890000 13.890000 13.890000 13.890000 13.890000 13.890000 13.890000 13.890000 13.890000 13.890000 13.890000 13.890000 13.890000 13.890000 13.890000 13.890000 13.890000 13.890000 13.890000 13.890000 13.890000 13.890000 13.890000 13.890000 13.890000 13.890000 13.890000 13.890000 13.890000 13.890000 14.307184 14.307184 14.762287 14.762287 14.762287 14.762287 14.762287 14.762287 14.307184 14.307184 14.307184 14.307184 14.307184 14.307184 14.307184 14.307184 14.307184 14.307184 14.307184 14.307184 14.307184 13.890000 13.890000 13.890000 13.890000 13.890000 13.890000 13.890000 13.890000 13.890000 13.890000 13.890000 13.890000 13.890000 13.890000 13.890000 13.890000 13.890000 13.890000 13.890000 13.890000 13.890000 13.890000 13.890000 13.890000 13.890000 13.890000 13.890000 13.890000 13.890000 13.890000 13.890000 13.890000 13.890000 13.890000 13.890000 13.890000 13.890000 13.890000 13.890000 13.890000 13.890000 13.890000 13.890000 13.890000 13.890000 13.890000 13.890000 13.890000 13.890000 13.890000 13.890000 13.890000 13.890000 13.890000 13.890000 13.890000 13.890000 13.890000 13.890000 13.890000 13.890000 13.890000 13.890000 13.890000 13.890000 13.890000 13.890000 13.890000 13.890000 13.890000 13.890000 13.890000 13.890000 13.890000 13.890000 13.890000 13.890000 13.890000 13.890000 13.890000 13.890000 13.890000 13.890000 13.890000 13.890000 13.890000 13.890000 13.890000 13.890000 13.890000 13.890000 13.890000 13.890000 13.890000 13.890000 13.890000 13.890000 13.890000 13.890000 13.890000 13.890000 13.890000 13.890000 13.890000 13.890000 13.890000 13.890000 13.890000 13.890000"/>
        <edge id="B1B0" speed="13.906225" pastSpeed="13.890000 13.890000 13.890000 13.890000 13.890000 13.890000 13.890000 13.890000 13.890000 13.890000 13.890000 13.890000 13.890000 13.890000 13.890000 13.890000 13.890000 13.890000 13.890000 13.890000 13.890000 13.890000 13.890000 13.890000 13.890000 13.890000 13.890000 13.890000 13.890000 13.890000 13.890000 13.890000 13.890000 13.890000 13.890000 13.890000 13.890000 13.890000 13.890000 13.890000 13.890000 13.890000 13.890000 14.307204 14.307204 14.307204 14.307204 14.307204 14.307204 14.307204 13.890000 13.890000 13.890000 13.890000 13.890000 13.890000 13.890000 13.890000 13.890000 13.890000 13.890000 13.890000 13.890000 13.890000 13.890000 13.890000 13.890000 13.890000 13.890000 13.890000 13.890000 13.890000 13.890000 13.890000 13.890000 13.890000 13.890000 13.890000 13.890000 13.890000 13.890000 13.890000 13.890000 13.890000 13.890000 13.890000 13.890000 13.890000 13.890000 13.890000 13.890000 13.890000 13.890000 13.890000 13.890000 13.890000 13.890000 13.890000 13.890000 13.890000 13.890000 13.890000 13.890000 13.890000 13.890000 13.890000 13.890000 13.890000 13.890000 13.890000 13.890000 13.890000 13.890000 13.890000 13.890000 13.890000 13.890000 13.890000 13.890000 13.890000 13.890000 13.890000 13.890000 13.890000 13.890000 13.890000 13.890000 13.890000 13.890000 13.890000 13.890000 13.890000 13.890000 13.890000 13.890000 13.890000 13.890000 13.890000 13.890000 13.890000 13.890000 13.890000 13.890000 13.890000 13.890000 13.890000 13.890000 13.890000 13.890000 13.890000 13.890000 13.890000 13.890000 13.890000 13.890000 13.890000 13.890000 13.890000 13.890000 13.890000 13.890000 13.890000 13.890000 13.890000 13.890000 13.890000 13.890000 13.890000 13.890000 13.890000 13.890000 13.890000 13.890000 13.890000 13.890000 13.890000 13.890000 13.890000 13.890000 13.890000"/>
        <edge id="B2B1" speed="13.923217" pastSpeed="13.890000 13.890000 13.890000 13.890000 13.890000 13.890000 13.890000 13.890000 13.890000 13.890000 13.890000 13.890000 13.890000 13.890000 13.890000 13.890000 13.890000 13.890000 13.890000 13.890000 13.890000 13.890000 13.890000 13.890000 13.890000 13.890000 13.890000 13.890000 13.890000 13.890000 13.890000 13.890000 13.890000 13.890000 13.890000 13.890000 14.307204 14.307204 14.816986 14.816986 14.816986 14.816986 15.326768 13.890000 13.890000 13.890000 13.890000 13.890000 13.890000 13.890000 13.890000 13.890000 13.890000 13.890000 13.890000 13.890000 13.890000 13.890000 13.890000 13.890000 13.890000 13.890000 13.890000 13.890000 13.890000 13.890000 13.890000 13.890000 13.890000 13.890000 13.890000 13.890000 13.890000 13.890000 13.890000 13.890000 13.890000 13.890000 13.890000 13.890000 13.890000 13.890000 13.890000 13.890000 13.890000 13.890000 13.890000 13.890000 13.890000 13.890000 13.890000 13.890000 13.890000 13.890000 13.890000 13.890000 13.890000 13.890000 13.890000 13.890000 13.890000 13.890000 13.890000 13.890000 13.890000 13.890000 13.890000 13.890000 13.890000 13.890000 13.890000 13.890000 13.890000 13.890000 13.890000 13.890000 13.890000 13.890000 13.890000 13.890000 13.890000 13.890000 13.890000 13.890000 13.890000 13.890000 13.890000 13.890000 13.890000 13.890000 13.890000 13.890000 13.890000 13.890000 13.890000 13.890000 13.890000 13.890000 13.890000 13.890000 13.890000 13.890000 13.890000 13.890000 13.890000 13.890000 13.890000 13.890000 13.890000 13.890000 13.890000 13.890000 13.890000 13.890000 13.890000 13.890000 13.890000 13.890000 13.890000 13.890000 13.890000 13.890000 13.890000 13.890000 13.890000 13.890000 13.890000 13.890000 13.890000 13.890000 13.890000 13.890000 13.890000 13.890000 13.890000 13.890000 13.890000 13.890000 13.890000 13.890000"/>
        <edge id="C0B0" speed="14.001141" pastSpeed="13.890000 13.890000 13.890000 13.890000 13.890000 13.890000 13.890000 13.890000 13.890000 13.890000 13.890000 13.890000 13.890000 13.890000 13.890000 13.890000 13.890000 13.890000 13.890000 13.890000 13.890000 13.890000 13.890000 13.890000 13.890000 13.890000 13.890000 13.890000 13.890000 13.890000 13.890000 13.890000 13.890000 13.890000 13.890000 13.890000 13.890000 13.890000 13.890000 13.890000 13.890000 13.890000 13.890000 13.890000 13.890000 13.890000 13.890000 13.890000 13.890000 13.890000 13.890000 13.890000 13.890000 13.890000 13.890000 13.890000 13.890000 13.890000 13.890000 13.890000 13.890000 13.890000 13.890000 13.890000 13.890000 13.890000 13.890000 13.890000 13.890000 13.890000 14.307184 14.307184 14.307184 15.626358 15.626358 15.626358 15.626358 15.626358 15.626358 14.862094 14.862094 14.862094 14.862094 14.862094 14.862094 14.307184 14.307184 14.307184 14.307184 14.307184 14.307184 13.890000 13.890000 13.890000 13.890000 13.890000 13.890000 13.890000 13.890000 13.890000 13.890000 13.890000 13.890000 13.890000 13.890000 13.890000 13.890000 13.890000 13.890000 13.890000 13.890000 13.890000 13.890000 13.890000 13.890000 13.890000 13.890000 13.890000 13.890000 13.890000 13.890000 13.890000 13.890000 13.890000 13.890000 13.890000 13.890000 13.890000 13.890000 13.890000 13.890000 13.890000 13.890000 13.890000 13.890000 13.890000 13.890000 13.890000 13.890000 13.890000 13.890000 13.890000 13.890000 13.890000 13.890000 13.890000 13.890000 13.890000 13.890000 13.890000 13.890000 13.890000 13.890000 13.890000 13.890000 13.890000 13.890000 13.890000 13.890000 13.890000 13.890000 13.890000 13.890000 13.890000 13.890000 13.890000 13.890000 13.890000 13.890000 13.890000 13.890000 13.890000 13.890000 13.890000 13.890000 13.890000 13.890000 13.890000 13.890000 13.890000"/>