<?xml version="1.0" encoding="UTF-8"?>

<!-- generated on 2026-04-22T22:57:39.652134+01:00 by Eclipse SUMO sumo v1_26_0+1332-ff910ea15c9
<sumoConfiguration xmlns:xsi="http://www.w3.org/2001/XMLSchema-instance" xsi:noNamespaceSchemaLocation="http://sumo.dlr.de/xsd/sumoConfiguration.xsd">

    <input>
        <net-file value="net.net.xml"/>
        <additional-files value="input_additional.add.xml"/>
        <load-state value="state.xml"/>
    </input>

    <output>
        <output-suffix value="2"/>
        <tripinfo-output value="tripinfo.xml"/>
        <tripinfo-output.write-unfinished value="true"/>
        <vehroute-output value="vehroutes.xml"/>
        <vehroute-output.last-route value="true"/>
        <vehroute-output.write-unfinished value="true"/>
    </output>

    <processing>
        <default.departspeed value="0"/>
        <default.departlane value="first"/>
    </processing>

    <report>
        <duration-log.statistics value="true"/>
        <no-step-log value="true"/>
    </report>

    <taxi_device>
        <device.taxi.dispatch-algorithm.output value="dispatchinfos.xml"/>
        <device.taxi.idle-algorithm value="randomCircling"/>
    </taxi_device>

</sumoConfiguration>
-->

<tripinfos xmlns:xsi="http://www.w3.org/2001/XMLSchema-instance" xsi:noNamespaceSchemaLocation="http://sumo.dlr.de/xsd/tripinfo_file.xsd">
    <personinfo id="p0.1" depart="0.00" type="DEFAULT_PEDTYPE" speedFactor="1.01" duration="96.00" waitingTime="27.00" timeLoss="11.08" traveltime="69.00">
        <ride waitingTime="27.00" vehicle="trip_1" depart="27.00" arrival="96.00" arrivalPos="219.49" duration="69.00" routeLength="813.88" timeLoss="11.08"/>
    </personinfo>
    <tripinfo id="trip_1" depart="0.00" departLane="C0C1_1" departPos="77.90" departSpeed="0.00" departDelay="0.00" arrival="1053.00" arrivalLane="D1E1_1" arrivalPos="285.60" arrivalSpeed="16.66" duration="1053.00" routeLength="13362.07" waitingTime="8.00" waitingCount="4" stopTime="14.00" timeLoss="199.88" rerouteNo="65" devices="vehroute_trip_1 tripinfo_trip_1 routing_trip_1 taxi_trip_1 person_trip_1" vType="taxi" speedFactor="1.22" vaporized="">
        <taxi customers="1" occupiedDistance="813.86" occupiedTime="76.00"/>
    </tripinfo>
    <tripinfo id="trip_0" depart="0.00" departLane="C0C1_1" departPos="85.50" departSpeed="0.00" departDelay="0.00" arrival="1070.00" arrivalLane="D2C2_1" arrivalPos="285.60" arrivalSpeed="13.56" duration="1070.00" routeLength="12296.00" waitingTime="0.00" waitingCount="0" stopTime="14.00" timeLoss="153.61" rerouteNo="58" devices="vehroute_trip_0 tripinfo_trip_0 routing_trip_0 taxi_trip_0 person_trip_0" vType="taxi" speedFactor="1.03" vaporized="">
        <taxi customers="1" occupiedDistance="813.87" occupiedTime="78.00"/>
    </tripinfo>
</tripinfos>
