<?xml version="1.0" encoding="UTF-8"?>

<!-- generated on 2026-04-22T23:00:34.700301+01:00 by Eclipse SUMO sumo v1_26_0+1332-ff910ea15c9
<sumoConfiguration xmlns:xsi="http://www.w3.org/2001/XMLSchema-instance" xsi:noNamespaceSchemaLocation="http://sumo.dlr.de/xsd/sumoConfiguration.xsd">

    <input>
        <net-file value="net.net.xml"/>
        <additional-files value="input_additional.add.xml"/>
        <load-state value="state.xml"/>
    </input>

    <output>
        <output-suffix value="2"/>
        <tripinfo-output value="tripinfo.xml"/>
        <tripinfo-output.write-unfinished value="true"/>
        <vehroute-output value="vehroutes.xml"/>
        <vehroute-output.last-route value="true"/>
        <vehroute-output.write-unfinished value="true"/>
    </output>

    <processing>
        <default.departspeed value="0"/>
        <default.departlane value="first"/>
    </processing>

    <report>
        <duration-log.statistics value="true"/>
        <no-step-log value="true"/>
    </report>

    <taxi_device>
        <device.taxi.dispatch-algorithm.output value="dispatchinfos.xml"/>
        <device.taxi.idle-algorithm value="randomCircling"/>
    </taxi_device>

    <mesoscopic>
        <mesosim value="true"/>
    </mesoscopic>

</sumoConfiguration>
-->

<routes xmlns:xsi="http://www.w3.org/2001/XMLSchema-instance" xsi:noNamespaceSchemaLocation="http://sumo.dlr.de/xsd/routes_file.xsd">
    <vehicle id="trip_1" type="taxi" depart="0.00" departPos="0.00" speedFactor="1.2200" arrival="1025.00">
        <route edges="C0C1 C1C2 C2B2 B2B1 B1B0 B0C0 C0B0 B0C0 C0B0 B0B1 B1B2 B2B1 B1A1 A1A2 A2B2 B2C2 C2B2 B2C2 C2C1 C1C2 C2D2 D2D1 D1E1 E1E2 E2E1 E1E2 E2F2 F2F1 F1E1 E1F1 F1F0 F0E0 E0F0 F0F1 F1E1 E1D1 D1D0 D0C0 C0D0 D0C0 C0C1 C1C2 C2D2 D2C2 C2B2 B2C2 C2C1 C1C2 C2D2 D2C2 C2B2 B2B1 B1B2 B2A2 A2A1 A1B1 B1B2 B2B1 B1B2 B2A2 A2A1 A1A2 A2B2 B2C2 C2D2 D2C2 C2D2 D2D1 D1D0 D0C0 C0D0 D0C0 C0D0 D0E0 E0F0 F0F1 F1F0 F0E0 E0E1 E1E2 E2E1 E1E2 E2E1 E1E0 E0F0 F0F1"/>
        <stop lane="C1C2_1" startPos="0.00" endPos="5.00" duration="0.00" started="8.66" ended="16.00" triggered="person" parking="0" permitted="p0.1" actType="pickup p0.1 (1)"/>
        <stop busStop="stop_B0C0" duration="0.00" started="64.28" ended="71.00" parking="0" actType="dropOff p0.1 (1)"/>
    </vehicle>

    <vehicle id="trip_0" type="taxi" depart="0.00" departPos="0.00" arrival="1032.00">
        <route edges="C0C1 C1C2 C2B2 B2B1 B1B0 B0C0 C0B0 B0B1 B1B0 B0A0 A0A1 A1A2 A2B2 B2C2 C2D2 D2E2 E2F2 F2F1 F1F2 F2E2 E2D2 D2E2 E2F2 F2F1 F1E1 E1E2 E2D2 D2D1 D1C1 C1C2 C2D2 D2E2 E2D2 D2E2 E2D2 D2D1 D1C1 C1B1 B1A1 A1A2 A2B2 B2B1 B1C1 C1C0 C0C1 C1B1 B1B2 B2A2 A2A1 A1A2 A2B2 B2A2 A2A1 A1B1 B1A1 A1B1 B1B0 B0A0 A0A1 A1B1 B1A1 A1B1 B1A1 A1A0 A0B0 B0C0 C0D0 D0D1 D1D2"/>
        <stop lane="C1C2_1" startPos="0.00" endPos="5.00" duration="0.00" started="6.99" ended="14.00" triggered="person" parking="0" permitted="p0.0" actType="pickup p0.0 (0)"/>
        <stop busStop="stop_B0C0" duration="0.00" started="62.61" ended="70.00" parking="0" actType="dropOff p0.0 (0)"/>
    </vehicle>

</routes>
