<?xml version="1.0" encoding="UTF-8"?>

<!-- generated on 2021-08-25 09:12:20 by Eclipse SUMO sumo Version v1_10_0+0201-258390e
This data file and the accompanying materials
are made available under the terms of the Eclipse Public License v2.0
which accompanies this distribution, and is available at
http://www.eclipse.org/legal/epl-v20.html
SPDX-License-Identifier: EPL-2.0
<configuration xmlns:xsi="http://www.w3.org/2001/XMLSchema-instance" xsi:noNamespaceSchemaLocation="http://sumo.dlr.de/xsd/sumoConfiguration.xsd">

    <input>
        <net-file value="net.net.xml"/>
        <route-files value="input_routes.rou.xml"/>
        <additional-files value="input_additional.add.xml"/>
    </input>

    <output>
        <write-license value="true"/>
        <vehroute-output value="vehroutes.xml"/>
        <vehroute-output.skip-ptlines value="true"/>
    </output>

    <processing>
        <default.speeddev value="0"/>
    </processing>

    <report>
        <xml-validation value="never"/>
        <xml-validation.routes value="never"/>
        <no-step-log value="true"/>
    </report>

</configuration>
-->

<routes xmlns:xsi="http://www.w3.org/2001/XMLSchema-instance" xsi:noNamespaceSchemaLocation="http://sumo.dlr.de/xsd/routes_file.xsd">
    <person id="p0" depart="0.00" arrival="224.00">
        <walk edges="beg2left" trainStop="beg2left"/>
    </person>

    <person id="p1" depart="0.00" arrival="225.00">
        <walk edges="beg2left" trainStop="beg2left"/>
    </person>

    <person id="p2" depart="0.00" arrival="630.00">
        <walk edges="beg beg2left" trainStop="beg2left"/>
    </person>

    <person id="p3" depart="0.00" arrival="634.00">
        <walk edges="beg beg2left" trainStop="beg2left"/>
    </person>

</routes>
