<?xml version="1.0" encoding="UTF-8"?>

<!-- generated on 2022-02-09 17:49:29 by Eclipse SUMO sumo Version v1_12_0+0407-89d3a2c
This data file and the accompanying materials
are made available under the terms of the Eclipse Public License v2.0
which accompanies this distribution, and is available at
http://www.eclipse.org/legal/epl-v20.html
This file may also be made available under the following Secondary
Licenses when the conditions for such availability set forth in the Eclipse
Public License 2.0 are satisfied: GNU General Public License, version 2
or later which is available at
https://www.gnu.org/licenses/old-licenses/gpl-2.0-standalone.html
SPDX-License-Identifier: EPL-2.0 OR GPL-2.0-or-later
<configuration xmlns:xsi="http://www.w3.org/2001/XMLSchema-instance" xsi:noNamespaceSchemaLocation="http://sumo.dlr.de/xsd/sumoConfiguration.xsd">

    <input>
        <net-file value="net.net.xml"/>
        <route-files value="input_routes.rou.xml"/>
        <additional-files value="input_additional.add.xml"/>
    </input>

    <output>
        <write-license value="true"/>
    </output>

    <processing>
        <default.speeddev value="0"/>
    </processing>

    <routing>
        <weights.separate-turns value="0.5"/>
    </routing>

    <report>
        <verbose value="true"/>
        <xml-validation value="never"/>
        <xml-validation.routes value="never"/>
        <duration-log.statistics value="true"/>
        <no-step-log value="true"/>
    </report>

</configuration>
-->

<meandata xmlns:xsi="http://www.w3.org/2001/XMLSchema-instance" xsi:noNamespaceSchemaLocation="http://sumo.dlr.de/xsd/meandata_file.xsd">
    <interval begin="0.00" end="600.00" id="ed">
        <edge id=":gneJ1_0" sampledSeconds="210.33" traveltime="0.85" overlapTraveltime="1.22" density="31.30" laneDensity="31.30" occupancy="10.82" waitingTime="0.00" timeLoss="9.72" speed="13.25" speedRelative="0.95" departed="0" arrived="0" entered="172" left="172" laneChangedFrom="0" laneChangedTo="0"/>
        <edge id=":gneJ1_4" sampledSeconds="201.37" traveltime="0.87" overlapTraveltime="1.24" density="29.21" laneDensity="14.60" occupancy="5.09" waitingTime="0.00" timeLoss="9.05" speed="13.27" speedRelative="0.96" departed="0" arrived="0" entered="162" left="162" laneChangedFrom="0" laneChangedTo="0"/>
        <edge id=":gneJ2_1" sampledSeconds="262.15" traveltime="1.09" overlapTraveltime="1.47" density="30.34" laneDensity="30.34" occupancy="11.26" waitingTime="0.00" timeLoss="12.24" speed="13.24" speedRelative="0.95" departed="0" arrived="0" entered="179" left="179" laneChangedFrom="0" laneChangedTo="0"/>
        <edge id=":gneJ2_4" sampledSeconds="119.14" traveltime="1.53" overlapTraveltime="2.29" density="21.99" laneDensity="21.99" occupancy="7.23" waitingTime="0.00" timeLoss="40.98" speed="6.12" speedRelative="0.94" departed="0" arrived="0" entered="52" left="52" laneChangedFrom="0" laneChangedTo="0"/>
        <edge id=":gneJ2_5" sampledSeconds="119.90" traveltime="1.14" overlapTraveltime="1.52" density="13.47" laneDensity="13.47" occupancy="5.03" waitingTime="0.00" timeLoss="7.12" speed="13.07" speedRelative="0.94" departed="0" arrived="0" entered="79" left="79" laneChangedFrom="0" laneChangedTo="0"/>
        <edge id=":gneJ2_6" sampledSeconds="562.21" traveltime="92.43" overlapTraveltime="101.60" density="133.33" laneDensity="133.33" occupancy="77.78" waitingTime="530.00" timeLoss="554.65" speed="0.11" speedRelative="0.01" departed="0" arrived="0" entered="6" left="5" laneChangedFrom="0" laneChangedTo="0"/>
        <edge id=":gneJ2_10" sampledSeconds="16.52" traveltime="2.49" overlapTraveltime="3.30" density="3.33" laneDensity="3.33" occupancy="0.92" waitingTime="0.00" timeLoss="10.08" speed="4.01" speedRelative="0.50" departed="0" arrived="0" entered="5" left="5" laneChangedFrom="0" laneChangedTo="0"/>
        <edge id=":gneJ3_0" sampledSeconds="221.09" traveltime="0.84" overlapTraveltime="1.22" density="32.90" laneDensity="32.90" occupancy="11.37" waitingTime="0.00" timeLoss="9.99" speed="13.26" speedRelative="0.95" departed="0" arrived="0" entered="181" left="181" laneChangedFrom="0" laneChangedTo="0"/>
        <edge id=":gneJ3_4" sampledSeconds="95.16" traveltime="0.84" overlapTraveltime="1.22" density="14.16" laneDensity="14.16" occupancy="4.89" waitingTime="0.00" timeLoss="4.18" speed="13.28" speedRelative="0.96" departed="0" arrived="0" entered="78" left="78" laneChangedFrom="0" laneChangedTo="0"/>
        <edge id=":gneJ5_0" sampledSeconds="111.29" traveltime="1.54" overlapTraveltime="2.27" density="20.54" laneDensity="20.54" occupancy="6.79" waitingTime="0.00" timeLoss="40.50" speed="6.18" speedRelative="0.95" departed="0" arrived="0" entered="49" left="49" laneChangedFrom="0" laneChangedTo="0"/>
        <edge id=":gneJ5_1" sampledSeconds="8.56" traveltime="2.23" overlapTraveltime="2.85" density="1.27" laneDensity="1.27" occupancy="0.40" waitingTime="0.00" timeLoss="5.06" speed="5.68" speedRelative="0.41" departed="0" arrived="0" entered="3" left="3" laneChangedFrom="0" laneChangedTo="0"/>
        <edge id="-a" sampledSeconds="1250.80" traveltime="7.02" overlapTraveltime="7.40" density="22.46" laneDensity="22.46" occupancy="10.72" waitingTime="0.00" timeLoss="60.29" speed="13.22" speedRelative="0.95" departed="0" arrived="170" entered="172" left="0" laneChangedFrom="0" laneChangedTo="0"/>
        <edge id="-b" sampledSeconds="3885.89" traveltime="21.81" overlapTraveltime="22.19" density="22.43" laneDensity="22.43" occupancy="11.02" waitingTime="0.00" timeLoss="181.21" speed="13.24" speedRelative="0.95" departed="0" arrived="0" entered="179" left="172" laneChangedFrom="0" laneChangedTo="0"/>
        <edge id="-c" sampledSeconds="1274.82" traveltime="6.71" overlapTraveltime="7.08" density="23.93" laneDensity="23.93" occupancy="11.33" waitingTime="0.00" timeLoss="59.55" speed="13.24" speedRelative="0.95" departed="0" arrived="0" entered="181" left="179" laneChangedFrom="0" laneChangedTo="0"/>
        <edge id="-d" sampledSeconds="1814.38" traveltime="10.14" overlapTraveltime="10.51" density="32.59" laneDensity="32.59" occupancy="15.99" waitingTime="0.00" timeLoss="598.31" speed="9.31" speedRelative="0.67" departed="184" arrived="0" entered="0" left="181" laneChangedFrom="0" laneChangedTo="0"/>
        <edge id="a" sampledSeconds="1627.59" traveltime="10.14" overlapTraveltime="10.51" density="29.23" laneDensity="29.23" occupancy="14.34" waitingTime="0.00" timeLoss="536.86" speed="9.31" speedRelative="0.67" departed="166" arrived="0" entered="0" left="162" laneChangedFrom="0" laneChangedTo="0"/>
        <edge id="b" sampledSeconds="14504.64" traveltime="93.26" overlapTraveltime="94.01" density="83.71" laneDensity="41.85" occupancy="20.82" waitingTime="9893.00" timeLoss="11208.74" speed="3.13" speedRelative="0.23" departed="0" arrived="0" entered="162" left="137" laneChangedFrom="0" laneChangedTo="0"/>
        <edge id="c" sampledSeconds="554.60" traveltime="6.70" overlapTraveltime="7.08" density="10.41" laneDensity="10.41" occupancy="4.93" waitingTime="0.00" timeLoss="25.62" speed="13.25" speedRelative="0.95" departed="0" arrived="0" entered="79" left="78" laneChangedFrom="0" laneChangedTo="0"/>
        <edge id="d" sampledSeconds="567.99" traveltime="7.01" overlapTraveltime="7.38" density="10.20" laneDensity="10.20" occupancy="4.87" waitingTime="0.00" timeLoss="26.24" speed="13.25" speedRelative="0.95" departed="0" arrived="77" entered="78" left="0" laneChangedFrom="0" laneChangedTo="0"/>
        <edge id="f" sampledSeconds="1244.03" traveltime="23.64" overlapTraveltime="24.48" density="7.10" laneDensity="7.10" occupancy="3.43" waitingTime="0.00" timeLoss="132.57" speed="12.13" speedRelative="0.87" departed="0" arrived="0" entered="52" left="49" laneChangedFrom="0" laneChangedTo="0"/>
        <edge id="g" sampledSeconds="203.46" traveltime="40.61" overlapTraveltime="42.29" density="3.82" laneDensity="3.82" occupancy="1.87" waitingTime="150.00" timeLoss="170.97" speed="2.22" speedRelative="0.16" departed="0" arrived="0" entered="5" left="3" laneChangedFrom="0" laneChangedTo="0"/>
        <edge id="h" sampledSeconds="428.41" traveltime="7.95" overlapTraveltime="8.34" density="7.69" laneDensity="7.69" occupancy="3.61" waitingTime="0.00" timeLoss="66.87" speed="11.72" speedRelative="0.84" departed="0" arrived="51" entered="52" left="0" laneChangedFrom="0" laneChangedTo="0"/>
    </interval>
    <interval begin="600.00" end="1200.00" id="ed">
        <edge id=":gneJ1_0" sampledSeconds="237.34" traveltime="0.85" overlapTraveltime="1.22" density="35.32" laneDensity="35.32" occupancy="12.22" waitingTime="0.00" timeLoss="11.31" speed="13.23" speedRelative="0.95" departed="0" arrived="0" entered="194" left="194" laneChangedFrom="0" laneChangedTo="0"/>
        <edge id=":gneJ1_4" sampledSeconds="47.48" traveltime="0.87" overlapTraveltime="1.25" density="6.89" laneDensity="3.44" occupancy="1.20" waitingTime="0.00" timeLoss="2.37" speed="13.20" speedRelative="0.95" departed="0" arrived="0" entered="38" left="38" laneChangedFrom="0" laneChangedTo="0"/>
        <edge id=":gneJ2_1" sampledSeconds="285.79" traveltime="1.09" overlapTraveltime="1.47" density="33.08" laneDensity="33.08" occupancy="12.28" waitingTime="0.00" timeLoss="14.74" speed="13.17" speedRelative="0.95" departed="0" arrived="0" entered="194" left="194" laneChangedFrom="0" laneChangedTo="0"/>
        <edge id=":gneJ2_4" sampledSeconds="49.94" traveltime="1.53" overlapTraveltime="2.27" density="9.22" laneDensity="9.22" occupancy="3.04" waitingTime="0.00" timeLoss="17.53" speed="6.18" speedRelative="0.95" departed="0" arrived="0" entered="22" left="22" laneChangedFrom="0" laneChangedTo="0"/>
        <edge id=":gneJ2_5" sampledSeconds="32.36" traveltime="1.16" overlapTraveltime="1.54" density="3.64" laneDensity="3.64" occupancy="1.36" waitingTime="0.00" timeLoss="2.38" speed="12.87" speedRelative="0.93" departed="0" arrived="0" entered="21" left="21" laneChangedFrom="0" laneChangedTo="0"/>
        <edge id=":gneJ2_6" sampledSeconds="599.04" traveltime="147.99" overlapTraveltime="149.76" density="133.33" laneDensity="133.33" occupancy="83.32" waitingTime="581.00" timeLoss="593.57" speed="0.07" speedRelative="0.01" departed="0" arrived="0" entered="4" left="4" laneChangedFrom="0" laneChangedTo="0"/>
        <edge id=":gneJ2_10" sampledSeconds="12.75" traveltime="2.40" overlapTraveltime="3.19" density="2.57" laneDensity="2.57" occupancy="0.72" waitingTime="0.00" timeLoss="7.71" speed="4.16" speedRelative="0.52" departed="0" arrived="0" entered="4" left="4" laneChangedFrom="0" laneChangedTo="0"/>
        <edge id=":gneJ3_0" sampledSeconds="237.73" traveltime="0.85" overlapTraveltime="1.22" density="35.38" laneDensity="35.38" occupancy="12.23" waitingTime="0.00" timeLoss="10.92" speed="13.25" speedRelative="0.95" departed="0" arrived="0" entered="195" left="194" laneChangedFrom="0" laneChangedTo="0"/>
        <edge id=":gneJ3_4" sampledSeconds="26.84" traveltime="0.84" overlapTraveltime="1.22" density="3.99" laneDensity="3.99" occupancy="1.38" waitingTime="0.00" timeLoss="1.19" speed="13.28" speedRelative="0.96" departed="0" arrived="0" entered="22" left="22" laneChangedFrom="0" laneChangedTo="0"/>
        <edge id=":gneJ5_0" sampledSeconds="57.75" traveltime="1.55" overlapTraveltime="2.31" density="10.66" laneDensity="10.66" occupancy="3.50" waitingTime="0.00" timeLoss="20.41" speed="6.07" speedRelative="0.93" departed="0" arrived="0" entered="25" left="25" laneChangedFrom="0" laneChangedTo="0"/>
        <edge id=":gneJ5_1" sampledSeconds="17.29" traveltime="2.28" overlapTraveltime="2.88" density="2.57" laneDensity="2.57" occupancy="0.81" waitingTime="0.00" timeLoss="10.29" speed="5.62" speedRelative="0.40" departed="0" arrived="0" entered="6" left="6" laneChangedFrom="0" laneChangedTo="0"/>
        <edge id="-a" sampledSeconds="1413.99" traveltime="7.02" overlapTraveltime="7.39" density="25.39" laneDensity="25.39" occupancy="12.15" waitingTime="0.00" timeLoss="67.35" speed="13.23" speedRelative="0.95" departed="0" arrived="193" entered="194" left="0" laneChangedFrom="0" laneChangedTo="0"/>
        <edge id="-b" sampledSeconds="4309.34" traveltime="21.81" overlapTraveltime="22.19" density="24.87" laneDensity="24.87" occupancy="12.22" waitingTime="0.00" timeLoss="201.74" speed="13.24" speedRelative="0.95" departed="0" arrived="0" entered="194" left="194" laneChangedFrom="0" laneChangedTo="0"/>
        <edge id="-c" sampledSeconds="1380.36" traveltime="6.72" overlapTraveltime="7.10" density="25.91" laneDensity="25.91" occupancy="12.26" waitingTime="0.00" timeLoss="66.97" speed="13.22" speedRelative="0.95" departed="0" arrived="0" entered="194" left="194" laneChangedFrom="0" laneChangedTo="0"/>
        <edge id="-d" sampledSeconds="1939.46" traveltime="10.15" overlapTraveltime="10.52" density="34.83" laneDensity="34.83" occupancy="17.09" waitingTime="0.00" timeLoss="640.77" speed="9.30" speedRelative="0.67" departed="195" arrived="0" entered="0" left="195" laneChangedFrom="0" laneChangedTo="0"/>
        <edge id="a" sampledSeconds="357.22" traveltime="9.95" overlapTraveltime="10.31" density="6.42" laneDensity="6.42" occupancy="3.14" waitingTime="0.00" timeLoss="113.18" speed="9.49" speedRelative="0.68" departed="34" arrived="0" entered="0" left="38" laneChangedFrom="0" laneChangedTo="0"/>
        <edge id="b" sampledSeconds="11605.12" traveltime="274.22" overlapTraveltime="274.50" density="66.97" laneDensity="33.49" occupancy="16.71" waitingTime="10013.00" timeLoss="10697.52" speed="1.07" speedRelative="0.08" departed="0" arrived="0" entered="38" left="47" laneChangedFrom="0" laneChangedTo="0"/>
        <edge id="c" sampledSeconds="153.92" traveltime="6.73" overlapTraveltime="7.10" density="2.89" laneDensity="2.89" occupancy="1.37" waitingTime="0.00" timeLoss="7.60" speed="13.20" speedRelative="0.95" departed="0" arrived="0" entered="21" left="22" laneChangedFrom="0" laneChangedTo="0"/>
        <edge id="d" sampledSeconds="164.42" traveltime="6.99" overlapTraveltime="7.37" density="2.95" laneDensity="2.95" occupancy="1.41" waitingTime="0.00" timeLoss="7.30" speed="13.27" speedRelative="0.96" departed="0" arrived="23" entered="22" left="0" laneChangedFrom="0" laneChangedTo="0"/>
        <edge id="f" sampledSeconds="568.62" traveltime="23.64" overlapTraveltime="24.53" density="3.25" laneDensity="3.25" occupancy="1.57" waitingTime="0.00" timeLoss="60.01" speed="12.11" speedRelative="0.87" departed="0" arrived="0" entered="22" left="25" laneChangedFrom="0" laneChangedTo="0"/>
        <edge id="g" sampledSeconds="199.13" traveltime="46.75" overlapTraveltime="47.54" density="3.74" laneDensity="3.74" occupancy="1.82" waitingTime="150.00" timeLoss="170.84" speed="1.97" speedRelative="0.14" departed="0" arrived="0" entered="4" left="6" laneChangedFrom="0" laneChangedTo="0"/>
        <edge id="h" sampledSeconds="257.89" traveltime="7.97" overlapTraveltime="8.36" density="4.63" laneDensity="4.63" occupancy="2.17" waitingTime="0.00" timeLoss="40.67" speed="11.70" speedRelative="0.84" departed="0" arrived="32" entered="31" left="0" laneChangedFrom="0" laneChangedTo="0"/>
    </interval>
    <interval begin="1200.00" end="1339.00" id="ed">
        <edge id=":gneJ1_0" sampledSeconds="41.99" traveltime="0.85" overlapTraveltime="1.23" density="26.97" laneDensity="26.97" occupancy="9.29" waitingTime="0.00" timeLoss="2.10" speed="13.19" speedRelative="0.95" departed="0" arrived="0" entered="34" left="34" laneChangedFrom="0" laneChangedTo="0"/>
        <edge id=":gneJ2_1" sampledSeconds="39.76" traveltime="1.09" overlapTraveltime="1.47" density="19.86" laneDensity="19.86" occupancy="7.37" waitingTime="0.00" timeLoss="2.05" speed="13.17" speedRelative="0.95" departed="0" arrived="0" entered="27" left="27" laneChangedFrom="0" laneChangedTo="0"/>
        <edge id=":gneJ2_6" sampledSeconds="108.58" traveltime="5.87" overlapTraveltime="6.59" density="131.72" laneDensity="131.72" occupancy="56.78" waitingTime="74.00" timeLoss="86.70" speed="1.66" speedRelative="0.21" departed="0" arrived="0" entered="16" left="17" laneChangedFrom="0" laneChangedTo="0"/>
        <edge id=":gneJ2_10" sampledSeconds="33.82" traveltime="1.33" overlapTraveltime="1.99" density="29.46" laneDensity="29.46" occupancy="9.03" waitingTime="0.00" timeLoss="13.33" speed="6.67" speedRelative="0.83" departed="0" arrived="0" entered="17" left="17" laneChangedFrom="0" laneChangedTo="0"/>
        <edge id=":gneJ3_0" sampledSeconds="30.13" traveltime="0.85" overlapTraveltime="1.23" density="19.35" laneDensity="19.35" occupancy="6.69" waitingTime="0.00" timeLoss="1.52" speed="13.19" speedRelative="0.95" departed="0" arrived="0" entered="24" left="25" laneChangedFrom="0" laneChangedTo="0"/>
        <edge id=":gneJ5_1" sampledSeconds="31.99" traveltime="1.38" overlapTraveltime="1.88" density="20.55" laneDensity="20.55" occupancy="7.06" waitingTime="0.00" timeLoss="12.16" speed="8.61" speedRelative="0.62" departed="0" arrived="0" entered="17" left="17" laneChangedFrom="0" laneChangedTo="0"/>
        <edge id="-a" sampledSeconds="258.75" traveltime="7.02" overlapTraveltime="7.39" density="20.06" laneDensity="20.06" occupancy="9.62" waitingTime="0.00" timeLoss="12.35" speed="13.23" speedRelative="0.95" departed="0" arrived="37" entered="34" left="0" laneChangedFrom="0" laneChangedTo="0"/>
        <edge id="-b" sampledSeconds="680.98" traveltime="21.83" overlapTraveltime="22.21" density="16.96" laneDensity="16.96" occupancy="8.34" waitingTime="0.00" timeLoss="32.49" speed="13.23" speedRelative="0.95" departed="0" arrived="0" entered="27" left="34" laneChangedFrom="0" laneChangedTo="0"/>
        <edge id="-c" sampledSeconds="181.86" traveltime="6.74" overlapTraveltime="7.12" density="14.73" laneDensity="14.73" occupancy="6.97" waitingTime="0.00" timeLoss="9.30" speed="13.18" speedRelative="0.95" departed="0" arrived="0" entered="25" left="27" laneChangedFrom="0" laneChangedTo="0"/>
        <edge id="-d" sampledSeconds="227.00" traveltime="9.96" overlapTraveltime="10.33" density="17.60" laneDensity="17.60" occupancy="8.62" waitingTime="0.00" timeLoss="72.22" speed="9.47" speedRelative="0.68" departed="21" arrived="0" entered="0" left="24" laneChangedFrom="0" laneChangedTo="0"/>
        <edge id="b" sampledSeconds="1554.64" traveltime="479.50" overlapTraveltime="453.63" density="38.73" laneDensity="19.36" occupancy="9.63" waitingTime="1241.00" timeLoss="1475.10" speed="0.65" speedRelative="0.05" departed="0" arrived="0" entered="0" left="16" laneChangedFrom="0" laneChangedTo="0"/>
        <edge id="g" sampledSeconds="172.64" traveltime="9.47" overlapTraveltime="10.16" density="13.99" laneDensity="13.99" occupancy="6.53" waitingTime="0.00" timeLoss="57.84" speed="9.24" speedRelative="0.66" departed="0" arrived="0" entered="17" left="17" laneChangedFrom="0" laneChangedTo="0"/>
        <edge id="h" sampledSeconds="130.12" traveltime="7.34" overlapTraveltime="7.72" density="10.09" laneDensity="10.09" occupancy="4.77" waitingTime="0.00" timeLoss="11.40" speed="12.67" speedRelative="0.91" departed="0" arrived="17" entered="17" left="0" laneChangedFrom="0" laneChangedTo="0"/>
    </interval>
</meandata>
