<?xml version="1.0" encoding="UTF-8"?>

<!-- generated on Mon Jun  4 22:30:25 2018 by Eclipse SUMO Version b1eb030
<configuration xmlns:xsi="http://www.w3.org/2001/XMLSchema-instance" xsi:noNamespaceSchemaLocation="http://sumo.dlr.de/xsd/sumoConfiguration.xsd">

    <input>
        <net-file value="input_net2.net.xml"/>
        <route-files value="input_routes.rou.xml"/>
    </input>

    <output>
        <fcd-output value="fcd.xml"/>
    </output>

    <report>
        <no-step-log value="true"/>
    </report>

    <traci_server>
        <remote-port value="57888"/>
    </traci_server>

</configuration>
-->

<fcd-export xmlns:xsi="http://www.w3.org/2001/XMLSchema-instance" xsi:noNamespaceSchemaLocation="http://sumo.dlr.de/xsd/fcd_file.xsd">
    <timestep time="0.00">
        <person id="p0" x="106.23" y="81.95" angle="0.00" speed="0.00" pos="81.95" edge="SC" slope="0.00"/>
    </timestep>
    <timestep time="1.00">
        <person id="p0" x="101.23" y="81.95" angle="0.00" speed="1.14" pos="81.95" edge="SC" slope="0.00"/>
    </timestep>
    <timestep time="2.00">
        <person id="p0" x="101.01" y="83.14" angle="0.00" speed="1.19" pos="83.14" edge="SC" slope="0.00"/>
    </timestep>
    <timestep time="3.00">
        <vehicle id="v0" x="101.65" y="76.95" angle="0.00" type="DEFAULT_VEHTYPE" speed="0.00" pos="76.95" lane="SC_1" slope="0.00"/>
        <person id="p0" x="101.01" y="84.52" angle="0.00" speed="1.38" pos="84.52" edge="SC" slope="0.00"/>
    </timestep>
    <timestep time="4.00">
        <vehicle id="v0" x="101.65" y="78.78" angle="0.00" type="DEFAULT_VEHTYPE" speed="1.83" pos="78.78" lane="SC_1" slope="0.00"/>
        <person id="p0" x="101.01" y="85.77" angle="0.00" speed="1.25" pos="85.77" edge="SC" slope="0.00"/>
    </timestep>
    <timestep time="5.00">
        <vehicle id="v0" x="101.65" y="82.25" angle="0.00" type="DEFAULT_VEHTYPE" speed="3.47" pos="82.25" lane="SC_1" slope="0.00"/>
        <person id="p0" x="101.01" y="87.15" angle="0.00" speed="1.38" pos="87.15" edge="SC" slope="0.00"/>
    </timestep>
    <timestep time="6.00">
        <vehicle id="v0" x="104.95" y="85.04" angle="0.00" type="DEFAULT_VEHTYPE" speed="2.79" pos="85.04" lane="SC_0" slope="0.00"/>
        <person id="p0" x="101.01" y="88.47" angle="0.00" speed="1.32" pos="88.47" edge="SC" slope="0.00"/>
    </timestep>
    <timestep time="7.00">
        <vehicle id="v0" x="104.95" y="90.43" angle="0.00" type="DEFAULT_VEHTYPE" speed="5.38" pos="90.43" lane="SC_0" slope="0.00"/>
        <person id="p0" x="101.01" y="89.65" angle="0.00" speed="1.18" pos="89.65" edge="SC" slope="0.00"/>
    </timestep>
    <timestep time="8.00">
        <vehicle id="v0" x="101.65" y="98.11" angle="0.00" type="DEFAULT_VEHTYPE" speed="7.68" pos="6.16" lane=":C_11_1" slope="0.00"/>
        <person id="p0" x="101.01" y="90.85" angle="0.00" speed="1.20" pos="90.85" edge="SC" slope="0.00"/>
    </timestep>
    <timestep time="9.00">
        <vehicle id="v0" x="101.65" y="107.65" angle="0.00" type="DEFAULT_VEHTYPE" speed="9.54" pos="15.70" lane=":C_11_1" slope="0.00"/>
        <person id="p0" x="104.31" y="92.11" angle="0.00" speed="1.26" pos="0.16" edge=":C_11" slope="0.00"/>
    </timestep>
    <timestep time="10.00">
        <vehicle id="v0" x="101.65" y="119.72" angle="0.00" type="DEFAULT_VEHTYPE" speed="12.07" pos="11.67" lane="CN_1" slope="0.00"/>
        <person id="p0" x="104.31" y="93.43" angle="0.00" speed="1.32" pos="1.48" edge=":C_11" slope="0.00"/>
    </timestep>
    <timestep time="11.00">
        <vehicle id="v0" x="101.65" y="133.19" angle="0.00" type="DEFAULT_VEHTYPE" speed="13.47" pos="25.14" lane="CN_1" slope="0.00"/>
        <person id="p0" x="104.31" y="94.57" angle="0.00" speed="1.15" pos="2.62" edge=":C_11" slope="0.00"/>
    </timestep>
    <timestep time="12.00">
        <vehicle id="v0" x="101.65" y="147.02" angle="0.00" type="DEFAULT_VEHTYPE" speed="13.83" pos="38.97" lane="CN_1" slope="0.00"/>
        <person id="p0" x="104.31" y="95.77" angle="0.00" speed="1.20" pos="3.82" edge=":C_11" slope="0.00"/>
    </timestep>
    <timestep time="13.00">
        <vehicle id="v0" x="101.65" y="160.51" angle="0.00" type="DEFAULT_VEHTYPE" speed="13.49" pos="52.46" lane="CN_1" slope="0.00"/>
        <person id="p0" x="104.31" y="97.02" angle="0.00" speed="1.25" pos="5.07" edge=":C_11" slope="0.00"/>
    </timestep>
    <timestep time="14.00">
        <vehicle id="v0" x="101.65" y="173.18" angle="0.00" type="DEFAULT_VEHTYPE" speed="12.67" pos="65.13" lane="CN_1" slope="0.00"/>
        <person id="p0" x="104.31" y="98.23" angle="0.00" speed="1.21" pos="6.28" edge=":C_11" slope="0.00"/>
    </timestep>
    <timestep time="15.00">
        <vehicle id="v0" x="101.65" y="185.92" angle="0.00" type="DEFAULT_VEHTYPE" speed="12.74" pos="77.87" lane="CN_1" slope="0.00"/>
        <person id="p0" x="104.31" y="99.39" angle="0.00" speed="1.16" pos="7.44" edge=":C_11" slope="0.00"/>
    </timestep>
    <timestep time="16.00">
        <vehicle id="v0" x="101.65" y="199.10" angle="0.00" type="DEFAULT_VEHTYPE" speed="13.18" pos="91.05" lane="CN_1" slope="0.00"/>
        <person id="p0" x="104.31" y="100.67" angle="0.00" speed="1.28" pos="8.72" edge=":C_11" slope="0.00"/>
    </timestep>
    <timestep time="17.00">
        <person id="p0" x="104.31" y="101.99" angle="0.00" speed="1.32" pos="10.04" edge=":C_11" slope="0.00"/>
    </timestep>
    <timestep time="18.00">
        <person id="p0" x="104.31" y="103.30" angle="0.00" speed="1.31" pos="11.35" edge=":C_11" slope="0.00"/>
    </timestep>
    <timestep time="19.00">
        <person id="p0" x="104.31" y="104.48" angle="0.00" speed="1.18" pos="12.53" edge=":C_11" slope="0.00"/>
    </timestep>
    <timestep time="20.00">
        <person id="p0" x="104.31" y="105.82" angle="0.00" speed="1.34" pos="13.87" edge=":C_11" slope="0.00"/>
    </timestep>
    <timestep time="21.00">
        <person id="p0" x="104.31" y="106.94" angle="0.00" speed="1.12" pos="14.99" edge=":C_11" slope="0.00"/>
    </timestep>
</fcd-export>
