<?xml version="1.0" encoding="UTF-8"?>

<!-- generated on 2024-07-05 12:04:48 by Eclipse SUMO sumo Version v1_20_0+1027-165979bd8ee
<sumoConfiguration xmlns:xsi="http://www.w3.org/2001/XMLSchema-instance" xsi:noNamespaceSchemaLocation="http://sumo.dlr.de/xsd/sumoConfiguration.xsd">

    <input>
        <net-file value="input_net.net.xml"/>
        <route-files value="input_routes.rou.xml"/>
        <additional-files value="input_additional.add.xml"/>
    </input>

    <output>
        <fcd-output value="fcd.xml"/>
    </output>

    <processing>
        <default.speeddev value="0"/>
    </processing>

    <report>
        <no-step-log value="true"/>
    </report>

    <traci_server>
        <remote-port value="54391"/>
    </traci_server>

</sumoConfiguration>
-->

<fcd-export xmlns:xsi="http://www.w3.org/2001/XMLSchema-instance" xsi:noNamespaceSchemaLocation="http://sumo.dlr.de/xsd/fcd_file.xsd">
    <timestep time="0.00">
        <vehicle id="ToC_veh" x="2881.61" y="2439.45" angle="342.00" type="automated" speed="0.00" pos="974.39" lane="1/1to2/1_0" slope="0.00"/>
        <vehicle id="follower" x="2883.96" y="2432.22" angle="342.00" type="automated" speed="0.00" pos="966.79" lane="1/1to2/1_0" slope="0.00"/>
        <vehicle id="leader" x="2879.26" y="2446.67" angle="342.00" type="automated" speed="0.00" pos="981.99" lane="1/1to2/1_0" slope="0.00"/>
    </timestep>
    <timestep time="1.00">
        <vehicle id="ToC_veh" x="2881.58" y="2439.54" angle="342.00" type="automated" speed="0.10" pos="974.49" lane="1/1to2/1_0" slope="0.00"/>
        <vehicle id="follower" x="2883.93" y="2432.31" angle="342.00" type="automated" speed="0.10" pos="966.89" lane="1/1to2/1_0" slope="0.00"/>
        <vehicle id="leader" x="2877.10" y="2449.47" angle="330.28" type="automated" speed="2.60" pos="0.43" lane="2/1to3/1_0" slope="0.00"/>
    </timestep>
    <timestep time="2.00">
        <vehicle id="ToC_veh" x="2880.78" y="2442.01" angle="342.00" type="automated" speed="2.60" pos="977.09" lane="1/1to2/1_0" slope="0.00"/>
        <vehicle id="follower" x="2883.90" y="2432.41" angle="342.00" type="automated" speed="0.10" pos="966.99" lane="1/1to2/1_0" slope="0.00"/>
        <vehicle id="leader" x="2872.90" y="2452.53" angle="306.00" type="automated" speed="5.20" pos="5.63" lane="2/1to3/1_0" slope="0.00"/>
    </timestep>
    <timestep time="3.00">
        <vehicle id="ToC_veh" x="2879.13" y="2447.05" angle="341.93" type="automated" speed="5.20" pos="0.20" lane=":2/1_0_0" slope="0.00"/>
        <vehicle id="follower" x="2883.09" y="2434.88" angle="342.00" type="automated" speed="2.60" pos="969.59" lane="1/1to2/1_0" slope="0.00"/>
        <vehicle id="leader" x="2866.59" y="2457.11" angle="306.00" type="automated" speed="7.80" pos="13.43" lane="2/1to3/1_0" slope="0.00"/>
    </timestep>
    <timestep time="4.00">
        <vehicle id="ToC_veh" x="2872.65" y="2452.70" angle="306.00" type="automated" speed="7.80" pos="5.93" lane="2/1to3/1_0" slope="0.00"/>
        <vehicle id="follower" x="2881.49" y="2439.83" angle="342.00" type="automated" speed="5.20" pos="974.79" lane="1/1to2/1_0" slope="0.00"/>
        <vehicle id="leader" x="2858.17" y="2463.23" angle="306.00" type="automated" speed="10.40" pos="23.83" lane="2/1to3/1_0" slope="0.00"/>
    </timestep>
    <timestep time="5.00">
        <vehicle id="ToC_veh" x="2864.24" y="2458.82" angle="306.00" type="automated" speed="10.40" pos="16.33" lane="2/1to3/1_0" slope="0.00"/>
        <vehicle id="follower" x="2878.98" y="2447.48" angle="341.82" type="automated" speed="7.80" pos="0.50" lane=":2/1_0_0" slope="0.00"/>
        <vehicle id="leader" x="2847.65" y="2470.87" angle="306.00" type="automated" speed="13.00" pos="36.83" lane="2/1to3/1_0" slope="0.00"/>
    </timestep>
    <timestep time="6.00">
        <vehicle id="ToC_veh" x="2853.72" y="2466.46" angle="306.00" type="automated" speed="13.00" pos="29.33" lane="2/1to3/1_0" slope="0.00"/>
        <vehicle id="follower" x="2870.31" y="2454.41" angle="306.00" type="automated" speed="10.40" pos="8.83" lane="2/1to3/1_0" slope="0.00"/>
        <vehicle id="leader" x="2835.03" y="2480.04" angle="306.00" type="automated" speed="15.60" pos="52.43" lane="2/1to3/1_0" slope="0.00"/>
    </timestep>
    <timestep time="7.00">
        <vehicle id="ToC_veh" x="2841.10" y="2475.63" angle="306.00" type="automated" speed="15.60" pos="44.93" lane="2/1to3/1_0" slope="0.00"/>
        <vehicle id="follower" x="2859.79" y="2462.05" angle="306.00" type="automated" speed="13.00" pos="21.83" lane="2/1to3/1_0" slope="0.00"/>
        <vehicle id="leader" x="2820.31" y="2490.73" angle="306.00" type="automated" speed="18.20" pos="70.63" lane="2/1to3/1_0" slope="0.00"/>
    </timestep>
    <timestep time="8.00">
        <vehicle id="ToC_veh" x="2826.38" y="2486.33" angle="306.00" type="automated" speed="18.20" pos="63.13" lane="2/1to3/1_0" slope="0.00"/>
        <vehicle id="follower" x="2847.17" y="2471.22" angle="306.00" type="automated" speed="15.60" pos="37.43" lane="2/1to3/1_0" slope="0.00"/>
        <vehicle id="leader" x="2804.45" y="2502.26" angle="306.00" type="automated" speed="19.60" pos="90.23" lane="2/1to3/1_0" slope="0.00"/>
    </timestep>
    <timestep time="9.00">
        <vehicle id="ToC_veh" x="2810.52" y="2497.85" angle="306.00" type="automated" speed="19.60" pos="82.73" lane="2/1to3/1_0" slope="0.00"/>
        <vehicle id="follower" x="2832.45" y="2481.92" angle="306.00" type="automated" speed="18.20" pos="55.63" lane="2/1to3/1_0" slope="0.00"/>
        <vehicle id="leader" x="2788.60" y="2513.78" angle="306.00" type="automated" speed="19.60" pos="109.83" lane="2/1to3/1_0" slope="0.00"/>
    </timestep>
    <timestep time="10.00">
        <vehicle id="ToC_veh" x="2794.66" y="2509.37" angle="306.00" type="automated" speed="19.60" pos="102.33" lane="2/1to3/1_0" slope="0.00"/>
        <vehicle id="follower" x="2816.59" y="2493.44" angle="306.00" type="automated" speed="19.60" pos="75.23" lane="2/1to3/1_0" slope="0.00"/>
        <vehicle id="leader" x="2772.74" y="2525.30" angle="306.00" type="automated" speed="19.60" pos="129.43" lane="2/1to3/1_0" slope="0.00"/>
    </timestep>
    <timestep time="11.00">
        <vehicle id="ToC_veh" x="2778.81" y="2520.89" angle="306.00" type="automated" speed="19.60" pos="121.93" lane="2/1to3/1_0" slope="0.00"/>
        <vehicle id="follower" x="2800.73" y="2504.96" angle="306.00" type="automated" speed="19.60" pos="94.83" lane="2/1to3/1_0" slope="0.00"/>
        <vehicle id="leader" x="2756.88" y="2536.82" angle="306.00" type="automated" speed="19.60" pos="149.03" lane="2/1to3/1_0" slope="0.00"/>
    </timestep>
    <timestep time="12.00">
        <vehicle id="ToC_veh" x="2762.95" y="2532.41" angle="306.00" type="automated@ToC_veh" speed="19.60" pos="141.53" lane="2/1to3/1_0" slope="0.00"/>
        <vehicle id="follower" x="2784.88" y="2516.48" angle="306.00" type="automated" speed="19.60" pos="114.43" lane="2/1to3/1_0" slope="0.00"/>
        <vehicle id="leader" x="2741.03" y="2548.34" angle="306.00" type="automated" speed="19.60" pos="168.63" lane="2/1to3/1_0" slope="0.00"/>
    </timestep>
    <timestep time="13.00">
        <vehicle id="ToC_veh" x="2747.90" y="2543.34" angle="306.00" type="automated@ToC_veh" speed="18.60" pos="160.13" lane="2/1to3/1_0" slope="0.00"/>
        <vehicle id="follower" x="2769.02" y="2528.00" angle="306.00" type="automated" speed="19.60" pos="134.03" lane="2/1to3/1_0" slope="0.00"/>
        <vehicle id="leader" x="2725.17" y="2559.86" angle="306.00" type="automated" speed="19.60" pos="188.23" lane="2/1to3/1_0" slope="0.00"/>
    </timestep>
    <timestep time="14.00">
        <vehicle id="ToC_veh" x="2733.67" y="2553.69" angle="306.00" type="automated@ToC_veh" speed="17.60" pos="177.73" lane="2/1to3/1_0" slope="0.00"/>
        <vehicle id="follower" x="2753.97" y="2538.93" angle="306.00" type="automated" speed="18.60" pos="152.63" lane="2/1to3/1_0" slope="0.00"/>
        <vehicle id="leader" x="2709.31" y="2571.38" angle="306.00" type="automated" speed="19.60" pos="207.83" lane="2/1to3/1_0" slope="0.00"/>
    </timestep>
    <timestep time="15.00">
        <vehicle id="ToC_veh" x="2720.24" y="2563.44" angle="306.00" type="automated@ToC_veh" speed="16.60" pos="194.33" lane="2/1to3/1_0" slope="0.00"/>
        <vehicle id="follower" x="2739.73" y="2549.28" angle="306.00" type="automated" speed="17.60" pos="170.23" lane="2/1to3/1_0" slope="0.00"/>
        <vehicle id="leader" x="2693.46" y="2582.90" angle="306.00" type="automated" speed="19.60" pos="227.43" lane="2/1to3/1_0" slope="0.00"/>
    </timestep>
    <timestep time="16.00">
        <vehicle id="ToC_veh" x="2707.62" y="2572.61" angle="306.00" type="automated@ToC_veh" speed="15.60" pos="209.93" lane="2/1to3/1_0" slope="0.00"/>
        <vehicle id="follower" x="2726.30" y="2559.03" angle="306.00" type="automated" speed="16.60" pos="186.83" lane="2/1to3/1_0" slope="0.00"/>
        <vehicle id="leader" x="2677.60" y="2594.42" angle="306.00" type="automated" speed="19.60" pos="247.03" lane="2/1to3/1_0" slope="0.00"/>
    </timestep>
    <timestep time="17.00">
        <vehicle id="ToC_veh" x="2695.80" y="2581.19" angle="306.00" type="automated@ToC_veh" speed="14.60" pos="224.53" lane="2/1to3/1_0" slope="0.00"/>
        <vehicle id="follower" x="2713.68" y="2568.20" angle="306.00" type="automated" speed="15.60" pos="202.43" lane="2/1to3/1_0" slope="0.00"/>
        <vehicle id="leader" x="2661.74" y="2605.94" angle="306.00" type="automated" speed="19.60" pos="266.63" lane="2/1to3/1_0" slope="0.00"/>
    </timestep>
    <timestep time="18.00">
        <vehicle id="ToC_veh" x="2684.80" y="2589.19" angle="306.00" type="automated@ToC_veh" speed="13.60" pos="238.13" lane="2/1to3/1_0" slope="0.00"/>
        <vehicle id="follower" x="2701.87" y="2576.78" angle="306.00" type="automated" speed="14.60" pos="217.03" lane="2/1to3/1_0" slope="0.00"/>
        <vehicle id="leader" x="2645.89" y="2617.46" angle="306.00" type="automated" speed="19.60" pos="286.23" lane="2/1to3/1_0" slope="0.00"/>
    </timestep>
    <timestep time="19.00">
        <vehicle id="ToC_veh" x="2674.61" y="2596.59" angle="306.00" type="automated@ToC_veh" speed="12.60" pos="250.73" lane="2/1to3/1_0" slope="0.00"/>
        <vehicle id="follower" x="2690.87" y="2584.78" angle="306.00" type="automated" speed="13.60" pos="230.63" lane="2/1to3/1_0" slope="0.00"/>
        <vehicle id="leader" x="2630.03" y="2628.98" angle="306.00" type="automated" speed="19.60" pos="305.83" lane="2/1to3/1_0" slope="0.00"/>
    </timestep>
    <timestep time="20.00">
        <vehicle id="ToC_veh" x="2664.84" y="2603.69" angle="306.00" type="automated@ToC_veh" speed="12.07" pos="262.80" lane="2/1to3/1_0" slope="0.00"/>
        <vehicle id="follower" x="2680.68" y="2592.18" angle="306.00" type="automated" speed="12.60" pos="243.23" lane="2/1to3/1_0" slope="0.00"/>
        <vehicle id="leader" x="2614.17" y="2640.50" angle="306.00" type="automated" speed="19.60" pos="325.43" lane="2/1to3/1_0" slope="0.00"/>
    </timestep>
    <timestep time="21.00">
        <vehicle id="ToC_veh" x="2655.08" y="2610.78" angle="306.00" type="automated@ToC_veh" speed="12.07" pos="274.87" lane="2/1to3/1_0" slope="0.00"/>
        <vehicle id="follower" x="2670.91" y="2599.28" angle="306.00" type="automated" speed="12.07" pos="255.30" lane="2/1to3/1_0" slope="0.00"/>
        <vehicle id="leader" x="2598.32" y="2652.02" angle="306.00" type="automated" speed="19.60" pos="345.03" lane="2/1to3/1_0" slope="0.00"/>
    </timestep>
    <timestep time="22.00">
        <vehicle id="ToC_veh" x="2645.31" y="2617.88" angle="306.00" type="automated@ToC_veh" speed="12.07" pos="286.94" lane="2/1to3/1_0" slope="0.00"/>
        <vehicle id="follower" x="2661.14" y="2606.37" angle="306.00" type="automated" speed="12.07" pos="267.37" lane="2/1to3/1_0" slope="0.00"/>
        <vehicle id="leader" x="2582.46" y="2663.54" angle="306.00" type="automated" speed="19.60" pos="364.63" lane="2/1to3/1_0" slope="0.00"/>
    </timestep>
    <timestep time="23.00">
        <vehicle id="ToC_veh" x="2637.97" y="2623.21" angle="306.00" type="automated@ToC_veh" speed="9.07" pos="296.01" lane="2/1to3/1_0" slope="0.00"/>
        <vehicle id="follower" x="2651.38" y="2613.47" angle="306.00" type="automated" speed="12.07" pos="279.44" lane="2/1to3/1_0" slope="0.00"/>
        <vehicle id="leader" x="2566.60" y="2675.06" angle="306.00" type="automated" speed="19.60" pos="384.23" lane="2/1to3/1_0" slope="0.00"/>
    </timestep>
    <timestep time="24.00">
        <vehicle id="ToC_veh" x="2633.06" y="2626.78" angle="306.00" type="automated@ToC_veh" speed="6.07" pos="302.09" lane="2/1to3/1_0" slope="0.00"/>
        <vehicle id="follower" x="2644.04" y="2618.80" angle="306.00" type="automated" speed="9.07" pos="288.51" lane="2/1to3/1_0" slope="0.00"/>
        <vehicle id="leader" x="2550.75" y="2686.58" angle="306.00" type="automated" speed="19.60" pos="403.83" lane="2/1to3/1_0" slope="0.00"/>
    </timestep>
    <timestep time="25.00">
        <vehicle id="ToC_veh" x="2630.57" y="2628.58" angle="306.00" type="automated@ToC_veh" speed="3.07" pos="305.16" lane="2/1to3/1_0" slope="0.00"/>
        <vehicle id="follower" x="2639.13" y="2622.37" angle="306.00" type="automated" speed="6.07" pos="294.59" lane="2/1to3/1_0" slope="0.00"/>
        <vehicle id="leader" x="2534.89" y="2698.10" angle="306.00" type="automated" speed="19.60" pos="423.43" lane="2/1to3/1_0" slope="0.00"/>
    </timestep>
    <timestep time="26.00">
        <vehicle id="ToC_veh" x="2630.52" y="2628.63" angle="306.00" type="automated@ToC_veh" speed="0.07" pos="305.23" lane="2/1to3/1_0" slope="0.00"/>
        <vehicle id="follower" x="2636.64" y="2624.18" angle="306.00" type="automated" speed="3.07" pos="297.66" lane="2/1to3/1_0" slope="0.00"/>
        <vehicle id="leader" x="2519.03" y="2709.62" angle="306.00" type="automated" speed="19.60" pos="443.03" lane="2/1to3/1_0" slope="0.00"/>
    </timestep>
    <timestep time="27.00">
        <vehicle id="ToC_veh" x="2630.52" y="2628.63" angle="306.00" type="automated@ToC_veh" speed="0.00" pos="305.23" lane="2/1to3/1_0" slope="0.00"/>
        <vehicle id="follower" x="2636.59" y="2624.22" angle="306.00" type="automated" speed="0.07" pos="297.73" lane="2/1to3/1_0" slope="0.00"/>
        <vehicle id="leader" x="2503.18" y="2721.14" angle="306.00" type="automated" speed="19.60" pos="462.63" lane="2/1to3/1_0" slope="0.00"/>
    </timestep>
    <timestep time="28.00">
        <vehicle id="ToC_veh" x="2630.52" y="2628.63" angle="306.00" type="automated@ToC_veh" speed="0.00" pos="305.23" lane="2/1to3/1_0" slope="0.00"/>
        <vehicle id="follower" x="2636.59" y="2624.22" angle="306.00" type="automated" speed="0.00" pos="297.73" lane="2/1to3/1_0" slope="0.00"/>
        <vehicle id="leader" x="2487.32" y="2732.66" angle="306.00" type="automated" speed="19.60" pos="482.23" lane="2/1to3/1_0" slope="0.00"/>
    </timestep>
    <timestep time="29.00">
        <vehicle id="ToC_veh" x="2630.52" y="2628.63" angle="306.00" type="automated@ToC_veh" speed="0.00" pos="305.23" lane="2/1to3/1_0" slope="0.00"/>
        <vehicle id="follower" x="2636.59" y="2624.22" angle="306.00" type="automated" speed="0.00" pos="297.73" lane="2/1to3/1_0" slope="0.00"/>
        <vehicle id="leader" x="2471.46" y="2744.18" angle="306.00" type="automated" speed="19.60" pos="501.83" lane="2/1to3/1_0" slope="0.00"/>
    </timestep>
    <timestep time="30.00">
        <vehicle id="ToC_veh" x="2630.52" y="2628.63" angle="306.00" type="automated@ToC_veh" speed="0.00" pos="305.23" lane="2/1to3/1_0" slope="0.00"/>
        <vehicle id="follower" x="2636.59" y="2624.22" angle="306.00" type="automated" speed="0.00" pos="297.73" lane="2/1to3/1_0" slope="0.00"/>
        <vehicle id="leader" x="2455.61" y="2755.70" angle="306.00" type="automated" speed="19.60" pos="521.43" lane="2/1to3/1_0" slope="0.00"/>
    </timestep>
    <timestep time="31.00">
        <vehicle id="ToC_veh" x="2630.52" y="2628.63" angle="306.00" type="automated@ToC_veh" speed="0.00" pos="305.23" lane="2/1to3/1_0" slope="0.00"/>
        <vehicle id="follower" x="2636.59" y="2624.22" angle="306.00" type="automated" speed="0.00" pos="297.73" lane="2/1to3/1_0" slope="0.00"/>
        <vehicle id="leader" x="2439.75" y="2767.23" angle="306.00" type="automated" speed="19.60" pos="541.03" lane="2/1to3/1_0" slope="0.00"/>
    </timestep>
    <timestep time="32.00">
        <vehicle id="ToC_veh" x="2630.52" y="2628.63" angle="306.00" type="automated@ToC_veh" speed="0.00" pos="305.23" lane="2/1to3/1_0" slope="0.00"/>
        <vehicle id="follower" x="2636.59" y="2624.22" angle="306.00" type="automated" speed="0.00" pos="297.73" lane="2/1to3/1_0" slope="0.00"/>
        <vehicle id="leader" x="2423.90" y="2778.75" angle="306.00" type="automated" speed="19.60" pos="560.63" lane="2/1to3/1_0" slope="0.00"/>
    </timestep>
    <timestep time="33.00">
        <vehicle id="ToC_veh" x="2630.52" y="2628.63" angle="306.00" type="automated@ToC_veh" speed="0.00" pos="305.23" lane="2/1to3/1_0" slope="0.00"/>
        <vehicle id="follower" x="2636.59" y="2624.22" angle="306.00" type="automated" speed="0.00" pos="297.73" lane="2/1to3/1_0" slope="0.00"/>
        <vehicle id="leader" x="2408.04" y="2790.27" angle="306.00" type="automated" speed="19.60" pos="580.23" lane="2/1to3/1_0" slope="0.00"/>
    </timestep>
    <timestep time="34.00">
        <vehicle id="ToC_veh" x="2630.52" y="2628.63" angle="306.00" type="automated@ToC_veh" speed="0.00" pos="305.23" lane="2/1to3/1_0" slope="0.00"/>
        <vehicle id="follower" x="2636.59" y="2624.22" angle="306.00" type="automated" speed="0.00" pos="297.73" lane="2/1to3/1_0" slope="0.00"/>
        <vehicle id="leader" x="2392.18" y="2801.79" angle="306.00" type="automated" speed="19.60" pos="599.83" lane="2/1to3/1_0" slope="0.00"/>
    </timestep>
    <timestep time="35.00">
        <vehicle id="ToC_veh" x="2630.52" y="2628.63" angle="306.00" type="automated@ToC_veh" speed="0.00" pos="305.23" lane="2/1to3/1_0" slope="0.00"/>
        <vehicle id="follower" x="2636.59" y="2624.22" angle="306.00" type="automated" speed="0.00" pos="297.73" lane="2/1to3/1_0" slope="0.00"/>
        <vehicle id="leader" x="2376.33" y="2813.31" angle="306.00" type="automated" speed="19.60" pos="619.43" lane="2/1to3/1_0" slope="0.00"/>
    </timestep>
    <timestep time="36.00">
        <vehicle id="ToC_veh" x="2630.52" y="2628.63" angle="306.00" type="automated@ToC_veh" speed="0.00" pos="305.23" lane="2/1to3/1_0" slope="0.00"/>
        <vehicle id="follower" x="2636.59" y="2624.22" angle="306.00" type="automated" speed="0.00" pos="297.73" lane="2/1to3/1_0" slope="0.00"/>
        <vehicle id="leader" x="2360.47" y="2824.83" angle="306.00" type="automated" speed="19.60" pos="639.03" lane="2/1to3/1_0" slope="0.00"/>
    </timestep>
    <timestep time="37.00">
        <vehicle id="ToC_veh" x="2630.52" y="2628.63" angle="306.00" type="automated@ToC_veh" speed="0.00" pos="305.23" lane="2/1to3/1_0" slope="0.00"/>
        <vehicle id="follower" x="2636.59" y="2624.22" angle="306.00" type="automated" speed="0.00" pos="297.73" lane="2/1to3/1_0" slope="0.00"/>
        <vehicle id="leader" x="2344.61" y="2836.35" angle="306.00" type="automated" speed="19.60" pos="658.63" lane="2/1to3/1_0" slope="0.00"/>
    </timestep>
    <timestep time="38.00">
        <vehicle id="ToC_veh" x="2630.52" y="2628.63" angle="306.00" type="automated@ToC_veh" speed="0.00" pos="305.23" lane="2/1to3/1_0" slope="0.00"/>
        <vehicle id="follower" x="2636.59" y="2624.22" angle="306.00" type="automated" speed="0.00" pos="297.73" lane="2/1to3/1_0" slope="0.00"/>
        <vehicle id="leader" x="2328.76" y="2847.87" angle="306.00" type="automated" speed="19.60" pos="678.23" lane="2/1to3/1_0" slope="0.00"/>
    </timestep>
    <timestep time="39.00">
        <vehicle id="ToC_veh" x="2630.52" y="2628.63" angle="306.00" type="automated@ToC_veh" speed="0.00" pos="305.23" lane="2/1to3/1_0" slope="0.00"/>
        <vehicle id="follower" x="2636.59" y="2624.22" angle="306.00" type="automated" speed="0.00" pos="297.73" lane="2/1to3/1_0" slope="0.00"/>
        <vehicle id="leader" x="2312.90" y="2859.39" angle="306.00" type="automated" speed="19.60" pos="697.83" lane="2/1to3/1_0" slope="0.00"/>
    </timestep>
    <timestep time="40.00">
        <vehicle id="ToC_veh" x="2630.52" y="2628.63" angle="306.00" type="automated@ToC_veh" speed="0.00" pos="305.23" lane="2/1to3/1_0" slope="0.00"/>
        <vehicle id="follower" x="2636.59" y="2624.22" angle="306.00" type="automated" speed="0.00" pos="297.73" lane="2/1to3/1_0" slope="0.00"/>
        <vehicle id="leader" x="2297.04" y="2870.91" angle="306.00" type="automated" speed="19.60" pos="717.43" lane="2/1to3/1_0" slope="0.00"/>
    </timestep>
    <timestep time="41.00">
        <vehicle id="ToC_veh" x="2630.52" y="2628.63" angle="306.00" type="automated@ToC_veh" speed="0.00" pos="305.23" lane="2/1to3/1_0" slope="0.00"/>
        <vehicle id="follower" x="2636.59" y="2624.22" angle="306.00" type="automated" speed="0.00" pos="297.73" lane="2/1to3/1_0" slope="0.00"/>
        <vehicle id="leader" x="2281.19" y="2882.43" angle="306.00" type="automated" speed="19.60" pos="737.03" lane="2/1to3/1_0" slope="0.00"/>
    </timestep>
    <timestep time="42.00">
        <vehicle id="ToC_veh" x="2630.52" y="2628.63" angle="306.00" type="automated@ToC_veh" speed="0.00" pos="305.23" lane="2/1to3/1_0" slope="0.00"/>
        <vehicle id="follower" x="2636.59" y="2624.22" angle="306.00" type="automated" speed="0.00" pos="297.73" lane="2/1to3/1_0" slope="0.00"/>
        <vehicle id="leader" x="2265.33" y="2893.95" angle="306.00" type="automated" speed="19.60" pos="756.63" lane="2/1to3/1_0" slope="0.00"/>
    </timestep>
    <timestep time="43.00">
        <vehicle id="ToC_veh" x="2630.52" y="2628.63" angle="306.00" type="automated@ToC_veh" speed="0.00" pos="305.23" lane="2/1to3/1_0" slope="0.00"/>
        <vehicle id="follower" x="2636.59" y="2624.22" angle="306.00" type="automated" speed="0.00" pos="297.73" lane="2/1to3/1_0" slope="0.00"/>
        <vehicle id="leader" x="2249.47" y="2905.47" angle="306.00" type="automated" speed="19.60" pos="776.23" lane="2/1to3/1_0" slope="0.00"/>
    </timestep>
    <timestep time="44.00">
        <vehicle id="ToC_veh" x="2630.52" y="2628.63" angle="306.00" type="automated@ToC_veh" speed="0.00" pos="305.23" lane="2/1to3/1_0" slope="0.00"/>
        <vehicle id="follower" x="2636.59" y="2624.22" angle="306.00" type="automated" speed="0.00" pos="297.73" lane="2/1to3/1_0" slope="0.00"/>
        <vehicle id="leader" x="2233.62" y="2916.99" angle="306.00" type="automated" speed="19.60" pos="795.83" lane="2/1to3/1_0" slope="0.00"/>
    </timestep>
    <timestep time="45.00">
        <vehicle id="ToC_veh" x="2630.52" y="2628.63" angle="306.00" type="automated@ToC_veh" speed="0.00" pos="305.23" lane="2/1to3/1_0" slope="0.00"/>
        <vehicle id="follower" x="2636.59" y="2624.22" angle="306.00" type="automated" speed="0.00" pos="297.73" lane="2/1to3/1_0" slope="0.00"/>
        <vehicle id="leader" x="2217.76" y="2928.51" angle="306.00" type="automated" speed="19.60" pos="815.43" lane="2/1to3/1_0" slope="0.00"/>
    </timestep>
    <timestep time="46.00">
        <vehicle id="ToC_veh" x="2630.52" y="2628.63" angle="306.00" type="automated@ToC_veh" speed="0.00" pos="305.23" lane="2/1to3/1_0" slope="0.00"/>
        <vehicle id="follower" x="2636.59" y="2624.22" angle="306.00" type="automated" speed="0.00" pos="297.73" lane="2/1to3/1_0" slope="0.00"/>
        <vehicle id="leader" x="2201.90" y="2940.03" angle="306.00" type="automated" speed="19.60" pos="835.03" lane="2/1to3/1_0" slope="0.00"/>
    </timestep>
    <timestep time="47.00">
        <vehicle id="ToC_veh" x="2630.52" y="2628.63" angle="306.00" type="automated@ToC_veh" speed="0.00" pos="305.23" lane="2/1to3/1_0" slope="0.00"/>
        <vehicle id="follower" x="2636.59" y="2624.22" angle="306.00" type="automated" speed="0.00" pos="297.73" lane="2/1to3/1_0" slope="0.00"/>
        <vehicle id="leader" x="2186.05" y="2951.55" angle="306.00" type="automated" speed="19.60" pos="854.63" lane="2/1to3/1_0" slope="0.00"/>
    </timestep>
    <timestep time="48.00">
        <vehicle id="ToC_veh" x="2630.52" y="2628.63" angle="306.00" type="automated@ToC_veh" speed="0.00" pos="305.23" lane="2/1to3/1_0" slope="0.00"/>
        <vehicle id="follower" x="2636.59" y="2624.22" angle="306.00" type="automated" speed="0.00" pos="297.73" lane="2/1to3/1_0" slope="0.00"/>
        <vehicle id="leader" x="2170.19" y="2963.07" angle="306.00" type="automated" speed="19.60" pos="874.23" lane="2/1to3/1_0" slope="0.00"/>
    </timestep>
    <timestep time="49.00">
        <vehicle id="ToC_veh" x="2630.52" y="2628.63" angle="306.00" type="automated@ToC_veh" speed="0.00" pos="305.23" lane="2/1to3/1_0" slope="0.00"/>
        <vehicle id="follower" x="2636.59" y="2624.22" angle="306.00" type="automated" speed="0.00" pos="297.73" lane="2/1to3/1_0" slope="0.00"/>
        <vehicle id="leader" x="2154.33" y="2974.59" angle="306.00" type="automated" speed="19.60" pos="893.83" lane="2/1to3/1_0" slope="0.00"/>
    </timestep>
    <timestep time="50.00">
        <vehicle id="ToC_veh" x="2630.52" y="2628.63" angle="306.00" type="automated@ToC_veh" speed="0.00" pos="305.23" lane="2/1to3/1_0" slope="0.00"/>
        <vehicle id="follower" x="2636.59" y="2624.22" angle="306.00" type="automated" speed="0.00" pos="297.73" lane="2/1to3/1_0" slope="0.00"/>
        <vehicle id="leader" x="2138.48" y="2986.11" angle="306.00" type="automated" speed="19.60" pos="913.43" lane="2/1to3/1_0" slope="0.00"/>
    </timestep>
    <timestep time="51.00">
        <vehicle id="ToC_veh" x="2630.52" y="2628.63" angle="306.00" type="automated@ToC_veh" speed="0.00" pos="305.23" lane="2/1to3/1_0" slope="0.00"/>
        <vehicle id="follower" x="2636.59" y="2624.22" angle="306.00" type="automated" speed="0.00" pos="297.73" lane="2/1to3/1_0" slope="0.00"/>
        <vehicle id="leader" x="2122.62" y="2997.63" angle="306.00" type="automated" speed="19.60" pos="933.03" lane="2/1to3/1_0" slope="0.00"/>
    </timestep>
    <timestep time="52.00">
        <vehicle id="ToC_veh" x="2630.52" y="2628.63" angle="306.00" type="automated@ToC_veh" speed="0.00" pos="305.23" lane="2/1to3/1_0" slope="0.00"/>
        <vehicle id="follower" x="2636.59" y="2624.22" angle="306.00" type="automated" speed="0.00" pos="297.73" lane="2/1to3/1_0" slope="0.00"/>
        <vehicle id="leader" x="2106.76" y="3009.15" angle="306.00" type="automated" speed="19.60" pos="952.63" lane="2/1to3/1_0" slope="0.00"/>
    </timestep>
    <timestep time="53.00">
        <vehicle id="ToC_veh" x="2630.52" y="2628.63" angle="306.00" type="automated@ToC_veh" speed="0.00" pos="305.23" lane="2/1to3/1_0" slope="0.00"/>
        <vehicle id="follower" x="2636.59" y="2624.22" angle="306.00" type="automated" speed="0.00" pos="297.73" lane="2/1to3/1_0" slope="0.00"/>
        <vehicle id="leader" x="2090.91" y="3020.67" angle="306.00" type="automated" speed="19.60" pos="972.23" lane="2/1to3/1_0" slope="0.00"/>
    </timestep>
    <timestep time="54.00">
        <vehicle id="ToC_veh" x="2630.52" y="2628.63" angle="306.00" type="automated@ToC_veh" speed="0.00" pos="305.23" lane="2/1to3/1_0" slope="0.00"/>
        <vehicle id="follower" x="2636.59" y="2624.22" angle="306.00" type="automated" speed="0.00" pos="297.73" lane="2/1to3/1_0" slope="0.00"/>
        <vehicle id="leader" x="2072.38" y="3027.41" angle="270.00" type="automated" speed="19.60" pos="7.67" lane="3/1to4/1_0" slope="0.00"/>
    </timestep>
    <timestep time="55.00">
        <vehicle id="ToC_veh" x="2630.52" y="2628.63" angle="306.00" type="automated@ToC_veh" speed="0.00" pos="305.23" lane="2/1to3/1_0" slope="0.00"/>
        <vehicle id="follower" x="2636.59" y="2624.22" angle="306.00" type="automated" speed="0.00" pos="297.73" lane="2/1to3/1_0" slope="0.00"/>
        <vehicle id="leader" x="2052.78" y="3027.41" angle="270.00" type="automated" speed="19.60" pos="27.27" lane="3/1to4/1_0" slope="0.00"/>
    </timestep>
    <timestep time="56.00">
        <vehicle id="ToC_veh" x="2630.52" y="2628.63" angle="306.00" type="automated@ToC_veh" speed="0.00" pos="305.23" lane="2/1to3/1_0" slope="0.00"/>
        <vehicle id="follower" x="2636.59" y="2624.22" angle="306.00" type="automated" speed="0.00" pos="297.73" lane="2/1to3/1_0" slope="0.00"/>
        <vehicle id="leader" x="2033.18" y="3027.41" angle="270.00" type="automated" speed="19.60" pos="46.87" lane="3/1to4/1_0" slope="0.00"/>
    </timestep>
    <timestep time="57.00">
        <vehicle id="ToC_veh" x="2630.52" y="2628.63" angle="306.00" type="automated@ToC_veh" speed="0.00" pos="305.23" lane="2/1to3/1_0" slope="0.00"/>
        <vehicle id="follower" x="2636.59" y="2624.22" angle="306.00" type="automated" speed="0.00" pos="297.73" lane="2/1to3/1_0" slope="0.00"/>
        <vehicle id="leader" x="2013.58" y="3027.41" angle="270.00" type="automated" speed="19.60" pos="66.47" lane="3/1to4/1_0" slope="0.00"/>
    </timestep>
    <timestep time="58.00">
        <vehicle id="ToC_veh" x="2630.52" y="2628.63" angle="306.00" type="automated@ToC_veh" speed="0.00" pos="305.23" lane="2/1to3/1_0" slope="0.00"/>
        <vehicle id="follower" x="2636.59" y="2624.22" angle="306.00" type="automated" speed="0.00" pos="297.73" lane="2/1to3/1_0" slope="0.00"/>
        <vehicle id="leader" x="1993.98" y="3027.41" angle="270.00" type="automated" speed="19.60" pos="86.07" lane="3/1to4/1_0" slope="0.00"/>
    </timestep>
    <timestep time="59.00">
        <vehicle id="ToC_veh" x="2630.52" y="2628.63" angle="306.00" type="automated@ToC_veh" speed="0.00" pos="305.23" lane="2/1to3/1_0" slope="0.00"/>
        <vehicle id="follower" x="2636.59" y="2624.22" angle="306.00" type="automated" speed="0.00" pos="297.73" lane="2/1to3/1_0" slope="0.00"/>