<?xml version="1.0" encoding="UTF-8"?>

<!-- generated on Mon Mar  3 10:28:46 2014 by SUMO sumo Version dev-SVN-r15793
<?xml version="1.0" encoding="UTF-8"?>

<configuration xmlns:xsi="http://www.w3.org/2001/XMLSchema-instance" xsi:noNamespaceSchemaLocation="http://sumo-sim.org/xsd/sumoConfiguration.xsd">

    <input>
        <net-file value="net.net.xml"/>
        <additional-files value="input_routes.rou.xml,input_additional.add.xml,input_additional2.add.xml"/>
    </input>

    <time>
        <begin value="0"/>
        <end value="150"/>
    </time>

    <report>
        <xml-validation value="never"/>
        <no-duration-log value="true"/>
        <no-step-log value="true"/>
    </report>

</configuration>
-->

<meandata xmlns:xsi="http://www.w3.org/2001/XMLSchema-instance" xsi:noNamespaceSchemaLocation="http://sumo-sim.org/xsd/meandata_file.xsd">
    <interval begin="0.00" end="15.00" id="dump_15">
        <edge id="4/1to3/1">
            <lane id="4/1to3/1_0" sampledSeconds="23.00" CO_abs="0" CO2_abs="38641.625405" HC_abs="6.766531" PMx_abs="2.252746" NOx_abs="61.310824" fuel_abs="15.405830"
            CO_normed="0" CO2_normed="23184.975243" HC_normed="4.059919" PMx_normed="1.351648" NOx_normed="36.786494" fuel_normed="9.243498"
            traveltime="40.00" CO_perVeh="0" CO2_perVeh="67202.826791" HC_perVeh="11.767880" PMx_perVeh="3.917819" NOx_perVeh="106.627520" fuel_perVeh="26.792749"/>
        </edge>
    </interval>
</meandata>
