<?xml version="1.0" encoding="UTF-8"?>

<!-- generated on 2022-02-11 11:28:56 by Eclipse SUMO sumo Version v1_12_0+0490-00f3a0f
<configuration xmlns:xsi="http://www.w3.org/2001/XMLSchema-instance" xsi:noNamespaceSchemaLocation="http://sumo.dlr.de/xsd/sumoConfiguration.xsd">

    <input>
        <net-file value="net.net.xml"/>
        <route-files value="input_trips.trips.xml"/>
    </input>

    <output>
        <vehroute-output value="vehroutes.xml"/>
        <vehroute-output.exit-times value="true"/>
        <vehroute-output.cost value="true"/>
    </output>

    <processing>
        <pedestrian.model value="nonInteracting"/>
    </processing>

    <routing>
        <device.rerouting.period value="120"/>
        <device.rerouting.adaptation-steps value="60"/>
        <device.rerouting.adaptation-interval value="3"/>
    </routing>

    <report>
        <verbose value="true"/>
        <duration-log.statistics value="true"/>
        <no-step-log value="true"/>
    </report>

    <mesoscopic>
        <mesosim value="true"/>
    </mesoscopic>

</configuration>
-->

<routes xmlns:xsi="http://www.w3.org/2001/XMLSchema-instance" xsi:noNamespaceSchemaLocation="http://sumo.dlr.de/xsd/routes_file.xsd">
    <vehicle id="10" depart="40.00" arrival="191.00">
        <route cost="164.32" savings="0.00" edges="-1784 1784 -1892 -829 833 2386 -2370 1903 2058 2438" exitTimes="47.00 53.00 84.00 93.00 99.00 114.00 137.00 167.00 182.00 191.00"/>
    </vehicle>

    <vehicle id="6" depart="24.00" arrival="210.00">
        <route cost="193.93" savings="0.00" edges="-2669 -1780 -1627 -814 -658 -278 -262 264 493 1338 1575 1623" exitTimes="50.00 65.00 72.00 79.00 86.00 93.00 121.00 136.00 169.00 179.00 195.00 210.00"/>
    </vehicle>

    <vehicle id="17" depart="68.00" arrival="218.00">
        <route cost="149.09" savings="0.00" edges="-1892 -829 833 2386 -2370 1903 2058" exitTimes="104.00 115.00 122.00 139.00 166.00 200.00 218.00"/>
    </vehicle>

    <vehicle id="2" depart="8.00" arrival="231.00">
        <route cost="224.98" savings="0.00" edges="-21 5 222 240 254 278 652 662 833 2386 -2370 1903" exitTimes="32.00 40.00 55.00 79.00 104.00 111.00 145.00 152.00 159.00 174.00 199.00 231.00"/>
    </vehicle>

    <vehicle id="11" depart="44.00" arrival="240.00">
        <route cost="200.58" savings="0.00" edges="-1780 1784 -1892 -829 833 2386 -2370 1903 2072 -2440" exitTimes="60.00 67.00 100.00 109.00 116.00 132.00 156.00 188.00 211.00 240.00"/>
    </vehicle>

    <vehicle id="4" depart="16.00" arrival="245.00">
        <route cost="235.91" savings="0.00" edges="-222 222 240 254 278 652 662 833 2386 -2370 1903 2058 2438" exitTimes="32.00 47.00 71.00 94.00 101.00 135.00 141.00 148.00 164.00 188.00 220.00 235.00 245.00"/>
    </vehicle>

    <vehicle id="13" depart="52.00" arrival="248.00">
        <route cost="219.72" savings="0.00" edges="-2440 -2438 -2058 2066 -2175 -1605 1611 -1613 -1575 -1314 1312 1342" exitTimes="79.00 88.00 102.00 109.00 139.00 146.00 168.00 184.00 198.00 227.00 234.00 248.00"/>
    </vehicle>

    <vehicle id="0" depart="0.00" arrival="257.00">
        <route cost="271.87" savings="0.00" edges="1617 -1617 -1575 -1338 -493 -264 -250 -232 -222 36 1329 -1458" exitTimes="32.00 63.00 78.00 88.00 120.00 135.00 150.00 173.00 188.00 219.00 226.00 257.00"/>
    </vehicle>

    <vehicle id="3" depart="12.00" arrival="268.00">
        <route cost="276.89" savings="0.00" edges="-1586 -1579 -831 -662 -652 -278 -254 -240 -228 -197 205 320 -320" exitTimes="27.00 34.00 56.00 63.00 95.00 101.00 124.00 146.00 178.00 202.00 224.00 246.00 268.00"/>
    </vehicle>

    <vehicle id="16" depart="64.00" arrival="291.00">
        <route cost="226.48" savings="0.00" edges="-2472 -1782 1784 -1892 -829 833 2386 -2370 2319 2321 2365 -2405" exitTimes="73.00 101.00 109.00 147.00 158.00 166.00 185.00 213.00 224.00 252.00 279.00 291.00"/>
    </vehicle>

    <vehicle id="18" depart="72.00" arrival="308.00">
        <route cost="235.09" savings="0.00" edges="2450 -2450 -2072 2066 -2175 -1605 1611 -1613 1623 1917 2196" exitTimes="90.00 107.00 133.00 140.00 177.00 184.00 211.00 230.00 247.00 273.00 308.00"/>
    </vehicle>

    <vehicle id="12" depart="48.00" arrival="312.00">
        <route cost="275.35" savings="0.00" edges="-2688 -2442 -2438 -2058 -1903 2370 -2386 -833 -662 -652 658 828 1941 -2436 2436" exitTimes="56.00 80.00 90.00 106.00 137.00 161.00 176.00 183.00 189.00 222.00 229.00 261.00 277.00 295.00 312.00"/>
    </vehicle>

    <vehicle id="22" depart="88.00" arrival="313.00">
        <route cost="225.01" savings="0.00" edges="212 -205 197 228 240 254 278 658 814 1627 1782 2472" exitTimes="115.00 139.00 165.00 201.00 226.00 251.00 258.00 266.00 274.00 281.00 306.00 313.00"/>
    </vehicle>

    <vehicle id="21" depart="84.00" arrival="314.00">
        <route cost="230.97" savings="0.00" edges="240 254 278 652 662 833 2386 -2370 1903 2072 -2440" exitTimes="109.00 133.00 140.00 174.00 181.00 188.00 204.00 228.00 261.00 284.00 314.00"/>
    </vehicle>

    <vehicle id="1" depart="4.00" arrival="315.00">
        <route cost="310.75" savings="0.00" edges="-2614 2588 -2454 -2411 -2386 -833 -662 -652 -278 -254 -240 -222 -5 9 802 951" exitTimes="31.00 66.00 76.00 111.00 128.00 136.00 143.00 180.00 187.00 213.00 239.00 256.00 264.00 290.00 307.00 315.00"/>
    </vehicle>

    <vehicle id="35" depart="140.00" arrival="316.00">
        <route cost="178.88" savings="0.00" edges="-814 -658 -278 -254 -240 -228 -197 205 320" exitTimes="148.00 155.00 162.00 186.00 210.00 244.00 269.00 293.00 316.00"/>
    </vehicle>

    <vehicle id="28" depart="112.00" arrival="327.00">
        <route cost="233.15" savings="0.00" edges="1579 -1579 -831 -662 -652 -278 -254 -240 -228 -215 214" exitTimes="119.00 125.00 147.00 153.00 183.00 189.00 215.00 241.00 271.00 297.00 327.00"/>
    </vehicle>

    <vehicle id="19" depart="76.00" arrival="328.00">
        <route cost="250.38" savings="0.00" edges="-51 45 -3 5 222 240 254 278 652 662 831 1579 1586 2427" exitTimes="105.00 126.00 132.00 139.00 154.00 183.00 212.00 221.00 262.00 271.00 292.00 298.00 312.00 328.00"/>
    </vehicle>

    <vehicle id="31" depart="124.00" arrival="329.00">
        <route cost="235.61" savings="0.00" edges="-1617 -1575 -1338 -493 -264 -250 -232 -222 -5 3 -45 47 -47" exitTimes="153.00 167.00 176.00 206.00 220.00 233.00 254.00 268.00 274.00 281.00 302.00 315.00 329.00"/>
    </vehicle>

    <vehicle id="9" depart="36.00" arrival="332.00">
        <route cost="295.65" savings="0.00" edges="-2335 -2194 -1917 -1623 -1575 -1338 -493 -264 -250 -232 -222 36 1329 1468" exitTimes="46.00 54.00 82.00 101.00 120.00 132.00 172.00 191.00 209.00 238.00 256.00 294.00 303.00 332.00"/>
    </vehicle>

    <vehicle id="14" depart="56.00" arrival="336.00">
        <route cost="268.28" savings="0.00" edges="-792 -51 -39 -9 5 222 240 254 278 652 662 833 2386 2411" exitTimes="82.00 115.00 122.00 147.00 154.00 170.00 195.00 219.00 226.00 266.00 274.00 282.00 300.00 336.00"/>
    </vehicle>

    <vehicle id="27" depart="108.00" arrival="341.00">
        <routeDistribution>
            <route cost="232.90" savings="0.00" replacedOnEdge="-222" replacedOnIndex="6" reason="device.rerouting" replacedAtTime="228.00" probability="0" edges="664 -664 -652 -278 -254 -240 -222 -5 3 -45 51 330"/>
            <route cost="122.84" savings="0.00" edges="664 -664 -652 -278 -254 -240 -222 -5 9 39 51 330" exitTimes="116.00 123.00 160.00 167.00 193.00 219.00 235.00 243.00 269.00 276.00 311.00 341.00"/>
        </routeDistribution>
    </vehicle>

    <vehicle id="30" depart="120.00" arrival="345.00">
        <route cost="217.82" savings="0.00" edges="-1329 -36 222 240 254 278 652 662 833 2386 2411 2454" exitTimes="127.00 155.00 171.00 196.00 221.00 228.00 267.00 276.00 283.00 302.00 337.00 345.00"/>
    </vehicle>

    <vehicle id="44" depart="176.00" arrival="353.00">
        <route cost="182.64" savings="0.00" edges="-2194 -2187 2188 -1931 -1625 1312 -1316 -274 262 278 658 814 1627" exitTimes="183.00 216.00 224.00 239.00 254.00 261.00 272.00 296.00 325.00 332.00 340.00 347.00 353.00"/>
    </vehicle>

    <vehicle id="36" depart="144.00" arrival="354.00">
        <route cost="209.08" savings="0.00" edges="-1887 1941 -2436 -2403 -1466 -1329 55 -47 51 330" exitTimes="163.00 180.00 199.00 215.00 231.00 239.00 274.00 290.00 324.00 354.00"/>
    </vehicle>

    <vehicle id="33" depart="132.00" arrival="360.00">
        <route cost="267.08" savings="0.00" edges="-2322 2322 2342 -2188 -1915 -1623 1613 -1611 1605 2175 -2066 2058 2438 2442" exitTimes="155.00 177.00 198.00 205.00 225.00 239.00 254.00 275.00 282.00 311.00 317.00 331.00 340.00 360.00"/>
    </vehicle>

    <vehicle id="15" depart="60.00" arrival="367.00">
        <route cost="306.69" savings="0.00" edges="-39 -9 5 222 240 254 278 652 662 833 2386 2411 2454 -2588 2588" exitTimes="68.00 95.00 103.00 119.00 146.00 172.00 180.00 217.00 225.00 232.00 249.00 285.00 295.00 331.00 367.00"/>
    </vehicle>

    <vehicle id="37" depart="148.00" arrival="369.00">
        <route cost="216.97" savings="0.00" edges="-67 -3 5 222 240 254 278 652 662 833 2386 -2370 2319 -2183" exitTimes="155.00 161.00 167.00 185.00 213.00 240.00 248.00 287.00 295.00 301.00 316.00 340.00 349.00 369.00"/>
    </vehicle>

    <vehicle id="32" depart="128.00" arrival="374.00">
        <route cost="246.85" savings="0.00" edges="2326 -2194 -2187 2188 -1931 -1625 1312 -1316 -274 262 278 658 828 1941 -2436" exitTimes="139.00 146.00 180.00 187.00 204.00 219.00 227.00 238.00 262.00 291.00 299.00 306.00 339.00 356.00 374.00"/>
    </vehicle>

    <vehicle id="51" depart="204.00" arrival="377.00">
        <route cost="204.04" savings="0.00" edges="2408 -2438 -2058 -1903 2370 -2386 -833 -662 -540 301 -264 -250" exitTimes="217.00 226.00 240.00 268.00 289.00 303.00 309.00 315.00 329.00 350.00 364.00 377.00"/>
    </vehicle>

    <vehicle id="29" depart="116.00" arrival="380.00">
        <route cost="263.16" savings="0.00" edges="-339 -320 -205 197 228 240 254 278 652 662 833 2386" exitTimes="134.00 160.00 186.00 213.00 250.00 277.00 303.00 310.00 347.00 355.00 362.00 380.00"/>
    </vehicle>

    <vehicle id="20" depart="80.00" arrival="395.00">
        <route cost="320.10" savings="0.00" edges="-2656 2588 -2454 -2411 -2386 -833 -662 -652 -278 -254 -240 -228 -197 205 320 333" exitTimes="88.00 121.00 130.00 162.00 178.00 185.00 192.00 226.00 233.00 257.00 281.00 314.00 340.00 363.00 387.00 395.00"/>
    </vehicle>

    <vehicle id="42" depart="168.00" arrival="396.00">
        <route cost="243.41" savings="0.00" edges="-1579 -831 -662 -652 -278 -254 -240 -228 -197 205 320 333" exitTimes="175.00 197.00 204.00 235.00 242.00 264.00 287.00 318.00 341.00 365.00 388.00 396.00"/>
    </vehicle>

    <vehicle id="5" depart="20.00" arrival="398.00">
        <route cost="377.66" savings="0.00" edges="212 -205 197 228 240 254 278 652 662 833 2386 -2370 1903 2058 2405" exitTimes="51.00 80.00 111.00 152.00 182.00 211.00 219.00 261.00 269.00 278.00 297.00 327.00 366.00 386.00 398.00"/>
    </vehicle>

    <vehicle id="34" depart="136.00" arrival="398.00">
        <route cost="262.32" savings="0.00" edges="2614 -2614 2588 -2454 -2411 -2386 -833 -662 -652 -278 -254 -240 -222" exitTimes="161.00 186.00 219.00 228.00 261.00 278.00 285.00 292.00 326.00 334.00 358.00 383.00 398.00"/>
    </vehicle>

    <vehicle id="24" depart="96.00" arrival="399.00">
        <route cost="302.62" savings="0.00" edges="2408 -2438 -2058 -1903 2370 -2386 -833 -662 -652 -278 -254 -240 -222 -5 3" exitTimes="115.00 127.00 147.00 187.00 217.00 236.00 245.00 253.00 295.00 303.00 333.00 363.00 382.00 390.00 399.00"/>
    </vehicle>

    <vehicle id="52" depart="208.00" arrival="402.00">
        <route cost="198.44" savings="0.00" edges="-1941 -828 -658 652 662 833 2386 2411 2454 -2588" exitTimes="225.00 257.00 265.00 299.00 306.00 313.00 328.00 361.00 369.00 402.00"/>
    </vehicle>

    <vehicle id="7" depart="28.00" arrival="404.00">
        <route cost="373.98" savings="0.00" edges="792 -792 -51 -39 -9 5 222 240 254 278 652 662 833 2386 -2370 1903 2058" exitTimes="57.00 85.00 122.00 130.00 157.00 166.00 183.00 211.00 239.00 247.00 285.00 293.00 303.00 321.00 349.00 385.00 404.00"/>
    </vehicle>

    <vehicle id="39" depart="156.00" arrival="409.00">
        <route cost="249.33" savings="0.00" edges="-262 264 -301 540 662 833 2386 -2370 1903 2058 2438 2442" exitTimes="189.00 207.00 234.00 254.00 262.00 270.00 288.00 315.00 352.00 370.00 382.00 409.00"/>
    </vehicle>

    <vehicle id="23" depart="92.00" arrival="411.00">
        <route cost="318.09" savings="0.00" edges="-2403 2403 2436 -1941 -828 -658 652 662 833 2386 -2370 1903 2072 -2440" exitTimes="110.00 128.00 149.00 167.00 205.00 213.00 252.00 260.00 268.00 286.00 314.00 350.00 378.00 411.00"/>
    </vehicle>

    <vehicle id="43" depart="172.00" arrival="413.00">
        <route cost="249.00" savings="0.00" edges="-1649 -1613 -1575 -1338 -493 -264 -250 -232 -222 36 -36" exitTimes="204.00 221.00 237.00 247.00 280.00 296.00 311.00 334.00 349.00 381.00 413.00"/>
    </vehicle>

    <vehicle id="50" depart="200.00" arrival="414.00">
        <route cost="213.85" savings="0.00" edges="-831 833 1320 -1309 1338 1575 1623 1917 2194 -2326" exitTimes="229.00 237.00 278.00 316.00 329.00 347.00 366.00 394.00 402.00 414.00"/>
    </vehicle>

    <vehicle id="57" depart="228.00" arrival="419.00">
        <route cost="217.73" savings="0.00" edges="2066 -2321 -2319 2370 -2386 -833 -662 -652 -278 -254 -240 -222 222" exitTimes="235.00 256.00 265.00 286.00 300.00 307.00 313.00 343.00 349.00 370.00 392.00 406.00 419.00"/>
    </vehicle>

    <vehicle id="62" depart="248.00" arrival="421.00">
        <route cost="176.04" savings="0.00" edges="-1892 -664 -540 301 493 1338 1575 1617" exitTimes="282.00 289.00 304.00 329.00 362.00 373.00 389.00 421.00"/>
    </vehicle>

    <vehicle id="40" depart="160.00" arrival="422.00">
        <route cost="266.55" savings="0.00" edges="-1090 -951 -802 -9 5 222 240 254 278 652 662 833 2386 -2370 2319 2321 -2066" exitTimes="169.00 176.00 192.00 215.00 222.00 238.00 262.00 285.00 292.00 326.00 332.00 339.00 357.00 382.00 392.00 415.00 422.00"/>
    </vehicle>

    <vehicle id="56" depart="224.00" arrival="427.00">
        <route cost="202.42" savings="0.00" edges="1458 1466 2403 2436 -1941 -828 -658 652 664" exitTimes="261.00 279.00 296.00 317.00 335.00 372.00 381.00 419.00 427.00"/>
    </vehicle>

    <vehicle id="8" depart="32.00" arrival="431.00">
        <route cost="387.32" savings="0.00" edges="214 -205 197 228 240 254 278 652 662 833 2386 2411 2454 -2588 2614 -2614" exitTimes="69.00 95.00 122.00 159.00 185.00 214.00 223.00 264.00 273.00 280.00 299.00 334.00 343.00 379.00 405.00 431.00"/>
    </vehicle>

    <vehicle id="41" depart="164.00" arrival="431.00">
        <route cost="266.74" savings="0.00" edges="-2691 -2614 2588 -2454 -2411 -2386 -833 -662 -540 301 460 481 1312 1342" exitTimes="196.00 221.00 256.00 266.00 300.00 317.00 324.00 332.00 348.00 374.00 399.00 407.00 415.00 431.00"/>
    </vehicle>

    <vehicle id="53" depart="212.00" arrival="432.00">
        <route cost="239.21" savings="0.00" edges="-1613 -1575 -1338 -493 -264 -250 -232 -222 -5 3 -45 47 -55" exitTimes="230.00 245.00 254.00 286.00 300.00 315.00 337.00 351.00 358.00 364.00 387.00 401.00 432.00"/>
    </vehicle>

    <vehicle id="47" depart="188.00" arrival="434.00">
        <route cost="245.74" savings="0.00" edges="2472 -2472 -1782 1784 -1892 -829 833 2386 -2370 1903 2058 2438 2442" exitTimes="197.00 205.00 232.00 240.00 277.00 288.00 296.00 314.00 341.00 378.00 396.00 407.00 434.00"/>
    </vehicle>

    <vehicle id="68" depart="272.00" arrival="442.00">
        <route cost="175.49" savings="0.00" edges="-2192 -2187 2188 -1931 -1625 1312 -1316 -274 262 278 658 -658" exitTimes="279.00 312.00 320.00 335.00 351.00 358.00 368.00 392.00 420.00 427.00 434.00 442.00"/>
    </vehicle>

    <vehicle id="60" depart="240.00" arrival="448.00">
        <route cost="224.09" savings="0.00" edges="-2196 -2187 2188 -1931 -1625 1312 -1316 -274 262 278 658 814 1627 1780" exitTimes="271.00 302.00 310.00 325.00 339.00 346.00 356.00 379.00 406.00 413.00 420.00 427.00 433.00 448.00"/>
    </vehicle>

    <vehicle id="46" depart="184.00" arrival="450.00">
        <route cost="258.99" savings="0.00" edges="-1903 2370 -2386 -833 -662 -652 -278 -254 -240 -222 -5 9 802 951 1090" exitTimes="217.00 242.00 258.00 265.00 272.00 307.00 314.00 338.00 366.00 385.00 394.00 418.00 434.00 442.00 450.00"/>
    </vehicle>

    <vehicle id="73" depart="292.00" arrival="462.00">
        <route cost="179.47" savings="0.00" edges="1935 -814 -658 -278 -262 264 493 1338 1575 1617 1667" exitTimes="302.00 309.00 316.00 323.00 351.00 366.00 398.00 408.00 424.00 455.00 462.00"/>
    </vehicle>

    <vehicle id="55" depart="220.00" arrival="463.00">
        <route cost="242.66" savings="0.00" edges="2440 -2072 2066 -2175 -1605 1611 -1613 1623 1915 2188 -2342 2342" exitTimes="250.00 274.00 281.00 316.00 323.00 348.00 366.00 382.00 406.00 414.00 438.00 463.00"/>
    </vehicle>

    <vehicle id="25" depart="100.00" arrival="466.00">
        <route cost="365.29" savings="0.00" edges="-937 -790 -47 -39 -9 5 222 232 250 264 493 1309 1337 1605 1905" exitTimes="140.00 158.00 176.00 184.00 212.00 220.00 238.00 266.00 284.00 303.00 342.00 380.00 418.00 426.00 466.00"/>
    </vehicle>

    <vehicle id="71" depart="284.00" arrival="487.00">
        <route cost="202.79" savings="0.00" edges="-2194 -1917 -1623 1613 -1611 1605 2175 -2066 2058 2438 2442 2688" exitTimes="292.00 317.00 333.00 351.00 377.00 384.00 419.00 427.00 443.00 454.00 479.00 487.00"/>
    </vehicle>

    <vehicle id="38" depart="152.00" arrival="489.00">
        <route cost="324.78" savings="0.00" edges="802 -802 -9 5 222 240 254 278 652 662 833 2386 -2370 1903 2058 2438 2442 2686" exitTimes="167.00 182.00 204.00 210.00 225.00 251.00 277.00 285.00 322.00 330.00 338.00 355.00 382.00 418.00 436.00 447.00 473.00 489.00"/>
    </vehicle>

    <vehicle id="54" depart="216.00" arrival="489.00">
        <route cost="276.82" savings="0.00" edges="21 228 240 254 278 652 662 833 2386 -2370 1903 2058 2438 -2438" exitTimes="241.00 275.00 299.00 323.00 331.00 365.00 372.00 379.00 395.00 419.00 452.00 468.00 479.00 489.00"/>
    </vehicle>

    <vehicle id="58" depart="232.00" arrival="489.00">
        <route cost="257.10" savings="0.00" edges="-2411 -2386 -833 -662 -652 -278 -254 -240 -222 -5 3 -45 47 -55" exitTimes="265.00 280.00 287.00 294.00 328.00 335.00 360.00 384.00 400.00 407.00 414.00 438.00 456.00 489.00"/>
    </vehicle>

    <vehicle id="77" depart="308.00" arrival="489.00">
        <route cost="180.06" savings="0.00" edges="2405 -2365 -2321 -2319 2370 -2386 -833 829 1892 1935 1627" exitTimes="319.00 344.00 368.00 379.00 404.00 420.00 427.00 437.00 472.00 482.00 489.00"/>
    </vehicle>

    <vehicle id="26" depart="104.00" arrival="490.00">
        <route cost="385.44" savings="0.00" edges="205 -205 197 228 240 254 278 652 662 833 2386 -2370 1903 2058 2438 2442 2686" exitTimes="131.00 157.00 185.00 222.00 249.00 275.00 283.00 321.00 328.00 336.00 354.00 380.00 416.00 434.00 445.00 471.00 490.00"/>
    </vehicle>

    <vehicle id="61" depart="244.00" arrival="493.00">
        <route cost="268.58" savings="0.00" edges="228 240 254 278 652 662 833 2386 2411 2454 -2588 2614 2695" exitTimes="276.00 301.00 327.00 334.00 366.00 373.00 381.00 397.00 426.00 434.00 464.00 486.00 493.00"/>
    </vehicle>

    <vehicle id="45" depart="180.00" arrival="506.00">
        <route cost="318.34" savings="0.00" edges="2454 -2454 -2411 -2386 -833 -662 -652 -278 -254 -240 -222 -5 3 -45 51 792 -937" exitTimes="189.00 197.00 227.00 242.00 248.00 255.00 296.00 305.00 334.00 364.00 383.00 392.00 399.00 421.00 451.00 474.00 506.00"/>
    </vehicle>

    <vehicle id="76" depart="304.00" arrival="506.00">
        <route cost="209.61" savings="0.00" edges="-1941 -828 -658 652 662 833 2386 -2370 2319 2321 -2321" exitTimes="320.00 353.00 360.00 395.00 402.00 409.00 426.00 449.00 459.00 483.00 506.00"/>
    </vehicle>

    <vehicle id="82" depart="328.00" arrival="507.00">
        <route cost="181.49" savings="0.00" edges="-662 -540 301 493 1338 1575 1623 1917 2194 2341" exitTimes="335.00 351.00 376.00 409.00 420.00 436.00 451.00 475.00 482.00 507.00"/>
    </vehicle>

    <vehicle id="49" depart="196.00" arrival="512.00">
        <route cost="315.26" savings="0.00" edges="1623 -1623 -1575 -1338 -493 -264 -250 -232 -222 -5 3 -45 47 790 1458" exitTimes="215.00 234.00 253.00 265.00 306.00 324.00 343.00 372.00 390.00 399.00 407.00 436.00 454.00 473.00 512.00"/>
    </vehicle>

    <vehicle id="88" depart="352.00" arrival="512.00">
        <route cost="163.76" savings="0.00" edges="-1935 -1892 -829 833 2386 -2370 1903 2058 2405" exitTimes="362.00 396.00 406.00 413.00 429.00 453.00 485.00 502.00 512.00"/>
    </vehicle>

    <vehicle id="63" depart="252.00" arrival="515.00">
        <route cost="265.26" savings="0.00" edges="-36 222 240 254 278 652 662 833 2386 -2370 1903 -1903" exitTimes="286.00 302.00 327.00 351.00 359.00 393.00 400.00 408.00 424.00 449.00 482.00 515.00"/>
    </vehicle>

    <vehicle id="81" depart="324.00" arrival="520.00">
        <route cost="200.61" savings="0.00" edges="-51 45 -3 5 222 240 254 278 652 664 -829" exitTimes="357.00 382.00 389.00 396.00 412.00 437.00 461.00 468.00 503.00 510.00 520.00"/>
    </vehicle>

    <vehicle id="48" depart="192.00" arrival="521.00">
        <route cost="327.44" savings="0.00" edges="-333 -320 -205 197 228 240 254 278 652 662 833 2386 2411 2454 -2454" exitTimes="202.00 229.00 257.00 286.00 326.00 354.00 382.00 390.00 429.00 437.00 445.00 463.00 501.00 511.00 521.00"/>
    </vehicle>

    <vehicle id="69" depart="276.00" arrival="530.00">
        <route cost="262.46" savings="0.00" edges="-47 45 -3 5 222 240 254 278 652 662 833 2386 -2370 2319 2321 -2066" exitTimes="292.00 316.00 323.00 330.00 345.00 369.00 393.00 400.00 434.00 441.00 448.00 465.00 489.00 499.00 523.00 530.00"/>
    </vehicle>

    <vehicle id="98" depart="392.00" arrival="531.00">
        <route cost="152.02" savings="0.00" edges="-2058 -1903 2370 -2386 -833 -662 -540 -290" exitTimes="407.00 436.00 461.00 475.00 481.00 487.00 502.00 531.00"/>
    </vehicle>

    <vehicle id="78" depart="312.00" arrival="533.00">
        <route cost="222.50" savings="0.00" edges="1605 -1605 -1337 -1320 -833 -662 -652 658 828 1941 -2436 -2403" exitTimes="320.00 327.00 360.00 394.00 401.00 408.00 442.00 450.00 483.00 499.00 517.00 533.00"/>
    </vehicle>

    <vehicle id="74" depart="296.00" arrival="540.00">
        <route cost="243.45" savings="0.00" edges="-2326 -2192 -1917 -1623 1613 -1611 1599 2370 2411 2454 -2588" exitTimes="307.00 315.00 340.00 356.00 375.00 401.00 435.00 461.00 496.00 505.00 540.00"/>
    </vehicle>

    <vehicle id="87" depart="348.00" arrival="542.00">
        <route cost="201.74" savings="0.00" edges="-2691 -2614 2588 -2454 -2411 -2386 -833 -662 -652 -278" exitTimes="377.00 401.00 433.00 441.00 473.00 488.00 495.00 502.00 535.00 542.00"/>
    </vehicle>

    <vehicle id="59" depart="236.00" arrival="548.00">
        <routeDistribution>
            <route cost="311.84" savings="0.00" replacedOnEdge="-493" replacedOnIndex="5" reason="device.rerouting" replacedAtTime="356.00" probability="0" edges="1649 -1659 -1617 -1575 -1338 -493 -264 -250 -232 -222 -5 3 -45 47 790 -790"/>
            <route cost="198.27" savings="0.00" edges="1649 -1659 -1617 -1575 -1338 -493 -264 -250 -232 -222 -5 9 39 47 790 -790" exitTimes="270.00 288.00 322.00 339.00 350.00 385.00 402.00 418.00 443.00 459.00 467.00 492.00 500.00 516.00 532.00 548.00"/>
        </routeDistribution>
    </vehicle>

    <vehicle id="84" depart="336.00" arrival="550.00">
        <route cost="243.35" savings="0.00" edges="1586 -1586 -1579 -831 -662 -652 -278 -254 -240 -228 -197 205" exitTimes="350.00 364.00 371.00 392.00 398.00 428.00 434.00 455.00 477.00 507.00 529.00 550.00"/>
    </vehicle>

    <vehicle id="94" depart="376.00" arrival="551.00">
        <route cost="190.26" savings="0.00" edges="2438 -2438 -2058 -1903 2370 -2386 -833 -662 -652 -278 -254" exitTimes="386.00 395.00 410.00 440.00 463.00 478.00 484.00 491.00 522.00 529.00 551.00"/>
    </vehicle>

    <vehicle id="70" depart="280.00" arrival="552.00">
        <route cost="276.55" savings="0.00" edges="1907 -1675 -1617 -1575 -1338 -493 -264 -250 -232 -222 36 1329 1466 1595" exitTimes="303.00 327.00 359.00 375.00 385.00 419.00 435.00 451.00 474.00 490.00 522.00 529.00 544.00 552.00"/>
    </vehicle>

    <vehicle id="90" depart="360.00" arrival="560.00">
        <route cost="201.25" savings="0.00" edges="2194 -2194 -2187 2188 -1931 -1625 1312 -1316 -274 262 278 658 814 -1935 1935" exitTimes="367.00 374.00 408.00 416.00 432.00 447.00 455.00 465.00 490.00 518.00 526.00 533.00 540.00 550.00 560.00"/>
    </vehicle>

    <vehicle id="80" depart="320.00" arrival="561.00">
        <route cost="249.34" savings="0.00" edges="-2175 -1605 -1337 -1320 -833 -662 -652 658 828 1943 2424" exitTimes="354.00 360.00 393.00 426.00 433.00 440.00 473.00 480.00 512.00 536.00 561.00"/>
    </vehicle>

    <vehicle id="72" depart="288.00" arrival="563.00">
        <route cost="273.38" savings="0.00" edges="-2440 -2438 -2058 -1903 2370 -2386 -833 -662 -652 -278 -254 -240 -222 -5" exitTimes="320.00 331.00 348.00 383.00 409.00 426.00 434.00 442.00 479.00 486.00 512.00 538.00 555.00 563.00"/>
    </vehicle>

    <vehicle id="67" depart="268.00" arrival="565.00">
        <route cost="296.36" savings="0.00" edges="2403 2436 -1941 -828 -658 -278 -262 264 493 1338 1575 1617 -1617" exitTimes="286.00 306.00 324.00 360.00 369.00 377.00 409.00 426.00 464.00 475.00 493.00 529.00 565.00"/>
    </vehicle>

    <vehicle id="64" depart="256.00" arrival="577.00">
        <route cost="320.31" savings="0.00" edges="-802 -9 5 222 240 254 278 652 662 833 2386 -2370 1903 2058 2438 2442 2688" exitTimes="274.00 300.00 307.00 324.00 350.00 376.00 384.00 421.00 428.00 436.00 453.00 479.00 514.00 532.00 543.00 568.00 577.00"/>
    </vehicle>

    <vehicle id="66" depart="264.00" arrival="579.00">
        <route cost="313.54" savings="0.00" edges="-2663 -2333 -2194 -1917 -1623 -1575 -1338 -493 -264 262 278 658 828 1943 2424" exitTimes="283.00 300.00 308.00 335.00 352.00 370.00 382.00 420.00 438.00 470.00 478.00 487.00 523.00 551.00 579.00"/>
    </vehicle>

    <vehicle id="95" depart="380.00" arrival="579.00">
        <route cost="210.50" savings="0.00" edges="254 -262 274 1316 -1312 1625 1931 -2188 2187 2194 2333 -2333" exitTimes="404.00 431.00 455.00 465.00 472.00 487.00 502.00 510.00 542.00 549.00 564.00 579.00"/>
    </vehicle>

    <vehicle id="93" depart="372.00" arrival="598.00">
        <route cost="225.25" savings="0.00" edges="-2669 -1780 1784 -1892 -829 833 2386 2411 2454 -2588 -2450" exitTimes="401.00 419.00 426.00 463.00 473.00 481.00 499.00 534.00 544.00 580.00 598.00"/>
    </vehicle>

    <vehicle id="75" depart="300.00" arrival="602.00">
        <route cost="286.90" savings="0.00" edges="2450 2588 -2454 -2411 -2386 -833 -662 -652 -278 -254 -240 -222 -5 3 -45 47" exitTimes="317.00 351.00 360.00 394.00 412.00 420.00 428.00 467.00 475.00 503.00 531.00 547.00 554.00 561.00 586.00 602.00"/>
    </vehicle>

    <vehicle id="103" depart="412.00" arrival="605.00">
        <route cost="192.74" savings="0.00" edges="-1649 -1613 -1575 -1338 -493 -264 -250 -232 -222" exitTimes="447.00 466.00 483.00 494.00 530.00 547.00 563.00 589.00 605.00"/>
    </vehicle>

    <vehicle id="83" depart="332.00" arrival="608.00">
        <route cost="279.37" savings="0.00" edges="201 215 228 240 254 278 652 662 833 2386 -2370 2319 2321" exitTimes="357.00 387.00 423.00 448.00 473.00 481.00 516.00 523.00 531.00 547.00 573.00 584.00 608.00"/>
    </vehicle>

    <vehicle id="109" depart="436.00" arrival="608.00">
        <route cost="171.12" savings="0.00" edges="-831 833 1320 1337 1605 1905 1907" exitTimes="462.00 469.00 505.00 540.00 547.00 584.00 608.00"/>
    </vehicle>

    <vehicle id="99" depart="396.00" arrival="609.00">
        <route cost="234.79" savings="0.00" edges="1659 -1659 -1617 -1575 -1338 -493 -264 -250 -232 -222 -5 9" exitTimes="413.00 429.00 459.00 474.00 483.00 514.00 529.00 544.00 566.00 580.00 587.00 609.00"/>
    </vehicle>

    <vehicle id="96" depart="384.00" arrival="610.00">
        <route cost="218.65" savings="0.00" edges="-937 -790 -47 45 -3 5 222 232 250 264 -301 540" exitTimes="418.00 434.00 450.00 474.00 481.00 489.00 507.00 534.00 551.00 569.00 594.00 610.00"/>
    </vehicle>

    <vehicle id="91" depart="364.00" arrival="611.00">
        <route cost="246.95" savings="0.00" edges="222 240 254 278 652 662 833 2386 -2370 1903 2058 2438" exitTimes="382.00 410.00 437.00 445.00 483.00 491.00 499.00 517.00 545.00 581.00 600.00 611.00"/>
    </vehicle>

    <vehicle id="89" depart="356.00" arrival="613.00">
        <route cost="259.58" savings="0.00" edges="-2438 -2058 -1903 2370 -2386 -833 -662 -652 -278 -254 -240 -222 -5 3 -45" exitTimes="367.00 383.00 415.00 439.00 455.00 462.00 469.00 504.00 511.00 535.00 560.00 575.00 582.00 589.00 613.00"/>
    </vehicle>

    <vehicle id="65" depart="260.00" arrival="626.00">
        <route cost="365.29" savings="0.00" edges="-2688 -2442 -2438 -2058 -1903 2370 -2386 -833 -662 -652 -278 -254 -240 -228 -197 197" exitTimes="270.00 297.00 309.00 327.00 364.00 392.00 410.00 419.00 427.00 465.00 474.00 501.00 529.00 568.00 597.00 626.00"/>
    </vehicle>

    <vehicle id="79" depart="316.00" arrival="643.00">
        <route cost="308.46" savings="0.00" edges="-2072 -1903 2370 -2386 -833 -662 -652 -278 -254 -240 -228 -197 205 320" exitTimes="339.00 369.00 396.00 414.00 422.00 430.00 469.00 477.00 504.00 532.00 569.00 598.00 621.00 643.00"/>
    </vehicle>
