<?xml version="1.0" encoding="UTF-8"?>

<!-- generated on 2025-01-02 14:27:34 by Eclipse SUMO sumo Version v1_21_0+1623-640c91a7eff
<sumoConfiguration xmlns:xsi="http://www.w3.org/2001/XMLSchema-instance" xsi:noNamespaceSchemaLocation="http://sumo.dlr.de/xsd/sumoConfiguration.xsd">

    <input>
        <net-file value="net.net.xml"/>
        <route-files value="input_trips.trips.xml"/>
    </input>

    <output>
        <vehroute-output value="vehroutes.xml"/>
        <vehroute-output.exit-times value="true"/>
        <vehroute-output.cost value="true"/>
    </output>

    <routing>
        <routing-algorithm value="astar"/>
        <device.rerouting.period value="120"/>
        <device.rerouting.adaptation-steps value="60"/>
        <device.rerouting.adaptation-interval value="3"/>
    </routing>

    <report>
        <duration-log.statistics value="true"/>
        <no-step-log value="true"/>
    </report>

</sumoConfiguration>
-->

<routes xmlns:xsi="http://www.w3.org/2001/XMLSchema-instance" xsi:noNamespaceSchemaLocation="http://sumo.dlr.de/xsd/routes_file.xsd">
    <vehicle id="6" depart="24.00" arrival="360.00">
        <route cost="217.57" savings="0.00" edges="-2669 -1780 -1627 -814 -658 -278 -262 264 493 1338 1575 1623" exitTimes="54.00 73.00 82.00 91.00 102.00 135.00 225.00 270.00 309.00 322.00 340.00 360.00"/>
    </vehicle>

    <vehicle id="13" depart="52.00" arrival="360.00">
        <route cost="241.52" savings="0.00" edges="-2440 -2438 -2058 2066 -2175 -1605 1611 -1613 -1575 -1314 1312 1342" exitTimes="83.00 97.00 115.00 157.00 193.00 221.00 247.00 276.00 301.00 334.00 343.00 360.00"/>
    </vehicle>

    <vehicle id="16" depart="64.00" arrival="365.00">
        <route cost="246.28" savings="0.00" edges="-2472 -1782 1784 -1892 -829 833 2386 -2370 2319 2321 2365 -2405" exitTimes="76.00 108.00 118.00 160.00 175.00 188.00 209.00 270.00 287.00 317.00 349.00 365.00"/>
    </vehicle>

    <vehicle id="2" depart="8.00" arrival="370.00">
        <route cost="245.98" savings="0.00" edges="-21 5 222 240 254 278 652 662 833 2386 -2370 1903" exitTimes="36.00 48.00 65.00 93.00 121.00 133.00 170.00 183.00 193.00 213.00 280.00 370.00"/>
    </vehicle>

    <vehicle id="22" depart="88.00" arrival="371.00">
        <route cost="253.29" savings="0.00" edges="212 -205 197 228 240 254 278 658 814 1627 1782 2472" exitTimes="118.00 147.00 176.00 216.00 246.00 286.00 299.00 311.00 321.00 331.00 360.00 371.00"/>
    </vehicle>

    <vehicle id="35" depart="140.00" arrival="378.00">
        <route cost="201.64" savings="0.00" edges="-814 -658 -278 -254 -240 -228 -197 205 320" exitTimes="152.00 163.00 174.00 202.00 229.00 291.00 324.00 351.00 378.00"/>
    </vehicle>

    <vehicle id="17" depart="68.00" arrival="382.00">
        <route cost="159.45" savings="0.00" edges="-1892 -829 833 2386 -2370 1903 2058" exitTimes="108.00 157.00 180.00 201.00 270.00 360.00 382.00"/>
    </vehicle>

    <vehicle id="0" depart="0.00" arrival="397.00">
        <route cost="303.04" savings="0.00" edges="1617 -1617 -1575 -1338 -493 -264 -250 -232 -222 36 1329 -1458" exitTimes="45.00 81.00 99.00 112.00 180.00 201.00 219.00 245.00 264.00 304.00 360.00 397.00"/>
    </vehicle>

    <vehicle id="10" depart="40.00" arrival="407.00">
        <route cost="182.41" savings="0.00" edges="-1784 1784 -1892 -829 833 2386 -2370 1903 2058 2438" exitTimes="90.00 101.00 135.00 162.00 186.00 205.00 275.00 366.00 384.00 407.00"/>
    </vehicle>

    <vehicle id="4" depart="16.00" arrival="409.00">
        <route cost="265.91" savings="0.00" edges="-222 222 240 254 278 652 662 833 2386 -2370 1903 2058 2438" exitTimes="36.00 55.00 82.00 111.00 122.00 159.00 180.00 191.00 211.00 278.00 368.00 387.00 409.00"/>
    </vehicle>

    <vehicle id="11" depart="44.00" arrival="425.00">
        <route cost="217.49" savings="0.00" edges="-1780 1784 -1892 -829 833 2386 -2370 1903 2072 -2440" exitTimes="64.00 73.00 110.00 160.00 183.00 203.00 273.00 363.00 392.00 425.00"/>
    </vehicle>

    <vehicle id="19" depart="76.00" arrival="441.00">
        <route cost="274.43" savings="0.00" edges="-51 45 -3 5 222 240 254 278 652 662 833 1454 1586 2427" exitTimes="109.00 133.00 180.00 190.00 205.00 229.00 276.00 287.00 327.00 370.00 380.00 405.00 421.00 441.00"/>
    </vehicle>

    <vehicle id="31" depart="124.00" arrival="450.00">
        <route cost="265.60" savings="0.00" edges="-1617 -1575 -1338 -493 -264 -250 -232 -222 -5 9 39 47 -47" exitTimes="157.00 174.00 186.00 218.00 270.00 288.00 319.00 339.00 346.00 405.00 416.00 433.00 450.00"/>
    </vehicle>

    <vehicle id="30" depart="120.00" arrival="452.00">
        <route cost="239.95" savings="0.00" edges="-1329 -36 222 240 254 278 652 662 833 2386 2411 2454" exitTimes="130.00 161.00 177.00 201.00 273.00 285.00 325.00 368.00 378.00 400.00 441.00 452.00"/>
    </vehicle>

    <vehicle id="62" depart="248.00" arrival="452.00">
        <route cost="189.08" savings="0.00" edges="-1892 -664 -540 301 493 1338 1575 1617" exitTimes="287.00 296.00 314.00 341.00 378.00 391.00 414.00 452.00"/>
    </vehicle>

    <vehicle id="12" depart="48.00" arrival="463.00">
        <route cost="307.46" savings="0.00" edges="-2688 -2442 -2438 -2058 -1903 2370 -2386 -833 -662 -652 658 828 1941 -2436 2436" exitTimes="60.00 111.00 127.00 180.00 225.00 255.00 273.00 283.00 318.00 355.00 363.00 399.00 419.00 441.00 463.00"/>
    </vehicle>

    <vehicle id="28" depart="112.00" arrival="463.00">
        <route cost="260.52" savings="0.00" edges="1579 -1454 -833 -662 -652 -278 -254 -240 -228 -215 214" exitTimes="123.00 149.00 180.00 225.00 262.00 315.00 342.00 366.00 399.00 429.00 463.00"/>
    </vehicle>

    <vehicle id="1" depart="4.00" arrival="473.00">
        <route cost="340.02" savings="0.00" edges="-2614 2588 -2454 -2411 -2386 -833 -662 -652 -278 -254 -240 -222 -5 9 802 951" exitTimes="35.00 75.00 87.00 127.00 180.00 192.00 228.00 270.00 318.00 350.00 380.00 399.00 409.00 438.00 459.00 473.00"/>
    </vehicle>

    <vehicle id="52" depart="208.00" arrival="480.00">
        <route cost="215.96" savings="0.00" edges="-1941 -828 -658 652 662 833 2386 2411 2454 -2588" exitTimes="229.00 265.00 274.00 318.00 364.00 374.00 395.00 433.00 445.00 480.00"/>
    </vehicle>

    <vehicle id="36" depart="144.00" arrival="486.00">
        <routeDistribution>
            <route cost="227.43" savings="0.00" replacedOnEdge="-2403" replacedOnIndex="3" reason="device.rerouting" replacedAtTime="264.00" probability="0" edges="-1887 1941 -2436 -2403 -1466 -1329 55 -47 51 330"/>
            <route cost="169.39" savings="2.55" edges="-1887 1941 -2436 -2403 -1466 -1458 937 -792 330" exitTimes="166.00 188.00 211.00 270.00 315.00 355.00 394.00 450.00 486.00"/>
        </routeDistribution>
    </vehicle>

    <vehicle id="37" depart="148.00" arrival="486.00">
        <route cost="241.45" savings="0.00" edges="-67 -3 5 222 240 254 278 652 662 833 2386 -2370 2319 -2183" exitTimes="159.00 183.00 192.00 207.00 231.00 278.00 290.00 329.00 372.00 383.00 403.00 450.00 464.00 486.00"/>
    </vehicle>

    <vehicle id="3" depart="12.00" arrival="491.00">
        <route cost="306.29" savings="0.00" edges="-1586 -1454 -833 -662 -652 -278 -254 -240 -228 -197 205 320 -320" exitTimes="30.00 56.00 90.00 135.00 174.00 229.00 259.00 289.00 381.00 412.00 437.00 464.00 491.00"/>
    </vehicle>

    <vehicle id="18" depart="72.00" arrival="491.00">
        <route cost="262.49" savings="0.00" edges="2450 -2450 -2072 2066 -2175 -1605 1611 -1613 1623 1917 2196" exitTimes="135.00 158.00 225.00 247.00 290.00 311.00 343.00 364.00 383.00 450.00 491.00"/>
    </vehicle>

    <vehicle id="29" depart="116.00" arrival="497.00">
        <route cost="289.73" savings="0.00" edges="-339 -320 -205 197 228 240 254 278 652 662 833 2386" exitTimes="138.00 167.00 198.00 251.00 318.00 349.00 381.00 397.00 439.00 465.00 475.00 497.00"/>
    </vehicle>

    <vehicle id="34" depart="136.00" arrival="499.00">
        <route cost="301.40" savings="0.00" edges="2614 -2614 2588 -2454 -2411 -2386 -833 -662 -652 -278 -254 -240 -222" exitTimes="167.00 196.00 235.00 246.00 284.00 303.00 320.00 331.00 379.00 414.00 446.00 480.00 499.00"/>
    </vehicle>

    <vehicle id="9" depart="36.00" arrival="506.00">
        <route cost="330.19" savings="0.00" edges="-2335 -2194 -2187 2188 -1931 -1650 -1342 -1316 -274 -250 -232 -222 36 1329 1468" exitTimes="90.00 126.00 173.00 184.00 205.00 216.00 239.00 254.00 315.00 338.00 388.00 414.00 462.00 473.00 506.00"/>
    </vehicle>

    <vehicle id="21" depart="84.00" arrival="514.00">
        <route cost="252.30" savings="0.00" edges="240 254 278 652 662 833 2386 -2370 1903 2072 -2440" exitTimes="113.00 180.00 192.00 230.00 270.00 281.00 299.00 360.00 450.00 480.00 514.00"/>
    </vehicle>

    <vehicle id="43" depart="172.00" arrival="518.00">
        <route cost="282.43" savings="0.00" edges="-1649 -1613 -1575 -1338 -493 -264 -250 -232 -222 36 -36" exitTimes="209.00 270.00 296.00 311.00 360.00 381.00 399.00 425.00 444.00 482.00 518.00"/>
    </vehicle>

    <vehicle id="24" depart="96.00" arrival="525.00">
        <route cost="333.95" savings="0.00" edges="2408 -2438 -2058 -1903 2370 -2386 -833 -662 -652 -278 -254 -240 -222 -5 3" exitTimes="134.00 153.00 183.00 229.00 263.00 286.00 314.00 327.00 374.00 409.00 444.00 478.00 500.00 511.00 525.00"/>
    </vehicle>

    <vehicle id="27" depart="108.00" arrival="527.00">
        <route cost="266.22" savings="0.00" edges="664 -664 -652 -278 -254 -240 -222 -5 9 39 51 330" exitTimes="120.00 131.00 172.00 225.00 257.00 287.00 306.00 316.00 345.00 401.00 491.00 527.00"/>
    </vehicle>

    <vehicle id="56" depart="224.00" arrival="533.00">
        <route cost="215.21" savings="0.00" edges="1458 1466 2403 2436 -1941 -828 -658 652 664" exitTimes="315.00 360.00 383.00 407.00 429.00 470.00 481.00 522.00 533.00"/>
    </vehicle>

    <vehicle id="68" depart="272.00" arrival="535.00">
        <route cost="206.93" savings="0.00" edges="-2192 -2187 2188 -1931 -1650 -1342 -1316 -274 262 278 658 -658" exitTimes="282.00 320.00 330.00 347.00 357.00 375.00 388.00 414.00 501.00 512.00 524.00 535.00"/>
    </vehicle>

    <vehicle id="14" depart="56.00" arrival="536.00">
        <routeDistribution>
            <route cost="291.29" savings="0.00" replacedOnEdge="222" replacedOnIndex="5" reason="device.rerouting" replacedAtTime="296.00" probability="0" edges="-792 -51 45 -3 5 222 240 254 278 652 662 833 2386 2411"/>
            <route cost="201.83" savings="0.96" edges="-792 -51 45 -3 5 222 232 250 264 -301 540 662 833 2386 2411" exitTimes="90.00 180.00 211.00 270.00 282.00 300.00 329.00 363.00 384.00 412.00 450.00 467.00 477.00 499.00 536.00"/>
        </routeDistribution>
    </vehicle>

    <vehicle id="15" depart="60.00" arrival="537.00">
        <route cost="337.99" savings="0.00" edges="-39 -9 5 222 240 254 278 652 662 833 2386 2411 2454 -2588 2588" exitTimes="90.00 131.00 144.00 163.00 192.00 270.00 282.00 323.00 366.00 376.00 398.00 439.00 452.00 495.00 537.00"/>
    </vehicle>

    <vehicle id="44" depart="176.00" arrival="539.00">
        <route cost="210.38" savings="0.00" edges="-2194 -2187 2188 -1931 -1650 -1342 -1316 -274 262 278 658 814 1627" exitTimes="223.00 264.00 274.00 292.00 302.00 321.00 334.00 408.00 498.00 510.00 520.00 530.00 539.00"/>
    </vehicle>

    <vehicle id="57" depart="228.00" arrival="541.00">
        <routeDistribution>
            <route cost="265.32" savings="0.00" replacedOnEdge="-2386" replacedOnIndex="4" reason="device.rerouting" replacedAtTime="348.00" probability="0" edges="2066 -2321 -2319 2370 -2386 -833 -662 -652 -278 -254 -240 -222 222"/>
            <route cost="196.01" savings="0.94" edges="2066 -2321 -2319 2370 -2386 -833 -662 -540 -290 -254 -240 -222 222" exitTimes="247.00 275.00 287.00 311.00 360.00 371.00 405.00 424.00 457.00 481.00 505.00 523.00 541.00"/>
        </routeDistribution>
    </vehicle>

    <vehicle id="42" depart="168.00" arrival="562.00">
        <route cost="272.75" savings="0.00" edges="-1579 -831 -662 -652 -278 -254 -240 -228 -197 205 320 333" exitTimes="179.00 205.00 231.00 272.00 321.00 348.00 373.00 471.00 501.00 526.00 552.00 562.00"/>
    </vehicle>

    <vehicle id="8" depart="32.00" arrival="564.00">
        <route cost="432.05" savings="0.00" edges="214 -205 197 228 240 254 278 652 662 833 2386 2411 2454 -2588 2614 -2614" exitTimes="90.00 129.00 163.00 211.00 244.00 283.00 297.00 342.00 376.00 387.00 410.00 450.00 463.00 502.00 534.00 564.00"/>
    </vehicle>

    <vehicle id="51" depart="204.00" arrival="565.00">
        <route cost="232.56" savings="0.00" edges="2408 -2438 -2058 -1903 2370 -2386 -833 -662 -540 301 -264 -250" exitTimes="224.00 238.00 270.00 315.00 341.00 363.00 373.00 408.00 425.00 491.00 546.00 565.00"/>
    </vehicle>

    <vehicle id="41" depart="164.00" arrival="566.00">
        <route cost="298.37" savings="0.00" edges="-2691 -2614 2588 -2454 -2411 -2386 -833 -662 -540 301 460 481 1312 1342" exitTimes="201.00 270.00 311.00 322.00 361.00 381.00 404.00 416.00 437.00 494.00 524.00 534.00 546.00 566.00"/>
    </vehicle>

    <vehicle id="55" depart="220.00" arrival="568.00">
        <routeDistribution>
            <route cost="272.08" savings="0.00" replacedOnEdge="1623" replacedOnIndex="7" reason="device.rerouting" replacedAtTime="460.00" probability="0" edges="2440 -2072 2066 -2175 -1605 1611 -1613 1623 1917 2196 2342"/>
            <route cost="111.07" savings="1.10" edges="2440 -2072 2066 -2175 -1605 1611 -1613 1623 1915 2188 -2342 2342" exitTimes="255.00 315.00 337.00 377.00 404.00 433.00 453.00 472.00 500.00 510.00 540.00 568.00"/>
        </routeDistribution>
    </vehicle>

    <vehicle id="50" depart="200.00" arrival="569.00">
        <route cost="239.41" savings="0.00" edges="-831 833 1320 -1309 1338 1575 1623 1917 2194 -2326" exitTimes="232.00 270.00 326.00 369.00 385.00 408.00 450.00 540.00 553.00 569.00"/>
    </vehicle>

    <vehicle id="46" depart="187.00" arrival="570.00">
        <route cost="288.75" savings="0.00" edges="-1903 2370 -2386 -833 -662 -652 -278 -254 -240 -222 -5 9 802 951 1090" exitTimes="231.00 259.00 277.00 287.00 320.00 359.00 405.00 436.00 465.00 483.00 499.00 527.00 547.00 558.00 570.00"/>
    </vehicle>

    <vehicle id="20" depart="80.00" arrival="571.00">
        <route cost="351.35" savings="0.00" edges="-2656 2588 -2454 -2411 -2386 -833 -662 -652 -278 -254 -240 -228 -197 205 320 333" exitTimes="91.00 128.00 139.00 177.00 196.00 224.00 235.00 274.00 324.00 353.00 382.00 474.00 505.00 531.00 560.00 571.00"/>
    </vehicle>

    <vehicle id="5" depart="20.00" arrival="579.00">
        <route cost="409.58" savings="0.00" edges="212 -205 197 228 240 254 278 652 662 833 2386 -2370 1903 2058 2405" exitTimes="90.00 126.00 161.00 208.00 242.00 281.00 294.00 340.00 374.00 385.00 408.00 456.00 540.00 565.00 579.00"/>
    </vehicle>

    <vehicle id="23" depart="92.00" arrival="583.00">
        <routeDistribution>
            <route cost="347.50" savings="0.00" replacedOnEdge="-2370" replacedOnIndex="10" reason="device.rerouting" replacedAtTime="452.00" probability="0" edges="-2403 2403 2436 -1941 -828 -658 652 662 833 2386 -2370 1903 2072 -2440"/>
            <route cost="152.43" savings="32.51" edges="-2403 2403 2436 -1941 -828 -658 652 662 833 2386 -2370 2319 2321 -2066 2072 -2440" exitTimes="114.00 136.00 160.00 182.00 223.00 233.00 315.00 360.00 372.00 393.00 456.00 472.00 503.00 514.00 545.00 583.00"/>
        </routeDistribution>
    </vehicle>

    <vehicle id="32" depart="128.00" arrival="598.00">
        <route cost="272.19" savings="0.00" edges="2326 -2194 -2187 2188 -1931 -1650 -1342 -1316 -274 262 278 658 828 1941 -2436" exitTimes="153.00 216.00 262.00 273.00 290.00 300.00 319.00 332.00 405.00 495.00 508.00 518.00 556.00 577.00 598.00"/>
    </vehicle>

    <vehicle id="60" depart="240.00" arrival="601.00">
        <route cost="250.73" savings="0.00" edges="-2196 -2187 2188 -1931 -1650 -1342 -1316 -274 262 278 658 814 1627 1780" exitTimes="306.00 345.00 355.00 371.00 380.00 398.00 410.00 435.00 503.00 515.00 527.00 537.00 581.00 601.00"/>
    </vehicle>

    <vehicle id="73" depart="292.00" arrival="603.00">
        <route cost="218.26" savings="0.00" edges="1935 -814 -658 -278 -262 264 493 1338 1575 1617 1667" exitTimes="307.00 317.00 328.00 338.00 405.00 450.00 489.00 503.00 521.00 585.00 603.00"/>
    </vehicle>

    <vehicle id="45" depart="180.00" arrival="605.00">
        <routeDistribution>
            <route cost="371.40" savings="0.00" replacedOnEdge="-662" replacedOnIndex="5" reason="device.rerouting" replacedAtTime="300.00" probability="0" edges="2454 -2454 -2411 -2386 -833 -662 -652 -278 -254 -240 -222 -5 3 -45 51 792 -937"/>
            <route cost="278.82" savings="0.88" edges="2454 -2454 -2411 -2386 -833 -662 -652 658 828 1941 -2436 -2403 -1466 -1458 937 -937" exitTimes="193.00 206.00 241.00 270.00 281.00 315.00 352.00 360.00 394.00 413.00 433.00 450.00 495.00 532.00 568.00 605.00"/>
        </routeDistribution>
    </vehicle>

    <vehicle id="33" depart="132.00" arrival="611.00">
        <route cost="293.50" savings="0.00" edges="-2322 2322 -2196 -1917 -1623 1613 -1611 1605 2175 -2066 2058 2438 2442" exitTimes="160.00 188.00 219.00 270.00 289.00 307.00 360.00 371.00 450.00 495.00 514.00 584.00 611.00"/>
    </vehicle>

    <vehicle id="76" depart="304.00" arrival="616.00">
        <route cost="243.80" savings="0.00" edges="-1941 -828 -658 652 662 833 2386 -2370 2319 2321 -2321" exitTimes="326.00 362.00 371.00 406.00 450.00 461.00 479.00 543.00 557.00 588.00 616.00"/>
    </vehicle>

    <vehicle id="53" depart="212.00" arrival="618.00">
        <routeDistribution>
            <route cost="270.49" savings="0.00" replacedOnEdge="-5" replacedOnIndex="8" reason="device.rerouting" replacedAtTime="452.00" probability="0" edges="-1613 -1575 -1338 -493 -264 -250 -232 -222 -5 9 39 47 -55"/>
            <route cost="101.10" savings="1.48" edges="-1613 -1575 -1338 -493 -264 -250 -232 -222 -5 3 -45 47 -55" exitTimes="273.00 299.00 313.00 362.00 383.00 400.00 428.00 445.00 491.00 506.00 540.00 581.00 618.00"/>
        </routeDistribution>
    </vehicle>

    <vehicle id="47" depart="188.00" arrival="619.00">
        <routeDistribution>
            <route cost="272.36" savings="0.00" replacedOnEdge="-2370" replacedOnIndex="8" reason="device.rerouting" replacedAtTime="428.00" probability="0" edges="2472 -2472 -1782 1784 -1892 -829 833 2386 -2370 1903 2058 2438 2442"/>
            <route cost="149.99" savings="11.89" edges="2472 -2472 -1782 1784 -1892 -829 833 2386 -2370 2319 2321 -2066 2058 2438 2442" exitTimes="201.00 214.00 270.00 282.00 323.00 337.00 360.00 383.00 453.00 470.00 500.00 511.00 534.00 587.00 619.00"/>
        </routeDistribution>
    </vehicle>

    <vehicle id="61" depart="249.00" arrival="620.00">
        <route cost="298.48" savings="0.00" edges="228 240 254 278 652 662 833 2386 2411 2454 -2588 2614 2695" exitTimes="312.00 341.00 374.00 392.00 431.00 461.00 472.00 493.00 528.00 539.00 585.00 611.00 620.00"/>
    </vehicle>

    <vehicle id="39" depart="156.00" arrival="621.00">
        <route cost="269.03" savings="0.00" edges="-262 264 -301 540 662 833 2386 -2370 1903 2058 2438 2442" exitTimes="228.00 273.00 305.00 360.00 378.00 389.00 412.00 458.00 543.00 566.00 590.00 621.00"/>
    </vehicle>

    <vehicle id="58" depart="232.00" arrival="623.00">
        <routeDistribution>
            <route cost="302.83" savings="0.00" replacedOnEdge="-222" replacedOnIndex="8" reason="device.rerouting" replacedAtTime="472.00" probability="0" edges="-2411 -2386 -833 -662 -652 -278 -254 -240 -222 -5 9 39 47 -55"/>
            <route cost="119.47" savings="1.30" edges="-2411 -2386 -833 -662 -652 -278 -254 -240 -222 -5 3 -45 47 -55" exitTimes="270.00 289.00 318.00 329.00 376.00 411.00 440.00 467.00 485.00 502.00 512.00 544.00 584.00 623.00"/>
        </routeDistribution>
    </vehicle>

    <vehicle id="88" depart="352.00" arrival="628.00">
        <routeDistribution>
            <route cost="199.30" savings="0.00" replacedOnEdge="2386" replacedOnIndex="4" reason="device.rerouting" replacedAtTime="472.00" probability="0" edges="-1935 -1892 -829 833 2386 -2370 1903 2058 2405"/>
            <route cost="112.97" savings="36.02" edges="-1935 -1892 -829 833 2386 -2370 2319 2321 -2066 2058 2405" exitTimes="366.00 403.00 427.00 450.00 471.00 540.00 555.00 584.00 596.00 616.00 628.00"/>
        </routeDistribution>
    </vehicle>

    <vehicle id="7" depart="28.00" arrival="630.00">
        <routeDistribution>
            <route cost="409.22" savings="0.00" replacedOnEdge="-2370" replacedOnIndex="14" reason="device.rerouting" replacedAtTime="508.00" probability="0" edges="792 -792 -51 45 -3 5 222 240 254 278 652 662 833 2386 -2370 1903 2058"/>
            <route cost="109.20" savings="27.07" edges="792 -792 -51 45 -3 5 222 240 254 278 652 662 833 2386 -2370 2319 2321 -2066 2058" exitTimes="62.00 95.00 180.00 214.00 273.00 285.00 305.00 337.00 369.00 381.00 424.00 458.00 468.00 489.00 549.00 564.00 596.00 607.00 630.00"/>
        </routeDistribution>
    </vehicle>

    <vehicle id="103" depart="412.00" arrival="637.00">
        <route cost="221.52" savings="0.00" edges="-1649 -1613 -1575 -1338 -493 -264 -250 -232 -222" exitTimes="452.00 474.00 495.00 509.00 549.00 569.00 588.00 617.00 637.00"/>
    </vehicle>

    <vehicle id="40" depart="160.00" arrival="641.00">
        <routeDistribution>
            <route cost="297.34" savings="0.00" replacedOnEdge="222" replacedOnIndex="5" reason="device.rerouting" replacedAtTime="280.00" probability="0" edges="-1090 -951 -802 -9 5 222 240 254 278 652 662 833 2386 -2370 2319 2321 -2066"/>
            <route cost="243.96" savings="2.19" edges="-1090 -951 -802 -9 5 222 232 250 264 493 1309 1337 1605 2175 -2066" exitTimes="173.00 183.00 225.00 255.00 264.00 282.00 310.00 360.00 381.00 419.00 456.00 492.00 540.00 630.00 641.00"/>
        </routeDistribution>
    </vehicle>

    <vehicle id="98" depart="392.00" arrival="641.00">
        <route cost="181.38" savings="0.00" edges="-2058 -1903 2370 -2386 -833 -662 -540 -290" exitTimes="450.00 495.00 523.00 548.00 557.00 590.00 608.00 641.00"/>
    </vehicle>

    <vehicle id="63" depart="252.00" arrival="646.00">
        <routeDistribution>
            <route cost="299.68" savings="0.00" replacedOnEdge="254" replacedOnIndex="3" reason="device.rerouting" replacedAtTime="372.00" probability="0" edges="-36 222 240 254 278 652 662 833 2386 -2370 1903 -1903"/>
            <route cost="215.06" savings="6.92" edges="-36 222 240 254 278 652 662 833 2386 -2370 2319 2321 -2066 -1903" exitTimes="291.00 310.00 338.00 371.00 388.00 429.00 459.00 470.00 491.00 551.00 566.00 598.00 609.00 646.00"/>
        </routeDistribution>
    </vehicle>

    <vehicle id="48" depart="192.00" arrival="649.00">
        <route cost="374.27" savings="0.00" edges="-333 -320 -205 197 228 240 254 278 652 662 833 2386 2411 2454 -2454" exitTimes="205.00 237.00 269.00 337.00 387.00 421.00 456.00 469.00 513.00 546.00 557.00 578.00 622.00 636.00 649.00"/>
    </vehicle>

    <vehicle id="84" depart="336.00" arrival="649.00">
        <route cost="300.56" savings="0.00" edges="1586 -1586 -1454 -833 -662 -540 -290 -254 -240 -222 -5 9 189 205" exitTimes="356.00 374.00 405.00 416.00 424.00 443.00 475.00 499.00 523.00 539.00 581.00 608.00 626.00 649.00"/>
    </vehicle>

    <vehicle id="54" depart="216.00" arrival="655.00">
        <routeDistribution>
            <route cost="310.43" savings="0.00" replacedOnEdge="662" replacedOnIndex="6" reason="device.rerouting" replacedAtTime="456.00" probability="0" edges="21 228 240 254 278 652 662 833 2386 -2370 1903 2058 2438 -2438"/>
            <route cost="156.11" savings="37.45" edges="21 228 240 254 278 652 662 833 2386 -2370 2319 2321 2365 2408 -2438" exitTimes="245.00 296.00 326.00 363.00 375.00 413.00 456.00 465.00 484.00 547.00 561.00 593.00 622.00 641.00 655.00"/>
        </routeDistribution>
    </vehicle>

    <vehicle id="80" depart="320.00" arrival="657.00">
        <route cost="273.88" savings="0.00" edges="-2175 -1605 -1337 -1320 -833 -662 -652 658 828 1943 2424" exitTimes="360.00 401.00 440.00 495.00 506.00 514.00 557.00 566.00 601.00 628.00 657.00"/>
    </vehicle>

    <vehicle id="81" depart="324.00" arrival="658.00">
        <route cost="241.23" savings="0.00" edges="-51 -39 -9 5 222 232 250 264 -301 540 664 -829" exitTimes="362.00 373.00 404.00 415.00 433.00 462.00 480.00 543.00 572.00 633.00 644.00 658.00"/>
    </vehicle>

    <vehicle id="77" depart="308.00" arrival="662.00">
        <route cost="210.12" savings="0.00" edges="2405 -2365 -2321 -2319 2370 -2386 -833 829 1892 1935 1627" exitTimes="323.00 381.00 413.00 450.00 482.00 543.00 584.00 600.00 638.00 651.00 662.00"/>
    </vehicle>

    <vehicle id="49" depart="196.00" arrival="670.00">
        <route cost="352.49" savings="0.00" edges="1623 -1623 -1575 -1338 -493 -264 -250 -232 -222 -5 9 39 47 790 1458" exitTimes="219.00 270.00 293.00 309.00 363.00 386.00 408.00 441.00 463.00 496.00 531.00 581.00 604.00 626.00 670.00"/>
    </vehicle>

    <vehicle id="82" depart="328.00" arrival="670.00">
        <route cost="204.27" savings="0.00" edges="-662 -540 301 493 1338 1575 1623 1917 2194 2341" exitTimes="339.00 358.00 401.00 441.00 455.00 495.00 540.00 630.00 641.00 670.00"/>
    </vehicle>

    <vehicle id="87" depart="348.00" arrival="683.00">
        <route cost="251.64" savings="0.00" edges="-2691 -2614 2588 -2454 -2411 -2386 -833 -662 -652 -278" exitTimes="382.00 450.00 488.00 498.00 535.00 553.00 587.00 597.00 636.00 683.00"/>
    </vehicle>

    <vehicle id="70" depart="280.00" arrival="686.00">
        <route cost="314.32" savings="0.00" edges="1907 -1675 -1617 -1575 -1338 -493 -264 -250 -232 -222 36 1329 1466 1595" exitTimes="308.00 336.00 405.00 426.00 440.00 476.00 540.00 561.00 588.00 607.00 645.00 655.00 675.00 686.00"/>
    </vehicle>

    <vehicle id="72" depart="288.00" arrival="688.00">
        <route cost="313.05" savings="0.00" edges="-2440 -2438 -2058 -1903 2370 -2386 -833 -662 -652 -278 -254 -240 -222 -5" exitTimes="337.00 354.00 374.00 413.00 443.00 463.00 497.00 509.00 552.00 592.00 627.00 659.00 678.00 688.00"/>
    </vehicle>

    <vehicle id="96" depart="384.00" arrival="689.00">
        <route cost="254.48" savings="0.00" edges="-937 -790 -47 45 -3 5 222 240 254 290 540" exitTimes="424.00 491.00 512.00 541.00 551.00 561.00 579.00 606.00 634.00 670.00 689.00"/>
    </vehicle>

    <vehicle id="90" depart="360.00" arrival="690.00">
        <route cost="248.04" savings="0.00" edges="2194 -2194 -1917 -1623 -1575 -1338 -493 -301 540 664 1892 1935" exitTimes="371.00 396.00 450.00 472.00 491.00 505.00 543.00 573.00 630.00 642.00 679.00 690.00"/>
    </vehicle>

    <vehicle id="99" depart="396.00" arrival="698.00">
        <route cost="273.71" savings="0.00" edges="1659 -1649 -1613 -1575 -1338 -493 -264 -250 -232 -222 -5 9" exitTimes="417.00 455.00 476.00 497.00 511.00 545.00 562.00 579.00 604.00 622.00 671.00 698.00"/>
    </vehicle>

    <vehicle id="93" depart="372.00" arrival="699.00">
        <route cost="243.91" savings="0.00" edges="-2669 -1780 1784 -1892 -829 833 2386 2411 2454 -2588 -2450" exitTimes="406.00 427.00 437.00 477.00 517.00 540.00 563.00 605.00 618.00 678.00 699.00"/>
    </vehicle>

    <vehicle id="74" depart="296.00" arrival="706.00">
        <route cost="266.61" savings="0.00" edges="-2326 -2192 -1917 -1623 1613 -1611 1599 2370 2411 2454 -2588" exitTimes="311.00 360.00 391.00 450.00 474.00 540.00 585.00 616.00 656.00 668.00 706.00"/>
    </vehicle>

    <vehicle id="94" depart="376.00" arrival="707.00">
        <routeDistribution>
            <route cost="237.18" savings="0.00" replacedOnEdge="-1903" replacedOnIndex="3" reason="device.rerouting" replacedAtTime="496.00" probability="0" edges="2438 -2438 -2058 -1903 2370 -2386 -833 -662 -540 -290 -254"/>
            <route cost="185.67" savings="3.83" edges="2438 -2438 -2058 -1903 2370 -2386 -833 -662 -652 -278 -254" exitTimes="404.00 418.00 453.00 498.00 525.00 550.00 584.00 595.00 634.00 681.00 707.00"/>
        </routeDistribution>
    </vehicle>

    <vehicle id="66" depart="264.00" arrival="715.00">
        <route cost="349.21" savings="0.00" edges="-2663 -2333 -2194 -2187 2188 -1931 -1650 -1342 -1316 -274 262 278 658 828 1943 2424" exitTimes="287.00 308.00 320.00 364.00 375.00 395.00 405.00 426.00 441.00 495.00 585.00 599.00 610.00 651.00 682.00 715.00"/>
    </vehicle>

    <vehicle id="67" depart="268.00" arrival="717.00">
        <route cost="334.79" savings="0.00" edges="2403 2436 -1941 -828 -658 -278 -262 264 493 1338 1575 1617 -1617" exitTimes="289.00 313.00 335.00 376.00 386.00 416.00 495.00 540.00 584.00 598.00 618.00 675.00 717.00"/>
    </vehicle>

    <vehicle id="71" depart="284.00" arrival="717.00">
        <route cost="235.09" savings="0.00" edges="-2194 -1917 -1623 1613 -1611 1605 2175 -2066 2058 2438 2442 2688" exitTimes="306.00 360.00 381.00 402.00 450.00 462.00 540.00 585.00 607.00 674.00 706.00 717.00"/>
    </vehicle>

    <vehicle id="59" depart="236.00" arrival="721.00">
        <routeDistribution>
            <route cost="349.91" savings="0.00" replacedOnEdge="-493" replacedOnIndex="5" reason="device.rerouting" replacedAtTime="476.00" probability="0" edges="1649 -1659 -1617 -1575 -1338 -493 -264 -250 -232 -222 36 1329 -1458 -790"/>
            <route cost="234.02" savings="1.14" replacedOnEdge="-222" replacedOnIndex="9" reason="device.rerouting" replacedAtTime="596.00" probability="0" edges="1649 -1659 -1617 -1575 -1338 -493 -264 -250 -232 -222 -5 3 -45 47 790 -790"/>
            <route cost="124.51" savings="10.57" edges="1649 -1659 -1617 -1575 -1338 -493 -264 -250 -232 -222 36 1329 -1458 -790" exitTimes="337.00 361.00 408.00 429.00 443.00 482.00 543.00 563.00 592.00 612.00 652.00 663.00 701.00 721.00"/>
        </routeDistribution>
    </vehicle>
