<?xml version="1.0"?>

<!-- generated on Tue Jan 15 13:15:44 2013 by SUMO sumo Version dev-SVN-r13186
<?xml version="1.0" encoding="UTF-8"?>

<configuration xmlns:xsi="http://www.w3.org/2001/XMLSchema-instance" xsi:noNamespaceSchemaLocation="http://sumo.sf.net/xsd/sumoConfiguration.xsd">

    <input>
        <net-file value="three_split.net.xml"/>
        <route-files value="input_routes.rou.xml"/>
    </input>

    <output>
        <tripinfo-output value="tripinfos.xml"/>
    </output>

    <report>
        <no-duration-log value="true"/>
        <no-step-log value="true"/>
    </report>

</configuration>
-->

<tripinfos>
    <personinfo id="p1" depart="0.00">
        <stop arrival="0.00"/>
        <ride depart="20.00" arrival="211.00"/>
    </personinfo>
    <tripinfo id="v1" depart="0.00" departLane="beg_0" departPos="0.00" departSpeed="0.00" departDelay="0.00" arrival="211.00" arrivalLane="end_0" arrivalPos="495.25" arrivalSpeed="27.04" duration="211.00" routeLength="2974.60" waitSteps="0" rerouteNo="0" devices="tripinfo_v1 person_v1" vType="DEFAULT_VEHTYPE" vaporized=""/>
</tripinfos>
