<?xml version="1.0" encoding="UTF-8"?>

<!-- generated on 2025-11-18T16:33:52.124101+01:00 by Eclipse SUMO sumo v1_25_0+0086-b1f02afa5bd
This data file and the accompanying materials
are made available under the terms of the Eclipse Public License v2.0
which accompanies this distribution, and is available at
http://www.eclipse.org/legal/epl-v20.html
This file may also be made available under the following Secondary
Licenses when the conditions for such availability set forth in the Eclipse
Public License 2.0 are satisfied: GNU General Public License, version 2
or later which is available at
https://www.gnu.org/licenses/old-licenses/gpl-2.0-standalone.html
SPDX-License-Identifier: EPL-2.0 OR GPL-2.0-or-later
<sumoConfiguration xmlns:xsi="http://www.w3.org/2001/XMLSchema-instance" xsi:noNamespaceSchemaLocation="http://sumo.dlr.de/xsd/sumoConfiguration.xsd">

    <input>
        <net-file value="net.net.xml"/>
        <route-files value="input_routes.rou.xml"/>
        <additional-files value="input_additional.add.xml,input_additional2.add.xml"/>
    </input>

    <output>
        <write-license value="true"/>
        <tripinfo-output.write-unfinished value="true"/>
    </output>

    <time>
        <begin value="0"/>
        <end value="3000"/>
    </time>

    <processing>
        <default.speeddev value="0"/>
    </processing>

    <report>
        <xml-validation value="never"/>
        <duration-log.statistics value="true"/>
        <no-step-log value="true"/>
    </report>

</sumoConfiguration>
-->

<meandata xmlns:xsi="http://www.w3.org/2001/XMLSchema-instance" xsi:noNamespaceSchemaLocation="http://sumo.dlr.de/xsd/meandata_file.xsd">
    <interval begin="0.00" end="60.00" id="dump_60">
        <edge id="1/1to2/1" sampledSeconds="1062.01" traveltime="334.90" overlapTraveltime="326.51" density="17.84" overlapDensity="18.06" laneDensity="17.84" occupancy="8.98" waitingTime="657.00" timeLoss="898.56" speed="3.02" speedRelative="0.15" departed="60" arrived="0" entered="0" left="27" laneChangedFrom="0" laneChangedTo="0" flow="187.89"/>
        <edge id="2/1to3/1" sampledSeconds="711.70" traveltime="55.44" overlapTraveltime="55.72" density="12.10" overlapDensity="12.10" laneDensity="12.10" occupancy="6.00" waitingTime="0.00" timeLoss="69.87" speed="17.68" speedRelative="0.90" departed="0" arrived="0" entered="27" left="1" laneChangedFrom="0" laneChangedTo="0" flow="769.93"/>
        <edge id="3/1to4/1" sampledSeconds="1.28" traveltime="54.00" overlapTraveltime="54.27" density="0.02" overlapDensity="0.02" laneDensity="0.02" occupancy="0.01" waitingTime="0.00" timeLoss="0.09" speed="18.15" speedRelative="0.93" departed="0" arrived="0" entered="1" left="0" laneChangedFrom="0" laneChangedTo="0" flow="1.42"/>
    </interval>
    <interval begin="60.00" end="120.00" id="dump_60">
        <edge id="1/1to2/1" sampledSeconds="2892.28" traveltime="267.55" overlapTraveltime="265.99" density="49.06" overlapDensity="49.19" laneDensity="49.06" occupancy="24.56" waitingTime="2007.00" timeLoss="2345.86" speed="3.70" speedRelative="0.19" departed="60" arrived="0" entered="0" left="29" laneChangedFrom="0" laneChangedTo="0" flow="646.87"/>
        <edge id="2/1to3/1" sampledSeconds="1614.83" traveltime="53.24" overlapTraveltime="53.51" density="27.33" overlapDensity="27.46" laneDensity="27.33" occupancy="13.67" waitingTime="0.00" timeLoss="98.34" speed="18.41" speedRelative="0.94" departed="0" arrived="0" entered="29" left="29" laneChangedFrom="0" laneChangedTo="0" flow="1811.02"/>
        <edge id="3/1to4/1" sampledSeconds="857.08" traveltime="53.35" overlapTraveltime="53.62" density="14.56" overlapDensity="14.58" laneDensity="14.56" occupancy="7.25" waitingTime="0.00" timeLoss="53.86" speed="18.37" speedRelative="0.94" departed="0" arrived="0" entered="29" left="3" laneChangedFrom="0" laneChangedTo="0" flow="963.01"/>
        <edge id="4/1to5/1" sampledSeconds="12.36" traveltime="52.47" overlapTraveltime="52.74" density="0.21" overlapDensity="0.21" laneDensity="0.21" occupancy="0.10" waitingTime="0.00" timeLoss="0.58" speed="18.68" speedRelative="0.95" departed="0" arrived="0" entered="3" left="0" laneChangedFrom="0" laneChangedTo="0" flow="14.14"/>
    </interval>
    <interval begin="120.00" end="180.00" id="dump_60">
        <edge id="1/1to2/1" sampledSeconds="3877.31" traveltime="197.89" overlapTraveltime="197.72" density="65.80" overlapDensity="65.94" laneDensity="65.80" occupancy="32.78" waitingTime="2506.00" timeLoss="2891.89" speed="4.98" speedRelative="0.25" departed="19" arrived="0" entered="0" left="31" laneChangedFrom="0" laneChangedTo="0" flow="1173.09"/>
        <edge id="2/1to3/1" sampledSeconds="1602.93" traveltime="53.29" overlapTraveltime="53.57" density="27.13" overlapDensity="27.26" laneDensity="27.13" occupancy="13.56" waitingTime="0.00" timeLoss="99.20" speed="18.39" speedRelative="0.94" departed="0" arrived="0" entered="31" left="29" laneChangedFrom="0" laneChangedTo="0" flow="1795.71"/>
        <edge id="3/1to4/1" sampledSeconds="1620.11" traveltime="53.52" overlapTraveltime="53.80" density="27.41" overlapDensity="27.55" laneDensity="27.41" occupancy="13.71" waitingTime="0.00" timeLoss="106.74" speed="18.31" speedRelative="0.93" departed="0" arrived="0" entered="29" left="30" laneChangedFrom="0" laneChangedTo="0" flow="1806.98"/>
        <edge id="4/1to5/1" sampledSeconds="1016.29" traveltime="52.94" overlapTraveltime="53.21" density="17.26" overlapDensity="17.28" laneDensity="17.26" occupancy="8.60" waitingTime="0.00" timeLoss="56.42" speed="18.51" speedRelative="0.94" departed="0" arrived="0" entered="30" left="6" laneChangedFrom="0" laneChangedTo="0" flow="1150.08"/>
        <edge id="5/1to6/1" sampledSeconds="43.64" traveltime="52.81" overlapTraveltime="53.08" density="0.74" overlapDensity="0.74" laneDensity="0.74" occupancy="0.36" waitingTime="0.00" timeLoss="2.33" speed="18.56" speedRelative="0.95" departed="0" arrived="0" entered="6" left="0" laneChangedFrom="0" laneChangedTo="0" flow="49.58"/>
    </interval>
    <interval begin="180.00" end="240.00" id="dump_60">
        <edge id="1/1to2/1" sampledSeconds="2260.35" traveltime="81.84" overlapTraveltime="82.10" density="38.30" overlapDensity="38.44" laneDensity="38.30" occupancy="19.00" waitingTime="542.00" timeLoss="876.83" speed="12.00" speedRelative="0.61" departed="5" arrived="0" entered="0" left="31" laneChangedFrom="0" laneChangedTo="0" flow="1650.86"/>
        <edge id="2/1to3/1" sampledSeconds="1649.75" traveltime="53.13" overlapTraveltime="53.40" density="27.92" overlapDensity="28.06" laneDensity="27.92" occupancy="13.96" waitingTime="0.00" timeLoss="97.22" speed="18.44" speedRelative="0.94" departed="0" arrived="0" entered="31" left="31" laneChangedFrom="0" laneChangedTo="0" flow="1853.65"/>
        <edge id="3/1to4/1" sampledSeconds="1611.37" traveltime="53.13" overlapTraveltime="53.41" density="27.27" overlapDensity="27.41" laneDensity="27.27" occupancy="13.63" waitingTime="0.00" timeLoss="95.16" speed="18.44" speedRelative="0.94" departed="0" arrived="0" entered="31" left="30" laneChangedFrom="0" laneChangedTo="0" flow="1810.38"/>
        <edge id="4/1to5/1" sampledSeconds="1614.20" traveltime="53.44" overlapTraveltime="53.71" density="27.31" overlapDensity="27.45" laneDensity="27.31" occupancy="13.66" waitingTime="0.00" timeLoss="103.90" speed="18.34" speedRelative="0.94" departed="0" arrived="0" entered="30" left="30" laneChangedFrom="0" laneChangedTo="0" flow="1803.29"/>
        <edge id="5/1to6/1" sampledSeconds="1162.05" traveltime="53.05" overlapTraveltime="53.32" density="19.72" overlapDensity="19.76" laneDensity="19.72" occupancy="9.84" waitingTime="0.00" timeLoss="66.85" speed="18.47" speedRelative="0.94" departed="0" arrived="0" entered="30" left="9" laneChangedFrom="0" laneChangedTo="0" flow="1311.57"/>
        <edge id="6/1to7/1" sampledSeconds="97.31" traveltime="52.92" overlapTraveltime="53.19" density="1.65" overlapDensity="1.65" laneDensity="1.65" occupancy="0.82" waitingTime="0.00" timeLoss="5.37" speed="18.52" speedRelative="0.94" departed="0" arrived="0" entered="9" left="0" laneChangedFrom="0" laneChangedTo="0" flow="110.33"/>
    </interval>
    <interval begin="240.00" end="300.00" id="dump_60">
        <edge id="1/1to2/1" sampledSeconds="1195.93" traveltime="58.32" overlapTraveltime="58.58" density="20.22" overlapDensity="20.34" laneDensity="20.22" occupancy="9.98" waitingTime="15.00" timeLoss="170.04" speed="16.81" speedRelative="0.86" departed="16" arrived="0" entered="0" left="26" laneChangedFrom="0" laneChangedTo="0" flow="1223.17"/>
        <edge id="2/1to3/1" sampledSeconds="1602.85" traveltime="53.34" overlapTraveltime="53.61" density="27.12" overlapDensity="27.26" laneDensity="27.12" occupancy="13.56" waitingTime="0.00" timeLoss="100.38" speed="18.37" speedRelative="0.94" departed="0" arrived="0" entered="26" left="31" laneChangedFrom="0" laneChangedTo="0" flow="1793.58"/>
        <edge id="3/1to4/1" sampledSeconds="1652.39" traveltime="53.26" overlapTraveltime="53.53" density="27.97" overlapDensity="28.10" laneDensity="27.97" occupancy="13.98" waitingTime="0.00" timeLoss="101.13" speed="18.40" speedRelative="0.94" departed="0" arrived="0" entered="31" left="30" laneChangedFrom="0" laneChangedTo="0" flow="1852.44"/>
        <edge id="4/1to5/1" sampledSeconds="1616.25" traveltime="53.04" overlapTraveltime="53.31" density="27.35" overlapDensity="27.49" laneDensity="27.35" occupancy="13.68" waitingTime="0.00" timeLoss="92.65" speed="18.48" speedRelative="0.94" departed="0" arrived="0" entered="30" left="30" laneChangedFrom="0" laneChangedTo="0" flow="1819.24"/>
        <edge id="5/1to6/1" sampledSeconds="1605.70" traveltime="53.01" overlapTraveltime="53.27" density="27.17" overlapDensity="27.31" laneDensity="27.17" occupancy="13.58" waitingTime="0.00" timeLoss="91.11" speed="18.49" speedRelative="0.94" departed="0" arrived="0" entered="30" left="31" laneChangedFrom="0" laneChangedTo="0" flow="1808.12"/>
        <edge id="6/1to7/1" sampledSeconds="1294.59" traveltime="53.03" overlapTraveltime="53.30" density="21.96" overlapDensity="22.02" laneDensity="21.96" occupancy="10.96" waitingTime="0.00" timeLoss="74.10" speed="18.48" speedRelative="0.94" departed="0" arrived="0" entered="31" left="13" laneChangedFrom="0" laneChangedTo="0" flow="1460.70"/>
        <edge id="7/1to8/1" sampledSeconds="171.43" traveltime="52.87" overlapTraveltime="53.14" density="2.92" overlapDensity="2.92" laneDensity="2.92" occupancy="1.44" waitingTime="0.00" timeLoss="9.31" speed="18.54" speedRelative="0.95" departed="0" arrived="0" entered="13" left="0" laneChangedFrom="0" laneChangedTo="0" flow="194.56"/>
    </interval>
    <interval begin="300.00" end="360.00" id="dump_60">
        <edge id="1/1to2/1" sampledSeconds="1026.04" traveltime="59.33" overlapTraveltime="59.59" density="17.37" overlapDensity="17.45" laneDensity="17.37" occupancy="8.58" waitingTime="16.00" timeLoss="160.85" speed="16.53" speedRelative="0.84" departed="18" arrived="0" entered="0" left="17" laneChangedFrom="0" laneChangedTo="0" flow="1033.09"/>
        <edge id="2/1to3/1" sampledSeconds="1035.01" traveltime="52.92" overlapTraveltime="53.19" density="17.49" overlapDensity="17.60" laneDensity="17.49" occupancy="8.75" waitingTime="0.00" timeLoss="57.15" speed="18.52" speedRelative="0.94" departed="0" arrived="0" entered="17" left="25" laneChangedFrom="0" laneChangedTo="0" flow="1165.85"/>
        <edge id="3/1to4/1" sampledSeconds="1569.31" traveltime="53.18" overlapTraveltime="53.46" density="26.54" overlapDensity="26.69" laneDensity="26.54" occupancy="13.28" waitingTime="0.00" timeLoss="94.05" speed="18.43" speedRelative="0.94" departed="0" arrived="0" entered="25" left="32" laneChangedFrom="0" laneChangedTo="0" flow="1760.63"/>
        <edge id="4/1to5/1" sampledSeconds="1650.70" traveltime="53.20" overlapTraveltime="53.47" density="27.93" overlapDensity="28.07" laneDensity="27.93" occupancy="13.96" waitingTime="0.00" timeLoss="99.28" speed="18.42" speedRelative="0.94" departed="0" arrived="0" entered="32" left="31" laneChangedFrom="0" laneChangedTo="0" flow="1852.32"/>
        <edge id="5/1to6/1" sampledSeconds="1620.18" traveltime="52.97" overlapTraveltime="53.24" density="27.42" overlapDensity="27.56" laneDensity="27.42" occupancy="13.71" waitingTime="0.00" timeLoss="90.90" speed="18.50" speedRelative="0.94" departed="0" arrived="0" entered="31" left="30" laneChangedFrom="0" laneChangedTo="0" flow="1826.06"/>
        <edge id="6/1to7/1" sampledSeconds="1600.98" traveltime="53.03" overlapTraveltime="53.30" density="27.09" overlapDensity="27.23" laneDensity="27.09" occupancy="13.55" waitingTime="0.00" timeLoss="91.51" speed="18.48" speedRelative="0.94" departed="0" arrived="0" entered="30" left="30" laneChangedFrom="0" laneChangedTo="0" flow="1802.29"/>
        <edge id="7/1to8/1" sampledSeconds="1403.35" traveltime="53.10" overlapTraveltime="53.37" density="23.80" overlapDensity="23.87" laneDensity="23.80" occupancy="11.88" waitingTime="0.00" timeLoss="81.91" speed="18.46" speedRelative="0.94" departed="0" arrived="0" entered="30" left="16" laneChangedFrom="0" laneChangedTo="0" flow="1580.92"/>
        <edge id="8/1to9/1" sampledSeconds="270.74" traveltime="52.95" overlapTraveltime="53.22" density="4.60" overlapDensity="4.60" laneDensity="4.60" occupancy="2.28" waitingTime="0.00" timeLoss="15.11" speed="18.51" speedRelative="0.94" departed="0" arrived="0" entered="16" left="0" laneChangedFrom="0" laneChangedTo="0" flow="306.78"/>
    </interval>
    <interval begin="360.00" end="420.00" id="dump_60">
        <edge id="1/1to2/1" sampledSeconds="1008.35" traveltime="59.41" overlapTraveltime="59.68" density="17.07" overlapDensity="17.15" laneDensity="17.07" occupancy="8.43" waitingTime="14.00" timeLoss="159.27" speed="16.50" speedRelative="0.84" departed="17" arrived="0" entered="0" left="17" laneChangedFrom="0" laneChangedTo="0" flow="1013.76"/>
        <edge id="2/1to3/1" sampledSeconds="920.94" traveltime="52.84" overlapTraveltime="53.11" density="15.58" overlapDensity="15.66" laneDensity="15.58" occupancy="7.79" waitingTime="0.00" timeLoss="49.56" speed="18.55" speedRelative="0.95" departed="0" arrived="0" entered="17" left="17" laneChangedFrom="0" laneChangedTo="0" flow="1040.52"/>
        <edge id="3/1to4/1" sampledSeconds="987.82" traveltime="52.76" overlapTraveltime="53.03" density="16.70" overlapDensity="16.80" laneDensity="16.70" occupancy="8.36" waitingTime="0.00" timeLoss="51.71" speed="18.57" speedRelative="0.95" departed="0" arrived="0" entered="17" left="22" laneChangedFrom="0" laneChangedTo="0" flow="1116.66"/>
        <edge id="4/1to5/1" sampledSeconds="1529.87" traveltime="53.23" overlapTraveltime="53.50" density="25.88" overlapDensity="26.02" laneDensity="25.88" occupancy="12.95" waitingTime="0.00" timeLoss="92.93" speed="18.41" speedRelative="0.94" departed="0" arrived="0" entered="22" left="31" laneChangedFrom="0" laneChangedTo="0" flow="1714.93"/>
        <edge id="5/1to6/1" sampledSeconds="1646.19" traveltime="53.13" overlapTraveltime="53.40" density="27.86" overlapDensity="28.00" laneDensity="27.86" occupancy="13.93" waitingTime="0.00" timeLoss="97.13" speed="18.44" speedRelative="0.94" departed="0" arrived="0" entered="31" left="30" laneChangedFrom="0" laneChangedTo="0" flow="1849.80"/>
        <edge id="6/1to7/1" sampledSeconds="1624.04" traveltime="53.05" overlapTraveltime="53.33" density="27.48" overlapDensity="27.62" laneDensity="27.48" occupancy="13.74" waitingTime="0.00" timeLoss="93.62" speed="18.47" speedRelative="0.94" departed="0" arrived="0" entered="30" left="30" laneChangedFrom="0" laneChangedTo="0" flow="1827.43"/>
        <edge id="7/1to8/1" sampledSeconds="1607.70" traveltime="53.32" overlapTraveltime="53.58" density="27.21" overlapDensity="27.34" laneDensity="27.21" occupancy="13.60" waitingTime="0.00" timeLoss="99.98" speed="18.38" speedRelative="0.94" departed="0" arrived="0" entered="30" left="30" laneChangedFrom="0" laneChangedTo="0" flow="1800.19"/>
        <edge id="8/1to9/1" sampledSeconds="1480.22" traveltime="53.02" overlapTraveltime="53.29" density="25.09" overlapDensity="25.18" laneDensity="25.09" occupancy="12.53" waitingTime="0.00" timeLoss="84.26" speed="18.48" speedRelative="0.94" departed="0" arrived="0" entered="30" left="19" laneChangedFrom="0" laneChangedTo="0" flow="1669.44"/>
        <edge id="9/1to10/1" sampledSeconds="390.73" traveltime="52.86" overlapTraveltime="53.13" density="6.65" overlapDensity="6.65" laneDensity="6.65" occupancy="3.30" waitingTime="0.00" timeLoss="21.16" speed="18.54" speedRelative="0.95" departed="0" arrived="0" entered="19" left="0" laneChangedFrom="0" laneChangedTo="0" flow="443.51"/>
    </interval>
    <interval begin="420.00" end="480.00" id="dump_60">
        <edge id="1/1to2/1" sampledSeconds="1016.42" traveltime="59.42" overlapTraveltime="59.69" density="17.21" overlapDensity="17.29" laneDensity="17.21" occupancy="8.48" waitingTime="16.00" timeLoss="160.68" speed="16.50" speedRelative="0.84" departed="17" arrived="0" entered="0" left="17" laneChangedFrom="0" laneChangedTo="0" flow="1021.74"/>
        <edge id="10/1to1/1" sampledSeconds="536.07" traveltime="52.85" overlapTraveltime="53.12" density="9.12" overlapDensity="9.12" laneDensity="9.12" occupancy="4.53" waitingTime="0.00" timeLoss="28.95" speed="18.54" speedRelative="0.95" departed="0" arrived="0" entered="23" left="0" laneChangedFrom="0" laneChangedTo="0" flow="608.58"/>
        <edge id="2/1to3/1" sampledSeconds="897.17" traveltime="52.82" overlapTraveltime="53.09" density="15.18" overlapDensity="15.26" laneDensity="15.18" occupancy="7.59" waitingTime="0.00" timeLoss="47.89" speed="18.55" speedRelative="0.95" departed="0" arrived="0" entered="17" left="17" laneChangedFrom="0" laneChangedTo="0" flow="1014.00"/>
        <edge id="3/1to4/1" sampledSeconds="918.72" traveltime="52.69" overlapTraveltime="52.96" density="15.54" overlapDensity="15.63" laneDensity="15.54" occupancy="7.77" waitingTime="0.00" timeLoss="46.96" speed="18.60" speedRelative="0.95" departed="0" arrived="0" entered="17" left="18" laneChangedFrom="0" laneChangedTo="0" flow="1040.66"/>
        <edge id="4/1to5/1" sampledSeconds="956.66" traveltime="52.83" overlapTraveltime="53.10" density="16.17" overlapDensity="16.27" laneDensity="16.17" occupancy="8.09" waitingTime="0.00" timeLoss="51.38" speed="18.55" speedRelative="0.95" departed="0" arrived="0" entered="18" left="22" laneChangedFrom="0" laneChangedTo="0" flow="1079.68"/>
        <edge id="5/1to6/1" sampledSeconds="1472.80" traveltime="52.94" overlapTraveltime="53.21" density="24.91" overlapDensity="25.05" laneDensity="24.91" occupancy="12.46" waitingTime="0.00" timeLoss="81.83" speed="18.51" speedRelative="0.94" departed="0" arrived="0" entered="22" left="31" laneChangedFrom="0" laneChangedTo="0" flow="1659.77"/>
        <edge id="6/1to7/1" sampledSeconds="1652.87" traveltime="53.20" overlapTraveltime="53.47" density="27.97" overlapDensity="28.11" laneDensity="27.97" occupancy="13.98" waitingTime="0.00" timeLoss="99.48" speed="18.42" speedRelative="0.94" departed="0" arrived="0" entered="31" left="31" laneChangedFrom="0" laneChangedTo="0" flow="1854.69"/>
        <edge id="7/1to8/1" sampledSeconds="1623.70" traveltime="53.03" overlapTraveltime="53.30" density="27.47" overlapDensity="27.62" laneDensity="27.47" occupancy="13.74" waitingTime="0.00" timeLoss="92.95" speed="18.48" speedRelative="0.94" departed="0" arrived="0" entered="31" left="31" laneChangedFrom="0" laneChangedTo="0" flow="1827.53"/>
        <edge id="8/1to9/1" sampledSeconds="1603.41" traveltime="53.01" overlapTraveltime="53.28" density="27.13" overlapDensity="27.27" laneDensity="27.13" occupancy="13.56" waitingTime="0.00" timeLoss="91.07" speed="18.49" speedRelative="0.94" departed="0" arrived="0" entered="31" left="31" laneChangedFrom="0" laneChangedTo="0" flow="1805.43"/>
        <edge id="9/1to10/1" sampledSeconds="1544.78" traveltime="52.98" overlapTraveltime="53.25" density="26.17" overlapDensity="26.27" laneDensity="26.17" occupancy="13.07" waitingTime="0.00" timeLoss="86.91" speed="18.50" speedRelative="0.94" departed="0" arrived="0" entered="31" left="23" laneChangedFrom="0" laneChangedTo="0" flow="1742.51"/>
    </interval>
    <interval begin="480.00" end="540.00" id="dump_60">
        <edge id="1/1to2/1" sampledSeconds="1211.08" traveltime="53.23" overlapTraveltime="53.50" density="20.52" overlapDensity="20.60" laneDensity="20.52" occupancy="10.25" waitingTime="0.00" timeLoss="73.55" speed="18.41" speedRelative="0.94" departed="0" arrived="0" entered="26" left="18" laneChangedFrom="0" laneChangedTo="0" flow="1359.61"/>
        <edge id="10/1to1/1" sampledSeconds="1586.96" traveltime="53.27" overlapTraveltime="53.54" density="26.87" overlapDensity="26.99" laneDensity="26.87" occupancy="13.43" waitingTime="0.00" timeLoss="97.50" speed="18.40" speedRelative="0.94" departed="0" arrived="0" entered="30" left="26" laneChangedFrom="0" laneChangedTo="0" flow="1779.50"/>
        <edge id="2/1to3/1" sampledSeconds="911.00" traveltime="52.79" overlapTraveltime="53.06" density="15.42" overlapDensity="15.49" laneDensity="15.42" occupancy="7.71" waitingTime="0.00" timeLoss="48.18" speed="18.56" speedRelative="0.95" departed="0" arrived="0" entered="18" left="17" laneChangedFrom="0" laneChangedTo="0" flow="1030.23"/>
        <edge id="3/1to4/1" sampledSeconds="895.79" traveltime="52.83" overlapTraveltime="53.10" density="15.16" overlapDensity="15.24" laneDensity="15.16" occupancy="7.58" waitingTime="0.00" timeLoss="48.01" speed="18.55" speedRelative="0.95" departed="0" arrived="0" entered="17" left="17" laneChangedFrom="0" laneChangedTo="0" flow="1012.19"/>
        <edge id="4/1to5/1" sampledSeconds="917.07" traveltime="52.76" overlapTraveltime="53.03" density="15.52" overlapDensity="15.60" laneDensity="15.52" occupancy="7.76" waitingTime="0.00" timeLoss="48.09" speed="18.57" speedRelative="0.95" departed="0" arrived="0" entered="17" left="17" laneChangedFrom="0" laneChangedTo="0" flow="1037.63"/>
        <edge id="5/1to6/1" sampledSeconds="931.19" traveltime="52.80" overlapTraveltime="53.07" density="15.74" overlapDensity="15.84" laneDensity="15.74" occupancy="7.87" waitingTime="0.00" timeLoss="49.38" speed="18.56" speedRelative="0.95" departed="0" arrived="0" entered="17" left="21" laneChangedFrom="0" laneChangedTo="0" flow="1051.81"/>
        <edge id="6/1to7/1" sampledSeconds="1416.16" traveltime="53.14" overlapTraveltime="53.41" density="23.94" overlapDensity="24.09" laneDensity="23.94" occupancy="11.98" waitingTime="0.00" timeLoss="83.69" speed="18.44" speedRelative="0.94" departed="0" arrived="0" entered="21" left="31" laneChangedFrom="0" laneChangedTo="0" flow="1589.57"/>
        <edge id="7/1to8/1" sampledSeconds="1652.91" traveltime="53.15" overlapTraveltime="53.43" density="27.97" overlapDensity="28.11" laneDensity="27.97" occupancy="13.99" waitingTime="0.00" timeLoss="98.22" speed="18.44" speedRelative="0.94" departed="0" arrived="0" entered="31" left="30" laneChangedFrom="0" laneChangedTo="0" flow="1856.55"/>
        <edge id="8/1to9/1" sampledSeconds="1628.10" traveltime="53.37" overlapTraveltime="53.64" density="27.55" overlapDensity="27.69" laneDensity="27.55" occupancy="13.78" waitingTime="0.00" timeLoss="102.85" speed="18.36" speedRelative="0.94" departed="0" arrived="0" entered="30" left="30" laneChangedFrom="0" laneChangedTo="0" flow="1821.23"/>
        <edge id="9/1to10/1" sampledSeconds="1595.05" traveltime="53.02" overlapTraveltime="53.29" density="26.99" overlapDensity="27.13" laneDensity="26.99" occupancy="13.50" waitingTime="0.00" timeLoss="90.94" speed="18.48" speedRelative="0.94" departed="0" arrived="0" entered="30" left="30" laneChangedFrom="0" laneChangedTo="0" flow="1795.86"/>
    </interval>
    <interval begin="540.00" end="600.00" id="dump_60">
        <edge id="1/1to2/1" sampledSeconds="1604.22" traveltime="53.19" overlapTraveltime="53.46" density="27.16" overlapDensity="27.28" laneDensity="27.16" occupancy="13.58" waitingTime="0.00" timeLoss="96.25" speed="18.42" speedRelative="0.94" departed="0" arrived="0" entered="30" left="28" laneChangedFrom="0" laneChangedTo="0" flow="1801.09"/>
        <edge id="10/1to1/1" sampledSeconds="1593.51" traveltime="52.95" overlapTraveltime="53.22" density="26.96" overlapDensity="27.10" laneDensity="26.96" occupancy="13.48" waitingTime="0.00" timeLoss="88.83" speed="18.51" speedRelative="0.94" departed="0" arrived="0" entered="30" left="31" laneChangedFrom="0" laneChangedTo="0" flow="1796.41"/>
        <edge id="2/1to3/1" sampledSeconds="1269.14" traveltime="52.90" overlapTraveltime="53.17" density="21.50" overlapDensity="21.59" laneDensity="21.50" occupancy="10.74" waitingTime="0.00" timeLoss="69.61" speed="18.52" speedRelative="0.95" departed="0" arrived="0" entered="28" left="19" laneChangedFrom="0" laneChangedTo="0" flow="1433.71"/>
        <edge id="3/1to4/1" sampledSeconds="918.25" traveltime="52.70" overlapTraveltime="52.97" density="15.54" overlapDensity="15.62" laneDensity="15.54" occupancy="7.77" waitingTime="0.00" timeLoss="47.05" speed="18.60" speedRelative="0.95" departed="0" arrived="0" entered="19" left="17" laneChangedFrom="0" laneChangedTo="0" flow="1040.31"/>
        <edge id="4/1to5/1" sampledSeconds="899.62" traveltime="52.84" overlapTraveltime="53.11" density="15.22" overlapDensity="15.30" laneDensity="15.22" occupancy="7.61" waitingTime="0.00" timeLoss="48.42" speed="18.55" speedRelative="0.95" departed="0" arrived="0" entered="17" left="17" laneChangedFrom="0" laneChangedTo="0" flow="1016.30"/>
        <edge id="5/1to6/1" sampledSeconds="915.29" traveltime="52.91" overlapTraveltime="53.18" density="15.49" overlapDensity="15.57" laneDensity="15.49" occupancy="7.74" waitingTime="0.00" timeLoss="50.31" speed="18.52" speedRelative="0.95" departed="0" arrived="0" entered="17" left="17" laneChangedFrom="0" laneChangedTo="0" flow="1032.83"/>
        <edge id="6/1to7/1" sampledSeconds="910.81" traveltime="52.81" overlapTraveltime="53.07" density="15.41" overlapDensity="15.49" laneDensity="15.41" occupancy="7.71" waitingTime="0.00" timeLoss="48.41" speed="18.56" speedRelative="0.95" departed="0" arrived="0" entered="17" left="18" laneChangedFrom="0" laneChangedTo="0" flow="1029.43"/>
        <edge id="7/1to8/1" sampledSeconds="1347.55" traveltime="53.04" overlapTraveltime="53.31" density="22.78" overlapDensity="22.92" laneDensity="22.78" occupancy="11.40" waitingTime="0.00" timeLoss="77.29" speed="18.48" speedRelative="0.94" departed="0" arrived="0" entered="18" left="31" laneChangedFrom="0" laneChangedTo="0" flow="1514.91"/>
        <edge id="8/1to9/1" sampledSeconds="1664.54" traveltime="53.35" overlapTraveltime="53.62" density="28.17" overlapDensity="28.31" laneDensity="28.17" occupancy="14.08" waitingTime="0.00" timeLoss="104.60" speed="18.37" speedRelative="0.94" departed="0" arrived="0" entered="31" left="31" laneChangedFrom="0" laneChangedTo="0" flow="1862.55"/>
        <edge id="9/1to10/1" sampledSeconds="1622.38" traveltime="53.04" overlapTraveltime="53.31" density="27.45" overlapDensity="27.59" laneDensity="27.45" occupancy="13.73" waitingTime="0.00" timeLoss="93.14" speed="18.47" speedRelative="0.94" departed="0" arrived="0" entered="31" left="30" laneChangedFrom="0" laneChangedTo="0" flow="1826.02"/>
    </interval>
    <interval begin="600.00" end="660.00" id="dump_60">
        <edge id="1/1to2/1" sampledSeconds="1596.62" traveltime="53.21" overlapTraveltime="53.48" density="27.01" overlapDensity="27.15" laneDensity="27.01" occupancy="13.51" waitingTime="0.00" timeLoss="96.36" speed="18.42" speedRelative="0.94" departed="0" arrived="0" entered="31" left="31" laneChangedFrom="0" laneChangedTo="0" flow="1790.92"/>
        <edge id="10/1to1/1" sampledSeconds="1628.74" traveltime="53.01" overlapTraveltime="53.28" density="27.56" overlapDensity="27.70" laneDensity="27.56" occupancy="13.78" waitingTime="0.00" timeLoss="92.50" speed="18.49" speedRelative="0.94" departed="0" arrived="0" entered="31" left="30" laneChangedFrom="0" laneChangedTo="0" flow="1834.23"/>
        <edge id="2/1to3/1" sampledSeconds="1609.88" traveltime="53.18" overlapTraveltime="53.45" density="27.25" overlapDensity="27.38" laneDensity="27.25" occupancy="13.62" waitingTime="0.00" timeLoss="96.36" speed="18.43" speedRelative="0.94" departed="0" arrived="0" entered="31" left="29" laneChangedFrom="0" laneChangedTo="0" flow="1807.45"/>
        <edge id="3/1to4/1" sampledSeconds="1328.33" traveltime="52.89" overlapTraveltime="53.16" density="22.50" overlapDensity="22.59" laneDensity="22.50" occupancy="11.24" waitingTime="0.00" timeLoss="72.68" speed="18.53" speedRelative="0.95" departed="0" arrived="0" entered="29" left="20" laneChangedFrom="0" laneChangedTo="0" flow="1500.75"/>
        <edge id="4/1to5/1" sampledSeconds="935.84" traveltime="52.70" overlapTraveltime="52.97" density="15.84" overlapDensity="15.92" laneDensity="15.84" occupancy="7.92" waitingTime="0.00" timeLoss="48.08" speed="18.59" speedRelative="0.95" departed="0" arrived="0" entered="20" left="17" laneChangedFrom="0" laneChangedTo="0" flow="1060.17"/>
        <edge id="5/1to6/1" sampledSeconds="899.82" traveltime="52.78" overlapTraveltime="53.04" density="15.23" overlapDensity="15.30" laneDensity="15.23" occupancy="7.61" waitingTime="0.00" timeLoss="47.37" speed="18.57" speedRelative="0.95" departed="0" arrived="0" entered="17" left="17" laneChangedFrom="0" laneChangedTo="0" flow="1017.80"/>
        <edge id="6/1to7/1" sampledSeconds="915.19" traveltime="52.82" overlapTraveltime="53.09" density="15.48" overlapDensity="15.57" laneDensity="15.48" occupancy="7.74" waitingTime="0.00" timeLoss="48.94" speed="18.55" speedRelative="0.95" departed="0" arrived="0" entered="17" left="18" laneChangedFrom="0" laneChangedTo="0" flow="1034.05"/>