<?xml version="1.0" encoding="UTF-8"?>

<!-- generated on Mon Jun 22 17:13:54 2020 by Eclipse SUMO Version v1_6_0+0838-3434c65e73
This data file and the accompanying materials
are made available under the terms of the Eclipse Public License v2.0
which accompanies this distribution, and is available at
http://www.eclipse.org/legal/epl-v20.html
SPDX-License-Identifier: EPL-2.0
<configuration xmlns:xsi="http://www.w3.org/2001/XMLSchema-instance" xsi:noNamespaceSchemaLocation="http://sumo.dlr.de/xsd/sumoConfiguration.xsd">

    <input>
        <net-file value="net.net.xml"/>
        <route-files value="input_routes.rou.xml"/>
        <additional-files value="input_additional.add.xml"/>
    </input>

    <output>
        <write-license value="true"/>
        <tripinfo-output value="tripinfos.xml"/>
        <railsignal-block-output value="railsignal_blocks.xml"/>
    </output>

    <time>
        <end value="200"/>
    </time>

    <processing>
        <default.speeddev value="0"/>
        <pedestrian.model value="nonInteracting"/>
    </processing>

    <report>
        <xml-validation value="never"/>
        <duration-log.disable value="true"/>
        <no-step-log value="true"/>
    </report>

    <mesoscopic>
        <mesosim value="true"/>
    </mesoscopic>

</configuration>
-->

<tripinfos xmlns:xsi="http://www.w3.org/2001/XMLSchema-instance" xsi:noNamespaceSchemaLocation="http://sumo.dlr.de/xsd/tripinfo_file.xsd">
    <tripinfo id="rail1" depart="0.00" departLane="" departPos="0.00" departSpeed="13.89" departDelay="0.00" arrival="51.00" arrivalLane="" arrivalPos="171.44" arrivalSpeed="13.89" duration="51.00" routeLength="702.55" waitingTime="0.00" waitingCount="0" stopTime="0.00" timeLoss="0.00" rerouteNo="0" devices="tripinfo_rail1" vType="rail" speedFactor="1.00" vaporized=""/>
    <tripinfo id="rail3" depart="0.00" departLane="" departPos="0.00" departSpeed="13.89" departDelay="0.00" arrival="62.00" arrivalLane="" arrivalPos="171.44" arrivalSpeed="13.89" duration="62.00" routeLength="719.06" waitingTime="5.46" waitingCount="0" stopTime="0.00" timeLoss="9.88" rerouteNo="0" devices="tripinfo_rail3" vType="rail" speedFactor="1.00" vaporized=""/>
    <tripinfo id="rail2" depart="0.00" departLane="" departPos="0.00" departSpeed="13.89" departDelay="0.00" arrival="73.00" arrivalLane="" arrivalPos="171.44" arrivalSpeed="13.89" duration="73.00" routeLength="724.37" waitingTime="16.14" waitingCount="0" stopTime="0.00" timeLoss="20.56" rerouteNo="0" devices="tripinfo_rail2" vType="rail" speedFactor="1.00" vaporized=""/>
</tripinfos>
