<?xml version="1.0" encoding="UTF-8"?>

<!-- generated on 2022-01-15 15:09:35 by Eclipse SUMO sumo Version v1_11_0+1189-b02151da1c3
This data file and the accompanying materials
are made available under the terms of the Eclipse Public License v2.0
which accompanies this distribution, and is available at
http://www.eclipse.org/legal/epl-v20.html
SPDX-License-Identifier: EPL-2.0
<configuration xmlns:xsi="http://www.w3.org/2001/XMLSchema-instance" xsi:noNamespaceSchemaLocation="http://sumo.dlr.de/xsd/sumoConfiguration.xsd">

    <input>
        <net-file value="net.net.xml"/>
        <route-files value="input_routes.rou.xml"/>
        <additional-files value="input_additional.add.xml,input_additional2.add.xml"/>
    </input>

    <output>
        <write-license value="true"/>
    </output>

    <processing>
        <collision.check-junctions value="true"/>
        <tls.actuated.show-detectors value="true"/>
        <default.speeddev value="0"/>
    </processing>

    <report>
        <xml-validation value="never"/>
        <xml-validation.routes value="never"/>
        <duration-log.disable value="true"/>
        <no-step-log value="true"/>
    </report>

</configuration>
-->

<detector xmlns:xsi="http://www.w3.org/2001/XMLSchema-instance" xsi:noNamespaceSchemaLocation="http://sumo.dlr.de/xsd/det_e2_file.xsd">
   <interval begin="0.00" end="300.00" id="Detector_1" sampledSeconds="222.27" nVehEntered="16" nVehLeft="14" nVehSeen="16" meanSpeed="1.00" meanTimeLoss="12.78" meanOccupancy="31.76" maxOccupancy="73.98" meanMaxJamLengthInVehicles="0.59" meanMaxJamLengthInMeters="2.94" maxJamLengthInVehicles="2" maxJamLengthInMeters="9.90" jamLengthInVehiclesSum="178" jamLengthInMetersSum="880.86" meanHaltingDuration="23.25" maxHaltingDuration="40.00" haltingDurationSum="186.00" meanIntervalHaltingDuration="23.25" maxIntervalHaltingDuration="40.00" intervalHaltingDurationSum="186.00" startedHalts="8.00" meanVehicleNumber="0.78" maxVehicleNumber="2" />
   <interval begin="0.00" end="300.00" id="Detector_6" sampledSeconds="312.60" nVehEntered="34" nVehLeft="32" nVehSeen="34" meanSpeed="1.57" meanTimeLoss="8.02" meanOccupancy="34.81" maxOccupancy="64.98" meanMaxJamLengthInVehicles="0.83" meanMaxJamLengthInMeters="3.74" maxJamLengthInVehicles="2" maxJamLengthInMeters="9.00" jamLengthInVehiclesSum="250" jamLengthInMetersSum="1122.88" meanHaltingDuration="42.67" maxHaltingDuration="64.00" haltingDurationSum="256.00" meanIntervalHaltingDuration="42.67" maxIntervalHaltingDuration="64.00" intervalHaltingDurationSum="256.00" startedHalts="6.00" meanVehicleNumber="1.15" maxVehicleNumber="2" />
   <interval begin="0.00" end="300.00" id="Detector_2" sampledSeconds="285.99" nVehEntered="44" nVehLeft="43" nVehSeen="44" meanSpeed="2.27" meanTimeLoss="5.30" meanOccupancy="32.92" maxOccupancy="64.98" meanMaxJamLengthInVehicles="0.64" meanMaxJamLengthInMeters="2.88" maxJamLengthInVehicles="2" maxJamLengthInMeters="9.00" jamLengthInVehiclesSum="193" jamLengthInMetersSum="865.41" meanHaltingDuration="18.55" maxHaltingDuration="48.00" haltingDurationSum="204.00" meanIntervalHaltingDuration="18.55" maxIntervalHaltingDuration="48.00" intervalHaltingDurationSum="204.00" startedHalts="11.00" meanVehicleNumber="1.09" maxVehicleNumber="2" />
   <interval begin="0.00" end="300.00" id="Detector_5" sampledSeconds="206.46" nVehEntered="10" nVehLeft="8" nVehSeen="10" meanSpeed="0.64" meanTimeLoss="19.60" meanOccupancy="26.82" maxOccupancy="73.98" meanMaxJamLengthInVehicles="0.57" meanMaxJamLengthInMeters="2.81" maxJamLengthInVehicles="2" maxJamLengthInMeters="9.90" jamLengthInVehiclesSum="172" jamLengthInMetersSum="844.43" meanHaltingDuration="22.50" maxHaltingDuration="52.00" haltingDurationSum="180.00" meanIntervalHaltingDuration="22.50" maxIntervalHaltingDuration="52.00" intervalHaltingDurationSum="180.00" startedHalts="8.00" meanVehicleNumber="0.72" maxVehicleNumber="2" />
   <interval begin="0.00" end="300.00" id="Detector_4" sampledSeconds="79.57" nVehEntered="18" nVehLeft="18" nVehSeen="18" meanSpeed="3.27" meanTimeLoss="3.30" meanOccupancy="11.34" maxOccupancy="50.00" meanMaxJamLengthInVehicles="0.01" meanMaxJamLengthInMeters="0.07" maxJamLengthInVehicles="1" maxJamLengthInMeters="5.00" jamLengthInVehiclesSum="4" jamLengthInMetersSum="20.00" meanHaltingDuration="1.22" maxHaltingDuration="2.00" haltingDurationSum="22.00" meanIntervalHaltingDuration="1.22" maxIntervalHaltingDuration="2.00" intervalHaltingDurationSum="22.00" startedHalts="18.00" meanVehicleNumber="0.31" maxVehicleNumber="2" />
   <interval begin="0.00" end="300.00" id="Detector_7" sampledSeconds="0.00" nVehEntered="0" nVehLeft="0" nVehSeen="0" meanSpeed="-1.00" meanTimeLoss="-1.00" meanOccupancy="0.00" maxOccupancy="0.00" meanMaxJamLengthInVehicles="0.00" meanMaxJamLengthInMeters="0.00" maxJamLengthInVehicles="0" maxJamLengthInMeters="0.00" jamLengthInVehiclesSum="0" jamLengthInMetersSum="0.00" meanHaltingDuration="0.00" maxHaltingDuration="0.00" haltingDurationSum="0.00" meanIntervalHaltingDuration="0.00" maxIntervalHaltingDuration="0.00" intervalHaltingDurationSum="0.00" startedHalts="0.00" meanVehicleNumber="0.00" maxVehicleNumber="0" />
   <interval begin="0.00" end="300.00" id="Detector_8" sampledSeconds="339.94" nVehEntered="42" nVehLeft="42" nVehSeen="42" meanSpeed="1.85" meanTimeLoss="6.87" meanOccupancy="38.42" maxOccupancy="64.98" meanMaxJamLengthInVehicles="0.82" meanMaxJamLengthInMeters="3.66" maxJamLengthInVehicles="2" maxJamLengthInMeters="9.00" jamLengthInVehiclesSum="245" jamLengthInMetersSum="1097.38" meanHaltingDuration="21.42" maxHaltingDuration="47.00" haltingDurationSum="257.00" meanIntervalHaltingDuration="21.42" maxIntervalHaltingDuration="47.00" intervalHaltingDurationSum="257.00" startedHalts="12.00" meanVehicleNumber="1.27" maxVehicleNumber="2" />
   <interval begin="0.00" end="300.00" id="Detector_3" sampledSeconds="143.11" nVehEntered="8" nVehLeft="8" nVehSeen="8" meanSpeed="0.84" meanTimeLoss="16.68" meanOccupancy="19.54" maxOccupancy="73.96" meanMaxJamLengthInVehicles="0.39" meanMaxJamLengthInMeters="1.94" maxJamLengthInVehicles="2" maxJamLengthInMeters="9.90" jamLengthInVehiclesSum="118" jamLengthInMetersSum="581.19" meanHaltingDuration="24.60" maxHaltingDuration="64.00" haltingDurationSum="123.00" meanIntervalHaltingDuration="24.60" maxIntervalHaltingDuration="64.00" intervalHaltingDurationSum="123.00" startedHalts="5.00" meanVehicleNumber="0.50" maxVehicleNumber="2" />
   <interval begin="300.00" end="510.00" id="Detector_1" sampledSeconds="169.53" nVehEntered="10" nVehLeft="12" nVehSeen="12" meanSpeed="0.99" meanTimeLoss="12.97" meanOccupancy="30.03" maxOccupancy="73.98" meanMaxJamLengthInVehicles="0.69" meanMaxJamLengthInMeters="3.39" maxJamLengthInVehicles="2" maxJamLengthInMeters="9.90" jamLengthInVehiclesSum="145" jamLengthInMetersSum="712.93" meanHaltingDuration="54.75" maxHaltingDuration="59.00" haltingDurationSum="219.00" meanIntervalHaltingDuration="36.75" maxIntervalHaltingDuration="57.00" intervalHaltingDurationSum="147.00" startedHalts="2.00" meanVehicleNumber="0.85" maxVehicleNumber="2" />
   <interval begin="300.00" end="510.00" id="Detector_6" sampledSeconds="218.64" nVehEntered="23" nVehLeft="25" nVehSeen="25" meanSpeed="1.67" meanTimeLoss="7.53" meanOccupancy="33.97" maxOccupancy="65.00" meanMaxJamLengthInVehicles="0.84" meanMaxJamLengthInMeters="3.78" maxJamLengthInVehicles="2" maxJamLengthInMeters="10.00" jamLengthInVehiclesSum="177" jamLengthInMetersSum="794.71" meanHaltingDuration="62.50" maxHaltingDuration="74.00" haltingDurationSum="250.00" meanIntervalHaltingDuration="44.75" maxIntervalHaltingDuration="51.00" intervalHaltingDurationSum="179.00" startedHalts="2.00" meanVehicleNumber="1.15" maxVehicleNumber="2" />
   <interval begin="300.00" end="510.00" id="Detector_2" sampledSeconds="212.58" nVehEntered="23" nVehLeft="24" nVehSeen="24" meanSpeed="1.67" meanTimeLoss="7.64" meanOccupancy="34.28" maxOccupancy="64.98" meanMaxJamLengthInVehicles="0.80" meanMaxJamLengthInMeters="3.62" maxJamLengthInVehicles="2" maxJamLengthInMeters="9.00" jamLengthInVehiclesSum="169" jamLengthInMetersSum="760.92" meanHaltingDuration="43.25" maxHaltingDuration="54.00" haltingDurationSum="173.00" meanIntervalHaltingDuration="43.25" maxIntervalHaltingDuration="54.00" intervalHaltingDurationSum="173.00" startedHalts="4.00" meanVehicleNumber="1.12" maxVehicleNumber="2" />
   <interval begin="300.00" end="510.00" id="Detector_5" sampledSeconds="126.96" nVehEntered="10" nVehLeft="12" nVehSeen="12" meanSpeed="1.32" meanTimeLoss="9.40" meanOccupancy="22.72" maxOccupancy="73.98" meanMaxJamLengthInVehicles="0.48" meanMaxJamLengthInMeters="2.36" maxJamLengthInVehicles="2" maxJamLengthInMeters="9.90" jamLengthInVehiclesSum="101" jamLengthInMetersSum="495.35" meanHaltingDuration="51.00" maxHaltingDuration="71.00" haltingDurationSum="204.00" meanIntervalHaltingDuration="25.75" maxIntervalHaltingDuration="37.00" intervalHaltingDurationSum="103.00" startedHalts="2.00" meanVehicleNumber="0.66" maxVehicleNumber="2" />
   <interval begin="300.00" end="510.00" id="Detector_4" sampledSeconds="34.38" nVehEntered="7" nVehLeft="7" nVehSeen="7" meanSpeed="2.98" meanTimeLoss="3.77" meanOccupancy="6.74" maxOccupancy="73.98" meanMaxJamLengthInVehicles="0.01" meanMaxJamLengthInMeters="0.06" maxJamLengthInVehicles="1" maxJamLengthInMeters="5.00" jamLengthInVehiclesSum="3" jamLengthInMetersSum="12.40" meanHaltingDuration="1.38" maxHaltingDuration="2.00" haltingDurationSum="11.00" meanIntervalHaltingDuration="1.38" maxIntervalHaltingDuration="2.00" intervalHaltingDurationSum="11.00" startedHalts="8.00" meanVehicleNumber="0.19" maxVehicleNumber="2" />
   <interval begin="300.00" end="510.00" id="Detector_7" sampledSeconds="0.00" nVehEntered="0" nVehLeft="0" nVehSeen="0" meanSpeed="-1.00" meanTimeLoss="-1.00" meanOccupancy="0.00" maxOccupancy="0.00" meanMaxJamLengthInVehicles="0.00" meanMaxJamLengthInMeters="0.00" maxJamLengthInVehicles="0" maxJamLengthInMeters="0.00" jamLengthInVehiclesSum="0" jamLengthInMetersSum="0.00" meanHaltingDuration="0.00" maxHaltingDuration="0.00" haltingDurationSum="0.00" meanIntervalHaltingDuration="0.00" maxIntervalHaltingDuration="0.00" intervalHaltingDurationSum="0.00" startedHalts="0.00" meanVehicleNumber="0.00" maxVehicleNumber="0" />
   <interval begin="300.00" end="510.00" id="Detector_8" sampledSeconds="244.60" nVehEntered="20" nVehLeft="20" nVehSeen="20" meanSpeed="1.23" meanTimeLoss="11.00" meanOccupancy="38.63" maxOccupancy="64.98" meanMaxJamLengthInVehicles="0.95" meanMaxJamLengthInMeters="4.27" maxJamLengthInVehicles="2" maxJamLengthInMeters="9.00" jamLengthInVehiclesSum="200" jamLengthInMetersSum="895.90" meanHaltingDuration="41.00" maxHaltingDuration="60.00" haltingDurationSum="205.00" meanIntervalHaltingDuration="41.00" maxIntervalHaltingDuration="60.00" intervalHaltingDurationSum="205.00" startedHalts="5.00" meanVehicleNumber="1.26" maxVehicleNumber="2" />
   <interval begin="300.00" end="510.00" id="Detector_3" sampledSeconds="123.26" nVehEntered="4" nVehLeft="4" nVehSeen="4" meanSpeed="0.49" meanTimeLoss="29.61" meanOccupancy="19.41" maxOccupancy="64.98" meanMaxJamLengthInVehicles="0.53" meanMaxJamLengthInMeters="2.37" maxJamLengthInVehicles="2" maxJamLengthInMeters="9.00" jamLengthInVehiclesSum="111" jamLengthInMetersSum="498.45" meanHaltingDuration="56.50" maxHaltingDuration="58.00" haltingDurationSum="113.00" meanIntervalHaltingDuration="56.50" maxIntervalHaltingDuration="58.00" intervalHaltingDurationSum="113.00" startedHalts="2.00" meanVehicleNumber="0.60" maxVehicleNumber="2" />
</detector>
