<?xml version="1.0" encoding="UTF-8"?>

<!-- generated on Thu Nov 16 00:10:58 2017 by SUMO Version v0_31_0+1151-53ec744
<?xml version="1.0" encoding="UTF-8"?>

<configuration xmlns:xsi="http://www.w3.org/2001/XMLSchema-instance" xsi:noNamespaceSchemaLocation="http://sumo.dlr.de/xsd/sumoConfiguration.xsd">

    <input>
        <net-file value="motorway.net.xml"/>
        <route-files value="input_routes.rou.xml"/>
        <additional-files value="input_additional.add.xml"/>
    </input>

    <output>
        <lanechange-output value="lanechanges.xml"/>
    </output>

    <report>
        <verbose value="true"/>
        <xml-validation value="never"/>
        <duration-log.statistics value="true"/>
        <no-step-log value="true"/>
    </report>

</configuration>
-->

<meandata xmlns:xsi="http://www.w3.org/2001/XMLSchema-instance" xsi:noNamespaceSchemaLocation="http://sumo.dlr.de/xsd/meandata_file.xsd">
    <interval begin="0.00" end="1017.00" id="laneData">
        <edge id="beg">
            <lane id="beg_0" sampledSeconds="0.00" departed="0" arrived="0" entered="0" left="0" laneChangedFrom="0" laneChangedTo="0"/>
            <lane id="beg_1" sampledSeconds="0.00" departed="0" arrived="0" entered="0" left="0" laneChangedFrom="0" laneChangedTo="0"/>
            <lane id="beg_2" sampledSeconds="0.00" departed="0" arrived="0" entered="0" left="0" laneChangedFrom="0" laneChangedTo="0"/>
        </edge>
        <edge id="beg2">
            <lane id="beg2_0" sampledSeconds="2238.41" traveltime="101.18" overlapTraveltime="102.44" density="0.73" occupancy="0.36" waitingTime="15.00" speed="29.31" departed="355" arrived="0" entered="0" left="266" laneChangedFrom="89" laneChangedTo="0"/>
            <lane id="beg2_1" sampledSeconds="2185.84" traveltime="87.73" overlapTraveltime="87.94" density="0.72" occupancy="0.35" waitingTime="0.00" speed="34.14" departed="329" arrived="0" entered="0" left="418" laneChangedFrom="0" laneChangedTo="89"/>
        </edge>
        <edge id="end">
            <lane id="end_0" sampledSeconds="3964.38" traveltime="8.66" overlapTraveltime="8.83" density="19.79" occupancy="9.60" waitingTime="0.00" speed="22.88" departed="0" arrived="450" entered="450" left="0" laneChangedFrom="0" laneChangedTo="0"/>
            <lane id="end_1" sampledSeconds="2729.12" traveltime="5.97" overlapTraveltime="6.12" density="13.62" occupancy="6.65" waitingTime="0.00" speed="33.03" departed="0" arrived="447" entered="447" left="0" laneChangedFrom="0" laneChangedTo="0"/>
        </edge>
        <edge id="end2">
            <lane id="end2_0" sampledSeconds="0.00" departed="0" arrived="0" entered="0" left="0" laneChangedFrom="0" laneChangedTo="0"/>
        </edge>
        <edge id="end3">
            <lane id="end3_0" sampledSeconds="0.00" departed="0" arrived="0" entered="0" left="0" laneChangedFrom="0" laneChangedTo="0"/>
        </edge>
        <edge id="merge">
            <lane id="merge_0" sampledSeconds="1627.55" traveltime="10.91" overlapTraveltime="11.47" density="16.50" occupancy="8.11" waitingTime="290.00" speed="8.89" departed="0" arrived="0" entered="213" left="0" laneChangedFrom="213" laneChangedTo="0"/>
            <lane id="merge_1" sampledSeconds="2562.80" traveltime="7.57" overlapTraveltime="8.00" density="25.98" occupancy="12.34" waitingTime="109.00" speed="12.75" departed="0" arrived="0" entered="266" left="450" laneChangedFrom="29" laneChangedTo="213"/>
            <lane id="merge_2" sampledSeconds="1374.80" traveltime="3.00" overlapTraveltime="3.16" density="13.94" occupancy="6.63" waitingTime="0.00" speed="32.27" departed="0" arrived="0" entered="418" left="447" laneChangedFrom="0" laneChangedTo="29"/>
        </edge>
        <edge id="offRamp">
            <lane id="offRamp_0" sampledSeconds="0.00" departed="0" arrived="0" entered="0" left="0" laneChangedFrom="0" laneChangedTo="0"/>
        </edge>
        <edge id="onRamp">
            <lane id="onRamp_0" sampledSeconds="2065.09" traveltime="9.61" overlapTraveltime="9.86" density="6.72" occupancy="3.32" waitingTime="2.00" speed="31.16" departed="213" arrived="0" entered="0" left="213" laneChangedFrom="0" laneChangedTo="0"/>
        </edge>
    </interval>
</meandata>
