<?xml version="1.0" encoding="UTF-8"?>

<!-- generated on Tue May 31 12:55:38 2016 by SUMO Version dev-SVN-r20823
<?xml version="1.0" encoding="UTF-8"?>

<configuration xmlns:xsi="http://www.w3.org/2001/XMLSchema-instance" xsi:noNamespaceSchemaLocation="http://sumo.dlr.de/xsd/sumoConfiguration.xsd">

    <input>
        <net-file value="net.net.xml"/>
        <route-files value="input_routes.rou.xml"/>
        <additional-files value="input_additional.add.xml"/>
    </input>

    <time>
        <begin value="0"/>
        <end value="10000"/>
    </time>

    <report>
        <xml-validation value="never"/>
        <duration-log.disable value="true"/>
        <no-step-log value="true"/>
    </report>

    <mesoscopic>
        <mesosim value="true"/>
        <meso-taujf value="2.7"/>
    </mesoscopic>

</configuration>
-->

<meandata xmlns:xsi="http://www.w3.org/2001/XMLSchema-instance" xsi:noNamespaceSchemaLocation="http://sumo.dlr.de/xsd/meandata_file.xsd">
    <interval begin="0.00" end="60.00" id="dump_60">
        <edge id="1/1to2/1" sampledSeconds="1243.16" traveltime="53.04" density="21.14" occupancy="10.57" waitingTime="0.00" speed="18.48" departed="42" arrived="0" entered="0" left="7" laneChangedFrom="0" laneChangedTo="0"/>
        <edge id="2/1to3/1" sampledSeconds="31.84" traveltime="49.99" density="0.54" occupancy="0.27" waitingTime="0.00" speed="19.60" departed="0" arrived="0" entered="7" left="0" laneChangedFrom="0" laneChangedTo="0"/>
    </interval>
    <interval begin="60.00" end="120.00" id="dump_60">
        <edge id="1/1to2/1" sampledSeconds="2094.82" traveltime="51.92" density="35.63" occupancy="17.81" waitingTime="0.00" speed="18.87" departed="40" arrived="0" entered="0" left="40" laneChangedFrom="0" laneChangedTo="0"/>
        <edge id="2/1to3/1" sampledSeconds="1472.91" traveltime="49.99" density="25.05" occupancy="12.53" waitingTime="0.00" speed="19.60" departed="0" arrived="0" entered="40" left="13" laneChangedFrom="0" laneChangedTo="0"/>
        <edge id="3/1to4/1" sampledSeconds="131.27" traveltime="49.99" density="2.23" occupancy="1.12" waitingTime="0.00" speed="19.60" departed="0" arrived="0" entered="13" left="0" laneChangedFrom="0" laneChangedTo="0"/>
    </interval>
    <interval begin="120.00" end="180.00" id="dump_60">
        <edge id="1/1to2/1" sampledSeconds="2095.02" traveltime="51.92" density="35.63" occupancy="17.82" waitingTime="0.00" speed="18.87" departed="41" arrived="0" entered="0" left="40" laneChangedFrom="0" laneChangedTo="0"/>
        <edge id="2/1to3/1" sampledSeconds="2017.07" traveltime="49.99" density="34.31" occupancy="17.15" waitingTime="0.00" speed="19.60" departed="0" arrived="0" entered="40" left="41" laneChangedFrom="0" laneChangedTo="0"/>
        <edge id="3/1to4/1" sampledSeconds="1709.84" traveltime="49.99" density="29.08" occupancy="14.54" waitingTime="0.00" speed="19.60" departed="0" arrived="0" entered="41" left="20" laneChangedFrom="0" laneChangedTo="0"/>
        <edge id="4/1to5/1" sampledSeconds="298.07" traveltime="49.99" density="5.07" occupancy="2.53" waitingTime="0.00" speed="19.60" departed="0" arrived="0" entered="20" left="0" laneChangedFrom="0" laneChangedTo="0"/>
    </interval>
    <interval begin="180.00" end="240.00" id="dump_60">
        <edge id="1/1to2/1" sampledSeconds="2096.06" traveltime="51.93" density="35.65" occupancy="17.82" waitingTime="0.00" speed="18.87" departed="40" arrived="0" entered="0" left="41" laneChangedFrom="0" laneChangedTo="0"/>
        <edge id="2/1to3/1" sampledSeconds="2016.92" traveltime="49.99" density="34.30" occupancy="17.15" waitingTime="0.00" speed="19.60" departed="0" arrived="0" entered="41" left="40" laneChangedFrom="0" laneChangedTo="0"/>
        <edge id="3/1to4/1" sampledSeconds="2017.28" traveltime="49.99" density="34.31" occupancy="17.15" waitingTime="0.00" speed="19.60" departed="0" arrived="0" entered="40" left="40" laneChangedFrom="0" laneChangedTo="0"/>
        <edge id="4/1to5/1" sampledSeconds="1879.60" traveltime="49.99" density="31.97" occupancy="15.98" waitingTime="0.00" speed="19.60" departed="0" arrived="0" entered="40" left="27" laneChangedFrom="0" laneChangedTo="0"/>
        <edge id="5/1to6/1" sampledSeconds="532.14" traveltime="49.99" density="9.05" occupancy="4.53" waitingTime="0.00" speed="19.60" departed="0" arrived="0" entered="27" left="0" laneChangedFrom="0" laneChangedTo="0"/>
    </interval>
    <interval begin="240.00" end="300.00" id="dump_60">
        <edge id="1/1to2/1" sampledSeconds="2095.90" traveltime="51.93" density="35.65" occupancy="17.82" waitingTime="0.00" speed="18.87" departed="40" arrived="0" entered="0" left="40" laneChangedFrom="0" laneChangedTo="0"/>
        <edge id="2/1to3/1" sampledSeconds="2017.28" traveltime="49.99" density="34.31" occupancy="17.15" waitingTime="0.00" speed="19.60" departed="0" arrived="0" entered="40" left="40" laneChangedFrom="0" laneChangedTo="0"/>
        <edge id="3/1to4/1" sampledSeconds="2016.95" traveltime="49.99" density="34.30" occupancy="17.15" waitingTime="0.00" speed="19.60" departed="0" arrived="0" entered="40" left="41" laneChangedFrom="0" laneChangedTo="0"/>
        <edge id="4/1to5/1" sampledSeconds="2017.09" traveltime="49.99" density="34.31" occupancy="17.15" waitingTime="0.00" speed="19.60" departed="0" arrived="0" entered="41" left="40" laneChangedFrom="0" laneChangedTo="0"/>
        <edge id="5/1to6/1" sampledSeconds="1982.27" traveltime="49.99" density="33.71" occupancy="16.86" waitingTime="0.00" speed="19.60" departed="0" arrived="0" entered="40" left="33" laneChangedFrom="0" laneChangedTo="0"/>
        <edge id="6/1to7/1" sampledSeconds="833.51" traveltime="49.99" density="14.18" occupancy="7.09" waitingTime="0.00" speed="19.60" departed="0" arrived="0" entered="33" left="0" laneChangedFrom="0" laneChangedTo="0"/>
    </interval>
    <interval begin="300.00" end="360.00" id="dump_60">
        <edge id="1/1to2/1" sampledSeconds="2095.10" traveltime="51.94" density="35.63" occupancy="17.82" waitingTime="0.00" speed="18.87" departed="41" arrived="0" entered="0" left="40" laneChangedFrom="0" laneChangedTo="0"/>
        <edge id="2/1to3/1" sampledSeconds="2017.00" traveltime="49.99" density="34.30" occupancy="17.15" waitingTime="0.00" speed="19.60" departed="0" arrived="0" entered="40" left="41" laneChangedFrom="0" laneChangedTo="0"/>
        <edge id="3/1to4/1" sampledSeconds="2017.04" traveltime="49.99" density="34.31" occupancy="17.15" waitingTime="0.00" speed="19.60" departed="0" arrived="0" entered="41" left="40" laneChangedFrom="0" laneChangedTo="0"/>
        <edge id="4/1to5/1" sampledSeconds="2017.28" traveltime="49.99" density="34.31" occupancy="17.15" waitingTime="0.00" speed="19.60" departed="0" arrived="0" entered="40" left="40" laneChangedFrom="0" laneChangedTo="0"/>
        <edge id="5/1to6/1" sampledSeconds="2016.78" traveltime="49.99" density="34.30" occupancy="17.15" waitingTime="0.00" speed="19.60" departed="0" arrived="0" entered="40" left="41" laneChangedFrom="0" laneChangedTo="0"/>
        <edge id="6/1to7/1" sampledSeconds="2017.26" traveltime="49.99" density="34.31" occupancy="17.15" waitingTime="0.00" speed="19.60" departed="0" arrived="0" entered="41" left="40" laneChangedFrom="0" laneChangedTo="0"/>
        <edge id="7/1to8/1" sampledSeconds="1170.28" traveltime="49.99" density="19.90" occupancy="9.95" waitingTime="0.00" speed="19.60" departed="0" arrived="0" entered="40" left="7" laneChangedFrom="0" laneChangedTo="0"/>
        <edge id="8/1to9/1" sampledSeconds="32.26" traveltime="49.99" density="0.55" occupancy="0.27" waitingTime="0.00" speed="19.60" departed="0" arrived="0" entered="7" left="0" laneChangedFrom="0" laneChangedTo="0"/>
    </interval>
    <interval begin="360.00" end="420.00" id="dump_60">
        <edge id="1/1to2/1" sampledSeconds="2095.07" traveltime="51.92" density="35.63" occupancy="17.82" waitingTime="0.00" speed="18.87" departed="40" arrived="0" entered="0" left="41" laneChangedFrom="0" laneChangedTo="0"/>
        <edge id="2/1to3/1" sampledSeconds="2016.99" traveltime="49.99" density="34.30" occupancy="17.15" waitingTime="0.00" speed="19.60" departed="0" arrived="0" entered="41" left="40" laneChangedFrom="0" laneChangedTo="0"/>
        <edge id="3/1to4/1" sampledSeconds="2017.28" traveltime="49.99" density="34.31" occupancy="17.15" waitingTime="0.00" speed="19.60" departed="0" arrived="0" entered="40" left="40" laneChangedFrom="0" laneChangedTo="0"/>
        <edge id="4/1to5/1" sampledSeconds="2016.83" traveltime="49.99" density="34.30" occupancy="17.15" waitingTime="0.00" speed="19.60" departed="0" arrived="0" entered="40" left="41" laneChangedFrom="0" laneChangedTo="0"/>
        <edge id="5/1to6/1" sampledSeconds="2017.21" traveltime="49.99" density="34.31" occupancy="17.15" waitingTime="0.00" speed="19.60" departed="0" arrived="0" entered="41" left="40" laneChangedFrom="0" laneChangedTo="0"/>
        <edge id="6/1to7/1" sampledSeconds="2017.18" traveltime="49.99" density="34.31" occupancy="17.15" waitingTime="0.00" speed="19.60" departed="0" arrived="0" entered="40" left="41" laneChangedFrom="0" laneChangedTo="0"/>
        <edge id="7/1to8/1" sampledSeconds="2016.86" traveltime="49.99" density="34.30" occupancy="17.15" waitingTime="0.00" speed="19.60" departed="0" arrived="0" entered="41" left="40" laneChangedFrom="0" laneChangedTo="0"/>
        <edge id="8/1to9/1" sampledSeconds="1474.53" traveltime="49.99" density="25.08" occupancy="12.54" waitingTime="0.00" speed="19.60" departed="0" arrived="0" entered="40" left="13" laneChangedFrom="0" laneChangedTo="0"/>
        <edge id="9/1to10/1" sampledSeconds="132.05" traveltime="49.99" density="2.25" occupancy="1.12" waitingTime="0.00" speed="19.60" departed="0" arrived="0" entered="13" left="0" laneChangedFrom="0" laneChangedTo="0"/>
    </interval>
    <interval begin="420.00" end="480.00" id="dump_60">
        <edge id="1/1to2/1" sampledSeconds="2095.98" traveltime="51.94" density="35.65" occupancy="17.82" waitingTime="0.00" speed="18.87" departed="40" arrived="0" entered="0" left="40" laneChangedFrom="0" laneChangedTo="0"/>
        <edge id="10/1to1/1" sampledSeconds="299.27" traveltime="49.99" density="5.09" occupancy="2.54" waitingTime="0.00" speed="19.60" departed="0" arrived="0" entered="20" left="0" laneChangedFrom="0" laneChangedTo="0"/>
        <edge id="2/1to3/1" sampledSeconds="2017.28" traveltime="49.99" density="34.31" occupancy="17.15" waitingTime="0.00" speed="19.60" departed="0" arrived="0" entered="40" left="40" laneChangedFrom="0" laneChangedTo="0"/>
        <edge id="3/1to4/1" sampledSeconds="2016.88" traveltime="49.99" density="34.30" occupancy="17.15" waitingTime="0.00" speed="19.60" departed="0" arrived="0" entered="40" left="41" laneChangedFrom="0" laneChangedTo="0"/>
        <edge id="4/1to5/1" sampledSeconds="2017.16" traveltime="49.99" density="34.31" occupancy="17.15" waitingTime="0.00" speed="19.60" departed="0" arrived="0" entered="41" left="40" laneChangedFrom="0" laneChangedTo="0"/>
        <edge id="5/1to6/1" sampledSeconds="2017.23" traveltime="49.99" density="34.31" occupancy="17.15" waitingTime="0.00" speed="19.60" departed="0" arrived="0" entered="40" left="41" laneChangedFrom="0" laneChangedTo="0"/>
        <edge id="6/1to7/1" sampledSeconds="2016.81" traveltime="49.99" density="34.30" occupancy="17.15" waitingTime="0.00" speed="19.60" departed="0" arrived="0" entered="41" left="40" laneChangedFrom="0" laneChangedTo="0"/>
        <edge id="7/1to8/1" sampledSeconds="2017.28" traveltime="49.99" density="34.31" occupancy="17.15" waitingTime="0.00" speed="19.60" departed="0" arrived="0" entered="40" left="40" laneChangedFrom="0" laneChangedTo="0"/>
        <edge id="8/1to9/1" sampledSeconds="2017.01" traveltime="49.99" density="34.31" occupancy="17.15" waitingTime="0.00" speed="19.60" departed="0" arrived="0" entered="40" left="41" laneChangedFrom="0" laneChangedTo="0"/>
        <edge id="9/1to10/1" sampledSeconds="1711.10" traveltime="49.99" density="29.10" occupancy="14.55" waitingTime="0.00" speed="19.60" departed="0" arrived="0" entered="41" left="20" laneChangedFrom="0" laneChangedTo="0"/>
    </interval>
    <interval begin="480.00" end="540.00" id="dump_60">
        <edge id="1/1to2/1" sampledSeconds="2174.92" traveltime="61.85" density="36.99" occupancy="18.50" waitingTime="0.00" speed="15.84" departed="27" arrived="0" entered="10" left="40" laneChangedFrom="0" laneChangedTo="0"/>
        <edge id="10/1to1/1" sampledSeconds="2120.40" traveltime="59.01" density="36.06" occupancy="18.03" waitingTime="0.00" speed="16.61" departed="0" arrived="0" entered="40" left="10" laneChangedFrom="0" laneChangedTo="0"/>
        <edge id="2/1to3/1" sampledSeconds="2016.93" traveltime="49.99" density="34.30" occupancy="17.15" waitingTime="0.00" speed="19.60" departed="0" arrived="0" entered="40" left="41" laneChangedFrom="0" laneChangedTo="0"/>
        <edge id="3/1to4/1" sampledSeconds="2017.12" traveltime="49.99" density="34.31" occupancy="17.15" waitingTime="0.00" speed="19.60" departed="0" arrived="0" entered="41" left="40" laneChangedFrom="0" laneChangedTo="0"/>
        <edge id="4/1to5/1" sampledSeconds="2017.28" traveltime="49.99" density="34.31" occupancy="17.15" waitingTime="0.00" speed="19.60" departed="0" arrived="0" entered="40" left="41" laneChangedFrom="0" laneChangedTo="0"/>
        <edge id="5/1to6/1" sampledSeconds="2016.76" traveltime="49.99" density="34.30" occupancy="17.15" waitingTime="0.00" speed="19.60" departed="0" arrived="0" entered="41" left="40" laneChangedFrom="0" laneChangedTo="0"/>
        <edge id="6/1to7/1" sampledSeconds="2017.28" traveltime="49.99" density="34.31" occupancy="17.15" waitingTime="0.00" speed="19.60" departed="0" arrived="0" entered="40" left="40" laneChangedFrom="0" laneChangedTo="0"/>
        <edge id="7/1to8/1" sampledSeconds="2017.06" traveltime="49.99" density="34.31" occupancy="17.15" waitingTime="0.00" speed="19.60" departed="0" arrived="0" entered="40" left="41" laneChangedFrom="0" laneChangedTo="0"/>
        <edge id="8/1to9/1" sampledSeconds="2016.98" traveltime="49.99" density="34.30" occupancy="17.15" waitingTime="0.00" speed="19.60" departed="0" arrived="0" entered="41" left="40" laneChangedFrom="0" laneChangedTo="0"/>
        <edge id="9/1to10/1" sampledSeconds="2017.28" traveltime="49.99" density="34.31" occupancy="17.15" waitingTime="0.00" speed="19.60" departed="0" arrived="0" entered="40" left="40" laneChangedFrom="0" laneChangedTo="0"/>
    </interval>
    <interval begin="540.00" end="600.00" id="dump_60">
        <edge id="1/1to2/1" sampledSeconds="1775.59" traveltime="79.46" density="30.20" occupancy="15.10" waitingTime="0.00" speed="12.33" departed="19" arrived="0" entered="3" left="24" laneChangedFrom="0" laneChangedTo="0"/>
        <edge id="10/1to1/1" sampledSeconds="4138.74" traveltime="143.89" density="70.39" occupancy="35.20" waitingTime="0.00" speed="6.81" departed="0" arrived="0" entered="41" left="3" laneChangedFrom="0" laneChangedTo="0"/>
        <edge id="2/1to3/1" sampledSeconds="1581.23" traveltime="49.99" density="26.89" occupancy="13.45" waitingTime="0.00" speed="19.60" departed="0" arrived="0" entered="24" left="39" laneChangedFrom="0" laneChangedTo="0"/>
        <edge id="3/1to4/1" sampledSeconds="2015.19" traveltime="49.99" density="34.27" occupancy="17.14" waitingTime="0.00" speed="19.60" departed="0" arrived="0" entered="39" left="40" laneChangedFrom="0" laneChangedTo="0"/>
        <edge id="4/1to5/1" sampledSeconds="2016.76" traveltime="49.99" density="34.30" occupancy="17.15" waitingTime="0.00" speed="19.60" departed="0" arrived="0" entered="40" left="40" laneChangedFrom="0" laneChangedTo="0"/>
        <edge id="5/1to6/1" sampledSeconds="2017.28" traveltime="49.99" density="34.31" occupancy="17.15" waitingTime="0.00" speed="19.60" departed="0" arrived="0" entered="40" left="40" laneChangedFrom="0" laneChangedTo="0"/>
        <edge id="6/1to7/1" sampledSeconds="2017.11" traveltime="49.99" density="34.31" occupancy="17.15" waitingTime="0.00" speed="19.60" departed="0" arrived="0" entered="40" left="41" laneChangedFrom="0" laneChangedTo="0"/>
        <edge id="7/1to8/1" sampledSeconds="2016.93" traveltime="49.99" density="34.30" occupancy="17.15" waitingTime="0.00" speed="19.60" departed="0" arrived="0" entered="41" left="40" laneChangedFrom="0" laneChangedTo="0"/>
        <edge id="8/1to9/1" sampledSeconds="2017.28" traveltime="49.99" density="34.31" occupancy="17.15" waitingTime="0.00" speed="19.60" departed="0" arrived="0" entered="40" left="40" laneChangedFrom="0" laneChangedTo="0"/>
        <edge id="9/1to10/1" sampledSeconds="2016.89" traveltime="49.99" density="34.30" occupancy="17.15" waitingTime="0.00" speed="19.60" departed="0" arrived="0" entered="40" left="41" laneChangedFrom="0" laneChangedTo="0"/>
    </interval>
    <interval begin="600.00" end="660.00" id="dump_60">
        <edge id="1/1to2/1" sampledSeconds="1770.89" traveltime="79.67" density="30.12" occupancy="15.06" waitingTime="0.00" speed="12.30" departed="18" arrived="0" entered="4" left="23" laneChangedFrom="0" laneChangedTo="0"/>
        <edge id="10/1to1/1" sampledSeconds="6338.18" traveltime="447.51" density="107.80" occupancy="53.90" waitingTime="280.78" speed="2.19" departed="0" arrived="0" entered="40" left="4" laneChangedFrom="0" laneChangedTo="0"/>
        <edge id="2/1to3/1" sampledSeconds="1111.02" traveltime="49.99" density="18.90" occupancy="9.45" waitingTime="0.00" speed="19.60" departed="0" arrived="0" entered="23" left="22" laneChangedFrom="0" laneChangedTo="0"/>
        <edge id="3/1to4/1" sampledSeconds="1432.34" traveltime="49.99" density="24.36" occupancy="12.18" waitingTime="0.00" speed="19.60" departed="0" arrived="0" entered="22" left="37" laneChangedFrom="0" laneChangedTo="0"/>
        <edge id="4/1to5/1" sampledSeconds="1988.22" traveltime="49.99" density="33.82" occupancy="16.91" waitingTime="0.00" speed="19.60" departed="0" arrived="0" entered="37" left="40" laneChangedFrom="0" laneChangedTo="0"/>
        <edge id="5/1to6/1" sampledSeconds="2017.16" traveltime="49.99" density="34.31" occupancy="17.15" waitingTime="0.00" speed="19.60" departed="0" arrived="0" entered="40" left="41" laneChangedFrom="0" laneChangedTo="0"/>
        <edge id="6/1to7/1" sampledSeconds="2016.89" traveltime="49.99" density="34.30" occupancy="17.15" waitingTime="0.00" speed="19.60" departed="0" arrived="0" entered="41" left="40" laneChangedFrom="0" laneChangedTo="0"/>
        <edge id="7/1to8/1" sampledSeconds="2017.28" traveltime="49.99" density="34.31" occupancy="17.15" waitingTime="0.00" speed="19.60" departed="0" arrived="0" entered="40" left="40" laneChangedFrom="0" laneChangedTo="0"/>
        <edge id="8/1to9/1" sampledSeconds="2016.94" traveltime="49.99" density="34.30" occupancy="17.15" waitingTime="0.00" speed="19.60" departed="0" arrived="0" entered="40" left="41" laneChangedFrom="0" laneChangedTo="0"/>
        <edge id="9/1to10/1" sampledSeconds="2017.10" traveltime="49.99" density="34.31" occupancy="17.15" waitingTime="0.00" speed="19.60" departed="0" arrived="0" entered="41" left="40" laneChangedFrom="0" laneChangedTo="0"/>
    </interval>
    <interval begin="660.00" end="720.00" id="dump_60">
        <edge id="1/1to2/1" sampledSeconds="1769.50" traveltime="79.78" density="30.10" occupancy="15.05" waitingTime="0.00" speed="12.28" departed="19" arrived="0" entered="4" left="22" laneChangedFrom="0" laneChangedTo="0"/>
        <edge id="10/1to1/1" sampledSeconds="7773.27" traveltime="1769.26" density="132.21" occupancy="66.10" waitingTime="1714.24" speed="0.55" departed="0" arrived="0" entered="10" left="4" laneChangedFrom="0" laneChangedTo="0"/>
        <edge id="2/1to3/1" sampledSeconds="1111.18" traveltime="49.99" density="18.90" occupancy="9.45" waitingTime="0.00" speed="19.60" departed="0" arrived="0" entered="22" left="22" laneChangedFrom="0" laneChangedTo="0"/>
        <edge id="3/1to4/1" sampledSeconds="1110.58" traveltime="49.99" density="18.89" occupancy="9.44" waitingTime="0.00" speed="19.60" departed="0" arrived="0" entered="22" left="22" laneChangedFrom="0" laneChangedTo="0"/>
        <edge id="4/1to5/1" sampledSeconds="1308.22" traveltime="49.99" density="22.25" occupancy="11.13" waitingTime="0.00" speed="19.60" departed="0" arrived="0" entered="22" left="33" laneChangedFrom="0" laneChangedTo="0"/>
        <edge id="5/1to6/1" sampledSeconds="1930.92" traveltime="49.99" density="32.84" occupancy="16.42" waitingTime="0.00" speed="19.60" departed="0" arrived="0" entered="33" left="40" laneChangedFrom="0" laneChangedTo="0"/>
        <edge id="6/1to7/1" sampledSeconds="2017.28" traveltime="49.99" density="34.31" occupancy="17.15" waitingTime="0.00" speed="19.60" departed="0" arrived="0" entered="40" left="40" laneChangedFrom="0" laneChangedTo="0"/>
        <edge id="7/1to8/1" sampledSeconds="2016.99" traveltime="49.99" density="34.30" occupancy="17.15" waitingTime="0.00" speed="19.60" departed="0" arrived="0" entered="40" left="41" laneChangedFrom="0" laneChangedTo="0"/>
        <edge id="8/1to9/1" sampledSeconds="2017.05" traveltime="49.99" density="34.31" occupancy="17.15" waitingTime="0.00" speed="19.60" departed="0" arrived="0" entered="41" left="40" laneChangedFrom="0" laneChangedTo="0"/>
        <edge id="9/1to10/1" sampledSeconds="2798.01" traveltime="79.14" density="47.59" occupancy="23.79" waitingTime="0.00" speed="12.38" departed="0" arrived="0" entered="40" left="10" laneChangedFrom="0" laneChangedTo="0"/>
    </interval>
    <interval begin="720.00" end="780.00" id="dump_60">
        <edge id="1/1to2/1" sampledSeconds="1771.15" traveltime="79.65" density="30.12" occupancy="15.06" waitingTime="0.00" speed="12.30" departed="19" arrived="0" entered="3" left="22" laneChangedFrom="0" laneChangedTo="0"/>
        <edge id="10/1to1/1" sampledSeconds="7799.97" traveltime="1751.72" density="132.66" occupancy="66.33" waitingTime="1674.09" speed="0.56" departed="0" arrived="0" entered="3" left="3" laneChangedFrom="0" laneChangedTo="0"/>
        <edge id="2/1to3/1" sampledSeconds="1110.93" traveltime="49.99" density="18.89" occupancy="9.45" waitingTime="0.00" speed="19.60" departed="0" arrived="0" entered="22" left="23" laneChangedFrom="0" laneChangedTo="0"/>
        <edge id="3/1to4/1" sampledSeconds="1110.83" traveltime="49.99" density="18.89" occupancy="9.45" waitingTime="0.00" speed="19.60" departed="0" arrived="0" entered="23" left="22" laneChangedFrom="0" laneChangedTo="0"/>
        <edge id="4/1to5/1" sampledSeconds="1111.01" traveltime="49.99" density="18.90" occupancy="9.45" waitingTime="0.00" speed="19.60" departed="0" arrived="0" entered="22" left="23" laneChangedFrom="0" laneChangedTo="0"/>
        <edge id="5/1to6/1" sampledSeconds="1213.71" traveltime="49.99" density="20.64" occupancy="10.32" waitingTime="0.00" speed="19.60" departed="0" arrived="0" entered="23" left="30" laneChangedFrom="0" laneChangedTo="0"/>
        <edge id="6/1to7/1" sampledSeconds="1843.86" traveltime="49.99" density="31.36" occupancy="15.68" waitingTime="0.00" speed="19.60" departed="0" arrived="0" entered="30" left="41" laneChangedFrom="0" laneChangedTo="0"/>
        <edge id="7/1to8/1" sampledSeconds="2017.01" traveltime="49.99" density="34.30" occupancy="17.15" waitingTime="0.00" speed="19.60" departed="0" arrived="0" entered="41" left="40" laneChangedFrom="0" laneChangedTo="0"/>
        <edge id="8/1to9/1" sampledSeconds="2017.28" traveltime="49.99" density="34.31" occupancy="17.15" waitingTime="0.00" speed="19.60" departed="0" arrived="0" entered="40" left="40" laneChangedFrom="0" laneChangedTo="0"/>
        <edge id="9/1to10/1" sampledSeconds="4972.26" traveltime="210.26" density="84.57" occupancy="42.28" waitingTime="0.00" speed="4.66" departed="0" arrived="0" entered="40" left="3" laneChangedFrom="0" laneChangedTo="0"/>
    </interval>
    <interval begin="780.00" end="840.00" id="dump_60">
        <edge id="1/1to2/1" sampledSeconds="1771.17" traveltime="79.63" density="30.12" occupancy="15.06" waitingTime="0.00" speed="12.31" departed="18" arrived="0" entered="4" left="22" laneChangedFrom="0" laneChangedTo="0"/>
        <edge id="10/1to1/1" sampledSeconds="7799.96" traveltime="2538.77" density="132.66" occupancy="66.33" waitingTime="3654.38" speed="0.39" departed="0" arrived="0" entered="4" left="4" laneChangedFrom="0" laneChangedTo="0"/>
        <edge id="2/1to3/1" sampledSeconds="1110.58" traveltime="49.99" density="18.89" occupancy="9.44" waitingTime="0.00" speed="19.60" departed="0" arrived="0" entered="22" left="22" laneChangedFrom="0" laneChangedTo="0"/>
        <edge id="3/1to4/1" sampledSeconds="1111.18" traveltime="49.99" density="18.90" occupancy="9.45" waitingTime="0.00" speed="19.60" departed="0" arrived="0" entered="22" left="22" laneChangedFrom="0" laneChangedTo="0"/>
        <edge id="4/1to5/1" sampledSeconds="1110.58" traveltime="49.99" density="18.89" occupancy="9.44" waitingTime="0.00" speed="19.60" departed="0" arrived="0" entered="22" left="22" laneChangedFrom="0" laneChangedTo="0"/>
        <edge id="5/1to6/1" sampledSeconds="1111.18" traveltime="49.99" density="18.90" occupancy="9.45" waitingTime="0.00" speed="19.60" departed="0" arrived="0" entered="22" left="22" laneChangedFrom="0" laneChangedTo="0"/>
        <edge id="6/1to7/1" sampledSeconds="1149.85" traveltime="49.99" density="19.56" occupancy="9.78" waitingTime="0.00" speed="19.60" departed="0" arrived="0" entered="22" left="27" laneChangedFrom="0" laneChangedTo="0"/>
        <edge id="7/1to8/1" sampledSeconds="1726.37" traveltime="49.99" density="29.36" occupancy="14.68" waitingTime="0.00" speed="19.60" departed="0" arrived="0" entered="27" left="40" laneChangedFrom="0" laneChangedTo="0"/>
        <edge id="8/1to9/1" sampledSeconds="2072.82" traveltime="52.20" density="35.25" occupancy="17.63" waitingTime="0.00" speed="18.77" departed="0" arrived="0" entered="40" left="33" laneChangedFrom="0" laneChangedTo="0"/>
        <edge id="9/1to10/1" sampledSeconds="7127.31" traveltime="813.93" density="121.22" occupancy="60.61" waitingTime="517.17" speed="1.20" departed="0" arrived="0" entered="33" left="4" laneChangedFrom="0" laneChangedTo="0"/>
    </interval>
    <interval begin="840.00" end="900.00" id="dump_60">
        <edge id="1/1to2/1" sampledSeconds="1770.30" traveltime="79.64" density="30.11" occupancy="15.05" waitingTime="0.00" speed="12.30" departed="19" arrived="0" entered="3" left="23" laneChangedFrom="0" laneChangedTo="0"/>
        <edge id="10/1to1/1" sampledSeconds="7799.97" traveltime="1897.21" density="132.66" occupancy="66.33" waitingTime="2734.12" speed="0.52" departed="0" arrived="0" entered="3" left="3" laneChangedFrom="0" laneChangedTo="0"/>
        <edge id="2/1to3/1" sampledSeconds="1110.72" traveltime="49.99" density="18.89" occupancy="9.45" waitingTime="0.00" speed="19.60" departed="0" arrived="0" entered="23" left="22" laneChangedFrom="0" laneChangedTo="0"/>
        <edge id="3/1to4/1" sampledSeconds="1111.12" traveltime="49.99" density="18.90" occupancy="9.45" waitingTime="0.00" speed="19.60" departed="0" arrived="0" entered="22" left="23" laneChangedFrom="0" laneChangedTo="0"/>
        <edge id="4/1to5/1" sampledSeconds="1110.64" traveltime="49.99" density="18.89" occupancy="9.44" waitingTime="0.00" speed="19.60" departed="0" arrived="0" entered="23" left="22" laneChangedFrom="0" laneChangedTo="0"/>
        <edge id="5/1to6/1" sampledSeconds="1111.18" traveltime="49.99" density="18.90" occupancy="9.45" waitingTime="0.00" speed="19.60" departed="0" arrived="0" entered="22" left="22" laneChangedFrom="0" laneChangedTo="0"/>
        <edge id="6/1to7/1" sampledSeconds="1110.58" traveltime="49.99" density="18.89" occupancy="9.44" waitingTime="0.00" speed="19.60" departed="0" arrived="0" entered="22" left="22" laneChangedFrom="0" laneChangedTo="0"/>
        <edge id="7/1to8/1" sampledSeconds="1116.61" traveltime="49.99" density="18.99" occupancy="9.50" waitingTime="0.00" speed="19.60" departed="0" arrived="0" entered="22" left="24" laneChangedFrom="0" laneChangedTo="0"/>
        <edge id="8/1to9/1" sampledSeconds="3168.91" traveltime="127.93" density="53.90" occupancy="26.95" waitingTime="0.00" speed="7.66" departed="0" arrived="0" entered="24" left="3" laneChangedFrom="0" laneChangedTo="0"/>
        <edge id="9/1to10/1" sampledSeconds="7799.97" traveltime="1524.38" density="132.66" occupancy="66.33" waitingTime="1092.76" speed="0.64" departed="0" arrived="0" entered="3" left="3" laneChangedFrom="0" laneChangedTo="0"/>
    </interval>
    <interval begin="900.00" end="960.00" id="dump_60">
        <edge id="1/1to2/1" sampledSeconds="1770.25" traveltime="79.65" density="30.11" occupancy="15.05" waitingTime="0.00" speed="12.30" departed="18" arrived="0" entered="4" left="22" laneChangedFrom="0" laneChangedTo="0"/>
        <edge id="10/1to1/1" sampledSeconds="7799.96" traveltime="2384.03" density="132.66" occupancy="66.33" waitingTime="3568.12" speed="0.41" departed="0" arrived="0" entered="4" left="4" laneChangedFrom="0" laneChangedTo="0"/>
        <edge id="2/1to3/1" sampledSeconds="1111.18" traveltime="49.99" density="18.90" occupancy="9.45" waitingTime="0.00" speed="19.60" departed="0" arrived="0" entered="22" left="22" laneChangedFrom="0" laneChangedTo="0"/>
        <edge id="3/1to4/1" sampledSeconds="1110.58" traveltime="49.99" density="18.89" occupancy="9.44" waitingTime="0.00" speed="19.60" departed="0" arrived="0" entered="22" left="22" laneChangedFrom="0" laneChangedTo="0"/>
        <edge id="4/1to5/1" sampledSeconds="1111.18" traveltime="49.99" density="18.90" occupancy="9.45" waitingTime="0.00" speed="19.60" departed="0" arrived="0" entered="22" left="22" laneChangedFrom="0" laneChangedTo="0"/>