<?xml version="1.0" encoding="UTF-8"?>

<!-- generated on Fri Aug 24 13:48:50 2018 by Eclipse SUMO Version ad1c44c
This data file and the accompanying materials
are made available under the terms of the Eclipse Public License v2.0
which accompanies this distribution, and is available at
http://www.eclipse.org/legal/epl-v20.html
SPDX-License-Identifier: EPL-2.0
<configuration xmlns:xsi="http://www.w3.org/2001/XMLSchema-instance" xsi:noNamespaceSchemaLocation="http://sumo.dlr.de/xsd/sumoConfiguration.xsd">

    <input>
        <net-file value="net.net.xml"/>
        <route-files value="input_routes.rou.xml"/>
    </input>

    <output>
        <write-license value="true"/>
        <tripinfo-output value="tripinfos.xml"/>
        <vehroute-output value="vehroutes.xml"/>
    </output>

    <processing>
        <default.speeddev value="0"/>
    </processing>

    <routing>
        <routing-algorithm value="astar"/>
        <device.rerouting.probability value="1"/>
        <device.rerouting.period value="240"/>
        <device.rerouting.adaptation-interval value="1"/>
    </routing>

    <report>
        <xml-validation value="never"/>
        <no-step-log value="true"/>
    </report>

</configuration>
-->

<tripinfos xmlns:xsi="http://www.w3.org/2001/XMLSchema-instance" xsi:noNamespaceSchemaLocation="http://sumo.dlr.de/xsd/tripinfo_file.xsd">
    <tripinfo id="type1.0" depart="0.00" departLane="gneE0_0" departPos="5.10" departSpeed="0.00" departDelay="0.00" arrival="115.00" arrivalLane="gneE1_1" arrivalPos="100.00" arrivalSpeed="13.89" duration="115.00" routeLength="994.90" waitingTime="32.00" waitingCount="1" stopTime="0.00" timeLoss="43.06" rerouteNo="1" devices="vehroute_type1.0 tripinfo_type1.0 routing_type1.0" vType="car" speedFactor="1.00" vaporized=""/>
    <tripinfo id="type1.1" depart="3.00" departLane="gneE0_0" departPos="5.10" departSpeed="0.00" departDelay="2.00" arrival="185.00" arrivalLane="gneE1_1" arrivalPos="100.00" arrivalSpeed="13.89" duration="182.00" routeLength="994.90" waitingTime="88.00" waitingCount="3" stopTime="0.00" timeLoss="110.06" rerouteNo="1" devices="vehroute_type1.1 tripinfo_type1.1 routing_type1.1" vType="car" speedFactor="1.00" vaporized=""/>
    <tripinfo id="type1.2" depart="5.00" departLane="gneE0_0" departPos="5.10" departSpeed="0.00" departDelay="3.00" arrival="187.00" arrivalLane="gneE1_1" arrivalPos="100.00" arrivalSpeed="13.89" duration="182.00" routeLength="994.90" waitingTime="88.00" waitingCount="3" stopTime="0.00" timeLoss="109.49" rerouteNo="1" devices="vehroute_type1.2 tripinfo_type1.2 routing_type1.2" vType="car" speedFactor="1.00" vaporized=""/>
    <tripinfo id="type1.3" depart="7.00" departLane="gneE0_0" departPos="5.10" departSpeed="0.00" departDelay="4.00" arrival="188.00" arrivalLane="gneE1_1" arrivalPos="100.00" arrivalSpeed="13.89" duration="181.00" routeLength="994.90" waitingTime="80.00" waitingCount="4" stopTime="0.00" timeLoss="108.92" rerouteNo="1" devices="vehroute_type1.3 tripinfo_type1.3 routing_type1.3" vType="car" speedFactor="1.00" vaporized=""/>
    <tripinfo id="type1.4" depart="9.00" departLane="gneE0_0" departPos="5.10" departSpeed="0.00" departDelay="5.00" arrival="189.00" arrivalLane="gneE1_1" arrivalPos="100.00" arrivalSpeed="13.89" duration="180.00" routeLength="994.90" waitingTime="80.00" waitingCount="4" stopTime="0.00" timeLoss="108.35" rerouteNo="1" devices="vehroute_type1.4 tripinfo_type1.4 routing_type1.4" vType="car" speedFactor="1.00" vaporized=""/>
    <tripinfo id="type1.5" depart="11.00" departLane="gneE0_0" departPos="5.10" departSpeed="0.00" departDelay="6.00" arrival="191.00" arrivalLane="gneE1_1" arrivalPos="100.00" arrivalSpeed="13.89" duration="180.00" routeLength="994.90" waitingTime="78.00" waitingCount="4" stopTime="0.00" timeLoss="107.78" rerouteNo="1" devices="vehroute_type1.5 tripinfo_type1.5 routing_type1.5" vType="car" speedFactor="1.00" vaporized=""/>
    <tripinfo id="type1.6" depart="13.00" departLane="gneE0_0" departPos="5.10" departSpeed="0.00" departDelay="7.00" arrival="192.00" arrivalLane="gneE1_1" arrivalPos="100.00" arrivalSpeed="13.89" duration="179.00" routeLength="994.90" waitingTime="78.00" waitingCount="4" stopTime="0.00" timeLoss="107.22" rerouteNo="1" devices="vehroute_type1.6 tripinfo_type1.6 routing_type1.6" vType="car" speedFactor="1.00" vaporized=""/>
    <tripinfo id="type1.7" depart="15.00" departLane="gneE0_0" departPos="5.10" departSpeed="0.00" departDelay="8.00" arrival="194.00" arrivalLane="gneE1_1" arrivalPos="100.00" arrivalSpeed="13.89" duration="179.00" routeLength="994.90" waitingTime="76.00" waitingCount="4" stopTime="0.00" timeLoss="106.65" rerouteNo="1" devices="vehroute_type1.7 tripinfo_type1.7 routing_type1.7" vType="car" speedFactor="1.00" vaporized=""/>
    <tripinfo id="type1.8" depart="17.00" departLane="gneE0_0" departPos="5.10" departSpeed="0.00" departDelay="9.00" arrival="195.00" arrivalLane="gneE1_1" arrivalPos="100.00" arrivalSpeed="13.89" duration="178.00" routeLength="994.90" waitingTime="76.00" waitingCount="4" stopTime="0.00" timeLoss="106.08" rerouteNo="1" devices="vehroute_type1.8 tripinfo_type1.8 routing_type1.8" vType="car" speedFactor="1.00" vaporized=""/>
    <tripinfo id="type1.9" depart="18.00" departLane="gneE0_0" departPos="5.10" departSpeed="0.00" departDelay="9.00" arrival="197.00" arrivalLane="gneE1_1" arrivalPos="100.00" arrivalSpeed="13.89" duration="179.00" routeLength="994.90" waitingTime="73.00" waitingCount="4" stopTime="0.00" timeLoss="106.51" rerouteNo="1" devices="vehroute_type1.9 tripinfo_type1.9 routing_type1.9" vType="car" speedFactor="1.00" vaporized=""/>
    <tripinfo id="type1.10" depart="21.00" departLane="gneE0_0" departPos="5.10" departSpeed="0.00" departDelay="11.00" arrival="198.00" arrivalLane="gneE1_1" arrivalPos="100.00" arrivalSpeed="13.89" duration="177.00" routeLength="994.90" waitingTime="71.00" waitingCount="4" stopTime="0.00" timeLoss="104.95" rerouteNo="1" devices="vehroute_type1.10 tripinfo_type1.10 routing_type1.10" vType="car" speedFactor="1.00" vaporized=""/>
    <tripinfo id="type1.11" depart="22.00" departLane="gneE0_0" departPos="5.10" departSpeed="0.00" departDelay="11.00" arrival="199.00" arrivalLane="gneE1_1" arrivalPos="100.00" arrivalSpeed="13.89" duration="177.00" routeLength="994.90" waitingTime="71.00" waitingCount="4" stopTime="0.00" timeLoss="105.38" rerouteNo="1" devices="vehroute_type1.11 tripinfo_type1.11 routing_type1.11" vType="car" speedFactor="1.00" vaporized=""/>
    <tripinfo id="type1.12" depart="25.00" departLane="gneE0_0" departPos="5.10" departSpeed="0.00" departDelay="13.00" arrival="201.00" arrivalLane="gneE1_1" arrivalPos="100.00" arrivalSpeed="13.89" duration="176.00" routeLength="994.90" waitingTime="70.00" waitingCount="4" stopTime="0.00" timeLoss="103.81" rerouteNo="1" devices="vehroute_type1.12 tripinfo_type1.12 routing_type1.12" vType="car" speedFactor="1.00" vaporized=""/>
    <tripinfo id="type1.13" depart="26.00" departLane="gneE0_0" departPos="5.10" departSpeed="0.00" departDelay="13.00" arrival="202.00" arrivalLane="gneE1_1" arrivalPos="100.00" arrivalSpeed="13.89" duration="176.00" routeLength="994.90" waitingTime="82.00" waitingCount="3" stopTime="0.00" timeLoss="104.24" rerouteNo="1" devices="vehroute_type1.13 tripinfo_type1.13 routing_type1.13" vType="car" speedFactor="1.00" vaporized=""/>
    <tripinfo id="type1.14" depart="29.00" departLane="gneE0_0" departPos="5.10" departSpeed="0.00" departDelay="15.00" arrival="204.00" arrivalLane="gneE1_1" arrivalPos="100.00" arrivalSpeed="13.89" duration="175.00" routeLength="994.90" waitingTime="80.00" waitingCount="3" stopTime="0.00" timeLoss="102.67" rerouteNo="1" devices="vehroute_type1.14 tripinfo_type1.14 routing_type1.14" vType="car" speedFactor="1.00" vaporized=""/>
    <tripinfo id="type1.15" depart="32.00" departLane="gneE0_0" departPos="5.10" departSpeed="0.00" departDelay="17.00" arrival="205.00" arrivalLane="gneE1_1" arrivalPos="100.00" arrivalSpeed="13.89" duration="173.00" routeLength="994.90" waitingTime="78.00" waitingCount="3" stopTime="0.00" timeLoss="101.11" rerouteNo="1" devices="vehroute_type1.15 tripinfo_type1.15 routing_type1.15" vType="car" speedFactor="1.00" vaporized=""/>
    <tripinfo id="type1.16" depart="35.00" departLane="gneE0_0" departPos="5.10" departSpeed="0.00" departDelay="19.00" arrival="207.00" arrivalLane="gneE1_1" arrivalPos="100.00" arrivalSpeed="13.89" duration="172.00" routeLength="994.90" waitingTime="76.00" waitingCount="3" stopTime="0.00" timeLoss="99.54" rerouteNo="1" devices="vehroute_type1.16 tripinfo_type1.16 routing_type1.16" vType="car" speedFactor="1.00" vaporized=""/>
    <tripinfo id="type1.17" depart="38.00" departLane="gneE0_0" departPos="5.10" departSpeed="0.00" departDelay="21.00" arrival="255.00" arrivalLane="gneE1_1" arrivalPos="100.00" arrivalSpeed="13.89" duration="217.00" routeLength="994.90" waitingTime="116.00" waitingCount="4" stopTime="0.00" timeLoss="145.06" rerouteNo="1" devices="vehroute_type1.17 tripinfo_type1.17 routing_type1.17" vType="car" speedFactor="1.00" vaporized=""/>
    <tripinfo id="type1.18" depart="41.00" departLane="gneE0_0" departPos="5.10" departSpeed="0.00" departDelay="23.00" arrival="257.00" arrivalLane="gneE1_1" arrivalPos="100.00" arrivalSpeed="13.89" duration="216.00" routeLength="994.90" waitingTime="114.00" waitingCount="4" stopTime="0.00" timeLoss="143.49" rerouteNo="1" devices="vehroute_type1.18 tripinfo_type1.18 routing_type1.18" vType="car" speedFactor="1.00" vaporized=""/>
    <tripinfo id="type1.19" depart="44.00" departLane="gneE0_0" departPos="5.10" departSpeed="0.00" departDelay="25.00" arrival="258.00" arrivalLane="gneE1_1" arrivalPos="100.00" arrivalSpeed="13.89" duration="214.00" routeLength="994.90" waitingTime="112.00" waitingCount="4" stopTime="0.00" timeLoss="141.92" rerouteNo="1" devices="vehroute_type1.19 tripinfo_type1.19 routing_type1.19" vType="car" speedFactor="1.00" vaporized=""/>
    <tripinfo id="type1.20" depart="47.00" departLane="gneE0_0" departPos="5.10" departSpeed="0.00" departDelay="27.00" arrival="259.00" arrivalLane="gneE1_1" arrivalPos="100.00" arrivalSpeed="13.89" duration="212.00" routeLength="994.90" waitingTime="110.00" waitingCount="4" stopTime="0.00" timeLoss="140.35" rerouteNo="1" devices="vehroute_type1.20 tripinfo_type1.20 routing_type1.20" vType="car" speedFactor="1.00" vaporized=""/>
    <tripinfo id="type1.21" depart="50.00" departLane="gneE0_0" departPos="5.10" departSpeed="0.00" departDelay="29.00" arrival="261.00" arrivalLane="gneE1_1" arrivalPos="100.00" arrivalSpeed="13.89" duration="211.00" routeLength="994.90" waitingTime="108.00" waitingCount="4" stopTime="0.00" timeLoss="138.79" rerouteNo="1" devices="vehroute_type1.21 tripinfo_type1.21 routing_type1.21" vType="car" speedFactor="1.00" vaporized=""/>
    <tripinfo id="type1.22" depart="53.00" departLane="gneE0_0" departPos="5.10" departSpeed="0.00" departDelay="31.00" arrival="262.00" arrivalLane="gneE1_1" arrivalPos="100.00" arrivalSpeed="13.89" duration="209.00" routeLength="994.90" waitingTime="106.00" waitingCount="4" stopTime="0.00" timeLoss="137.22" rerouteNo="1" devices="vehroute_type1.22 tripinfo_type1.22 routing_type1.22" vType="car" speedFactor="1.00" vaporized=""/>
    <tripinfo id="type1.23" depart="56.00" departLane="gneE0_0" departPos="5.10" departSpeed="0.00" departDelay="33.00" arrival="264.00" arrivalLane="gneE1_1" arrivalPos="100.00" arrivalSpeed="13.89" duration="208.00" routeLength="994.90" waitingTime="105.00" waitingCount="4" stopTime="0.00" timeLoss="135.65" rerouteNo="1" devices="vehroute_type1.23 tripinfo_type1.23 routing_type1.23" vType="car" speedFactor="1.00" vaporized=""/>
    <tripinfo id="type1.24" depart="59.00" departLane="gneE0_0" departPos="5.10" departSpeed="0.00" departDelay="35.00" arrival="265.00" arrivalLane="gneE1_1" arrivalPos="100.00" arrivalSpeed="13.89" duration="206.00" routeLength="994.90" waitingTime="104.00" waitingCount="4" stopTime="0.00" timeLoss="134.08" rerouteNo="1" devices="vehroute_type1.24 tripinfo_type1.24 routing_type1.24" vType="car" speedFactor="1.00" vaporized=""/>
    <tripinfo id="type1.40" depart="129.00" departLane="gneE0_0" departPos="5.10" departSpeed="0.00" departDelay="89.00" arrival="293.00" arrivalLane="gneE1_0" arrivalPos="100.00" arrivalSpeed="13.89" duration="164.00" routeLength="994.90" waitingTime="73.00" waitingCount="2" stopTime="0.00" timeLoss="92.23" rerouteNo="2" devices="vehroute_type1.40 tripinfo_type1.40 routing_type1.40" vType="car" speedFactor="1.00" vaporized=""/>
    <tripinfo id="type1.29" depart="96.00" departLane="gneE0_0" departPos="5.10" departSpeed="0.00" departDelay="67.00" arrival="310.00" arrivalLane="gneE1_0" arrivalPos="100.00" arrivalSpeed="13.89" duration="214.00" routeLength="994.90" waitingTime="116.00" waitingCount="3" stopTime="0.00" timeLoss="141.45" rerouteNo="2" devices="vehroute_type1.29 tripinfo_type1.29 routing_type1.29" vType="car" speedFactor="1.00" vaporized=""/>
    <tripinfo id="type1.30" depart="99.00" departLane="gneE0_0" departPos="5.10" departSpeed="0.00" departDelay="69.00" arrival="311.00" arrivalLane="gneE1_0" arrivalPos="100.00" arrivalSpeed="13.89" duration="212.00" routeLength="994.90" waitingTime="116.00" waitingCount="3" stopTime="0.00" timeLoss="139.88" rerouteNo="2" devices="vehroute_type1.30 tripinfo_type1.30 routing_type1.30" vType="car" speedFactor="1.00" vaporized=""/>
    <tripinfo id="type1.31" depart="102.00" departLane="gneE0_0" departPos="5.10" departSpeed="0.00" departDelay="71.00" arrival="312.00" arrivalLane="gneE1_0" arrivalPos="100.00" arrivalSpeed="13.89" duration="210.00" routeLength="994.90" waitingTime="117.00" waitingCount="3" stopTime="0.00" timeLoss="138.31" rerouteNo="2" devices="vehroute_type1.31 tripinfo_type1.31 routing_type1.31" vType="car" speedFactor="1.00" vaporized=""/>
    <tripinfo id="type1.32" depart="105.00" departLane="gneE0_0" departPos="5.10" departSpeed="0.00" departDelay="73.00" arrival="314.00" arrivalLane="gneE1_0" arrivalPos="100.00" arrivalSpeed="13.89" duration="209.00" routeLength="994.90" waitingTime="114.00" waitingCount="3" stopTime="0.00" timeLoss="136.75" rerouteNo="2" devices="vehroute_type1.32 tripinfo_type1.32 routing_type1.32" vType="car" speedFactor="1.00" vaporized=""/>
    <tripinfo id="type1.33" depart="108.00" departLane="gneE0_0" departPos="5.10" departSpeed="0.00" departDelay="75.00" arrival="315.00" arrivalLane="gneE1_0" arrivalPos="100.00" arrivalSpeed="13.89" duration="207.00" routeLength="994.90" waitingTime="113.00" waitingCount="3" stopTime="0.00" timeLoss="135.18" rerouteNo="2" devices="vehroute_type1.33 tripinfo_type1.33 routing_type1.33" vType="car" speedFactor="1.00" vaporized=""/>
    <tripinfo id="type1.34" depart="111.00" departLane="gneE0_0" departPos="5.10" departSpeed="0.00" departDelay="77.00" arrival="317.00" arrivalLane="gneE1_0" arrivalPos="100.00" arrivalSpeed="13.89" duration="206.00" routeLength="994.90" waitingTime="110.00" waitingCount="3" stopTime="0.00" timeLoss="133.61" rerouteNo="2" devices="vehroute_type1.34 tripinfo_type1.34 routing_type1.34" vType="car" speedFactor="1.00" vaporized=""/>
    <tripinfo id="type1.35" depart="114.00" departLane="gneE0_0" departPos="5.10" departSpeed="0.00" departDelay="79.00" arrival="318.00" arrivalLane="gneE1_0" arrivalPos="100.00" arrivalSpeed="13.89" duration="204.00" routeLength="994.90" waitingTime="109.00" waitingCount="3" stopTime="0.00" timeLoss="132.04" rerouteNo="2" devices="vehroute_type1.35 tripinfo_type1.35 routing_type1.35" vType="car" speedFactor="1.00" vaporized=""/>
    <tripinfo id="type1.25" depart="62.00" departLane="gneE0_0" departPos="5.10" departSpeed="0.00" departDelay="37.00" arrival="325.00" arrivalLane="gneE1_1" arrivalPos="100.00" arrivalSpeed="13.89" duration="263.00" routeLength="994.90" waitingTime="155.00" waitingCount="5" stopTime="0.00" timeLoss="191.06" rerouteNo="1" devices="vehroute_type1.25 tripinfo_type1.25 routing_type1.25" vType="car" speedFactor="1.00" vaporized=""/>
    <tripinfo id="type1.36" depart="117.00" departLane="gneE0_0" departPos="5.10" departSpeed="0.00" departDelay="81.00" arrival="325.00" arrivalLane="gneE1_0" arrivalPos="100.00" arrivalSpeed="13.89" duration="208.00" routeLength="994.90" waitingTime="106.00" waitingCount="3" stopTime="0.00" timeLoss="135.57" rerouteNo="2" devices="vehroute_type1.36 tripinfo_type1.36 routing_type1.36" vType="car" speedFactor="1.00" vaporized=""/>
    <tripinfo id="type1.37" depart="120.00" departLane="gneE0_0" departPos="5.10" departSpeed="0.00" departDelay="83.00" arrival="326.00" arrivalLane="gneE1_0" arrivalPos="100.00" arrivalSpeed="13.89" duration="206.00" routeLength="994.90" waitingTime="105.00" waitingCount="3" stopTime="0.00" timeLoss="134.01" rerouteNo="2" devices="vehroute_type1.37 tripinfo_type1.37 routing_type1.37" vType="car" speedFactor="1.00" vaporized=""/>
    <tripinfo id="type1.26" depart="65.00" departLane="gneE0_0" departPos="5.10" departSpeed="0.00" departDelay="39.00" arrival="327.00" arrivalLane="gneE1_1" arrivalPos="100.00" arrivalSpeed="13.89" duration="262.00" routeLength="994.90" waitingTime="154.00" waitingCount="5" stopTime="0.00" timeLoss="189.49" rerouteNo="1" devices="vehroute_type1.26 tripinfo_type1.26 routing_type1.26" vType="car" speedFactor="1.00" vaporized=""/>
    <tripinfo id="type1.27" depart="68.00" departLane="gneE0_0" departPos="5.10" departSpeed="0.00" departDelay="41.00" arrival="328.00" arrivalLane="gneE1_1" arrivalPos="100.00" arrivalSpeed="13.89" duration="260.00" routeLength="994.90" waitingTime="153.00" waitingCount="5" stopTime="0.00" timeLoss="187.92" rerouteNo="1" devices="vehroute_type1.27 tripinfo_type1.27 routing_type1.27" vType="car" speedFactor="1.00" vaporized=""/>
    <tripinfo id="type1.38" depart="123.00" departLane="gneE0_0" departPos="5.10" departSpeed="0.00" departDelay="85.00" arrival="328.00" arrivalLane="gneE1_0" arrivalPos="100.00" arrivalSpeed="13.89" duration="205.00" routeLength="994.90" waitingTime="102.00" waitingCount="3" stopTime="0.00" timeLoss="132.44" rerouteNo="2" devices="vehroute_type1.38 tripinfo_type1.38 routing_type1.38" vType="car" speedFactor="1.00" vaporized=""/>
    <tripinfo id="type1.28" depart="71.00" departLane="gneE0_0" departPos="5.10" departSpeed="0.00" departDelay="43.00" arrival="329.00" arrivalLane="gneE1_1" arrivalPos="100.00" arrivalSpeed="13.89" duration="258.00" routeLength="994.90" waitingTime="153.00" waitingCount="5" stopTime="0.00" timeLoss="186.35" rerouteNo="1" devices="vehroute_type1.28 tripinfo_type1.28 routing_type1.28" vType="car" speedFactor="1.00" vaporized=""/>
    <tripinfo id="type1.39" depart="126.00" departLane="gneE0_0" departPos="5.10" departSpeed="0.00" departDelay="87.00" arrival="329.00" arrivalLane="gneE1_0" arrivalPos="100.00" arrivalSpeed="13.89" duration="203.00" routeLength="994.90" waitingTime="101.00" waitingCount="3" stopTime="0.00" timeLoss="130.87" rerouteNo="2" devices="vehroute_type1.39 tripinfo_type1.39 routing_type1.39" vType="car" speedFactor="1.00" vaporized=""/>
    <tripinfo id="type1.47" depart="176.00" departLane="gneE0_0" departPos="5.10" departSpeed="0.00" departDelay="129.00" arrival="330.00" arrivalLane="gneE1_0" arrivalPos="100.00" arrivalSpeed="13.89" duration="154.00" routeLength="994.90" waitingTime="58.00" waitingCount="2" stopTime="0.00" timeLoss="82.30" rerouteNo="3" devices="vehroute_type1.47 tripinfo_type1.47 routing_type1.47" vType="car" speedFactor="1.00" vaporized=""/>
    <tripinfo id="type1.48" depart="179.00" departLane="gneE0_0" departPos="5.10" departSpeed="0.00" departDelay="131.00" arrival="332.00" arrivalLane="gneE1_0" arrivalPos="100.00" arrivalSpeed="13.89" duration="153.00" routeLength="994.90" waitingTime="58.00" waitingCount="2" stopTime="0.00" timeLoss="80.73" rerouteNo="3" devices="vehroute_type1.48 tripinfo_type1.48 routing_type1.48" vType="car" speedFactor="1.00" vaporized=""/>
    <tripinfo id="type1.49" depart="181.00" departLane="gneE0_0" departPos="5.10" departSpeed="0.00" departDelay="132.00" arrival="333.00" arrivalLane="gneE1_0" arrivalPos="100.00" arrivalSpeed="13.89" duration="152.00" routeLength="994.90" waitingTime="58.00" waitingCount="2" stopTime="0.00" timeLoss="80.17" rerouteNo="3" devices="vehroute_type1.49 tripinfo_type1.49 routing_type1.49" vType="car" speedFactor="1.00" vaporized=""/>
    <tripinfo id="type1.50" depart="183.00" departLane="gneE0_0" departPos="5.10" departSpeed="0.00" departDelay="133.00" arrival="335.00" arrivalLane="gneE1_0" arrivalPos="100.00" arrivalSpeed="13.89" duration="152.00" routeLength="994.90" waitingTime="58.00" waitingCount="2" stopTime="0.00" timeLoss="79.60" rerouteNo="3" devices="vehroute_type1.50 tripinfo_type1.50 routing_type1.50" vType="car" speedFactor="1.00" vaporized=""/>
    <tripinfo id="type1.51" depart="185.00" departLane="gneE0_0" departPos="5.10" departSpeed="0.00" departDelay="134.00" arrival="336.00" arrivalLane="gneE1_0" arrivalPos="100.00" arrivalSpeed="13.89" duration="151.00" routeLength="994.90" waitingTime="58.00" waitingCount="2" stopTime="0.00" timeLoss="79.03" rerouteNo="3" devices="vehroute_type1.51 tripinfo_type1.51 routing_type1.51" vType="car" speedFactor="1.00" vaporized=""/>
    <tripinfo id="type1.52" depart="187.00" departLane="gneE0_0" departPos="5.10" departSpeed="0.00" departDelay="135.00" arrival="338.00" arrivalLane="gneE1_0" arrivalPos="100.00" arrivalSpeed="13.89" duration="151.00" routeLength="994.90" waitingTime="58.00" waitingCount="2" stopTime="0.00" timeLoss="78.46" rerouteNo="3" devices="vehroute_type1.52 tripinfo_type1.52 routing_type1.52" vType="car" speedFactor="1.00" vaporized=""/>
    <tripinfo id="type1.53" depart="189.00" departLane="gneE0_0" departPos="5.10" departSpeed="0.00" departDelay="136.00" arrival="339.00" arrivalLane="gneE1_0" arrivalPos="100.00" arrivalSpeed="13.89" duration="150.00" routeLength="994.90" waitingTime="58.00" waitingCount="2" stopTime="0.00" timeLoss="77.90" rerouteNo="3" devices="vehroute_type1.53 tripinfo_type1.53 routing_type1.53" vType="car" speedFactor="1.00" vaporized=""/>
    <tripinfo id="type1.54" depart="191.00" departLane="gneE0_0" departPos="5.10" departSpeed="0.00" departDelay="137.00" arrival="340.00" arrivalLane="gneE1_0" arrivalPos="100.00" arrivalSpeed="13.89" duration="149.00" routeLength="994.90" waitingTime="58.00" waitingCount="2" stopTime="0.00" timeLoss="77.33" rerouteNo="3" devices="vehroute_type1.54 tripinfo_type1.54 routing_type1.54" vType="car" speedFactor="1.00" vaporized=""/>
    <tripinfo id="type1.55" depart="193.00" departLane="gneE0_0" departPos="5.10" departSpeed="0.00" departDelay="138.00" arrival="342.00" arrivalLane="gneE1_0" arrivalPos="100.00" arrivalSpeed="13.89" duration="149.00" routeLength="994.90" waitingTime="52.00" waitingCount="3" stopTime="0.00" timeLoss="76.76" rerouteNo="3" devices="vehroute_type1.55 tripinfo_type1.55 routing_type1.55" vType="car" speedFactor="1.00" vaporized=""/>
    <tripinfo id="type1.70" depart="222.00" departLane="gneE0_0" departPos="5.10" departSpeed="0.00" departDelay="152.00" arrival="343.00" arrivalLane="gneE1_0" arrivalPos="100.00" arrivalSpeed="13.89" duration="121.00" routeLength="994.90" waitingTime="22.00" waitingCount="3" stopTime="0.00" timeLoss="49.19" rerouteNo="2" devices="vehroute_type1.70 tripinfo_type1.70 routing_type1.70" vType="car" speedFactor="1.00" vaporized=""/>
    <tripinfo id="type1.41" depart="132.00" departLane="gneE0_0" departPos="5.10" departSpeed="0.00" departDelay="91.00" arrival="345.00" arrivalLane="gneE1_0" arrivalPos="100.00" arrivalSpeed="13.89" duration="213.00" routeLength="994.90" waitingTime="116.00" waitingCount="3" stopTime="0.00" timeLoss="140.94" rerouteNo="2" devices="vehroute_type1.41 tripinfo_type1.41 routing_type1.41" vType="car" speedFactor="1.00" vaporized=""/>
    <tripinfo id="type1.42" depart="135.00" departLane="gneE0_0" departPos="5.10" departSpeed="0.00" departDelay="93.00" arrival="346.00" arrivalLane="gneE1_0" arrivalPos="100.00" arrivalSpeed="13.89" duration="211.00" routeLength="994.90" waitingTime="115.00" waitingCount="3" stopTime="0.00" timeLoss="139.37" rerouteNo="2" devices="vehroute_type1.42 tripinfo_type1.42 routing_type1.42" vType="car" speedFactor="1.00" vaporized=""/>
    <tripinfo id="type1.43" depart="138.00" departLane="gneE0_0" departPos="5.10" departSpeed="0.00" departDelay="95.00" arrival="348.00" arrivalLane="gneE1_0" arrivalPos="100.00" arrivalSpeed="13.89" duration="210.00" routeLength="994.90" waitingTime="113.00" waitingCount="3" stopTime="0.00" timeLoss="137.80" rerouteNo="2" devices="vehroute_type1.43 tripinfo_type1.43 routing_type1.43" vType="car" speedFactor="1.00" vaporized=""/>
    <tripinfo id="type1.44" depart="141.00" departLane="gneE0_0" departPos="5.10" departSpeed="0.00" departDelay="97.00" arrival="349.00" arrivalLane="gneE1_0" arrivalPos="100.00" arrivalSpeed="13.89" duration="208.00" routeLength="994.90" waitingTime="112.00" waitingCount="3" stopTime="0.00" timeLoss="136.23" rerouteNo="2" devices="vehroute_type1.44 tripinfo_type1.44 routing_type1.44" vType="car" speedFactor="1.00" vaporized=""/>
    <tripinfo id="type1.45" depart="144.00" departLane="gneE0_0" departPos="5.10" departSpeed="0.00" departDelay="99.00" arrival="351.00" arrivalLane="gneE1_0" arrivalPos="100.00" arrivalSpeed="13.89" duration="207.00" routeLength="994.90" waitingTime="111.00" waitingCount="3" stopTime="0.00" timeLoss="134.67" rerouteNo="2" devices="vehroute_type1.45 tripinfo_type1.45 routing_type1.45" vType="car" speedFactor="1.00" vaporized=""/>
    <tripinfo id="type1.46" depart="147.00" departLane="gneE0_0" departPos="5.10" departSpeed="0.00" departDelay="101.00" arrival="352.00" arrivalLane="gneE1_0" arrivalPos="100.00" arrivalSpeed="13.89" duration="205.00" routeLength="994.90" waitingTime="111.00" waitingCount="3" stopTime="0.00" timeLoss="133.10" rerouteNo="2" devices="vehroute_type1.46 tripinfo_type1.46 routing_type1.46" vType="car" speedFactor="1.00" vaporized=""/>
    <tripinfo id="type1.56" depart="194.00" departLane="gneE0_0" departPos="5.10" departSpeed="0.00" departDelay="138.00" arrival="395.00" arrivalLane="gneE1_0" arrivalPos="100.00" arrivalSpeed="13.89" duration="201.00" routeLength="994.90" waitingTime="97.00" waitingCount="4" stopTime="0.00" timeLoss="128.62" rerouteNo="3" devices="vehroute_type1.56 tripinfo_type1.56 routing_type1.56" vType="car" speedFactor="1.00" vaporized=""/>
    <tripinfo id="type1.72" depart="226.00" departLane="gneE0_0" departPos="5.10" departSpeed="0.00" departDelay="154.00" arrival="396.00" arrivalLane="gneE1_0" arrivalPos="100.00" arrivalSpeed="13.89" duration="170.00" routeLength="994.90" waitingTime="65.00" waitingCount="5" stopTime="0.00" timeLoss="98.05" rerouteNo="2" devices="vehroute_type1.72 tripinfo_type1.72 routing_type1.72" vType="car" speedFactor="1.00" vaporized=""/>
    <tripinfo id="type1.57" depart="197.00" departLane="gneE0_0" departPos="5.10" departSpeed="0.00" departDelay="140.00" arrival="398.00" arrivalLane="gneE1_0" arrivalPos="100.00" arrivalSpeed="13.89" duration="201.00" routeLength="994.90" waitingTime="95.00" waitingCount="5" stopTime="0.00" timeLoss="128.48" rerouteNo="3" devices="vehroute_type1.57 tripinfo_type1.57 routing_type1.57" vType="car" speedFactor="1.00" vaporized=""/>
    <tripinfo id="type1.73" depart="229.00" departLane="gneE0_0" departPos="5.10" departSpeed="0.00" departDelay="156.00" arrival="399.00" arrivalLane="gneE1_0" arrivalPos="100.00" arrivalSpeed="13.89" duration="170.00" routeLength="994.90" waitingTime="71.00" waitingCount="5" stopTime="0.00" timeLoss="98.25" rerouteNo="2" devices="vehroute_type1.73 tripinfo_type1.73 routing_type1.73" vType="car" speedFactor="1.00" vaporized=""/>
    <tripinfo id="type1.58" depart="198.00" departLane="gneE0_0" departPos="5.10" departSpeed="0.00" departDelay="140.00" arrival="401.00" arrivalLane="gneE1_0" arrivalPos="100.00" arrivalSpeed="13.89" duration="203.00" routeLength="994.90" waitingTime="103.00" waitingCount="5" stopTime="0.00" timeLoss="130.68" rerouteNo="3" devices="vehroute_type1.58 tripinfo_type1.58 routing_type1.58" vType="car" speedFactor="1.00" vaporized=""/>
    <tripinfo id="type1.74" depart="232.00" departLane="gneE0_0" departPos="5.10" departSpeed="0.00" departDelay="158.00" arrival="402.00" arrivalLane="gneE1_0" arrivalPos="100.00" arrivalSpeed="13.89" duration="170.00" routeLength="994.90" waitingTime="74.00" waitingCount="4" stopTime="0.00" timeLoss="98.11" rerouteNo="2" devices="vehroute_type1.74 tripinfo_type1.74 routing_type1.74" vType="car" speedFactor="1.00" vaporized=""/>
    <tripinfo id="type1.59" depart="201.00" departLane="gneE0_0" departPos="5.10" departSpeed="0.00" departDelay="142.00" arrival="404.00" arrivalLane="gneE1_0" arrivalPos="100.00" arrivalSpeed="13.89" duration="203.00" routeLength="994.90" waitingTime="106.00" waitingCount="5" stopTime="0.00" timeLoss="130.54" rerouteNo="3" devices="vehroute_type1.59 tripinfo_type1.59 routing_type1.59" vType="car" speedFactor="1.00" vaporized=""/>
    <tripinfo id="type1.75" depart="235.00" departLane="gneE0_0" departPos="5.10" departSpeed="0.00" departDelay="160.00" arrival="405.00" arrivalLane="gneE1_0" arrivalPos="100.00" arrivalSpeed="13.89" duration="170.00" routeLength="994.90" waitingTime="75.00" waitingCount="3" stopTime="0.00" timeLoss="97.98" rerouteNo="2" devices="vehroute_type1.75 tripinfo_type1.75 routing_type1.75" vType="car" speedFactor="1.00" vaporized=""/>
    <tripinfo id="type1.60" depart="202.00" departLane="gneE0_0" departPos="5.10" departSpeed="0.00" departDelay="142.00" arrival="406.00" arrivalLane="gneE1_0" arrivalPos="100.00" arrivalSpeed="13.89" duration="204.00" routeLength="994.90" waitingTime="108.00" waitingCount="4" stopTime="0.00" timeLoss="132.41" rerouteNo="3" devices="vehroute_type1.60 tripinfo_type1.60 routing_type1.60" vType="car" speedFactor="1.00" vaporized=""/>