<?xml version="1.0" encoding="UTF-8"?>

<!-- generated on 05/24/19 08:48:30 by Eclipse SUMO Version v1_1_0+1379-f2e706eba2
This data file and the accompanying materials
are made available under the terms of the Eclipse Public License v2.0
which accompanies this distribution, and is available at
http://www.eclipse.org/legal/epl-v20.html
SPDX-License-Identifier: EPL-2.0
<configuration xmlns:xsi="http://www.w3.org/2001/XMLSchema-instance" xsi:noNamespaceSchemaLocation="http://sumo.dlr.de/xsd/sumoConfiguration.xsd">

    <input>
        <net-file value="net.net.xml"/>
        <route-files value="input_routes.rou.xml"/>
    </input>

    <output>
        <write-license value="true"/>
        <tripinfo-output value="tripinfos.xml"/>
        <vehroute-output value="vehroutes.xml"/>
    </output>

    <processing>
        <default.speeddev value="0"/>
    </processing>

    <routing>
        <routing-algorithm value="astar"/>
        <device.rerouting.probability value="1"/>
        <device.rerouting.period value="240"/>
        <device.rerouting.adaptation-interval value="1"/>
    </routing>

    <report>
        <xml-validation value="never"/>
        <no-step-log value="true"/>
    </report>

</configuration>
-->

<routes xmlns:xsi="http://www.w3.org/2001/XMLSchema-instance" xsi:noNamespaceSchemaLocation="http://sumo.dlr.de/xsd/routes_file.xsd">
    <vehicle id="type1.0" type="car" depart="0.00" color="yellow" arrival="115.00">
        <route edges="gneE0 0-0to0-1 0-1to1-1 1-1to1-2 1-2to2-2 gneE1"/>
    </vehicle>

    <vehicle id="type1.1" type="car" depart="3.00" color="yellow" arrival="185.00">
        <route edges="gneE0 0-0to0-1 0-1to1-1 1-1to1-2 1-2to2-2 gneE1"/>
    </vehicle>

    <vehicle id="type1.2" type="car" depart="5.00" color="yellow" arrival="187.00">
        <route edges="gneE0 0-0to0-1 0-1to1-1 1-1to1-2 1-2to2-2 gneE1"/>
    </vehicle>

    <vehicle id="type1.3" type="car" depart="7.00" color="yellow" arrival="188.00">
        <route edges="gneE0 0-0to0-1 0-1to1-1 1-1to1-2 1-2to2-2 gneE1"/>
    </vehicle>

    <vehicle id="type1.4" type="car" depart="9.00" color="yellow" arrival="189.00">
        <route edges="gneE0 0-0to0-1 0-1to1-1 1-1to1-2 1-2to2-2 gneE1"/>
    </vehicle>

    <vehicle id="type1.5" type="car" depart="11.00" color="yellow" arrival="191.00">
        <route edges="gneE0 0-0to0-1 0-1to1-1 1-1to1-2 1-2to2-2 gneE1"/>
    </vehicle>

    <vehicle id="type1.6" type="car" depart="13.00" color="yellow" arrival="192.00">
        <route edges="gneE0 0-0to0-1 0-1to1-1 1-1to1-2 1-2to2-2 gneE1"/>
    </vehicle>

    <vehicle id="type1.7" type="car" depart="15.00" color="yellow" arrival="194.00">
        <route edges="gneE0 0-0to0-1 0-1to1-1 1-1to1-2 1-2to2-2 gneE1"/>
    </vehicle>

    <vehicle id="type1.8" type="car" depart="17.00" color="yellow" arrival="195.00">
        <route edges="gneE0 0-0to0-1 0-1to1-1 1-1to1-2 1-2to2-2 gneE1"/>
    </vehicle>

    <vehicle id="type1.9" type="car" depart="18.00" color="yellow" arrival="197.00">
        <route edges="gneE0 0-0to0-1 0-1to1-1 1-1to1-2 1-2to2-2 gneE1"/>
    </vehicle>

    <vehicle id="type1.10" type="car" depart="21.00" color="yellow" arrival="198.00">
        <route edges="gneE0 0-0to0-1 0-1to1-1 1-1to1-2 1-2to2-2 gneE1"/>
    </vehicle>

    <vehicle id="type1.11" type="car" depart="22.00" color="yellow" arrival="199.00">
        <route edges="gneE0 0-0to0-1 0-1to1-1 1-1to1-2 1-2to2-2 gneE1"/>
    </vehicle>

    <vehicle id="type1.12" type="car" depart="25.00" color="yellow" arrival="201.00">
        <route edges="gneE0 0-0to0-1 0-1to1-1 1-1to1-2 1-2to2-2 gneE1"/>
    </vehicle>

    <vehicle id="type1.13" type="car" depart="26.00" color="yellow" arrival="202.00">
        <route edges="gneE0 0-0to1-0 1-0to1-1 1-1to1-2 1-2to2-2 gneE1"/>
    </vehicle>

    <vehicle id="type1.14" type="car" depart="29.00" color="yellow" arrival="204.00">
        <route edges="gneE0 0-0to1-0 1-0to1-1 1-1to1-2 1-2to2-2 gneE1"/>
    </vehicle>

    <vehicle id="type1.15" type="car" depart="32.00" color="yellow" arrival="205.00">
        <route edges="gneE0 0-0to1-0 1-0to1-1 1-1to1-2 1-2to2-2 gneE1"/>
    </vehicle>

    <vehicle id="type1.16" type="car" depart="35.00" color="yellow" arrival="207.00">
        <route edges="gneE0 0-0to1-0 1-0to1-1 1-1to1-2 1-2to2-2 gneE1"/>
    </vehicle>

    <vehicle id="type1.17" type="car" depart="38.00" color="yellow" arrival="255.00">
        <route edges="gneE0 0-0to1-0 1-0to1-1 1-1to1-2 1-2to2-2 gneE1"/>
    </vehicle>

    <vehicle id="type1.18" type="car" depart="41.00" color="yellow" arrival="257.00">
        <route edges="gneE0 0-0to1-0 1-0to1-1 1-1to1-2 1-2to2-2 gneE1"/>
    </vehicle>

    <vehicle id="type1.19" type="car" depart="44.00" color="yellow" arrival="258.00">
        <route edges="gneE0 0-0to1-0 1-0to1-1 1-1to1-2 1-2to2-2 gneE1"/>
    </vehicle>

    <vehicle id="type1.20" type="car" depart="47.00" color="yellow" arrival="259.00">
        <route edges="gneE0 0-0to1-0 1-0to1-1 1-1to1-2 1-2to2-2 gneE1"/>
    </vehicle>

    <vehicle id="type1.21" type="car" depart="50.00" color="yellow" arrival="261.00">
        <route edges="gneE0 0-0to1-0 1-0to1-1 1-1to1-2 1-2to2-2 gneE1"/>
    </vehicle>

    <vehicle id="type1.22" type="car" depart="53.00" color="yellow" arrival="262.00">
        <route edges="gneE0 0-0to1-0 1-0to1-1 1-1to1-2 1-2to2-2 gneE1"/>
    </vehicle>

    <vehicle id="type1.23" type="car" depart="56.00" color="yellow" arrival="264.00">
        <route edges="gneE0 0-0to1-0 1-0to1-1 1-1to1-2 1-2to2-2 gneE1"/>
    </vehicle>

    <vehicle id="type1.24" type="car" depart="59.00" color="yellow" arrival="265.00">
        <route edges="gneE0 0-0to1-0 1-0to1-1 1-1to1-2 1-2to2-2 gneE1"/>
    </vehicle>

    <vehicle id="type1.40" type="car" depart="129.00" color="yellow" arrival="293.00">
        <routeDistribution>
            <route replacedOnEdge="" reason="device.rerouting" replacedAtTime="100.00" probability="0" edges="gneE0 0-0to1-0 1-0to1-1 1-1to1-2 1-2to2-2 gneE1"/>
            <route edges="gneE0 0-0to1-0 1-0to2-0 2-0to2-1 2-1to2-2 gneE1"/>
        </routeDistribution>
    </vehicle>

    <vehicle id="type1.29" type="car" depart="96.00" color="yellow" arrival="310.00">
        <routeDistribution>
            <route replacedOnEdge="" reason="device.rerouting" replacedAtTime="89.00" probability="0" edges="gneE0 0-0to1-0 1-0to1-1 1-1to1-2 1-2to2-2 gneE1"/>
            <route edges="gneE0 0-0to1-0 1-0to1-1 1-1to2-1 2-1to2-2 gneE1"/>
        </routeDistribution>
    </vehicle>

    <vehicle id="type1.30" type="car" depart="99.00" color="yellow" arrival="311.00">
        <routeDistribution>
            <route replacedOnEdge="" reason="device.rerouting" replacedAtTime="90.00" probability="0" edges="gneE0 0-0to1-0 1-0to1-1 1-1to1-2 1-2to2-2 gneE1"/>
            <route edges="gneE0 0-0to1-0 1-0to1-1 1-1to2-1 2-1to2-2 gneE1"/>
        </routeDistribution>
    </vehicle>

    <vehicle id="type1.31" type="car" depart="102.00" color="yellow" arrival="312.00">
        <routeDistribution>
            <route replacedOnEdge="" reason="device.rerouting" replacedAtTime="91.00" probability="0" edges="gneE0 0-0to1-0 1-0to1-1 1-1to1-2 1-2to2-2 gneE1"/>
            <route edges="gneE0 0-0to1-0 1-0to1-1 1-1to2-1 2-1to2-2 gneE1"/>
        </routeDistribution>
    </vehicle>

    <vehicle id="type1.32" type="car" depart="105.00" color="yellow" arrival="314.00">
        <routeDistribution>
            <route replacedOnEdge="" reason="device.rerouting" replacedAtTime="92.00" probability="0" edges="gneE0 0-0to1-0 1-0to1-1 1-1to1-2 1-2to2-2 gneE1"/>
            <route edges="gneE0 0-0to1-0 1-0to1-1 1-1to2-1 2-1to2-2 gneE1"/>
        </routeDistribution>
    </vehicle>

    <vehicle id="type1.33" type="car" depart="108.00" color="yellow" arrival="315.00">
        <routeDistribution>
            <route replacedOnEdge="" reason="device.rerouting" replacedAtTime="93.00" probability="0" edges="gneE0 0-0to1-0 1-0to1-1 1-1to1-2 1-2to2-2 gneE1"/>
            <route edges="gneE0 0-0to1-0 1-0to1-1 1-1to2-1 2-1to2-2 gneE1"/>
        </routeDistribution>
    </vehicle>

    <vehicle id="type1.34" type="car" depart="111.00" color="yellow" arrival="317.00">
        <routeDistribution>
            <route replacedOnEdge="" reason="device.rerouting" replacedAtTime="94.00" probability="0" edges="gneE0 0-0to1-0 1-0to1-1 1-1to1-2 1-2to2-2 gneE1"/>
            <route edges="gneE0 0-0to1-0 1-0to1-1 1-1to2-1 2-1to2-2 gneE1"/>
        </routeDistribution>
    </vehicle>

    <vehicle id="type1.35" type="car" depart="114.00" color="yellow" arrival="318.00">
        <routeDistribution>
            <route replacedOnEdge="" reason="device.rerouting" replacedAtTime="95.00" probability="0" edges="gneE0 0-0to1-0 1-0to1-1 1-1to1-2 1-2to2-2 gneE1"/>
            <route edges="gneE0 0-0to1-0 1-0to1-1 1-1to2-1 2-1to2-2 gneE1"/>
        </routeDistribution>
    </vehicle>

    <vehicle id="type1.25" type="car" depart="62.00" color="yellow" arrival="325.00">
        <route edges="gneE0 0-0to1-0 1-0to1-1 1-1to1-2 1-2to2-2 gneE1"/>
    </vehicle>

    <vehicle id="type1.36" type="car" depart="117.00" color="yellow" arrival="325.00">
        <routeDistribution>
            <route replacedOnEdge="" reason="device.rerouting" replacedAtTime="96.00" probability="0" edges="gneE0 0-0to1-0 1-0to1-1 1-1to1-2 1-2to2-2 gneE1"/>
            <route edges="gneE0 0-0to1-0 1-0to1-1 1-1to2-1 2-1to2-2 gneE1"/>
        </routeDistribution>
    </vehicle>

    <vehicle id="type1.37" type="car" depart="120.00" color="yellow" arrival="326.00">
        <routeDistribution>
            <route replacedOnEdge="" reason="device.rerouting" replacedAtTime="97.00" probability="0" edges="gneE0 0-0to1-0 1-0to1-1 1-1to1-2 1-2to2-2 gneE1"/>
            <route edges="gneE0 0-0to1-0 1-0to1-1 1-1to2-1 2-1to2-2 gneE1"/>
        </routeDistribution>
    </vehicle>

    <vehicle id="type1.26" type="car" depart="65.00" color="yellow" arrival="327.00">
        <route edges="gneE0 0-0to1-0 1-0to1-1 1-1to1-2 1-2to2-2 gneE1"/>
    </vehicle>

    <vehicle id="type1.27" type="car" depart="68.00" color="yellow" arrival="328.00">
        <route edges="gneE0 0-0to1-0 1-0to1-1 1-1to1-2 1-2to2-2 gneE1"/>
    </vehicle>

    <vehicle id="type1.38" type="car" depart="123.00" color="yellow" arrival="328.00">
        <routeDistribution>
            <route replacedOnEdge="" reason="device.rerouting" replacedAtTime="98.00" probability="0" edges="gneE0 0-0to1-0 1-0to1-1 1-1to1-2 1-2to2-2 gneE1"/>
            <route edges="gneE0 0-0to1-0 1-0to1-1 1-1to2-1 2-1to2-2 gneE1"/>
        </routeDistribution>
    </vehicle>

    <vehicle id="type1.28" type="car" depart="71.00" color="yellow" arrival="329.00">
        <route edges="gneE0 0-0to1-0 1-0to1-1 1-1to1-2 1-2to2-2 gneE1"/>
    </vehicle>

    <vehicle id="type1.39" type="car" depart="126.00" color="yellow" arrival="329.00">
        <routeDistribution>
            <route replacedOnEdge="" reason="device.rerouting" replacedAtTime="99.00" probability="0" edges="gneE0 0-0to1-0 1-0to1-1 1-1to1-2 1-2to2-2 gneE1"/>
            <route edges="gneE0 0-0to1-0 1-0to1-1 1-1to2-1 2-1to2-2 gneE1"/>
        </routeDistribution>
    </vehicle>

    <vehicle id="type1.65" type="car" depart="256.00" color="yellow" arrival="337.00">
        <routeDistribution>
            <route replacedOnEdge="" reason="device.rerouting" replacedAtTime="125.00" probability="0" edges="gneE0 0-0to1-0 1-0to1-1 1-1to1-2 1-2to2-2 gneE1"/>
            <route replacedOnEdge="" reason="device.rerouting" replacedAtTime="245.00" probability="0" edges="gneE0 0-0to1-0 1-0to2-0 2-0to2-1 2-1to2-2 gneE1"/>
            <route edges="gneE0 0-0to0-1 0-1to1-1 1-1to2-1 2-1to2-2 gneE1"/>
        </routeDistribution>
    </vehicle>

    <vehicle id="type1.41" type="car" depart="132.00" color="yellow" arrival="345.00">
        <routeDistribution>
            <route replacedOnEdge="" reason="device.rerouting" replacedAtTime="101.00" probability="0" edges="gneE0 0-0to1-0 1-0to1-1 1-1to1-2 1-2to2-2 gneE1"/>
            <route edges="gneE0 0-0to1-0 1-0to2-0 2-0to2-1 2-1to2-2 gneE1"/>
        </routeDistribution>
    </vehicle>

    <vehicle id="type1.42" type="car" depart="135.00" color="yellow" arrival="346.00">
        <routeDistribution>
            <route replacedOnEdge="" reason="device.rerouting" replacedAtTime="102.00" probability="0" edges="gneE0 0-0to1-0 1-0to1-1 1-1to1-2 1-2to2-2 gneE1"/>
            <route edges="gneE0 0-0to1-0 1-0to2-0 2-0to2-1 2-1to2-2 gneE1"/>
        </routeDistribution>
    </vehicle>

    <vehicle id="type1.43" type="car" depart="138.00" color="yellow" arrival="347.00">
        <routeDistribution>
            <route replacedOnEdge="" reason="device.rerouting" replacedAtTime="103.00" probability="0" edges="gneE0 0-0to1-0 1-0to1-1 1-1to1-2 1-2to2-2 gneE1"/>
            <route edges="gneE0 0-0to1-0 1-0to2-0 2-0to2-1 2-1to2-2 gneE1"/>
        </routeDistribution>
    </vehicle>

    <vehicle id="type1.44" type="car" depart="141.00" color="yellow" arrival="349.00">
        <routeDistribution>
            <route replacedOnEdge="" reason="device.rerouting" replacedAtTime="104.00" probability="0" edges="gneE0 0-0to1-0 1-0to1-1 1-1to1-2 1-2to2-2 gneE1"/>
            <route edges="gneE0 0-0to1-0 1-0to2-0 2-0to2-1 2-1to2-2 gneE1"/>
        </routeDistribution>
    </vehicle>

    <vehicle id="type1.45" type="car" depart="144.00" color="yellow" arrival="350.00">
        <routeDistribution>
            <route replacedOnEdge="" reason="device.rerouting" replacedAtTime="105.00" probability="0" edges="gneE0 0-0to1-0 1-0to1-1 1-1to1-2 1-2to2-2 gneE1"/>
            <route edges="gneE0 0-0to1-0 1-0to2-0 2-0to2-1 2-1to2-2 gneE1"/>
        </routeDistribution>
    </vehicle>

    <vehicle id="type1.46" type="car" depart="147.00" color="yellow" arrival="352.00">
        <routeDistribution>
            <route replacedOnEdge="" reason="device.rerouting" replacedAtTime="106.00" probability="0" edges="gneE0 0-0to1-0 1-0to1-1 1-1to1-2 1-2to2-2 gneE1"/>
            <route edges="gneE0 0-0to1-0 1-0to2-0 2-0to2-1 2-1to2-2 gneE1"/>
        </routeDistribution>
    </vehicle>

    <vehicle id="type1.47" type="car" depart="176.00" color="yellow" arrival="353.00">
        <routeDistribution>
            <route replacedOnEdge="" reason="device.rerouting" replacedAtTime="107.00" probability="0" edges="gneE0 0-0to1-0 1-0to1-1 1-1to1-2 1-2to2-2 gneE1"/>
            <route edges="gneE0 0-0to1-0 1-0to2-0 2-0to2-1 2-1to2-2 gneE1"/>
        </routeDistribution>
    </vehicle>

    <vehicle id="type1.48" type="car" depart="179.00" color="yellow" arrival="360.00">
        <routeDistribution>
            <route replacedOnEdge="" reason="device.rerouting" replacedAtTime="108.00" probability="0" edges="gneE0 0-0to1-0 1-0to1-1 1-1to1-2 1-2to2-2 gneE1"/>
            <route edges="gneE0 0-0to1-0 1-0to2-0 2-0to2-1 2-1to2-2 gneE1"/>
        </routeDistribution>
    </vehicle>

    <vehicle id="type1.49" type="car" depart="182.00" color="yellow" arrival="361.00">
        <routeDistribution>
            <route replacedOnEdge="" reason="device.rerouting" replacedAtTime="109.00" probability="0" edges="gneE0 0-0to1-0 1-0to1-1 1-1to1-2 1-2to2-2 gneE1"/>
            <route edges="gneE0 0-0to1-0 1-0to2-0 2-0to2-1 2-1to2-2 gneE1"/>
        </routeDistribution>
    </vehicle>

    <vehicle id="type1.50" type="car" depart="185.00" color="yellow" arrival="363.00">
        <routeDistribution>
            <route replacedOnEdge="" reason="device.rerouting" replacedAtTime="110.00" probability="0" edges="gneE0 0-0to1-0 1-0to1-1 1-1to1-2 1-2to2-2 gneE1"/>
            <route edges="gneE0 0-0to1-0 1-0to2-0 2-0to2-1 2-1to2-2 gneE1"/>
        </routeDistribution>
    </vehicle>

    <vehicle id="type1.51" type="car" depart="188.00" color="yellow" arrival="364.00">
        <routeDistribution>
            <route replacedOnEdge="" reason="device.rerouting" replacedAtTime="111.00" probability="0" edges="gneE0 0-0to1-0 1-0to1-1 1-1to1-2 1-2to2-2 gneE1"/>
            <route edges="gneE0 0-0to1-0 1-0to2-0 2-0to2-1 2-1to2-2 gneE1"/>
        </routeDistribution>
    </vehicle>

    <vehicle id="type1.52" type="car" depart="191.00" color="yellow" arrival="365.00">
        <routeDistribution>
            <route replacedOnEdge="" reason="device.rerouting" replacedAtTime="112.00" probability="0" edges="gneE0 0-0to1-0 1-0to1-1 1-1to1-2 1-2to2-2 gneE1"/>
            <route edges="gneE0 0-0to1-0 1-0to2-0 2-0to2-1 2-1to2-2 gneE1"/>
        </routeDistribution>
    </vehicle>

    <vehicle id="type1.53" type="car" depart="194.00" color="yellow" arrival="367.00">
        <routeDistribution>
            <route replacedOnEdge="" reason="device.rerouting" replacedAtTime="113.00" probability="0" edges="gneE0 0-0to1-0 1-0to1-1 1-1to1-2 1-2to2-2 gneE1"/>
            <route edges="gneE0 0-0to1-0 1-0to2-0 2-0to2-1 2-1to2-2 gneE1"/>
        </routeDistribution>
    </vehicle>

    <vehicle id="type1.54" type="car" depart="197.00" color="yellow" arrival="368.00">
        <routeDistribution>
            <route replacedOnEdge="" reason="device.rerouting" replacedAtTime="114.00" probability="0" edges="gneE0 0-0to1-0 1-0to1-1 1-1to1-2 1-2to2-2 gneE1"/>
            <route edges="gneE0 0-0to1-0 1-0to2-0 2-0to2-1 2-1to2-2 gneE1"/>
        </routeDistribution>
    </vehicle>

    <vehicle id="type1.55" type="car" depart="200.00" color="yellow" arrival="370.00">
        <routeDistribution>
            <route replacedOnEdge="" reason="device.rerouting" replacedAtTime="115.00" probability="0" edges="gneE0 0-0to1-0 1-0to1-1 1-1to1-2 1-2to2-2 gneE1"/>
            <route edges="gneE0 0-0to1-0 1-0to2-0 2-0to2-1 2-1to2-2 gneE1"/>
        </routeDistribution>
    </vehicle>

    <vehicle id="type1.56" type="car" depart="203.00" color="yellow" arrival="371.00">
        <routeDistribution>
            <route replacedOnEdge="" reason="device.rerouting" replacedAtTime="116.00" probability="0" edges="gneE0 0-0to1-0 1-0to1-1 1-1to1-2 1-2to2-2 gneE1"/>
            <route edges="gneE0 0-0to1-0 1-0to2-0 2-0to2-1 2-1to2-2 gneE1"/>
        </routeDistribution>
    </vehicle>

    <vehicle id="type1.57" type="car" depart="206.00" color="yellow" arrival="373.00">
        <routeDistribution>
            <route replacedOnEdge="" reason="device.rerouting" replacedAtTime="117.00" probability="0" edges="gneE0 0-0to1-0 1-0to1-1 1-1to1-2 1-2to2-2 gneE1"/>
            <route edges="gneE0 0-0to1-0 1-0to2-0 2-0to2-1 2-1to2-2 gneE1"/>
        </routeDistribution>
    </vehicle>

    <vehicle id="type1.58" type="car" depart="209.00" color="yellow" arrival="374.00">
        <routeDistribution>
            <route replacedOnEdge="" reason="device.rerouting" replacedAtTime="118.00" probability="0" edges="gneE0 0-0to1-0 1-0to1-1 1-1to1-2 1-2to2-2 gneE1"/>
            <route edges="gneE0 0-0to1-0 1-0to2-0 2-0to2-1 2-1to2-2 gneE1"/>
        </routeDistribution>
    </vehicle>

    <vehicle id="type1.59" type="car" depart="212.00" color="yellow" arrival="375.00">
        <routeDistribution>
            <route replacedOnEdge="" reason="device.rerouting" replacedAtTime="119.00" probability="0" edges="gneE0 0-0to1-0 1-0to1-1 1-1to1-2 1-2to2-2 gneE1"/>
            <route edges="gneE0 0-0to1-0 1-0to2-0 2-0to2-1 2-1to2-2 gneE1"/>
        </routeDistribution>
    </vehicle>

    <vehicle id="type1.60" type="car" depart="215.00" color="yellow" arrival="377.00">
        <routeDistribution>
            <route replacedOnEdge="" reason="device.rerouting" replacedAtTime="120.00" probability="0" edges="gneE0 0-0to1-0 1-0to1-1 1-1to1-2 1-2to2-2 gneE1"/>
            <route edges="gneE0 0-0to1-0 1-0to2-0 2-0to2-1 2-1to2-2 gneE1"/>
        </routeDistribution>
    </vehicle>

    <vehicle id="type1.66" type="car" depart="257.00" color="yellow" arrival="399.00">
        <routeDistribution>
            <route replacedOnEdge="" reason="device.rerouting" replacedAtTime="126.00" probability="0" edges="gneE0 0-0to1-0 1-0to1-1 1-1to1-2 1-2to2-2 gneE1"/>
            <route replacedOnEdge="" reason="device.rerouting" replacedAtTime="246.00" probability="0" edges="gneE0 0-0to1-0 1-0to2-0 2-0to2-1 2-1to2-2 gneE1"/>
            <route edges="gneE0 0-0to0-1 0-1to1-1 1-1to2-1 2-1to2-2 gneE1"/>
        </routeDistribution>
    </vehicle>

    <vehicle id="type1.67" type="car" depart="260.00" color="yellow" arrival="400.00">
        <routeDistribution>
            <route replacedOnEdge="" reason="device.rerouting" replacedAtTime="127.00" probability="0" edges="gneE0 0-0to1-0 1-0to1-1 1-1to1-2 1-2to2-2 gneE1"/>
            <route replacedOnEdge="" reason="device.rerouting" replacedAtTime="247.00" probability="0" edges="gneE0 0-0to1-0 1-0to2-0 2-0to2-1 2-1to2-2 gneE1"/>
            <route edges="gneE0 0-0to0-1 0-1to1-1 1-1to2-1 2-1to2-2 gneE1"/>
        </routeDistribution>
    </vehicle>

    <vehicle id="type1.68" type="car" depart="261.00" color="yellow" arrival="402.00">
        <routeDistribution>
            <route replacedOnEdge="" reason="device.rerouting" replacedAtTime="128.00" probability="0" edges="gneE0 0-0to1-0 1-0to1-1 1-1to1-2 1-2to2-2 gneE1"/>
            <route replacedOnEdge="" reason="device.rerouting" replacedAtTime="188.00" probability="0" edges="gneE0 0-0to1-0 1-0to2-0 2-0to2-1 2-1to2-2 gneE1"/>
            <route edges="gneE0 0-0to0-1 0-1to1-1 1-1to2-1 2-1to2-2 gneE1"/>
        </routeDistribution>
    </vehicle>

    <vehicle id="type1.69" type="car" depart="264.00" color="yellow" arrival="403.00">
        <routeDistribution>
            <route replacedOnEdge="" reason="device.rerouting" replacedAtTime="129.00" probability="0" edges="gneE0 0-0to1-0 1-0to1-1 1-1to1-2 1-2to2-2 gneE1"/>
            <route replacedOnEdge="" reason="device.rerouting" replacedAtTime="189.00" probability="0" edges="gneE0 0-0to1-0 1-0to2-0 2-0to2-1 2-1to2-2 gneE1"/>
            <route edges="gneE0 0-0to0-1 0-1to1-1 1-1to2-1 2-1to2-2 gneE1"/>
        </routeDistribution>
    </vehicle>

    <vehicle id="type1.70" type="car" depart="265.00" color="yellow" arrival="405.00">
        <routeDistribution>
            <route replacedOnEdge="" reason="device.rerouting" replacedAtTime="130.00" probability="0" edges="gneE0 0-0to1-0 1-0to1-1 1-1to2-1 2-1to2-2 gneE1"/>
            <route replacedOnEdge="" reason="device.rerouting" replacedAtTime="190.00" probability="0" edges="gneE0 0-0to1-0 1-0to2-0 2-0to2-1 2-1to2-2 gneE1"/>
            <route edges="gneE0 0-0to0-1 0-1to1-1 1-1to2-1 2-1to2-2 gneE1"/>
        </routeDistribution>
    </vehicle>

    <vehicle id="type1.71" type="car" depart="268.00" color="yellow" arrival="406.00">
        <routeDistribution>
            <route replacedOnEdge="" reason="device.rerouting" replacedAtTime="131.00" probability="0" edges="gneE0 0-0to1-0 1-0to1-1 1-1to2-1 2-1to2-2 gneE1"/>
            <route replacedOnEdge="" reason="device.rerouting" replacedAtTime="191.00" probability="0" edges="gneE0 0-0to1-0 1-0to2-0 2-0to2-1 2-1to2-2 gneE1"/>
            <route edges="gneE0 0-0to0-1 0-1to1-1 1-1to2-1 2-1to2-2 gneE1"/>
        </routeDistribution>
    </vehicle>

    <vehicle id="type1.72" type="car" depart="269.00" color="yellow" arrival="408.00">
        <routeDistribution>
            <route replacedOnEdge="" reason="device.rerouting" replacedAtTime="141.00" probability="0" edges="gneE0 0-0to1-0 1-0to1-1 1-1to2-1 2-1to2-2 gneE1"/>
            <route replacedOnEdge="" reason="device.rerouting" replacedAtTime="201.00" probability="0" edges="gneE0 0-0to1-0 1-0to2-0 2-0to2-1 2-1to2-2 gneE1"/>
            <route edges="gneE0 0-0to0-1 0-1to1-1 1-1to2-1 2-1to2-2 gneE1"/>
        </routeDistribution>
    </vehicle>

    <vehicle id="type1.73" type="car" depart="272.00" color="yellow" arrival="409.00">
        <routeDistribution>
            <route replacedOnEdge="" reason="device.rerouting" replacedAtTime="141.00" probability="0" edges="gneE0 0-0to1-0 1-0to1-1 1-1to2-1 2-1to2-2 gneE1"/>
            <route replacedOnEdge="" reason="device.rerouting" replacedAtTime="201.00" probability="0" edges="gneE0 0-0to1-0 1-0to2-0 2-0to2-1 2-1to2-2 gneE1"/>
            <route edges="gneE0 0-0to0-1 0-1to1-1 1-1to2-1 2-1to2-2 gneE1"/>
        </routeDistribution>
    </vehicle>

    <vehicle id="type1.88" type="car" depart="301.00" color="yellow" arrival="410.00">
        <routeDistribution>
            <route replacedOnEdge="" reason="device.rerouting" replacedAtTime="161.00" probability="0" edges="gneE0 0-0to1-0 1-0to1-1 1-1to2-1 2-1to2-2 gneE1"/>
            <route replacedOnEdge="" reason="device.rerouting" replacedAtTime="221.00" probability="0" edges="gneE0 0-0to1-0 1-0to2-0 2-0to2-1 2-1to2-2 gneE1"/>
            <route edges="gneE0 0-0to0-1 0-1to1-1 1-1to2-1 2-1to2-2 gneE1"/>
        </routeDistribution>
    </vehicle>

    <vehicle id="type1.74" type="car" depart="273.00" color="yellow" arrival="412.00">
        <routeDistribution>
            <route replacedOnEdge="" reason="device.rerouting" replacedAtTime="141.00" probability="0" edges="gneE0 0-0to1-0 1-0to1-1 1-1to2-1 2-1to2-2 gneE1"/>
            <route replacedOnEdge="" reason="device.rerouting" replacedAtTime="201.00" probability="0" edges="gneE0 0-0to1-0 1-0to2-0 2-0to2-1 2-1to2-2 gneE1"/>
            <route edges="gneE0 0-0to0-1 0-1to1-1 1-1to2-1 2-1to2-2 gneE1"/>
        </routeDistribution>
    </vehicle>

    <vehicle id="type1.90" type="car" depart="305.00" color="yellow" arrival="413.00">
        <routeDistribution>
            <route replacedOnEdge="" reason="device.rerouting" replacedAtTime="161.00" probability="0" edges="gneE0 0-0to1-0 1-0to1-1 1-1to2-1 2-1to2-2 gneE1"/>
            <route replacedOnEdge="" reason="device.rerouting" replacedAtTime="221.00" probability="0" edges="gneE0 0-0to1-0 1-0to2-0 2-0to2-1 2-1to2-2 gneE1"/>
            <route edges="gneE0 0-0to0-1 0-1to1-1 1-1to2-1 2-1to2-2 gneE1"/>
        </routeDistribution>
    </vehicle>

    <vehicle id="type1.75" type="car" depart="276.00" color="yellow" arrival="415.00">
        <routeDistribution>
            <route replacedOnEdge="" reason="device.rerouting" replacedAtTime="141.00" probability="0" edges="gneE0 0-0to1-0 1-0to1-1 1-1to2-1 2-1to2-2 gneE1"/>
            <route replacedOnEdge="" reason="device.rerouting" replacedAtTime="201.00" probability="0" edges="gneE0 0-0to1-0 1-0to2-0 2-0to2-1 2-1to2-2 gneE1"/>
            <route edges="gneE0 0-0to0-1 0-1to1-1 1-1to2-1 2-1to2-2 gneE1"/>
        </routeDistribution>
    </vehicle>

    <vehicle id="type1.91" type="car" depart="308.00" color="yellow" arrival="416.00">
        <routeDistribution>
            <route replacedOnEdge="" reason="device.rerouting" replacedAtTime="161.00" probability="0" edges="gneE0 0-0to1-0 1-0to1-1 1-1to2-1 2-1to2-2 gneE1"/>
            <route replacedOnEdge="" reason="device.rerouting" replacedAtTime="221.00" probability="0" edges="gneE0 0-0to1-0 1-0to2-0 2-0to2-1 2-1to2-2 gneE1"/>
            <route edges="gneE0 0-0to0-1 0-1to1-1 1-1to2-1 2-1to2-2 gneE1"/>
        </routeDistribution>
    </vehicle>

    <vehicle id="type1.92" type="car" depart="311.00" color="yellow" arrival="418.00">
        <routeDistribution>
            <route replacedOnEdge="" reason="device.rerouting" replacedAtTime="161.00" probability="0" edges="gneE0 0-0to1-0 1-0to1-1 1-1to2-1 2-1to2-2 gneE1"/>
            <route replacedOnEdge="" reason="device.rerouting" replacedAtTime="221.00" probability="0" edges="gneE0 0-0to1-0 1-0to2-0 2-0to2-1 2-1to2-2 gneE1"/>
            <route edges="gneE0 0-0to0-1 0-1to1-1 1-1to2-1 2-1to2-2 gneE1"/>
        </routeDistribution>
    </vehicle>

    <vehicle id="type1.61" type="car" depart="218.00" color="yellow" arrival="430.00">
        <routeDistribution>
            <route replacedOnEdge="" reason="device.rerouting" replacedAtTime="121.00" probability="0" edges="gneE0 0-0to1-0 1-0to1-1 1-1to1-2 1-2to2-2 gneE1"/>
            <route edges="gneE0 0-0to1-0 1-0to2-0 2-0to2-1 2-1to2-2 gneE1"/>
        </routeDistribution>
    </vehicle>

    <vehicle id="type1.62" type="car" depart="221.00" color="yellow" arrival="431.00">
        <routeDistribution>
            <route replacedOnEdge="" reason="device.rerouting" replacedAtTime="122.00" probability="0" edges="gneE0 0-0to1-0 1-0to1-1 1-1to1-2 1-2to2-2 gneE1"/>
            <route edges="gneE0 0-0to1-0 1-0to2-0 2-0to2-1 2-1to2-2 gneE1"/>
        </routeDistribution>
    </vehicle>

    <vehicle id="type1.63" type="car" depart="224.00" color="yellow" arrival="433.00">
        <routeDistribution>
            <route replacedOnEdge="" reason="device.rerouting" replacedAtTime="123.00" probability="0" edges="gneE0 0-0to1-0 1-0to1-1 1-1to1-2 1-2to2-2 gneE1"/>
            <route edges="gneE0 0-0to1-0 1-0to2-0 2-0to2-1 2-1to2-2 gneE1"/>
        </routeDistribution>
    </vehicle>

    <vehicle id="type1.64" type="car" depart="227.00" color="yellow" arrival="434.00">
        <routeDistribution>
            <route replacedOnEdge="" reason="device.rerouting" replacedAtTime="124.00" probability="0" edges="gneE0 0-0to1-0 1-0to1-1 1-1to1-2 1-2to2-2 gneE1"/>
            <route edges="gneE0 0-0to1-0 1-0to2-0 2-0to2-1 2-1to2-2 gneE1"/>
        </routeDistribution>
    </vehicle>

    <vehicle id="type1.76" type="car" depart="277.00" color="yellow" arrival="470.00">
        <routeDistribution>
            <route replacedOnEdge="" reason="device.rerouting" replacedAtTime="141.00" probability="0" edges="gneE0 0-0to1-0 1-0to1-1 1-1to2-1 2-1to2-2 gneE1"/>
            <route replacedOnEdge="" reason="device.rerouting" replacedAtTime="201.00" probability="0" edges="gneE0 0-0to1-0 1-0to2-0 2-0to2-1 2-1to2-2 gneE1"/>
            <route edges="gneE0 0-0to0-1 0-1to1-1 1-1to2-1 2-1to2-2 gneE1"/>
        </routeDistribution>
    </vehicle>

    <vehicle id="type1.77" type="car" depart="280.00" color="yellow" arrival="471.00">
        <routeDistribution>
            <route replacedOnEdge="" reason="device.rerouting" replacedAtTime="141.00" probability="0" edges="gneE0 0-0to1-0 1-0to1-1 1-1to2-1 2-1to2-2 gneE1"/>