<?xml version="1.0" encoding="UTF-8"?>

<!-- generated on 2022-10-06 13:04:59 by Eclipse SUMO sumo Version v1_14_1+1475-3cfd7ac
This data file and the accompanying materials
are made available under the terms of the Eclipse Public License v2.0
which accompanies this distribution, and is available at
http://www.eclipse.org/legal/epl-v20.html
This file may also be made available under the following Secondary
Licenses when the conditions for such availability set forth in the Eclipse
Public License 2.0 are satisfied: GNU General Public License, version 2
or later which is available at
https://www.gnu.org/licenses/old-licenses/gpl-2.0-standalone.html
SPDX-License-Identifier: EPL-2.0 OR GPL-2.0-or-later
<configuration xmlns:xsi="http://www.w3.org/2001/XMLSchema-instance" xsi:noNamespaceSchemaLocation="http://sumo.dlr.de/xsd/sumoConfiguration.xsd">

    <input>
        <net-file value="net.net.xml"/>
        <route-files value="input_routes.rou.xml"/>
        <additional-files value="input_additional.add.xml,input_additional2.add.xml"/>
    </input>

    <output>
        <write-license value="true"/>
        <tripinfo-output value="tripinfos.xml"/>
        <railsignal-block-output value="railsignal_blocks.xml"/>
    </output>

    <processing>
        <default.speeddev value="0"/>
    </processing>

    <report>
        <xml-validation value="never"/>
        <duration-log.disable value="true"/>
        <no-step-log value="true"/>
    </report>

</configuration>
-->

<tripinfos xmlns:xsi="http://www.w3.org/2001/XMLSchema-instance" xsi:noNamespaceSchemaLocation="http://sumo.dlr.de/xsd/tripinfo_file.xsd">
    <tripinfo id="t1" depart="20.00" departLane="-f2_0" departPos="50.10" departSpeed="13.89" departDelay="0.00" arrival="178.00" arrivalLane="-a2_0" arrivalPos="200.00" arrivalSpeed="5.00" duration="158.00" routeLength="891.32" waitingTime="0.00" waitingCount="0" stopTime="40.00" timeLoss="53.65" rerouteNo="0" devices="tripinfo_t1" vType="train" speedFactor="1.00" vaporized=""/>
    <tripinfo id="t0" depart="0.00" departLane="a_0" departPos="50.10" departSpeed="13.89" departDelay="0.00" arrival="240.00" arrivalLane="f_0" arrivalPos="200.00" arrivalSpeed="5.00" duration="240.00" routeLength="849.90" waitingTime="68.00" waitingCount="1" stopTime="40.00" timeLoss="138.64" rerouteNo="0" devices="tripinfo_t0" vType="train" speedFactor="1.00" vaporized=""/>
</tripinfos>
