<?xml version="1.0" encoding="UTF-8"?>

<!-- generated on 2022-10-26 20:32:10 by Eclipse SUMO sumo Version v1_14_1+1635-30347d4bd51
This data file and the accompanying materials
are made available under the terms of the Eclipse Public License v2.0
which accompanies this distribution, and is available at
http://www.eclipse.org/legal/epl-v20.html
This file may also be made available under the following Secondary
Licenses when the conditions for such availability set forth in the Eclipse
Public License 2.0 are satisfied: GNU General Public License, version 2
or later which is available at
https://www.gnu.org/licenses/old-licenses/gpl-2.0-standalone.html
SPDX-License-Identifier: EPL-2.0 OR GPL-2.0-or-later
<configuration xmlns:xsi="http://www.w3.org/2001/XMLSchema-instance" xsi:noNamespaceSchemaLocation="http://sumo.dlr.de/xsd/sumoConfiguration.xsd">

    <input>
        <net-file value="net.net.xml"/>
        <route-files value="input_routes.rou.xml"/>
    </input>

    <output>
        <write-license value="true"/>
        <fcd-output value="fcd.xml"/>
    </output>

    <time>
        <begin value="0"/>
        <end value="3000"/>
    </time>

    <processing>
        <default.speeddev value="0"/>
    </processing>

    <report>
        <xml-validation value="never"/>
        <duration-log.disable value="true"/>
        <no-step-log value="true"/>
    </report>

</configuration>
-->

<fcd-export xmlns:xsi="http://www.w3.org/2001/XMLSchema-instance" xsi:noNamespaceSchemaLocation="http://sumo.dlr.de/xsd/fcd_file.xsd">
    <timestep time="0.00">
        <vehicle id="r0" x="200.09" y="0.24" z="1.00" angle="89.46" type="0" speed="0.00" pos="200.10" lane="e0_0" slope="0.29"/>
    </timestep>
    <timestep time="1.00">
        <vehicle id="r0" x="200.72" y="0.25" z="1.00" angle="89.46" type="0" speed="0.63" pos="200.73" lane="e0_0" slope="0.29"/>
    </timestep>
    <timestep time="2.00">
        <vehicle id="r0" x="201.97" y="0.26" z="1.01" angle="89.46" type="0" speed="1.25" pos="201.98" lane="e0_0" slope="0.29"/>
    </timestep>
    <timestep time="3.00">
        <vehicle id="r0" x="203.85" y="0.28" z="1.02" angle="89.46" type="0" speed="1.88" pos="203.85" lane="e0_0" slope="0.29"/>
    </timestep>
    <timestep time="4.00">
        <vehicle id="r0" x="206.35" y="0.30" z="1.03" angle="89.46" type="0" speed="2.50" pos="206.36" lane="e0_0" slope="0.29"/>
    </timestep>
    <timestep time="5.00">
        <vehicle id="r0" x="209.48" y="0.33" z="1.05" angle="89.46" type="0" speed="3.13" pos="209.48" lane="e0_0" slope="0.29"/>
    </timestep>
    <timestep time="6.00">
        <vehicle id="r0" x="213.23" y="0.36" z="1.07" angle="89.46" type="0" speed="3.75" pos="213.24" lane="e0_0" slope="0.29"/>
    </timestep>
    <timestep time="7.00">
        <vehicle id="r0" x="217.61" y="0.41" z="1.09" angle="89.46" type="0" speed="4.38" pos="217.61" lane="e0_0" slope="0.29"/>
    </timestep>
    <timestep time="8.00">
        <vehicle id="r0" x="222.61" y="0.45" z="1.11" angle="89.46" type="0" speed="5.00" pos="222.62" lane="e0_0" slope="0.29"/>
    </timestep>
    <timestep time="9.00">
        <vehicle id="r0" x="228.23" y="0.51" z="1.14" angle="89.46" type="0" speed="5.63" pos="228.24" lane="e0_0" slope="0.29"/>
    </timestep>
    <timestep time="10.00">
        <vehicle id="r0" x="234.48" y="0.57" z="1.17" angle="89.46" type="0" speed="6.25" pos="234.49" lane="e0_0" slope="0.29"/>
    </timestep>
    <timestep time="11.00">
        <vehicle id="r0" x="241.36" y="0.63" z="1.21" angle="89.46" type="0" speed="6.87" pos="241.37" lane="e0_0" slope="0.29"/>
    </timestep>
    <timestep time="12.00">
        <vehicle id="r0" x="248.85" y="0.70" z="1.25" angle="89.46" type="0" speed="7.50" pos="248.87" lane="e0_0" slope="0.29"/>
    </timestep>
    <timestep time="13.00">
        <vehicle id="r0" x="256.97" y="0.78" z="1.29" angle="89.46" type="0" speed="8.12" pos="256.99" lane="e0_0" slope="0.29"/>
    </timestep>
    <timestep time="14.00">
        <vehicle id="r0" x="265.72" y="0.86" z="1.33" angle="89.46" type="0" speed="8.74" pos="265.73" lane="e0_0" slope="0.29"/>
    </timestep>
    <timestep time="15.00">
        <vehicle id="r0" x="275.08" y="0.95" z="1.38" angle="89.46" type="0" speed="9.37" pos="275.10" lane="e0_0" slope="0.29"/>
    </timestep>
    <timestep time="16.00">
        <vehicle id="r0" x="285.07" y="1.04" z="1.43" angle="89.46" type="0" speed="9.99" pos="285.08" lane="e0_0" slope="0.29"/>
    </timestep>
    <timestep time="17.00">
        <vehicle id="r0" x="295.68" y="1.14" z="1.48" angle="89.46" type="0" speed="10.61" pos="295.69" lane="e0_0" slope="0.29"/>
    </timestep>
    <timestep time="18.00">
        <vehicle id="r0" x="306.91" y="1.25" z="1.54" angle="89.46" type="0" speed="11.23" pos="306.92" lane="e0_0" slope="0.29"/>
    </timestep>
    <timestep time="19.00">
        <vehicle id="r0" x="318.76" y="1.36" z="1.59" angle="89.46" type="0" speed="11.85" pos="318.78" lane="e0_0" slope="0.29"/>
    </timestep>
    <timestep time="20.00">
        <vehicle id="r0" x="331.23" y="1.48" z="1.66" angle="89.46" type="0" speed="12.47" pos="331.25" lane="e0_0" slope="0.29"/>
    </timestep>
    <timestep time="21.00">
        <vehicle id="r0" x="344.32" y="1.60" z="1.72" angle="89.46" type="0" speed="13.09" pos="344.35" lane="e0_0" slope="0.29"/>
    </timestep>
    <timestep time="22.00">
        <vehicle id="r0" x="358.03" y="1.73" z="1.79" angle="89.46" type="0" speed="13.71" pos="358.06" lane="e0_0" slope="0.29"/>
    </timestep>
    <timestep time="23.00">
        <vehicle id="r0" x="372.37" y="1.87" z="1.86" angle="89.46" type="0" speed="14.33" pos="372.39" lane="e0_0" slope="0.29"/>
    </timestep>
    <timestep time="24.00">
        <vehicle id="r0" x="387.32" y="2.01" z="1.94" angle="89.46" type="0" speed="14.95" pos="387.34" lane="e0_0" slope="0.29"/>
    </timestep>
    <timestep time="25.00">
        <vehicle id="r0" x="402.88" y="2.16" z="2.02" angle="89.46" type="0" speed="15.57" pos="402.92" lane="e0_0" slope="0.29"/>
    </timestep>
    <timestep time="26.00">
        <vehicle id="r0" x="419.07" y="2.31" z="2.10" angle="89.46" type="0" speed="16.19" pos="419.10" lane="e0_0" slope="0.29"/>
    </timestep>
    <timestep time="27.00">
        <vehicle id="r0" x="435.88" y="2.47" z="2.18" angle="89.46" type="0" speed="16.81" pos="435.91" lane="e0_0" slope="0.29"/>
    </timestep>
    <timestep time="28.00">
        <vehicle id="r0" x="453.30" y="2.63" z="2.27" angle="89.46" type="0" speed="17.42" pos="453.33" lane="e0_0" slope="0.29"/>
    </timestep>
    <timestep time="29.00">
        <vehicle id="r0" x="471.33" y="2.80" z="2.36" angle="89.46" type="0" speed="18.04" pos="471.37" lane="e0_0" slope="0.29"/>
    </timestep>
    <timestep time="30.00">
        <vehicle id="r0" x="489.99" y="2.98" z="2.45" angle="89.46" type="0" speed="18.66" pos="490.03" lane="e0_0" slope="0.29"/>
    </timestep>
    <timestep time="31.00">
        <vehicle id="r0" x="509.25" y="3.16" z="2.55" angle="89.46" type="0" speed="19.27" pos="509.30" lane="e0_0" slope="0.29"/>
    </timestep>
    <timestep time="32.00">
        <vehicle id="r0" x="529.14" y="3.35" z="2.65" angle="89.46" type="0" speed="19.88" pos="529.18" lane="e0_0" slope="0.29"/>
    </timestep>
    <timestep time="33.00">
        <vehicle id="r0" x="549.63" y="3.54" z="2.75" angle="89.46" type="0" speed="20.50" pos="549.68" lane="e0_0" slope="0.29"/>
    </timestep>
    <timestep time="34.00">
        <vehicle id="r0" x="570.74" y="3.74" z="2.86" angle="89.46" type="0" speed="21.11" pos="570.79" lane="e0_0" slope="0.29"/>
    </timestep>
    <timestep time="35.00">
        <vehicle id="r0" x="592.46" y="3.95" z="2.96" angle="89.46" type="0" speed="21.72" pos="592.52" lane="e0_0" slope="0.29"/>
    </timestep>
    <timestep time="36.00">
        <vehicle id="r0" x="614.80" y="4.16" z="3.08" angle="89.46" type="0" speed="22.34" pos="614.85" lane="e0_0" slope="0.29"/>
    </timestep>
    <timestep time="37.00">
        <vehicle id="r0" x="637.74" y="4.37" z="3.19" angle="89.46" type="0" speed="22.95" pos="637.80" lane="e0_0" slope="0.29"/>
    </timestep>
    <timestep time="38.00">
        <vehicle id="r0" x="661.30" y="4.60" z="3.31" angle="89.46" type="0" speed="23.56" pos="661.36" lane="e0_0" slope="0.29"/>
    </timestep>
    <timestep time="39.00">
        <vehicle id="r0" x="685.46" y="4.83" z="3.43" angle="89.46" type="0" speed="24.17" pos="685.53" lane="e0_0" slope="0.29"/>
    </timestep>
    <timestep time="40.00">
        <vehicle id="r0" x="710.24" y="5.06" z="3.55" angle="89.46" type="0" speed="24.78" pos="710.31" lane="e0_0" slope="0.29"/>
    </timestep>
    <timestep time="41.00">
        <vehicle id="r0" x="735.62" y="5.30" z="3.68" angle="89.46" type="0" speed="25.39" pos="735.70" lane="e0_0" slope="0.29"/>
    </timestep>
    <timestep time="42.00">
        <vehicle id="r0" x="761.62" y="5.55" z="3.81" angle="89.46" type="0" speed="26.00" pos="761.69" lane="e0_0" slope="0.29"/>
    </timestep>
    <timestep time="43.00">
        <vehicle id="r0" x="788.22" y="5.80" z="3.94" angle="89.46" type="0" speed="26.60" pos="788.30" lane="e0_0" slope="0.29"/>
    </timestep>
    <timestep time="44.00">
        <vehicle id="r0" x="815.42" y="6.05" z="4.08" angle="89.46" type="0" speed="27.21" pos="815.51" lane="e0_0" slope="0.29"/>
    </timestep>
    <timestep time="45.00">
        <vehicle id="r0" x="843.24" y="6.32" z="4.22" angle="89.46" type="0" speed="27.82" pos="843.32" lane="e0_0" slope="0.29"/>
    </timestep>
    <timestep time="46.00">
        <vehicle id="r0" x="871.65" y="6.58" z="4.36" angle="89.46" type="0" speed="28.42" pos="871.74" lane="e0_0" slope="0.29"/>
    </timestep>
    <timestep time="47.00">
        <vehicle id="r0" x="900.68" y="6.86" z="4.51" angle="89.46" type="0" speed="29.02" pos="900.77" lane="e0_0" slope="0.29"/>
    </timestep>
    <timestep time="48.00">
        <vehicle id="r0" x="930.30" y="7.14" z="4.66" angle="89.46" type="0" speed="29.63" pos="930.40" lane="e0_0" slope="0.29"/>
    </timestep>
    <timestep time="49.00">
        <vehicle id="r0" x="960.53" y="7.42" z="4.81" angle="89.46" type="0" speed="30.23" pos="960.63" lane="e0_0" slope="0.29"/>
    </timestep>
    <timestep time="50.00">
        <vehicle id="r0" x="991.36" y="7.72" z="4.96" angle="89.46" type="0" speed="30.83" pos="991.46" lane="e0_0" slope="0.29"/>
    </timestep>
    <timestep time="51.00">
        <vehicle id="r0" x="1022.79" y="8.01" z="5.12" angle="89.46" type="0" speed="31.43" pos="1022.89" lane="e0_0" slope="0.29"/>
    </timestep>
    <timestep time="52.00">
        <vehicle id="r0" x="1054.82" y="8.32" z="5.28" angle="89.46" type="0" speed="32.03" pos="1054.93" lane="e0_0" slope="0.29"/>
    </timestep>
    <timestep time="53.00">
        <vehicle id="r0" x="1087.44" y="8.62" z="5.44" angle="89.46" type="0" speed="32.63" pos="1087.56" lane="e0_0" slope="0.29"/>
    </timestep>
    <timestep time="54.00">
        <vehicle id="r0" x="1120.67" y="8.94" z="5.61" angle="89.46" type="0" speed="33.23" pos="1120.79" lane="e0_0" slope="0.29"/>
    </timestep>
    <timestep time="55.00">
        <vehicle id="r0" x="1154.50" y="9.26" z="5.78" angle="89.46" type="0" speed="33.83" pos="1154.62" lane="e0_0" slope="0.29"/>
    </timestep>
    <timestep time="56.00">
        <vehicle id="r0" x="1188.92" y="9.58" z="5.95" angle="89.46" type="0" speed="34.43" pos="1189.05" lane="e0_0" slope="0.29"/>
    </timestep>
    <timestep time="57.00">
        <vehicle id="r0" x="1223.94" y="9.91" z="6.12" angle="89.46" type="0" speed="35.02" pos="1224.07" lane="e0_0" slope="0.29"/>
    </timestep>
    <timestep time="58.00">
        <vehicle id="r0" x="1259.55" y="10.25" z="6.30" angle="89.46" type="0" speed="35.62" pos="1259.69" lane="e0_0" slope="0.29"/>
    </timestep>
    <timestep time="59.00">
        <vehicle id="r0" x="1295.76" y="10.59" z="6.48" angle="89.46" type="0" speed="36.21" pos="1295.90" lane="e0_0" slope="0.29"/>
    </timestep>
    <timestep time="60.00">
        <vehicle id="r0" x="1332.56" y="10.94" z="6.67" angle="89.46" type="0" speed="36.81" pos="1332.71" lane="e0_0" slope="0.29"/>
    </timestep>
    <timestep time="61.00">
        <vehicle id="r0" x="1369.95" y="11.29" z="6.86" angle="89.46" type="0" speed="37.40" pos="1370.11" lane="e0_0" slope="0.29"/>
    </timestep>
    <timestep time="62.00">
        <vehicle id="r0" x="1407.94" y="11.65" z="7.05" angle="89.46" type="0" speed="37.99" pos="1408.09" lane="e0_0" slope="0.29"/>
    </timestep>
    <timestep time="63.00">
        <vehicle id="r0" x="1446.51" y="12.02" z="7.24" angle="89.46" type="0" speed="38.58" pos="1446.67" lane="e0_0" slope="0.29"/>
    </timestep>
    <timestep time="64.00">
        <vehicle id="r0" x="1485.67" y="12.39" z="7.43" angle="89.46" type="0" speed="39.17" pos="1485.84" lane="e0_0" slope="0.29"/>
    </timestep>
    <timestep time="65.00">
        <vehicle id="r0" x="1525.42" y="12.76" z="7.63" angle="89.46" type="0" speed="39.75" pos="1525.59" lane="e0_0" slope="0.29"/>
    </timestep>
    <timestep time="66.00">
        <vehicle id="r0" x="1565.76" y="13.14" z="7.84" angle="89.46" type="0" speed="40.34" pos="1565.93" lane="e0_0" slope="0.29"/>
    </timestep>
    <timestep time="67.00">
        <vehicle id="r0" x="1606.68" y="13.53" z="8.04" angle="89.46" type="0" speed="40.93" pos="1606.86" lane="e0_0" slope="0.29"/>
    </timestep>
    <timestep time="68.00">
        <vehicle id="r0" x="1648.18" y="13.92" z="8.25" angle="89.46" type="0" speed="41.51" pos="1648.37" lane="e0_0" slope="0.29"/>
    </timestep>
    <timestep time="69.00">
        <vehicle id="r0" x="1690.27" y="14.32" z="8.46" angle="89.46" type="0" speed="42.09" pos="1690.46" lane="e0_0" slope="0.29"/>
    </timestep>
    <timestep time="70.00">
        <vehicle id="r0" x="1732.94" y="14.72" z="8.67" angle="89.46" type="0" speed="42.68" pos="1733.14" lane="e0_0" slope="0.29"/>
    </timestep>
    <timestep time="71.00">
        <vehicle id="r0" x="1776.19" y="15.13" z="8.89" angle="89.46" type="0" speed="43.26" pos="1776.39" lane="e0_0" slope="0.29"/>
    </timestep>
    <timestep time="72.00">
        <vehicle id="r0" x="1820.02" y="15.54" z="9.11" angle="89.46" type="0" speed="43.84" pos="1820.23" lane="e0_0" slope="0.29"/>
    </timestep>
    <timestep time="73.00">
        <vehicle id="r0" x="1864.43" y="15.96" z="9.33" angle="89.46" type="0" speed="44.41" pos="1864.65" lane="e0_0" slope="0.29"/>
    </timestep>
    <timestep time="74.00">
        <vehicle id="r0" x="1909.42" y="16.39" z="9.55" angle="89.46" type="0" speed="44.99" pos="1909.64" lane="e0_0" slope="0.29"/>
    </timestep>
    <timestep time="75.00">
        <vehicle id="r0" x="1954.98" y="16.82" z="9.78" angle="89.46" type="0" speed="45.57" pos="1955.21" lane="e0_0" slope="0.29"/>
    </timestep>
    <timestep time="76.00">
        <vehicle id="r0" x="1998.95" y="17.23" z="10.00" angle="89.46" type="0" speed="46.14" pos="2.73" lane="e1_0" slope="0.29"/>
    </timestep>
    <timestep time="77.00">
        <vehicle id="r0" x="2003.62" y="17.21" z="9.98" angle="89.48" type="0" speed="46.72" pos="49.45" lane="e1_0" slope="0.27"/>
    </timestep>
    <timestep time="78.00">
        <vehicle id="r0" x="2008.35" y="17.19" z="9.95" angle="89.52" type="0" speed="47.30" pos="96.75" lane="e1_0" slope="0.24"/>
    </timestep>
    <timestep time="79.00">
        <vehicle id="r0" x="2013.13" y="17.18" z="9.93" angle="89.62" type="0" speed="47.88" pos="144.63" lane="e1_0" slope="0.17"/>
    </timestep>
    <timestep time="80.00">
        <vehicle id="r0" x="2017.98" y="17.16" z="9.90" angle="90.01" type="0" speed="48.47" pos="193.09" lane="e1_0" slope="-0.13"/>
    </timestep>
    <timestep time="81.00">
        <vehicle id="r0" x="2022.88" y="17.14" z="9.88" angle="90.21" type="0" speed="49.11" pos="242.20" lane="e1_0" slope="-0.29"/>
    </timestep>
    <timestep time="82.00">
        <vehicle id="r0" x="2027.86" y="17.12" z="9.85" angle="90.21" type="0" speed="49.77" pos="291.97" lane="e1_0" slope="-0.29"/>
    </timestep>
    <timestep time="83.00">
        <vehicle id="r0" x="2032.90" y="17.10" z="9.83" angle="90.21" type="0" speed="50.43" pos="342.40" lane="e1_0" slope="-0.29"/>
    </timestep>
    <timestep time="84.00">
        <vehicle id="r0" x="2038.00" y="17.08" z="9.80" angle="90.21" type="0" speed="51.09" pos="393.50" lane="e1_0" slope="-0.29"/>
    </timestep>
    <timestep time="85.00">
        <vehicle id="r0" x="2043.17" y="17.06" z="9.78" angle="90.21" type="0" speed="51.75" pos="445.25" lane="e1_0" slope="-0.29"/>
    </timestep>
    <timestep time="86.00">
        <vehicle id="r0" x="2048.41" y="17.04" z="9.75" angle="90.21" type="0" speed="52.41" pos="497.65" lane="e1_0" slope="-0.29"/>
    </timestep>
    <timestep time="87.00">
        <vehicle id="r0" x="2053.71" y="17.02" z="9.72" angle="90.21" type="0" speed="53.06" pos="550.72" lane="e1_0" slope="-0.29"/>
    </timestep>
    <timestep time="88.00">
        <vehicle id="r0" x="2059.08" y="17.00" z="9.70" angle="90.21" type="0" speed="53.72" pos="604.43" lane="e1_0" slope="-0.29"/>
    </timestep>
    <timestep time="89.00">
        <vehicle id="r0" x="2064.52" y="16.98" z="9.67" angle="90.21" type="0" speed="54.37" pos="658.80" lane="e1_0" slope="-0.29"/>
    </timestep>
    <timestep time="90.00">
        <vehicle id="r0" x="2070.01" y="16.96" z="9.64" angle="90.21" type="0" speed="55.02" pos="713.82" lane="e1_0" slope="-0.29"/>
    </timestep>
    <timestep time="91.00">
        <vehicle id="r0" x="2075.58" y="16.94" z="9.62" angle="90.21" type="0" speed="55.67" pos="769.49" lane="e1_0" slope="-0.29"/>
    </timestep>
    <timestep time="92.00">
        <vehicle id="r0" x="2081.21" y="16.92" z="9.59" angle="90.21" type="0" speed="56.32" pos="825.80" lane="e1_0" slope="-0.29"/>
    </timestep>
    <timestep time="93.00">
        <vehicle id="r0" x="2086.90" y="16.90" z="9.56" angle="90.21" type="0" speed="56.96" pos="882.77" lane="e1_0" slope="-0.29"/>
    </timestep>
    <timestep time="94.00">
        <vehicle id="r0" x="2092.65" y="16.88" z="9.53" angle="90.21" type="0" speed="57.60" pos="940.37" lane="e1_0" slope="-0.29"/>
    </timestep>
    <timestep time="95.00">
        <vehicle id="r0" x="2098.47" y="16.86" z="9.50" angle="90.21" type="0" speed="58.25" pos="998.62" lane="e1_0" slope="-0.29"/>
    </timestep>
    <timestep time="96.00">
        <vehicle id="r0" x="2104.36" y="16.84" z="9.47" angle="90.21" type="0" speed="58.88" pos="1057.50" lane="e1_0" slope="-0.29"/>
    </timestep>
    <timestep time="97.00">
        <vehicle id="r0" x="2110.31" y="16.81" z="9.44" angle="90.21" type="0" speed="59.52" pos="1117.02" lane="e1_0" slope="-0.29"/>
    </timestep>
    <timestep time="98.00">
        <vehicle id="r0" x="2116.32" y="16.79" z="9.41" angle="90.21" type="0" speed="60.14" pos="1177.15" lane="e1_0" slope="-0.29"/>
    </timestep>
    <timestep time="99.00">
        <vehicle id="r0" x="2122.39" y="16.77" z="9.38" angle="90.21" type="0" speed="60.75" pos="1237.91" lane="e1_0" slope="-0.29"/>
    </timestep>
    <timestep time="100.00">
        <vehicle id="r0" x="2128.52" y="16.75" z="9.35" angle="90.21" type="0" speed="61.36" pos="1299.27" lane="e1_0" slope="-0.29"/>
    </timestep>
    <timestep time="101.00">
        <vehicle id="r0" x="2134.71" y="16.72" z="9.32" angle="90.21" type="0" speed="61.96" pos="1361.24" lane="e1_0" slope="-0.29"/>
    </timestep>
    <timestep time="102.00">
        <vehicle id="r0" x="2140.96" y="16.70" z="9.29" angle="90.21" type="0" speed="62.56" pos="1423.79" lane="e1_0" slope="-0.29"/>
    </timestep>
    <timestep time="103.00">
        <vehicle id="r0" x="2147.27" y="16.68" z="9.26" angle="90.21" type="0" speed="63.14" pos="1486.93" lane="e1_0" slope="-0.29"/>
    </timestep>
    <timestep time="104.00">
        <vehicle id="r0" x="2153.64" y="16.65" z="9.22" angle="90.21" type="0" speed="63.72" pos="1550.65" lane="e1_0" slope="-0.29"/>
    </timestep>
    <timestep time="105.00">
        <vehicle id="r0" x="2160.06" y="16.63" z="9.19" angle="90.21" type="0" speed="64.28" pos="1614.93" lane="e1_0" slope="-0.29"/>
    </timestep>
    <timestep time="106.00">
        <vehicle id="r0" x="2166.54" y="16.60" z="9.16" angle="90.21" type="0" speed="64.84" pos="1679.77" lane="e1_0" slope="-0.29"/>
    </timestep>
    <timestep time="107.00">
        <vehicle id="r0" x="2173.08" y="16.58" z="9.13" angle="90.21" type="0" speed="65.40" pos="1745.17" lane="e1_0" slope="-0.29"/>
    </timestep>
    <timestep time="108.00">
        <vehicle id="r0" x="2179.67" y="16.55" z="9.09" angle="90.21" type="0" speed="65.94" pos="1811.11" lane="e1_0" slope="-0.29"/>
    </timestep>
    <timestep time="109.00">
        <vehicle id="r0" x="2186.31" y="16.53" z="9.06" angle="90.21" type="0" speed="66.48" pos="1877.59" lane="e1_0" slope="-0.29"/>
    </timestep>
    <timestep time="110.00">
        <vehicle id="r0" x="2193.01" y="16.50" z="9.03" angle="90.21" type="0" speed="67.01" pos="1944.61" lane="e1_0" slope="-0.29"/>
    </timestep>
    <timestep time="111.00">
        <vehicle id="r0" x="2199.76" y="16.48" z="8.99" angle="90.21" type="0" speed="67.54" pos="2012.14" lane="e1_0" slope="-0.29"/>
    </timestep>
    <timestep time="112.00">
        <vehicle id="r0" x="2206.56" y="16.45" z="8.96" angle="90.21" type="0" speed="68.06" pos="2080.20" lane="e1_0" slope="-0.29"/>
    </timestep>
    <timestep time="113.00">
        <vehicle id="r0" x="2213.41" y="16.43" z="8.93" angle="90.21" type="0" speed="68.57" pos="2148.77" lane="e1_0" slope="-0.29"/>
    </timestep>
    <timestep time="114.00">
        <vehicle id="r0" x="2220.32" y="16.40" z="8.89" angle="90.21" type="0" speed="69.08" pos="2217.85" lane="e1_0" slope="-0.29"/>
    </timestep>
    <timestep time="115.00">
        <vehicle id="r0" x="2227.27" y="16.38" z="8.86" angle="90.21" type="0" speed="69.58" pos="2287.43" lane="e1_0" slope="-0.29"/>
    </timestep>
    <timestep time="116.00">
        <vehicle id="r0" x="2234.27" y="16.35" z="8.82" angle="90.21" type="0" speed="70.08" pos="2357.51" lane="e1_0" slope="-0.29"/>
    </timestep>
    <timestep time="117.00">
        <vehicle id="r0" x="2241.32" y="16.32" z="8.79" angle="90.21" type="0" speed="70.57" pos="2428.07" lane="e1_0" slope="-0.29"/>
    </timestep>
    <timestep time="118.00">
        <vehicle id="r0" x="2248.43" y="16.30" z="8.75" angle="90.21" type="0" speed="71.05" pos="2499.13" lane="e1_0" slope="-0.29"/>
    </timestep>
    <timestep time="119.00">
        <vehicle id="r0" x="2255.57" y="16.27" z="8.71" angle="90.21" type="0" speed="71.54" pos="2570.66" lane="e1_0" slope="-0.29"/>
    </timestep>
    <timestep time="120.00">
        <vehicle id="r0" x="2262.77" y="16.24" z="8.68" angle="90.21" type="0" speed="72.01" pos="2642.68" lane="e1_0" slope="-0.29"/>
    </timestep>
    <timestep time="121.00">
        <vehicle id="r0" x="2270.01" y="16.22" z="8.64" angle="90.21" type="0" speed="72.49" pos="2715.16" lane="e1_0" slope="-0.29"/>
    </timestep>
    <timestep time="122.00">
        <vehicle id="r0" x="2277.31" y="16.19" z="8.61" angle="90.21" type="0" speed="72.96" pos="2788.12" lane="e1_0" slope="-0.29"/>
    </timestep>
    <timestep time="123.00">
        <vehicle id="r0" x="2284.64" y="16.16" z="8.57" angle="90.21" type="0" speed="73.42" pos="2861.54" lane="e1_0" slope="-0.29"/>
    </timestep>
    <timestep time="124.00">
        <vehicle id="r0" x="2292.03" y="16.14" z="8.53" angle="90.21" type="0" speed="73.88" pos="2935.42" lane="e1_0" slope="-0.29"/>
    </timestep>
    <timestep time="125.00">
        <vehicle id="r0" x="2299.45" y="16.11" z="8.50" angle="90.21" type="0" speed="74.33" pos="3009.75" lane="e1_0" slope="-0.29"/>
    </timestep>
    <timestep time="126.00">
        <vehicle id="r0" x="2306.93" y="16.08" z="8.46" angle="90.21" type="0" speed="74.78" pos="3084.53" lane="e1_0" slope="-0.29"/>
    </timestep>
    <timestep time="127.00">
        <vehicle id="r0" x="2314.44" y="16.05" z="8.42" angle="90.21" type="0" speed="75.22" pos="3159.75" lane="e1_0" slope="-0.29"/>
    </timestep>
    <timestep time="128.00">
        <vehicle id="r0" x="2322.00" y="16.02" z="8.38" angle="90.21" type="0" speed="75.66" pos="3235.41" lane="e1_0" slope="-0.29"/>
    </timestep>
    <timestep time="129.00">
        <vehicle id="r0" x="2329.61" y="15.99" z="8.34" angle="90.21" type="0" speed="76.09" pos="3311.50" lane="e1_0" slope="-0.29"/>
    </timestep>
    <timestep time="130.00">
        <vehicle id="r0" x="2337.26" y="15.97" z="8.31" angle="90.21" type="0" speed="76.52" pos="3388.03" lane="e1_0" slope="-0.29"/>
    </timestep>
    <timestep time="131.00">
        <vehicle id="r0" x="2344.94" y="15.94" z="8.27" angle="90.21" type="0" speed="76.95" pos="3464.97" lane="e1_0" slope="-0.29"/>
    </timestep>
    <timestep time="132.00">
        <vehicle id="r0" x="2352.68" y="15.91" z="8.23" angle="90.21" type="0" speed="77.36" pos="3542.34" lane="e1_0" slope="-0.29"/>
    </timestep>
    <timestep time="133.00">
        <vehicle id="r0" x="2360.45" y="15.88" z="8.19" angle="90.21" type="0" speed="77.78" pos="3620.12" lane="e1_0" slope="-0.29"/>
    </timestep>
    <timestep time="134.00">
        <vehicle id="r0" x="2368.26" y="15.85" z="8.15" angle="90.21" type="0" speed="78.19" pos="3698.31" lane="e1_0" slope="-0.29"/>
    </timestep>
    <timestep time="135.00">
        <vehicle id="r0" x="2376.12" y="15.82" z="8.11" angle="90.21" type="0" speed="78.60" pos="3776.90" lane="e1_0" slope="-0.29"/>
    </timestep>
    <timestep time="136.00">
        <vehicle id="r0" x="2384.01" y="15.79" z="8.07" angle="90.21" type="0" speed="79.00" pos="3855.90" lane="e1_0" slope="-0.29"/>
    </timestep>
    <timestep time="137.00">
        <vehicle id="r0" x="2391.95" y="15.76" z="8.03" angle="90.21" type="0" speed="79.40" pos="3935.30" lane="e1_0" slope="-0.29"/>
    </timestep>
    <timestep time="138.00">
        <vehicle id="r0" x="2399.92" y="15.73" z="7.99" angle="90.21" type="0" speed="79.79" pos="4015.10" lane="e1_0" slope="-0.29"/>
    </timestep>
    <timestep time="139.00">
        <vehicle id="r0" x="2407.93" y="15.70" z="7.95" angle="90.21" type="0" speed="80.18" pos="4095.28" lane="e1_0" slope="-0.29"/>
    </timestep>
    <timestep time="140.00">
        <vehicle id="r0" x="2415.99" y="15.67" z="7.91" angle="90.21" type="0" speed="80.57" pos="4175.85" lane="e1_0" slope="-0.29"/>
    </timestep>
    <timestep time="141.00">
        <vehicle id="r0" x="2424.08" y="15.64" z="7.87" angle="90.21" type="0" speed="80.95" pos="4256.81" lane="e1_0" slope="-0.29"/>
    </timestep>
    <timestep time="142.00">
        <vehicle id="r0" x="2432.20" y="15.61" z="7.83" angle="90.21" type="0" speed="81.33" pos="4338.14" lane="e1_0" slope="-0.29"/>
    </timestep>
    <timestep time="143.00">
        <vehicle id="r0" x="2440.37" y="15.58" z="7.79" angle="90.21" type="0" speed="81.71" pos="4419.85" lane="e1_0" slope="-0.29"/>
    </timestep>
    <timestep time="144.00">
        <vehicle id="r0" x="2448.57" y="15.55" z="7.75" angle="90.21" type="0" speed="82.08" pos="4501.94" lane="e1_0" slope="-0.29"/>
    </timestep>
    <timestep time="145.00">
        <vehicle id="r0" x="2456.81" y="15.52" z="7.71" angle="90.21" type="0" speed="82.45" pos="4584.39" lane="e1_0" slope="-0.29"/>
    </timestep>
    <timestep time="146.00">
        <vehicle id="r0" x="2465.09" y="15.49" z="7.67" angle="90.21" type="0" speed="82.82" pos="4667.21" lane="e1_0" slope="-0.29"/>
    </timestep>
    <timestep time="147.00">
        <vehicle id="r0" x="2473.40" y="15.46" z="7.62" angle="90.21" type="0" speed="83.18" pos="4750.39" lane="e1_0" slope="-0.29"/>
    </timestep>
    <timestep time="148.00">
        <vehicle id="r0" x="2481.75" y="15.43" z="7.58" angle="90.21" type="0" speed="83.54" pos="4833.93" lane="e1_0" slope="-0.29"/>
    </timestep>
    <timestep time="149.00">
        <vehicle id="r0" x="2490.13" y="15.40" z="7.54" angle="90.21" type="0" speed="83.90" pos="4917.83" lane="e1_0" slope="-0.29"/>
    </timestep>
    <timestep time="150.00">
        <vehicle id="r0" x="2498.55" y="15.36" z="7.50" angle="90.21" type="0" speed="84.25" pos="5002.09" lane="e1_0" slope="-0.29"/>
    </timestep>
    <timestep time="151.00">
        <vehicle id="r0" x="2507.01" y="15.33" z="7.46" angle="90.21" type="0" speed="84.60" pos="5086.69" lane="e1_0" slope="-0.29"/>
    </timestep>
    <timestep time="152.00">
        <vehicle id="r0" x="2515.50" y="15.30" z="7.41" angle="90.21" type="0" speed="84.95" pos="5171.64" lane="e1_0" slope="-0.29"/>
    </timestep>
    <timestep time="153.00">
        <vehicle id="r0" x="2524.02" y="15.27" z="7.37" angle="90.21" type="0" speed="85.30" pos="5256.93" lane="e1_0" slope="-0.29"/>
    </timestep>
    <timestep time="154.00">
        <vehicle id="r0" x="2532.58" y="15.24" z="7.33" angle="90.21" type="0" speed="85.64" pos="5342.57" lane="e1_0" slope="-0.29"/>
    </timestep>
    <timestep time="155.00">
        <vehicle id="r0" x="2541.17" y="15.21" z="7.29" angle="90.21" type="0" speed="85.98" pos="5428.55" lane="e1_0" slope="-0.29"/>
    </timestep>
    <timestep time="156.00">
        <vehicle id="r0" x="2549.80" y="15.17" z="7.24" angle="90.21" type="0" speed="86.31" pos="5514.86" lane="e1_0" slope="-0.29"/>
    </timestep>
    <timestep time="157.00">
        <vehicle id="r0" x="2558.46" y="15.14" z="7.20" angle="90.21" type="0" speed="86.65" pos="5601.50" lane="e1_0" slope="-0.29"/>
    </timestep>
    <timestep time="158.00">
        <vehicle id="r0" x="2567.15" y="15.11" z="7.16" angle="90.21" type="0" speed="86.98" pos="5688.48" lane="e1_0" slope="-0.29"/>
    </timestep>
    <timestep time="159.00">
        <vehicle id="r0" x="2575.87" y="15.08" z="7.11" angle="90.21" type="0" speed="87.30" pos="5775.78" lane="e1_0" slope="-0.29"/>
    </timestep>
    <timestep time="160.00">