<?xml version="1.0" encoding="UTF-8"?>

<!-- generated on 2026-04-23T11:44:06.225421+01:00 by Eclipse SUMO sumo v1_26_0+1345-5ee8d27e481
This data file and the accompanying materials
are made available under the terms of the Eclipse Public License v2.0
which accompanies this distribution, and is available at
http://www.eclipse.org/legal/epl-v20.html
This file may also be made available under the following Secondary
Licenses when the conditions for such availability set forth in the Eclipse
Public License 2.0 are satisfied: GNU General Public License, version 2
or later which is available at
https://www.gnu.org/licenses/old-licenses/gpl-2.0-standalone.html
SPDX-License-Identifier: EPL-2.0 OR GPL-2.0-or-later
<sumoConfiguration xmlns:xsi="http://www.w3.org/2001/XMLSchema-instance" xsi:noNamespaceSchemaLocation="http://sumo.dlr.de/xsd/sumoConfiguration.xsd">

    <input>
        <net-file value="net.net.xml"/>
        <route-files value="input_routes.rou.xml"/>
        <additional-files value="input_additional.add.xml"/>
    </input>

    <output>
        <write-license value="true"/>
        <tripinfo-output value="tripinfos.xml"/>
        <vehroute-output.skip-ptlines value="true"/>
    </output>

    <processing>
        <default.departspeed value="0"/>
        <default.departlane value="first"/>
        <default.speeddev value="0"/>
    </processing>

    <routing>
        <persontrip.walkfactor value="2"/>
    </routing>

    <report>
        <xml-validation value="never"/>
        <no-step-log value="true"/>
    </report>

</sumoConfiguration>
-->

<tripinfos xmlns:xsi="http://www.w3.org/2001/XMLSchema-instance" xsi:noNamespaceSchemaLocation="http://sumo.dlr.de/xsd/tripinfo_file.xsd">
    <tripinfo id="bus.0" depart="0.00" departLane="beg_0" departPos="5.10" departSpeed="0.00" departDelay="0.00" arrival="165.00" arrivalLane="end_0" arrivalPos="500.00" arrivalSpeed="2.19" duration="165.00" routeLength="1994.90" waitingTime="0.00" waitingCount="0" stopTime="30.00" timeLoss="16.62" rerouteNo="1" devices="tripinfo_bus.0 routing_bus.0" vType="DEFAULT_VEHTYPE" speedFactor="1.00" vaporized=""/>
    <tripinfo id="bus2.0" depart="300.00" departLane="beg_0" departPos="5.10" departSpeed="0.00" departDelay="0.00" arrival="560.00" arrivalLane="end_0" arrivalPos="500.00" arrivalSpeed="1.73" duration="260.00" routeLength="3007.22" waitingTime="1.00" waitingCount="1" stopTime="115.00" timeLoss="18.56" rerouteNo="1" devices="tripinfo_bus2.0 routing_bus2.0 person_bus2.0" vType="DEFAULT_VEHTYPE" speedFactor="1.00" vaporized=""/>
    <tripinfo id="bus.1" depart="600.00" departLane="beg_0" departPos="5.10" departSpeed="0.00" departDelay="0.00" arrival="764.00" arrivalLane="end_0" arrivalPos="500.00" arrivalSpeed="1.49" duration="164.00" routeLength="1994.90" waitingTime="1.00" waitingCount="1" stopTime="32.00" timeLoss="14.75" rerouteNo="1" devices="tripinfo_bus.1 routing_bus.1" vType="DEFAULT_VEHTYPE" speedFactor="1.00" vaporized=""/>
    <personinfo id="p0" depart="0.00" type="slow" speedFactor="1.00" duration="906.00" waitingTime="281.00" timeLoss="59.49" traveltime="625.00">
        <walk depart="0.00" departPos="200.00" arrival="79.00" arrivalPos="250.00" duration="79.00" routeLength="50.00" timeLoss="7.57" maxSpeed="0.70" waitingTime="0.00"/>
        <ride waitingTime="281.00" vehicle="bus2.0" depart="360.00" arrival="508.00" arrivalPos="499.97" duration="148.00" routeLength="2512.37" timeLoss="11.03"/>
        <walk depart="508.00" departPos="499.97" arrival="906.00" arrivalPos="250.00" duration="398.00" routeLength="249.97" timeLoss="40.90" maxSpeed="0.70" waitingTime="0.00"/>
    </personinfo>
    <tripinfo id="bus2.1" depart="900.00" departLane="beg_0" departPos="5.10" departSpeed="0.00" departDelay="0.00" arrival="1160.00" arrivalLane="end_0" arrivalPos="500.00" arrivalSpeed="1.52" duration="260.00" routeLength="3007.22" waitingTime="1.00" waitingCount="1" stopTime="116.00" timeLoss="16.61" rerouteNo="1" devices="tripinfo_bus2.1 routing_bus2.1" vType="DEFAULT_VEHTYPE" speedFactor="1.00" vaporized=""/>
    <tripinfo id="bus.2" depart="1200.00" departLane="beg_0" departPos="5.10" departSpeed="0.00" departDelay="0.00" arrival="1366.00" arrivalLane="end_0" arrivalPos="500.00" arrivalSpeed="2.39" duration="166.00" routeLength="1994.90" waitingTime="0.00" waitingCount="0" stopTime="32.00" timeLoss="16.17" rerouteNo="1" devices="tripinfo_bus.2 routing_bus.2" vType="DEFAULT_VEHTYPE" speedFactor="1.00" vaporized=""/>
    <tripinfo id="bus2.2" depart="1500.00" departLane="beg_0" departPos="5.10" departSpeed="0.00" departDelay="0.00" arrival="1760.00" arrivalLane="end_0" arrivalPos="500.00" arrivalSpeed="2.43" duration="260.00" routeLength="3007.22" waitingTime="3.00" waitingCount="2" stopTime="113.00" timeLoss="19.34" rerouteNo="1" devices="tripinfo_bus2.2 routing_bus2.2" vType="DEFAULT_VEHTYPE" speedFactor="1.00" vaporized=""/>
    <tripinfo id="bus2.3" depart="2100.00" departLane="beg_0" departPos="5.10" departSpeed="0.00" departDelay="0.00" arrival="2360.00" arrivalLane="end_0" arrivalPos="500.00" arrivalSpeed="1.54" duration="260.00" routeLength="3007.22" waitingTime="2.00" waitingCount="1" stopTime="115.00" timeLoss="18.76" rerouteNo="1" devices="tripinfo_bus2.3 routing_bus2.3" vType="DEFAULT_VEHTYPE" speedFactor="1.00" vaporized=""/>
</tripinfos>
