<?xml version="1.0" encoding="UTF-8"?>
<fcd-export xmlns:xsi="http://www.w3.org/2001/XMLSchema-instance" xsi:noNamespaceSchemaLocation="http://sumo.dlr.de/xsd/fcd_file.xsd">
    <timestep time="0.00">
        <vehicle id="veh" speed="0.00" pos="5.10" lane="beg_0"/>
    </timestep>
    <timestep time="0.10">
        <vehicle id="veh" speed="0.26" pos="5.11" lane="beg_0"/>
    </timestep>
    <timestep time="0.20">
        <vehicle id="veh" speed="0.52" pos="5.15" lane="beg_0"/>
    </timestep>
    <timestep time="0.30">
        <vehicle id="veh" speed="0.78" pos="5.22" lane="beg_0"/>
    </timestep>
    <timestep time="0.40">
        <vehicle id="veh" speed="1.04" pos="5.31" lane="beg_0"/>
    </timestep>
    <timestep time="0.50">
        <vehicle id="veh" speed="1.30" pos="5.42" lane="beg_0"/>
    </timestep>
    <timestep time="0.60">
        <vehicle id="veh" speed="1.56" pos="5.57" lane="beg_0"/>
    </timestep>
    <timestep time="0.70">
        <vehicle id="veh" speed="1.82" pos="5.74" lane="beg_0"/>
    </timestep>
    <timestep time="0.80">
        <vehicle id="veh" speed="2.08" pos="5.93" lane="beg_0"/>
    </timestep>
    <timestep time="0.90">
        <vehicle id="veh" speed="2.34" pos="6.15" lane="beg_0"/>
    </timestep>
    <timestep time="1.00">
        <vehicle id="veh" speed="2.60" pos="6.40" lane="beg_0"/>
    </timestep>
    <timestep time="1.10">
        <vehicle id="veh" speed="2.86" pos="6.67" lane="beg_0"/>
    </timestep>
    <timestep time="1.20">
        <vehicle id="veh" speed="3.12" pos="6.97" lane="beg_0"/>
    </timestep>
    <timestep time="1.30">
        <vehicle id="veh" speed="3.38" pos="7.30" lane="beg_0"/>
    </timestep>
    <timestep time="1.40">
        <vehicle id="veh" speed="3.64" pos="7.65" lane="beg_0"/>
    </timestep>
    <timestep time="1.50">
        <vehicle id="veh" speed="3.90" pos="8.03" lane="beg_0"/>
    </timestep>
    <timestep time="1.60">
        <vehicle id="veh" speed="4.16" pos="8.43" lane="beg_0"/>
    </timestep>
    <timestep time="1.70">
        <vehicle id="veh" speed="4.42" pos="8.86" lane="beg_0"/>
    </timestep>
    <timestep time="1.80">
        <vehicle id="veh" speed="4.68" pos="9.31" lane="beg_0"/>
    </timestep>
    <timestep time="1.90">
        <vehicle id="veh" speed="4.94" pos="9.79" lane="beg_0"/>
    </timestep>
    <timestep time="2.00">
        <vehicle id="veh" speed="5.20" pos="10.30" lane="beg_0"/>
    </timestep>
    <timestep time="2.10">
        <vehicle id="veh" speed="5.46" pos="10.83" lane="beg_0"/>
    </timestep>
    <timestep time="2.20">
        <vehicle id="veh" speed="5.72" pos="11.39" lane="beg_0"/>
    </timestep>
    <timestep time="2.30">
        <vehicle id="veh" speed="5.98" pos="11.98" lane="beg_0"/>
    </timestep>
    <timestep time="2.40">
        <vehicle id="veh" speed="6.24" pos="12.59" lane="beg_0"/>
    </timestep>
    <timestep time="2.50">
        <vehicle id="veh" speed="6.50" pos="13.22" lane="beg_0"/>
    </timestep>
    <timestep time="2.60">
        <vehicle id="veh" speed="6.76" pos="13.89" lane="beg_0"/>
    </timestep>
    <timestep time="2.70">
        <vehicle id="veh" speed="7.02" pos="14.58" lane="beg_0"/>
    </timestep>
    <timestep time="2.80">
        <vehicle id="veh" speed="7.28" pos="15.29" lane="beg_0"/>
    </timestep>
    <timestep time="2.90">
        <vehicle id="veh" speed="7.54" pos="16.03" lane="beg_0"/>
    </timestep>
    <timestep time="3.00">
        <vehicle id="veh" speed="7.80" pos="16.80" lane="beg_0"/>
    </timestep>
    <timestep time="3.10">
        <vehicle id="veh" speed="8.06" pos="17.59" lane="beg_0"/>
    </timestep>
    <timestep time="3.20">
        <vehicle id="veh" speed="8.32" pos="18.41" lane="beg_0"/>
    </timestep>
    <timestep time="3.30">
        <vehicle id="veh" speed="8.58" pos="19.26" lane="beg_0"/>
    </timestep>
    <timestep time="3.40">
        <vehicle id="veh" speed="8.84" pos="20.13" lane="beg_0"/>
    </timestep>
    <timestep time="3.50">
        <vehicle id="veh" speed="9.10" pos="21.02" lane="beg_0"/>
    </timestep>
    <timestep time="3.60">
        <vehicle id="veh" speed="9.36" pos="21.95" lane="beg_0"/>
    </timestep>
    <timestep time="3.70">
        <vehicle id="veh" speed="9.62" pos="22.90" lane="beg_0"/>
    </timestep>
    <timestep time="3.80">
        <vehicle id="veh" speed="9.88" pos="23.87" lane="beg_0"/>
    </timestep>
    <timestep time="3.90">
        <vehicle id="veh" speed="10.14" pos="24.87" lane="beg_0"/>
    </timestep>
    <timestep time="4.00">
        <vehicle id="veh" speed="10.40" pos="25.90" lane="beg_0"/>
    </timestep>
    <timestep time="4.10">
        <vehicle id="veh" speed="10.66" pos="26.95" lane="beg_0"/>
    </timestep>
    <timestep time="4.20">
        <vehicle id="veh" speed="10.92" pos="28.03" lane="beg_0"/>
    </timestep>
    <timestep time="4.30">
        <vehicle id="veh" speed="11.18" pos="29.14" lane="beg_0"/>
    </timestep>
    <timestep time="4.40">
        <vehicle id="veh" speed="11.44" pos="30.27" lane="beg_0"/>
    </timestep>
    <timestep time="4.50">
        <vehicle id="veh" speed="11.70" pos="31.42" lane="beg_0"/>
    </timestep>
    <timestep time="4.60">
        <vehicle id="veh" speed="11.96" pos="32.61" lane="beg_0"/>
    </timestep>
    <timestep time="4.70">
        <vehicle id="veh" speed="12.22" pos="33.82" lane="beg_0"/>
    </timestep>
    <timestep time="4.80">
        <vehicle id="veh" speed="12.48" pos="35.05" lane="beg_0"/>
    </timestep>
    <timestep time="4.90">
        <vehicle id="veh" speed="12.74" pos="36.31" lane="beg_0"/>
    </timestep>
    <timestep time="5.00">
        <vehicle id="veh" speed="13.00" pos="37.60" lane="beg_0"/>
    </timestep>
    <timestep time="5.10">
        <vehicle id="veh" speed="13.26" pos="38.91" lane="beg_0"/>
    </timestep>
    <timestep time="5.20">
        <vehicle id="veh" speed="13.52" pos="40.25" lane="beg_0"/>
    </timestep>
    <timestep time="5.30">
        <vehicle id="veh" speed="13.78" pos="41.62" lane="beg_0"/>
    </timestep>
    <timestep time="5.40">
        <vehicle id="veh" speed="14.04" pos="43.01" lane="beg_0"/>
    </timestep>
    <timestep time="5.50">
        <vehicle id="veh" speed="14.30" pos="44.42" lane="beg_0"/>
    </timestep>
    <timestep time="5.60">
        <vehicle id="veh" speed="14.56" pos="45.87" lane="beg_0"/>
    </timestep>
    <timestep time="5.70">
        <vehicle id="veh" speed="14.82" pos="47.34" lane="beg_0"/>
    </timestep>
    <timestep time="5.80">
        <vehicle id="veh" speed="15.08" pos="48.83" lane="beg_0"/>
    </timestep>
    <timestep time="5.90">
        <vehicle id="veh" speed="15.34" pos="50.35" lane="beg_0"/>
    </timestep>
    <timestep time="6.00">
        <vehicle id="veh" speed="15.60" pos="51.90" lane="beg_0"/>
    </timestep>
    <timestep time="6.10">
        <vehicle id="veh" speed="15.86" pos="53.47" lane="beg_0"/>
    </timestep>
    <timestep time="6.20">
        <vehicle id="veh" speed="16.12" pos="55.07" lane="beg_0"/>
    </timestep>
    <timestep time="6.30">
        <vehicle id="veh" speed="16.38" pos="56.70" lane="beg_0"/>
    </timestep>
    <timestep time="6.40">
        <vehicle id="veh" speed="16.64" pos="58.35" lane="beg_0"/>
    </timestep>
    <timestep time="6.50">
        <vehicle id="veh" speed="16.90" pos="60.02" lane="beg_0"/>
    </timestep>
    <timestep time="6.60">
        <vehicle id="veh" speed="17.16" pos="61.73" lane="beg_0"/>
    </timestep>
    <timestep time="6.70">
        <vehicle id="veh" speed="17.42" pos="63.46" lane="beg_0"/>
    </timestep>
    <timestep time="6.80">
        <vehicle id="veh" speed="17.68" pos="65.21" lane="beg_0"/>
    </timestep>
    <timestep time="6.90">
        <vehicle id="veh" speed="17.94" pos="66.99" lane="beg_0"/>
    </timestep>
    <timestep time="7.00">
        <vehicle id="veh" speed="18.20" pos="68.80" lane="beg_0"/>
    </timestep>
    <timestep time="7.10">
        <vehicle id="veh" speed="18.46" pos="70.63" lane="beg_0"/>
    </timestep>
    <timestep time="7.20">
        <vehicle id="veh" speed="18.72" pos="72.49" lane="beg_0"/>
    </timestep>
    <timestep time="7.30">
        <vehicle id="veh" speed="18.98" pos="74.38" lane="beg_0"/>
    </timestep>
    <timestep time="7.40">
        <vehicle id="veh" speed="19.24" pos="76.29" lane="beg_0"/>
    </timestep>
    <timestep time="7.50">
        <vehicle id="veh" speed="19.50" pos="78.22" lane="beg_0"/>
    </timestep>
    <timestep time="7.60">
        <vehicle id="veh" speed="19.76" pos="80.19" lane="beg_0"/>
    </timestep>
    <timestep time="7.70">
        <vehicle id="veh" speed="20.02" pos="82.18" lane="beg_0"/>
    </timestep>
    <timestep time="7.80">
        <vehicle id="veh" speed="20.28" pos="84.19" lane="beg_0"/>
    </timestep>
    <timestep time="7.90">
        <vehicle id="veh" speed="20.54" pos="86.23" lane="beg_0"/>
    </timestep>
    <timestep time="8.00">
        <vehicle id="veh" speed="20.80" pos="88.30" lane="beg_0"/>
    </timestep>
    <timestep time="8.10">
        <vehicle id="veh" speed="21.06" pos="90.39" lane="beg_0"/>
    </timestep>
    <timestep time="8.20">
        <vehicle id="veh" speed="21.32" pos="92.51" lane="beg_0"/>
    </timestep>
    <timestep time="8.30">
        <vehicle id="veh" speed="21.58" pos="94.66" lane="beg_0"/>
    </timestep>
    <timestep time="8.40">
        <vehicle id="veh" speed="21.84" pos="96.83" lane="beg_0"/>
    </timestep>
    <timestep time="8.50">
        <vehicle id="veh" speed="22.10" pos="99.02" lane="beg_0"/>
    </timestep>
    <timestep time="8.60">
        <vehicle id="veh" speed="22.36" pos="101.25" lane="beg_0"/>
    </timestep>
    <timestep time="8.70">
        <vehicle id="veh" speed="22.62" pos="103.50" lane="beg_0"/>
    </timestep>
    <timestep time="8.80">
        <vehicle id="veh" speed="22.88" pos="105.77" lane="beg_0"/>
    </timestep>
    <timestep time="8.90">
        <vehicle id="veh" speed="23.14" pos="108.07" lane="beg_0"/>
    </timestep>
    <timestep time="9.00">
        <vehicle id="veh" speed="23.40" pos="110.40" lane="beg_0"/>
    </timestep>
    <timestep time="9.10">
        <vehicle id="veh" speed="23.66" pos="112.75" lane="beg_0"/>
    </timestep>
    <timestep time="9.20">
        <vehicle id="veh" speed="23.92" pos="115.13" lane="beg_0"/>
    </timestep>
    <timestep time="9.30">
        <vehicle id="veh" speed="24.18" pos="117.54" lane="beg_0"/>
    </timestep>
    <timestep time="9.40">
        <vehicle id="veh" speed="24.44" pos="119.97" lane="beg_0"/>
    </timestep>
    <timestep time="9.50">
        <vehicle id="veh" speed="24.70" pos="122.43" lane="beg_0"/>
    </timestep>
    <timestep time="9.60">
        <vehicle id="veh" speed="24.96" pos="124.91" lane="beg_0"/>
    </timestep>
    <timestep time="9.70">
        <vehicle id="veh" speed="25.22" pos="127.42" lane="beg_0"/>
    </timestep>
    <timestep time="9.80">
        <vehicle id="veh" speed="25.48" pos="129.95" lane="beg_0"/>
    </timestep>
    <timestep time="9.90">
        <vehicle id="veh" speed="25.74" pos="132.51" lane="beg_0"/>
    </timestep>
    <timestep time="10.00">
        <vehicle id="veh" speed="26.00" pos="135.10" lane="beg_0"/>
    </timestep>
    <timestep time="10.10">
        <vehicle id="veh" speed="26.26" pos="137.71" lane="beg_1"/>
    </timestep>
    <timestep time="10.20">
        <vehicle id="veh" speed="26.52" pos="140.35" lane="beg_1"/>
    </timestep>
    <timestep time="10.30">
        <vehicle id="veh" speed="26.78" pos="143.02" lane="beg_1"/>
    </timestep>
    <timestep time="10.40">
        <vehicle id="veh" speed="27.04" pos="145.71" lane="beg_1"/>
    </timestep>
    <timestep time="10.50">
        <vehicle id="veh" speed="27.30" pos="148.43" lane="beg_1"/>
    </timestep>
    <timestep time="10.60">
        <vehicle id="veh" speed="27.56" pos="151.17" lane="beg_1"/>
    </timestep>
    <timestep time="10.70">
        <vehicle id="veh" speed="27.82" pos="153.94" lane="beg_1"/>
    </timestep>
    <timestep time="10.80">
        <vehicle id="veh" speed="28.08" pos="156.73" lane="beg_1"/>
    </timestep>
    <timestep time="10.90">
        <vehicle id="veh" speed="28.34" pos="159.55" lane="beg_1"/>
    </timestep>
    <timestep time="11.00">
        <vehicle id="veh" speed="28.60" pos="162.40" lane="beg_1"/>
    </timestep>
    <timestep time="11.10">
        <vehicle id="veh" speed="28.15" pos="165.24" lane="beg_1"/>
    </timestep>
    <timestep time="11.20">
        <vehicle id="veh" speed="27.70" pos="168.03" lane="beg_1"/>
    </timestep>
    <timestep time="11.30">
        <vehicle id="veh" speed="27.25" pos="170.78" lane="beg_1"/>
    </timestep>
    <timestep time="11.40">
        <vehicle id="veh" speed="26.80" pos="173.48" lane="beg_1"/>
    </timestep>
    <timestep time="11.50">
        <vehicle id="veh" speed="26.35" pos="176.14" lane="beg_1"/>
    </timestep>
    <timestep time="11.60">
        <vehicle id="veh" speed="25.90" pos="178.75" lane="beg_1"/>
    </timestep>
    <timestep time="11.70">
        <vehicle id="veh" speed="25.45" pos="181.32" lane="beg_1"/>
    </timestep>
    <timestep time="11.80">
        <vehicle id="veh" speed="25.00" pos="183.84" lane="beg_1"/>
    </timestep>
    <timestep time="11.90">
        <vehicle id="veh" speed="24.55" pos="186.32" lane="beg_1"/>
    </timestep>
    <timestep time="12.00">
        <vehicle id="veh" speed="24.10" pos="188.75" lane="beg_1"/>
    </timestep>
    <timestep time="12.10">
        <vehicle id="veh" speed="23.78" pos="191.14" lane="beg_2"/>
    </timestep>
    <timestep time="12.20">
        <vehicle id="veh" speed="23.45" pos="193.51" lane="beg_2"/>
    </timestep>
    <timestep time="12.30">
        <vehicle id="veh" speed="23.13" pos="195.83" lane="beg_2"/>
    </timestep>
    <timestep time="12.40">
        <vehicle id="veh" speed="22.80" pos="198.13" lane="beg_2"/>
    </timestep>
    <timestep time="12.50">
        <vehicle id="veh" speed="22.48" pos="0.90" lane="middle_2"/>
    </timestep>
    <timestep time="12.60">
        <vehicle id="veh" speed="22.16" pos="3.13" lane="middle_2"/>
    </timestep>
    <timestep time="12.70">
        <vehicle id="veh" speed="21.83" pos="5.33" lane="middle_2"/>
    </timestep>
    <timestep time="12.80">
        <vehicle id="veh" speed="21.51" pos="7.49" lane="middle_2"/>
    </timestep>
    <timestep time="12.90">
        <vehicle id="veh" speed="21.18" pos="9.63" lane="middle_2"/>
    </timestep>
    <timestep time="13.00">
        <vehicle id="veh" speed="20.86" pos="11.73" lane="middle_2"/>
    </timestep>
    <timestep time="13.10">
        <vehicle id="veh" speed="20.41" pos="13.79" lane="middle_3"/>
    </timestep>
    <timestep time="13.20">
        <vehicle id="veh" speed="19.96" pos="15.81" lane="middle_3"/>
    </timestep>
    <timestep time="13.30">
        <vehicle id="veh" speed="19.51" pos="17.79" lane="middle_3"/>
    </timestep>
    <timestep time="13.40">
        <vehicle id="veh" speed="19.06" pos="19.71" lane="middle_3"/>
    </timestep>
    <timestep time="13.50">
        <vehicle id="veh" speed="18.61" pos="21.60" lane="middle_3"/>
    </timestep>
    <timestep time="13.60">
        <vehicle id="veh" speed="18.16" pos="23.44" lane="middle_3"/>
    </timestep>
    <timestep time="13.70">
        <vehicle id="veh" speed="17.71" pos="25.23" lane="middle_3"/>
    </timestep>
    <timestep time="13.80">
        <vehicle id="veh" speed="17.26" pos="26.98" lane="middle_3"/>
    </timestep>
    <timestep time="13.90">
        <vehicle id="veh" speed="16.81" pos="28.68" lane="middle_3"/>
    </timestep>
    <timestep time="14.00">
        <vehicle id="veh" speed="16.36" pos="30.34" lane="middle_3"/>
    </timestep>
    <timestep time="14.10">
        <vehicle id="veh" speed="15.91" pos="31.95" lane="middle_4"/>
    </timestep>
    <timestep time="14.20">
        <vehicle id="veh" speed="15.46" pos="33.52" lane="middle_4"/>
    </timestep>
    <timestep time="14.30">
        <vehicle id="veh" speed="15.01" pos="35.05" lane="middle_4"/>
    </timestep>
    <timestep time="14.40">
        <vehicle id="veh" speed="14.56" pos="36.52" lane="middle_4"/>
    </timestep>
    <timestep time="14.50">
        <vehicle id="veh" speed="14.11" pos="37.96" lane="middle_4"/>
    </timestep>
    <timestep time="14.60">
        <vehicle id="veh" speed="13.66" pos="39.35" lane="middle_4"/>
    </timestep>
    <timestep time="14.70">
        <vehicle id="veh" speed="13.21" pos="40.69" lane="middle_4"/>
    </timestep>
    <timestep time="14.80">
        <vehicle id="veh" speed="12.76" pos="41.99" lane="middle_4"/>
    </timestep>
    <timestep time="14.90">
        <vehicle id="veh" speed="12.31" pos="43.24" lane="middle_4"/>
    </timestep>
    <timestep time="15.00">
        <vehicle id="veh" speed="11.86" pos="44.45" lane="middle_4"/>
    </timestep>
    <timestep time="15.10">
        <vehicle id="veh" speed="12.12" pos="45.65" lane="middle_4"/>
    </timestep>
    <timestep time="15.20">
        <vehicle id="veh" speed="12.38" pos="46.87" lane="middle_4"/>
    </timestep>
    <timestep time="15.30">
        <vehicle id="veh" speed="12.64" pos="48.13" lane="middle_4"/>
    </timestep>
    <timestep time="15.40">
        <vehicle id="veh" speed="12.90" pos="49.40" lane="middle_4"/>
    </timestep>
    <timestep time="15.50">
        <vehicle id="veh" speed="13.16" pos="50.71" lane="middle_4"/>
    </timestep>
    <timestep time="15.60">
        <vehicle id="veh" speed="13.42" pos="52.03" lane="middle_4"/>
    </timestep>
    <timestep time="15.70">
        <vehicle id="veh" speed="13.68" pos="53.39" lane="middle_4"/>
    </timestep>
    <timestep time="15.80">
        <vehicle id="veh" speed="13.94" pos="54.77" lane="middle_4"/>
    </timestep>
    <timestep time="15.90">
        <vehicle id="veh" speed="14.20" pos="56.18" lane="middle_4"/>
    </timestep>
    <timestep time="16.00">
        <vehicle id="veh" speed="14.46" pos="57.61" lane="middle_4"/>
    </timestep>
    <timestep time="16.10">
        <vehicle id="veh" speed="14.72" pos="59.07" lane="middle_4"/>
    </timestep>
    <timestep time="16.20">
        <vehicle id="veh" speed="14.98" pos="0.47" lane="end_0"/>
    </timestep>
    <timestep time="16.30">
        <vehicle id="veh" speed="15.24" pos="1.99" lane="end_0"/>
    </timestep>
    <timestep time="16.40">
        <vehicle id="veh" speed="15.50" pos="3.52" lane="end_0"/>
    </timestep>
    <timestep time="16.50">
        <vehicle id="veh" speed="15.76" pos="5.09" lane="end_0"/>
    </timestep>
    <timestep time="16.60">
        <vehicle id="veh" speed="16.02" pos="6.67" lane="end_0"/>
    </timestep>
    <timestep time="16.70">
        <vehicle id="veh" speed="16.28" pos="8.29" lane="end_0"/>
    </timestep>
    <timestep time="16.80">
        <vehicle id="veh" speed="16.54" pos="9.93" lane="end_0"/>
    </timestep>
    <timestep time="16.90">
        <vehicle id="veh" speed="16.80" pos="11.60" lane="end_0"/>
    </timestep>
    <timestep time="17.00">
        <vehicle id="veh" speed="17.06" pos="13.29" lane="end_0"/>
    </timestep>
    <timestep time="17.10">
        <vehicle id="veh" speed="17.32" pos="15.01" lane="end_0"/>
    </timestep>
    <timestep time="17.20">
        <vehicle id="veh" speed="17.58" pos="16.75" lane="end_0"/>
    </timestep>
    <timestep time="17.30">
        <vehicle id="veh" speed="17.84" pos="18.53" lane="end_0"/>
    </timestep>
    <timestep time="17.40">
        <vehicle id="veh" speed="18.10" pos="20.32" lane="end_0"/>
    </timestep>
    <timestep time="17.50">
        <vehicle id="veh" speed="18.36" pos="22.15" lane="end_0"/>
    </timestep>
    <timestep time="17.60">
        <vehicle id="veh" speed="18.62" pos="23.99" lane="end_0"/>
    </timestep>
    <timestep time="17.70">
        <vehicle id="veh" speed="18.88" pos="25.87" lane="end_0"/>
    </timestep>
    <timestep time="17.80">
        <vehicle id="veh" speed="19.14" pos="27.77" lane="end_0"/>
    </timestep>
    <timestep time="17.90">
        <vehicle id="veh" speed="19.40" pos="29.70" lane="end_0"/>
    </timestep>
    <timestep time="18.00">
        <vehicle id="veh" speed="19.66" pos="31.65" lane="end_0"/>
    </timestep>
    <timestep time="18.10">
        <vehicle id="veh" speed="19.92" pos="33.63" lane="end_0"/>
    </timestep>
    <timestep time="18.20">
        <vehicle id="veh" speed="20.18" pos="35.63" lane="end_0"/>
    </timestep>
    <timestep time="18.30">
        <vehicle id="veh" speed="20.44" pos="37.67" lane="end_0"/>
    </timestep>
    <timestep time="18.40">
        <vehicle id="veh" speed="20.70" pos="39.72" lane="end_0"/>
    </timestep>
    <timestep time="18.50">
        <vehicle id="veh" speed="20.96" pos="41.81" lane="end_0"/>
    </timestep>
    <timestep time="18.60">
        <vehicle id="veh" speed="21.22" pos="43.91" lane="end_0"/>
    </timestep>
    <timestep time="18.70">
        <vehicle id="veh" speed="21.48" pos="46.05" lane="end_0"/>
    </timestep>
    <timestep time="18.80">
        <vehicle id="veh" speed="21.74" pos="48.21" lane="end_0"/>
    </timestep>
    <timestep time="18.90">
        <vehicle id="veh" speed="22.00" pos="50.40" lane="end_0"/>
    </timestep>
    <timestep time="19.00">
        <vehicle id="veh" speed="22.26" pos="52.61" lane="end_0"/>
    </timestep>
    <timestep time="19.10">
        <vehicle id="veh" speed="22.52" pos="54.85" lane="end_0"/>
    </timestep>
    <timestep time="19.20">
        <vehicle id="veh" speed="22.78" pos="57.11" lane="end_0"/>
    </timestep>
    <timestep time="19.30">
        <vehicle id="veh" speed="23.04" pos="59.41" lane="end_0"/>
    </timestep>
    <timestep time="19.40">
        <vehicle id="veh" speed="23.30" pos="61.72" lane="end_0"/>
    </timestep>
    <timestep time="19.50">
        <vehicle id="veh" speed="23.56" pos="64.07" lane="end_0"/>
    </timestep>
    <timestep time="19.60">
        <vehicle id="veh" speed="23.82" pos="66.43" lane="end_0"/>
    </timestep>
    <timestep time="19.70">
        <vehicle id="veh" speed="24.08" pos="68.83" lane="end_0"/>
    </timestep>
    <timestep time="19.80">
        <vehicle id="veh" speed="24.34" pos="71.25" lane="end_0"/>
    </timestep>
    <timestep time="19.90">
        <vehicle id="veh" speed="24.60" pos="73.70" lane="end_0"/>
    </timestep>
    <timestep time="20.00">
        <vehicle id="veh" speed="24.86" pos="76.17" lane="end_0"/>
    </timestep>
    <timestep time="20.10">
        <vehicle id="veh" speed="25.12" pos="78.67" lane="end_0"/>
    </timestep>
    <timestep time="20.20">
        <vehicle id="veh" speed="25.38" pos="81.19" lane="end_0"/>
    </timestep>
    <timestep time="20.30">
        <vehicle id="veh" speed="25.64" pos="83.75" lane="end_0"/>
    </timestep>
    <timestep time="20.40">
        <vehicle id="veh" speed="25.90" pos="86.32" lane="end_0"/>
    </timestep>
    <timestep time="20.50">
        <vehicle id="veh" speed="26.16" pos="88.93" lane="end_0"/>
    </timestep>
    <timestep time="20.60">
        <vehicle id="veh" speed="26.42" pos="91.55" lane="end_0"/>
    </timestep>
    <timestep time="20.70">
        <vehicle id="veh" speed="26.68" pos="94.21" lane="end_0"/>
    </timestep>
    <timestep time="20.80">
        <vehicle id="veh" speed="26.94" pos="96.89" lane="end_0"/>
    </timestep>
    <timestep time="20.90">
        <vehicle id="veh" speed="27.20" pos="99.60" lane="end_0"/>
    </timestep>
    <timestep time="21.00">
        <vehicle id="veh" speed="27.46" pos="102.33" lane="end_0"/>
    </timestep>
    <timestep time="21.10">
        <vehicle id="veh" speed="27.72" pos="105.09" lane="end_0"/>
    </timestep>
    <timestep time="21.20">
        <vehicle id="veh" speed="27.98" pos="107.87" lane="end_0"/>
    </timestep>
    <timestep time="21.30">
        <vehicle id="veh" speed="28.24" pos="110.69" lane="end_0"/>
    </timestep>
    <timestep time="21.40">
        <vehicle id="veh" speed="28.50" pos="113.52" lane="end_0"/>
    </timestep>
    <timestep time="21.50">
        <vehicle id="veh" speed="28.76" pos="116.39" lane="end_0"/>
    </timestep>
    <timestep time="21.60">
        <vehicle id="veh" speed="29.02" pos="119.27" lane="end_0"/>
    </timestep>
    <timestep time="21.70">
        <vehicle id="veh" speed="29.28" pos="122.19" lane="end_0"/>
    </timestep>
    <timestep time="21.80">
        <vehicle id="veh" speed="29.54" pos="125.13" lane="end_0"/>
    </timestep>
    <timestep time="21.90">
        <vehicle id="veh" speed="29.80" pos="128.10" lane="end_0"/>
    </timestep>
    <timestep time="22.00">
        <vehicle id="veh" speed="30.06" pos="131.09" lane="end_0"/>
    </timestep>
    <timestep time="22.10">
        <vehicle id="veh" speed="30.32" pos="134.11" lane="end_0"/>
    </timestep>
    <timestep time="22.20">
        <vehicle id="veh" speed="30.58" pos="137.15" lane="end_0"/>
    </timestep>
    <timestep time="22.30">
        <vehicle id="veh" speed="30.84" pos="140.23" lane="end_0"/>
    </timestep>
    <timestep time="22.40">
        <vehicle id="veh" speed="31.10" pos="143.32" lane="end_0"/>
    </timestep>
    <timestep time="22.50">
        <vehicle id="veh" speed="31.36" pos="146.45" lane="end_0"/>
    </timestep>
    <timestep time="22.60">
        <vehicle id="veh" speed="31.62" pos="149.59" lane="end_0"/>
    </timestep>
    <timestep time="22.70"/>
</fcd-export>
