<?xml version="1.0"?>

<!-- generated on 01/20/09 21:42:13 by SUMO sumo Version dev-SVN-r6636
<configuration>

   <input>
      <net-file>net.net.xml</net-file>
      <route-files>input_routes.rou.xml</route-files>
   </input>

   <output>
      <vehroute-output>vehroutes.xml</vehroute-output>
   </output>

   <processing>
      <no-duration-log>true</no-duration-log>
      <no-step-log>true</no-step-log>
   </processing>

</configuration>
-->

<routes>
   <vehicle id="veh0" depart="1" arrival="38">
      <route edges="in1 1to2 out2"/>
   </vehicle>

   <vehicle id="veh1" depart="2" arrival="39">
      <route edges="in2 2to1 out1"/>
   </vehicle>

</routes>
