<?xml version="1.0" encoding="UTF-8"?>

<!-- generated on 2021-12-11 22:16:26 by Eclipse SUMO sumo Version v1_11_0+0489-eed1b29
This data file and the accompanying materials
are made available under the terms of the Eclipse Public License v2.0
which accompanies this distribution, and is available at
http://www.eclipse.org/legal/epl-v20.html
SPDX-License-Identifier: EPL-2.0
<configuration xmlns:xsi="http://www.w3.org/2001/XMLSchema-instance" xsi:noNamespaceSchemaLocation="http://sumo.dlr.de/xsd/sumoConfiguration.xsd">

    <input>
        <net-file value="net2.net.xml"/>
        <route-files value="input_routes.rou.xml"/>
    </input>

    <output>
        <write-license value="true"/>
        <tripinfo-output value="tripinfos.xml"/>
    </output>

    <processing>
        <lateral-resolution value="0.64"/>
        <default.speeddev value="0"/>
    </processing>

    <report>
        <xml-validation value="never"/>
        <xml-validation.routes value="never"/>
        <duration-log.disable value="true"/>
        <no-step-log value="true"/>
    </report>

</configuration>
-->

<tripinfos xmlns:xsi="http://www.w3.org/2001/XMLSchema-instance" xsi:noNamespaceSchemaLocation="http://sumo.dlr.de/xsd/tripinfo_file.xsd">
    <tripinfo id="rescue" depart="40.00" departLane="SC_1" departPos="0.00" departPosLat="0.00" departSpeed="0.00" departDelay="2.00" arrival="61.00" arrivalLane="CN_0" arrivalPos="91.95" arrivalPosLat="1.56" arrivalSpeed="23.76" duration="21.00" routeLength="200.00" waitingTime="0.00" waitingCount="0" stopTime="0.00" timeLoss="13.30" rerouteNo="0" devices="tripinfo_rescue bluelight_rescue" vType="rescue" speedFactor="2.00" vaporized="">
        <bluelight/>
    </tripinfo>
    <tripinfo id="rescue2" depart="43.00" departLane="SC_1" departPos="0.00" departPosLat="0.00" departSpeed="0.00" departDelay="4.00" arrival="64.00" arrivalLane="CN_1" arrivalPos="91.95" arrivalPosLat="-1.00" arrivalSpeed="23.76" duration="21.00" routeLength="200.00" waitingTime="0.00" waitingCount="0" stopTime="0.00" timeLoss="13.29" rerouteNo="0" devices="tripinfo_rescue2 bluelight_rescue2" vType="rescue" speedFactor="2.00" vaporized="">
        <bluelight/>
    </tripinfo>
    <tripinfo id="left1" depart="35.00" departLane="SC_1" departPos="0.00" departPosLat="0.00" departSpeed="0.00" departDelay="0.00" arrival="100.00" arrivalLane="CN_1" arrivalPos="91.95" arrivalPosLat="0.00" arrivalSpeed="13.89" duration="65.00" routeLength="200.00" waitingTime="44.00" waitingCount="1" stopTime="0.00" timeLoss="49.64" rerouteNo="0" devices="tripinfo_left1" vType="left" speedFactor="1.00" vaporized=""/>
    <tripinfo id="right1" depart="35.00" departLane="SC_0" departPos="0.00" departPosLat="0.00" departSpeed="0.00" departDelay="0.00" arrival="100.00" arrivalLane="CN_0" arrivalPos="91.95" arrivalPosLat="-0.70" arrivalSpeed="13.89" duration="65.00" routeLength="200.00" waitingTime="44.00" waitingCount="1" stopTime="0.00" timeLoss="49.64" rerouteNo="0" devices="tripinfo_right1" vType="right@right1" speedFactor="1.00" vaporized=""/>
    <tripinfo id="left2" depart="37.00" departLane="SC_1" departPos="0.00" departPosLat="0.00" departSpeed="0.00" departDelay="0.00" arrival="101.00" arrivalLane="CN_1" arrivalPos="91.95" arrivalPosLat="0.70" arrivalSpeed="13.89" duration="64.00" routeLength="200.00" waitingTime="43.00" waitingCount="1" stopTime="0.00" timeLoss="49.18" rerouteNo="0" devices="tripinfo_left2" vType="left@left2" speedFactor="1.00" vaporized=""/>
    <tripinfo id="right2" depart="37.00" departLane="SC_0" departPos="0.00" departPosLat="0.00" departSpeed="0.00" departDelay="0.00" arrival="101.00" arrivalLane="CN_0" arrivalPos="91.95" arrivalPosLat="-0.70" arrivalSpeed="13.89" duration="64.00" routeLength="200.00" waitingTime="43.00" waitingCount="1" stopTime="0.00" timeLoss="49.18" rerouteNo="0" devices="tripinfo_right2" vType="right@right2" speedFactor="1.00" vaporized=""/>
</tripinfos>
