<?xml version="1.0" encoding="UTF-8"?>

<!-- generated on 2025-01-07 12:37:07 by Eclipse SUMO sumo Version v1_21_0+1707-e20019a517b
This data file and the accompanying materials
are made available under the terms of the Eclipse Public License v2.0
which accompanies this distribution, and is available at
http://www.eclipse.org/legal/epl-v20.html
This file may also be made available under the following Secondary
Licenses when the conditions for such availability set forth in the Eclipse
Public License 2.0 are satisfied: GNU General Public License, version 2
or later which is available at
https://www.gnu.org/licenses/old-licenses/gpl-2.0-standalone.html
SPDX-License-Identifier: EPL-2.0 OR GPL-2.0-or-later
<sumoConfiguration xmlns:xsi="http://www.w3.org/2001/XMLSchema-instance" xsi:noNamespaceSchemaLocation="http://sumo.dlr.de/xsd/sumoConfiguration.xsd">

    <input>
        <net-file value="net.net.xml"/>
        <route-files value="input_routes.rou.xml"/>
        <additional-files value="input_additional.add.xml,input_additional2.add.xml"/>
    </input>

    <output>
        <write-license value="true"/>
        <tripinfo-output value="tripinfos.xml"/>
        <vehroute-output value="vehroutes.xml"/>
    </output>

    <processing>
        <default.speeddev value="0"/>
        <pedestrian.model value="nonInteracting"/>
    </processing>

    <report>
        <xml-validation value="never"/>
        <duration-log.disable value="true"/>
        <no-step-log value="true"/>
    </report>

</sumoConfiguration>
-->

<tripinfos xmlns:xsi="http://www.w3.org/2001/XMLSchema-instance" xsi:noNamespaceSchemaLocation="http://sumo.dlr.de/xsd/tripinfo_file.xsd">
    <tripinfo id="blocker" depart="0.00" departLane="C0C1_0" departPos="5.10" departSpeed="0.00" departDelay="0.00" arrival="47.00" arrivalLane="C2C3_0" arrivalPos="90.60" arrivalSpeed="13.89" duration="47.00" routeLength="285.50" waitingTime="0.00" waitingCount="0" stopTime="20.00" timeLoss="5.60" rerouteNo="1" devices="vehroute_blocker tripinfo_blocker routing_blocker" vType="DEFAULT_VEHTYPE" speedFactor="1.00" vaporized=""/>
    <tripinfo id="egoVeh" depart="2.00" departLane="C0C1_0" departPos="5.10" departSpeed="0.00" departDelay="2.00" arrival="62.00" arrivalLane="C2C3_0" arrivalPos="90.60" arrivalSpeed="13.89" duration="60.00" routeLength="478.22" waitingTime="1.00" waitingCount="1" stopTime="10.00" timeLoss="15.00" rerouteNo="2" devices="vehroute_egoVeh tripinfo_egoVeh routing_egoVeh person_egoVeh" vType="DEFAULT_VEHTYPE" speedFactor="1.00" vaporized=""/>
    <personinfo id="ego" depart="0.00" type="DEFAULT_PEDTYPE" speedFactor="1.00" duration="170.00" waitingTime="2.00" timeLoss="12.41" traveltime="158.00">
        <ride waitingTime="2.00" vehicle="egoVeh" depart="2.00" arrival="31.00" arrivalPos="55.00" duration="29.00" routeLength="246.26" timeLoss="10.27"/>
        <walk depart="31.00" departPos="55.00" arrival="160.00" arrivalPos="60.00" duration="129.00" routeLength="176.20" timeLoss="2.14" maxSpeed="1.39"/>
        <stop duration="10.00" arrival="170.00" arrivalPos="60.00" actType="waiting"/>
    </personinfo>
</tripinfos>
