<?xml version="1.0" encoding="UTF-8"?>

<!-- generated on Mon Jan  9 14:03:05 2017 by SUMO Version dev-SVN-r22519
<?xml version="1.0" encoding="UTF-8"?>

<configuration xmlns:xsi="http://www.w3.org/2001/XMLSchema-instance" xsi:noNamespaceSchemaLocation="http://sumo.dlr.de/xsd/sumoConfiguration.xsd">

    <input>
        <net-file value="net.net.xml"/>
        <additional-files value="input_routes.rou.xml,input_additional.add.xml,input_additional2.add.xml"/>
    </input>

    <time>
        <begin value="0"/>
        <end value="1000"/>
    </time>

    <report>
        <xml-validation value="never"/>
        <duration-log.disable value="true"/>
        <no-step-log value="true"/>
    </report>

</configuration>
-->

<detector xmlns:xsi="http://www.w3.org/2001/XMLSchema-instance" xsi:noNamespaceSchemaLocation="http://sumo.dlr.de/xsd/det_e2_file.xsd">
   <interval begin="0.00" end="10.00" id="3/1to2/1" sampledSeconds="0.00" nVehEntered="0" meanSpeed="-1.00" meanTimeLoss="-1.00" meanOccupancy="0.00" maxOccupancy="0.00" meanMaxJamLengthInVehicles="0.00" meanMaxJamLengthInMeters="0.00" maxJamLengthInVehicles="0" maxJamLengthInMeters="0.00" jamLengthInVehiclesSum="0" jamLengthInMetersSum="0.00" meanHaltingDuration="0.00" maxHaltingDuration="0.00" haltingDurationSum="0.00" meanIntervalHaltingDuration="0.00" maxIntervalHaltingDuration="0.00" intervalHaltingDurationSum="0.00" startedHalts="0.00" meanVehicleNumber="0.00" maxVehicleNumber="0" />
   <interval begin="10.00" end="20.00" id="3/1to2/1" sampledSeconds="0.00" nVehEntered="0" meanSpeed="-1.00" meanTimeLoss="-1.00" meanOccupancy="0.00" maxOccupancy="0.00" meanMaxJamLengthInVehicles="0.00" meanMaxJamLengthInMeters="0.00" maxJamLengthInVehicles="0" maxJamLengthInMeters="0.00" jamLengthInVehiclesSum="0" jamLengthInMetersSum="0.00" meanHaltingDuration="0.00" maxHaltingDuration="0.00" haltingDurationSum="0.00" meanIntervalHaltingDuration="0.00" maxIntervalHaltingDuration="0.00" intervalHaltingDurationSum="0.00" startedHalts="0.00" meanVehicleNumber="0.00" maxVehicleNumber="0" />
   <interval begin="20.00" end="30.00" id="3/1to2/1" sampledSeconds="0.00" nVehEntered="0" meanSpeed="-1.00" meanTimeLoss="-1.00" meanOccupancy="0.00" maxOccupancy="0.00" meanMaxJamLengthInVehicles="0.00" meanMaxJamLengthInMeters="0.00" maxJamLengthInVehicles="0" maxJamLengthInMeters="0.00" jamLengthInVehiclesSum="0" jamLengthInMetersSum="0.00" meanHaltingDuration="0.00" maxHaltingDuration="0.00" haltingDurationSum="0.00" meanIntervalHaltingDuration="0.00" maxIntervalHaltingDuration="0.00" intervalHaltingDurationSum="0.00" startedHalts="0.00" meanVehicleNumber="0.00" maxVehicleNumber="0" />
   <interval begin="30.00" end="40.00" id="3/1to2/1" sampledSeconds="0.00" nVehEntered="0" meanSpeed="-1.00" meanTimeLoss="-1.00" meanOccupancy="0.00" maxOccupancy="0.00" meanMaxJamLengthInVehicles="0.00" meanMaxJamLengthInMeters="0.00" maxJamLengthInVehicles="0" maxJamLengthInMeters="0.00" jamLengthInVehiclesSum="0" jamLengthInMetersSum="0.00" meanHaltingDuration="0.00" maxHaltingDuration="0.00" haltingDurationSum="0.00" meanIntervalHaltingDuration="0.00" maxIntervalHaltingDuration="0.00" intervalHaltingDurationSum="0.00" startedHalts="0.00" meanVehicleNumber="0.00" maxVehicleNumber="0" />
   <interval begin="40.00" end="50.00" id="3/1to2/1" sampledSeconds="0.00" nVehEntered="0" meanSpeed="-1.00" meanTimeLoss="-1.00" meanOccupancy="0.00" maxOccupancy="0.00" meanMaxJamLengthInVehicles="0.00" meanMaxJamLengthInMeters="0.00" maxJamLengthInVehicles="0" maxJamLengthInMeters="0.00" jamLengthInVehiclesSum="0" jamLengthInMetersSum="0.00" meanHaltingDuration="0.00" maxHaltingDuration="0.00" haltingDurationSum="0.00" meanIntervalHaltingDuration="0.00" maxIntervalHaltingDuration="0.00" intervalHaltingDurationSum="0.00" startedHalts="0.00" meanVehicleNumber="0.00" maxVehicleNumber="0" />
   <interval begin="50.00" end="60.00" id="3/1to2/1" sampledSeconds="0.00" nVehEntered="0" meanSpeed="-1.00" meanTimeLoss="-1.00" meanOccupancy="0.00" maxOccupancy="0.00" meanMaxJamLengthInVehicles="0.00" meanMaxJamLengthInMeters="0.00" maxJamLengthInVehicles="0" maxJamLengthInMeters="0.00" jamLengthInVehiclesSum="0" jamLengthInMetersSum="0.00" meanHaltingDuration="0.00" maxHaltingDuration="0.00" haltingDurationSum="0.00" meanIntervalHaltingDuration="0.00" maxIntervalHaltingDuration="0.00" intervalHaltingDurationSum="0.00" startedHalts="0.00" meanVehicleNumber="0.00" maxVehicleNumber="0" />
   <interval begin="60.00" end="70.00" id="3/1to2/1" sampledSeconds="13.00" nVehEntered="2" meanSpeed="10.00" meanTimeLoss="0.00" meanOccupancy="4.31" maxOccupancy="6.63" meanMaxJamLengthInVehicles="0.00" meanMaxJamLengthInMeters="0.00" maxJamLengthInVehicles="0" maxJamLengthInMeters="0.00" jamLengthInVehiclesSum="0" jamLengthInMetersSum="0.00" meanHaltingDuration="0.00" maxHaltingDuration="0.00" haltingDurationSum="0.00" meanIntervalHaltingDuration="0.00" maxIntervalHaltingDuration="0.00" intervalHaltingDurationSum="0.00" startedHalts="0.00" meanVehicleNumber="1.30" maxVehicleNumber="2" />
   <interval begin="70.00" end="80.00" id="3/1to2/1" sampledSeconds="19.45" nVehEntered="2" meanSpeed="9.45" meanTimeLoss="0.54" meanOccupancy="5.97" maxOccupancy="6.63" meanMaxJamLengthInVehicles="0.00" meanMaxJamLengthInMeters="0.00" maxJamLengthInVehicles="0" maxJamLengthInMeters="0.00" jamLengthInVehiclesSum="0" jamLengthInMetersSum="0.00" meanHaltingDuration="0.00" maxHaltingDuration="0.00" haltingDurationSum="0.00" meanIntervalHaltingDuration="0.00" maxIntervalHaltingDuration="0.00" intervalHaltingDurationSum="0.00" startedHalts="0.00" meanVehicleNumber="2.00" maxVehicleNumber="2" />
   <interval begin="80.00" end="90.00" id="3/1to2/1" sampledSeconds="33.00" nVehEntered="2" meanSpeed="5.01" meanTimeLoss="4.99" meanOccupancy="10.94" maxOccupancy="13.26" meanMaxJamLengthInVehicles="1.20" meanMaxJamLengthInMeters="4.40" maxJamLengthInVehicles="2" maxJamLengthInMeters="8.00" jamLengthInVehiclesSum="12" jamLengthInMetersSum="44.00" meanHaltingDuration="7.00" maxHaltingDuration="9.00" haltingDurationSum="14.00" meanIntervalHaltingDuration="7.00" maxIntervalHaltingDuration="9.00" intervalHaltingDurationSum="14.00" startedHalts="2.00" meanVehicleNumber="3.30" maxVehicleNumber="4" />
   <interval begin="90.00" end="100.00" id="3/1to2/1" sampledSeconds="53.00" nVehEntered="2" meanSpeed="2.70" meanTimeLoss="7.30" meanOccupancy="17.57" maxOccupancy="19.89" meanMaxJamLengthInVehicles="3.40" meanMaxJamLengthInMeters="15.00" maxJamLengthInVehicles="4" maxJamLengthInMeters="18.00" jamLengthInVehiclesSum="34" jamLengthInMetersSum="150.02" meanHaltingDuration="10.20" maxHaltingDuration="19.00" haltingDurationSum="51.00" meanIntervalHaltingDuration="7.40" maxIntervalHaltingDuration="10.00" intervalHaltingDurationSum="37.00" startedHalts="3.00" meanVehicleNumber="5.30" maxVehicleNumber="6" />
   <interval begin="100.00" end="110.00" id="3/1to2/1" sampledSeconds="73.00" nVehEntered="2" meanSpeed="1.68" meanTimeLoss="8.32" meanOccupancy="24.20" maxOccupancy="26.52" meanMaxJamLengthInVehicles="5.70" meanMaxJamLengthInMeters="26.50" maxJamLengthInVehicles="7" maxJamLengthInMeters="33.01" jamLengthInVehiclesSum="57" jamLengthInMetersSum="265.05" meanHaltingDuration="15.71" maxHaltingDuration="29.00" haltingDurationSum="110.00" meanIntervalHaltingDuration="8.43" maxIntervalHaltingDuration="10.00" intervalHaltingDurationSum="59.00" startedHalts="2.00" meanVehicleNumber="7.30" maxVehicleNumber="8" />
   <interval begin="110.00" end="120.00" id="3/1to2/1" sampledSeconds="80.00" nVehEntered="0" meanSpeed="0.17" meanTimeLoss="9.83" meanOccupancy="26.52" maxOccupancy="26.52" meanMaxJamLengthInVehicles="7.70" meanMaxJamLengthInMeters="36.51" maxJamLengthInVehicles="8" maxJamLengthInMeters="38.01" jamLengthInVehiclesSum="77" jamLengthInMetersSum="365.07" meanHaltingDuration="23.50" maxHaltingDuration="39.00" haltingDurationSum="188.00" meanIntervalHaltingDuration="9.75" maxIntervalHaltingDuration="10.00" intervalHaltingDurationSum="78.00" startedHalts="1.00" meanVehicleNumber="8.00" maxVehicleNumber="8" />
   <interval begin="120.00" end="130.00" id="3/1to2/1" sampledSeconds="80.00" nVehEntered="0" meanSpeed="0.00" meanTimeLoss="10.00" meanOccupancy="26.52" maxOccupancy="26.52" meanMaxJamLengthInVehicles="8.00" meanMaxJamLengthInMeters="38.01" maxJamLengthInVehicles="8" maxJamLengthInMeters="38.01" jamLengthInVehiclesSum="80" jamLengthInMetersSum="380.07" meanHaltingDuration="33.50" maxHaltingDuration="49.00" haltingDurationSum="268.00" meanIntervalHaltingDuration="10.00" maxIntervalHaltingDuration="10.00" intervalHaltingDurationSum="80.00" startedHalts="0.00" meanVehicleNumber="8.00" maxVehicleNumber="8" />
   <interval begin="130.00" end="140.00" id="3/1to2/1" sampledSeconds="80.00" nVehEntered="0" meanSpeed="0.00" meanTimeLoss="10.00" meanOccupancy="26.52" maxOccupancy="26.52" meanMaxJamLengthInVehicles="8.00" meanMaxJamLengthInMeters="38.01" maxJamLengthInVehicles="8" maxJamLengthInMeters="38.01" jamLengthInVehiclesSum="80" jamLengthInMetersSum="380.07" meanHaltingDuration="43.50" maxHaltingDuration="59.00" haltingDurationSum="348.00" meanIntervalHaltingDuration="10.00" maxIntervalHaltingDuration="10.00" intervalHaltingDurationSum="80.00" startedHalts="0.00" meanVehicleNumber="8.00" maxVehicleNumber="8" />
   <interval begin="140.00" end="150.00" id="3/1to2/1" sampledSeconds="80.00" nVehEntered="0" meanSpeed="0.00" meanTimeLoss="10.00" meanOccupancy="26.52" maxOccupancy="26.52" meanMaxJamLengthInVehicles="8.00" meanMaxJamLengthInMeters="38.01" maxJamLengthInVehicles="8" maxJamLengthInMeters="38.01" jamLengthInVehiclesSum="80" jamLengthInMetersSum="380.07" meanHaltingDuration="53.50" maxHaltingDuration="69.00" haltingDurationSum="428.00" meanIntervalHaltingDuration="10.00" maxIntervalHaltingDuration="10.00" intervalHaltingDurationSum="80.00" startedHalts="0.00" meanVehicleNumber="8.00" maxVehicleNumber="8" />
   <interval begin="150.00" end="160.00" id="3/1to2/1" sampledSeconds="80.00" nVehEntered="0" meanSpeed="0.00" meanTimeLoss="10.00" meanOccupancy="26.52" maxOccupancy="26.52" meanMaxJamLengthInVehicles="8.00" meanMaxJamLengthInMeters="38.01" maxJamLengthInVehicles="8" maxJamLengthInMeters="38.01" jamLengthInVehiclesSum="80" jamLengthInMetersSum="380.07" meanHaltingDuration="63.50" maxHaltingDuration="79.00" haltingDurationSum="508.00" meanIntervalHaltingDuration="10.00" maxIntervalHaltingDuration="10.00" intervalHaltingDurationSum="80.00" startedHalts="0.00" meanVehicleNumber="8.00" maxVehicleNumber="8" />
   <interval begin="160.00" end="170.00" id="3/1to2/1" sampledSeconds="80.00" nVehEntered="0" meanSpeed="0.00" meanTimeLoss="10.00" meanOccupancy="26.52" maxOccupancy="26.52" meanMaxJamLengthInVehicles="8.00" meanMaxJamLengthInMeters="38.01" maxJamLengthInVehicles="8" maxJamLengthInMeters="38.01" jamLengthInVehiclesSum="80" jamLengthInMetersSum="380.07" meanHaltingDuration="73.50" maxHaltingDuration="89.00" haltingDurationSum="588.00" meanIntervalHaltingDuration="10.00" maxIntervalHaltingDuration="10.00" intervalHaltingDurationSum="80.00" startedHalts="0.00" meanVehicleNumber="8.00" maxVehicleNumber="8" />
   <interval begin="170.00" end="180.00" id="3/1to2/1" sampledSeconds="80.00" nVehEntered="0" meanSpeed="0.00" meanTimeLoss="10.00" meanOccupancy="26.52" maxOccupancy="26.52" meanMaxJamLengthInVehicles="8.00" meanMaxJamLengthInMeters="38.01" maxJamLengthInVehicles="8" maxJamLengthInMeters="38.01" jamLengthInVehiclesSum="80" jamLengthInMetersSum="380.07" meanHaltingDuration="83.50" maxHaltingDuration="99.00" haltingDurationSum="668.00" meanIntervalHaltingDuration="10.00" maxIntervalHaltingDuration="10.00" intervalHaltingDurationSum="80.00" startedHalts="0.00" meanVehicleNumber="8.00" maxVehicleNumber="8" />
   <interval begin="180.00" end="190.00" id="3/1to2/1" sampledSeconds="80.00" nVehEntered="0" meanSpeed="0.00" meanTimeLoss="10.00" meanOccupancy="26.52" maxOccupancy="26.52" meanMaxJamLengthInVehicles="8.00" meanMaxJamLengthInMeters="38.01" maxJamLengthInVehicles="8" maxJamLengthInMeters="38.01" jamLengthInVehiclesSum="80" jamLengthInMetersSum="380.07" meanHaltingDuration="93.50" maxHaltingDuration="109.00" haltingDurationSum="748.00" meanIntervalHaltingDuration="10.00" maxIntervalHaltingDuration="10.00" intervalHaltingDurationSum="80.00" startedHalts="0.00" meanVehicleNumber="8.00" maxVehicleNumber="8" />
   <interval begin="190.00" end="200.00" id="3/1to2/1" sampledSeconds="80.00" nVehEntered="0" meanSpeed="0.00" meanTimeLoss="10.00" meanOccupancy="26.52" maxOccupancy="26.52" meanMaxJamLengthInVehicles="8.00" meanMaxJamLengthInMeters="38.01" maxJamLengthInVehicles="8" maxJamLengthInMeters="38.01" jamLengthInVehiclesSum="80" jamLengthInMetersSum="380.07" meanHaltingDuration="103.50" maxHaltingDuration="119.00" haltingDurationSum="828.00" meanIntervalHaltingDuration="10.00" maxIntervalHaltingDuration="10.00" intervalHaltingDurationSum="80.00" startedHalts="0.00" meanVehicleNumber="8.00" maxVehicleNumber="8" />
   <interval begin="200.00" end="210.00" id="3/1to2/1" sampledSeconds="80.00" nVehEntered="0" meanSpeed="0.00" meanTimeLoss="10.00" meanOccupancy="26.52" maxOccupancy="26.52" meanMaxJamLengthInVehicles="8.00" meanMaxJamLengthInMeters="38.01" maxJamLengthInVehicles="8" maxJamLengthInMeters="38.01" jamLengthInVehiclesSum="80" jamLengthInMetersSum="380.07" meanHaltingDuration="113.50" maxHaltingDuration="129.00" haltingDurationSum="908.00" meanIntervalHaltingDuration="10.00" maxIntervalHaltingDuration="10.00" intervalHaltingDurationSum="80.00" startedHalts="0.00" meanVehicleNumber="8.00" maxVehicleNumber="8" />
   <interval begin="210.00" end="220.00" id="3/1to2/1" sampledSeconds="80.00" nVehEntered="0" meanSpeed="0.00" meanTimeLoss="10.00" meanOccupancy="26.52" maxOccupancy="26.52" meanMaxJamLengthInVehicles="8.00" meanMaxJamLengthInMeters="38.01" maxJamLengthInVehicles="8" maxJamLengthInMeters="38.01" jamLengthInVehiclesSum="80" jamLengthInMetersSum="380.07" meanHaltingDuration="123.50" maxHaltingDuration="139.00" haltingDurationSum="988.00" meanIntervalHaltingDuration="10.00" maxIntervalHaltingDuration="10.00" intervalHaltingDurationSum="80.00" startedHalts="0.00" meanVehicleNumber="8.00" maxVehicleNumber="8" />
   <interval begin="220.00" end="230.00" id="3/1to2/1" sampledSeconds="80.00" nVehEntered="0" meanSpeed="0.00" meanTimeLoss="10.00" meanOccupancy="26.52" maxOccupancy="26.52" meanMaxJamLengthInVehicles="8.00" meanMaxJamLengthInMeters="38.01" maxJamLengthInVehicles="8" maxJamLengthInMeters="38.01" jamLengthInVehiclesSum="80" jamLengthInMetersSum="380.07" meanHaltingDuration="133.50" maxHaltingDuration="149.00" haltingDurationSum="1068.00" meanIntervalHaltingDuration="10.00" maxIntervalHaltingDuration="10.00" intervalHaltingDurationSum="80.00" startedHalts="0.00" meanVehicleNumber="8.00" maxVehicleNumber="8" />
   <interval begin="230.00" end="240.00" id="3/1to2/1" sampledSeconds="80.00" nVehEntered="0" meanSpeed="0.00" meanTimeLoss="10.00" meanOccupancy="26.52" maxOccupancy="26.52" meanMaxJamLengthInVehicles="8.00" meanMaxJamLengthInMeters="38.01" maxJamLengthInVehicles="8" maxJamLengthInMeters="38.01" jamLengthInVehiclesSum="80" jamLengthInMetersSum="380.07" meanHaltingDuration="143.50" maxHaltingDuration="159.00" haltingDurationSum="1148.00" meanIntervalHaltingDuration="10.00" maxIntervalHaltingDuration="10.00" intervalHaltingDurationSum="80.00" startedHalts="0.00" meanVehicleNumber="8.00" maxVehicleNumber="8" />
   <interval begin="240.00" end="250.00" id="3/1to2/1" sampledSeconds="80.00" nVehEntered="0" meanSpeed="0.00" meanTimeLoss="10.00" meanOccupancy="26.52" maxOccupancy="26.52" meanMaxJamLengthInVehicles="8.00" meanMaxJamLengthInMeters="38.01" maxJamLengthInVehicles="8" maxJamLengthInMeters="38.01" jamLengthInVehiclesSum="80" jamLengthInMetersSum="380.07" meanHaltingDuration="153.50" maxHaltingDuration="169.00" haltingDurationSum="1228.00" meanIntervalHaltingDuration="10.00" maxIntervalHaltingDuration="10.00" intervalHaltingDurationSum="80.00" startedHalts="0.00" meanVehicleNumber="8.00" maxVehicleNumber="8" />
   <interval begin="250.00" end="260.00" id="3/1to2/1" sampledSeconds="80.00" nVehEntered="0" meanSpeed="0.00" meanTimeLoss="10.00" meanOccupancy="26.52" maxOccupancy="26.52" meanMaxJamLengthInVehicles="8.00" meanMaxJamLengthInMeters="38.01" maxJamLengthInVehicles="8" maxJamLengthInMeters="38.01" jamLengthInVehiclesSum="80" jamLengthInMetersSum="380.07" meanHaltingDuration="163.50" maxHaltingDuration="179.00" haltingDurationSum="1308.00" meanIntervalHaltingDuration="10.00" maxIntervalHaltingDuration="10.00" intervalHaltingDurationSum="80.00" startedHalts="0.00" meanVehicleNumber="8.00" maxVehicleNumber="8" />
   <interval begin="260.00" end="270.00" id="3/1to2/1" sampledSeconds="80.00" nVehEntered="0" meanSpeed="0.00" meanTimeLoss="10.00" meanOccupancy="26.52" maxOccupancy="26.52" meanMaxJamLengthInVehicles="8.00" meanMaxJamLengthInMeters="38.01" maxJamLengthInVehicles="8" maxJamLengthInMeters="38.01" jamLengthInVehiclesSum="80" jamLengthInMetersSum="380.07" meanHaltingDuration="173.50" maxHaltingDuration="189.00" haltingDurationSum="1388.00" meanIntervalHaltingDuration="10.00" maxIntervalHaltingDuration="10.00" intervalHaltingDurationSum="80.00" startedHalts="0.00" meanVehicleNumber="8.00" maxVehicleNumber="8" />
   <interval begin="270.00" end="280.00" id="3/1to2/1" sampledSeconds="80.00" nVehEntered="0" meanSpeed="0.00" meanTimeLoss="10.00" meanOccupancy="26.52" maxOccupancy="26.52" meanMaxJamLengthInVehicles="8.00" meanMaxJamLengthInMeters="38.01" maxJamLengthInVehicles="8" maxJamLengthInMeters="38.01" jamLengthInVehiclesSum="80" jamLengthInMetersSum="380.07" meanHaltingDuration="183.50" maxHaltingDuration="199.00" haltingDurationSum="1468.00" meanIntervalHaltingDuration="10.00" maxIntervalHaltingDuration="10.00" intervalHaltingDurationSum="80.00" startedHalts="0.00" meanVehicleNumber="8.00" maxVehicleNumber="8" />
   <interval begin="280.00" end="290.00" id="3/1to2/1" sampledSeconds="80.00" nVehEntered="0" meanSpeed="0.00" meanTimeLoss="10.00" meanOccupancy="26.52" maxOccupancy="26.52" meanMaxJamLengthInVehicles="8.00" meanMaxJamLengthInMeters="38.01" maxJamLengthInVehicles="8" maxJamLengthInMeters="38.01" jamLengthInVehiclesSum="80" jamLengthInMetersSum="380.07" meanHaltingDuration="193.50" maxHaltingDuration="209.00" haltingDurationSum="1548.00" meanIntervalHaltingDuration="10.00" maxIntervalHaltingDuration="10.00" intervalHaltingDurationSum="80.00" startedHalts="0.00" meanVehicleNumber="8.00" maxVehicleNumber="8" />
   <interval begin="290.00" end="300.00" id="3/1to2/1" sampledSeconds="80.00" nVehEntered="0" meanSpeed="0.00" meanTimeLoss="10.00" meanOccupancy="26.52" maxOccupancy="26.52" meanMaxJamLengthInVehicles="8.00" meanMaxJamLengthInMeters="38.01" maxJamLengthInVehicles="8" maxJamLengthInMeters="38.01" jamLengthInVehiclesSum="80" jamLengthInMetersSum="380.07" meanHaltingDuration="203.50" maxHaltingDuration="219.00" haltingDurationSum="1628.00" meanIntervalHaltingDuration="10.00" maxIntervalHaltingDuration="10.00" intervalHaltingDurationSum="80.00" startedHalts="0.00" meanVehicleNumber="8.00" maxVehicleNumber="8" />
   <interval begin="300.00" end="310.00" id="3/1to2/1" sampledSeconds="71.77" nVehEntered="0" meanSpeed="0.79" meanTimeLoss="9.06" meanOccupancy="22.89" maxOccupancy="26.52" meanMaxJamLengthInVehicles="5.20" meanMaxJamLengthInMeters="24.56" maxJamLengthInVehicles="8" maxJamLengthInMeters="38.81" jamLengthInVehiclesSum="52" jamLengthInMetersSum="245.64" meanHaltingDuration="210.00" maxHaltingDuration="222.00" haltingDurationSum="1680.00" meanIntervalHaltingDuration="6.50" maxIntervalHaltingDuration="10.00" intervalHaltingDurationSum="52.00" startedHalts="0.00" meanVehicleNumber="7.30" maxVehicleNumber="8" />
   <interval begin="310.00" end="320.00" id="3/1to2/1" sampledSeconds="25.14" nVehEntered="0" meanSpeed="4.75" meanTimeLoss="4.71" meanOccupancy="7.24" maxOccupancy="16.25" meanMaxJamLengthInVehicles="0.00" meanMaxJamLengthInMeters="0.00" maxJamLengthInVehicles="0" maxJamLengthInMeters="0.00" jamLengthInVehiclesSum="0" jamLengthInMetersSum="0.00" meanHaltingDuration="198.00" maxHaltingDuration="198.00" haltingDurationSum="198.00" meanIntervalHaltingDuration="0.00" maxIntervalHaltingDuration="0.00" intervalHaltingDurationSum="0.00" startedHalts="0.00" meanVehicleNumber="2.80" maxVehicleNumber="5" />
   <interval begin="320.00" end="330.00" id="3/1to2/1" sampledSeconds="0.00" nVehEntered="0" meanSpeed="-1.00" meanTimeLoss="-1.00" meanOccupancy="0.00" maxOccupancy="0.00" meanMaxJamLengthInVehicles="0.00" meanMaxJamLengthInMeters="0.00" maxJamLengthInVehicles="0" maxJamLengthInMeters="0.00" jamLengthInVehiclesSum="0" jamLengthInMetersSum="0.00" meanHaltingDuration="0.00" maxHaltingDuration="0.00" haltingDurationSum="0.00" meanIntervalHaltingDuration="0.00" maxIntervalHaltingDuration="0.00" intervalHaltingDurationSum="0.00" startedHalts="0.00" meanVehicleNumber="0.00" maxVehicleNumber="0" />
   <interval begin="330.00" end="340.00" id="3/1to2/1" sampledSeconds="0.00" nVehEntered="0" meanSpeed="-1.00" meanTimeLoss="-1.00" meanOccupancy="0.00" maxOccupancy="0.00" meanMaxJamLengthInVehicles="0.00" meanMaxJamLengthInMeters="0.00" maxJamLengthInVehicles="0" maxJamLengthInMeters="0.00" jamLengthInVehiclesSum="0" jamLengthInMetersSum="0.00" meanHaltingDuration="0.00" maxHaltingDuration="0.00" haltingDurationSum="0.00" meanIntervalHaltingDuration="0.00" maxIntervalHaltingDuration="0.00" intervalHaltingDurationSum="0.00" startedHalts="0.00" meanVehicleNumber="0.00" maxVehicleNumber="0" />
   <interval begin="340.00" end="350.00" id="3/1to2/1" sampledSeconds="0.00" nVehEntered="0" meanSpeed="-1.00" meanTimeLoss="-1.00" meanOccupancy="0.00" maxOccupancy="0.00" meanMaxJamLengthInVehicles="0.00" meanMaxJamLengthInMeters="0.00" maxJamLengthInVehicles="0" maxJamLengthInMeters="0.00" jamLengthInVehiclesSum="0" jamLengthInMetersSum="0.00" meanHaltingDuration="0.00" maxHaltingDuration="0.00" haltingDurationSum="0.00" meanIntervalHaltingDuration="0.00" maxIntervalHaltingDuration="0.00" intervalHaltingDurationSum="0.00" startedHalts="0.00" meanVehicleNumber="0.00" maxVehicleNumber="0" />
   <interval begin="350.00" end="360.00" id="3/1to2/1" sampledSeconds="0.00" nVehEntered="0" meanSpeed="-1.00" meanTimeLoss="-1.00" meanOccupancy="0.00" maxOccupancy="0.00" meanMaxJamLengthInVehicles="0.00" meanMaxJamLengthInMeters="0.00" maxJamLengthInVehicles="0" maxJamLengthInMeters="0.00" jamLengthInVehiclesSum="0" jamLengthInMetersSum="0.00" meanHaltingDuration="0.00" maxHaltingDuration="0.00" haltingDurationSum="0.00" meanIntervalHaltingDuration="0.00" maxIntervalHaltingDuration="0.00" intervalHaltingDurationSum="0.00" startedHalts="0.00" meanVehicleNumber="0.00" maxVehicleNumber="0" />
   <interval begin="360.00" end="370.00" id="3/1to2/1" sampledSeconds="0.00" nVehEntered="0" meanSpeed="-1.00" meanTimeLoss="-1.00" meanOccupancy="0.00" maxOccupancy="0.00" meanMaxJamLengthInVehicles="0.00" meanMaxJamLengthInMeters="0.00" maxJamLengthInVehicles="0" maxJamLengthInMeters="0.00" jamLengthInVehiclesSum="0" jamLengthInMetersSum="0.00" meanHaltingDuration="0.00" maxHaltingDuration="0.00" haltingDurationSum="0.00" meanIntervalHaltingDuration="0.00" maxIntervalHaltingDuration="0.00" intervalHaltingDurationSum="0.00" startedHalts="0.00" meanVehicleNumber="0.00" maxVehicleNumber="0" />
   <interval begin="370.00" end="380.00" id="3/1to2/1" sampledSeconds="0.00" nVehEntered="0" meanSpeed="-1.00" meanTimeLoss="-1.00" meanOccupancy="0.00" maxOccupancy="0.00" meanMaxJamLengthInVehicles="0.00" meanMaxJamLengthInMeters="0.00" maxJamLengthInVehicles="0" maxJamLengthInMeters="0.00" jamLengthInVehiclesSum="0" jamLengthInMetersSum="0.00" meanHaltingDuration="0.00" maxHaltingDuration="0.00" haltingDurationSum="0.00" meanIntervalHaltingDuration="0.00" maxIntervalHaltingDuration="0.00" intervalHaltingDurationSum="0.00" startedHalts="0.00" meanVehicleNumber="0.00" maxVehicleNumber="0" />
   <interval begin="380.00" end="390.00" id="3/1to2/1" sampledSeconds="0.00" nVehEntered="0" meanSpeed="-1.00" meanTimeLoss="-1.00" meanOccupancy="0.00" maxOccupancy="0.00" meanMaxJamLengthInVehicles="0.00" meanMaxJamLengthInMeters="0.00" maxJamLengthInVehicles="0" maxJamLengthInMeters="0.00" jamLengthInVehiclesSum="0" jamLengthInMetersSum="0.00" meanHaltingDuration="0.00" maxHaltingDuration="0.00" haltingDurationSum="0.00" meanIntervalHaltingDuration="0.00" maxIntervalHaltingDuration="0.00" intervalHaltingDurationSum="0.00" startedHalts="0.00" meanVehicleNumber="0.00" maxVehicleNumber="0" />
   <interval begin="390.00" end="400.00" id="3/1to2/1" sampledSeconds="0.00" nVehEntered="0" meanSpeed="-1.00" meanTimeLoss="-1.00" meanOccupancy="0.00" maxOccupancy="0.00" meanMaxJamLengthInVehicles="0.00" meanMaxJamLengthInMeters="0.00" maxJamLengthInVehicles="0" maxJamLengthInMeters="0.00" jamLengthInVehiclesSum="0" jamLengthInMetersSum="0.00" meanHaltingDuration="0.00" maxHaltingDuration="0.00" haltingDurationSum="0.00" meanIntervalHaltingDuration="0.00" maxIntervalHaltingDuration="0.00" intervalHaltingDurationSum="0.00" startedHalts="0.00" meanVehicleNumber="0.00" maxVehicleNumber="0" />
   <interval begin="400.00" end="410.00" id="3/1to2/1" sampledSeconds="0.00" nVehEntered="0" meanSpeed="-1.00" meanTimeLoss="-1.00" meanOccupancy="0.00" maxOccupancy="0.00" meanMaxJamLengthInVehicles="0.00" meanMaxJamLengthInMeters="0.00" maxJamLengthInVehicles="0" maxJamLengthInMeters="0.00" jamLengthInVehiclesSum="0" jamLengthInMetersSum="0.00" meanHaltingDuration="0.00" maxHaltingDuration="0.00" haltingDurationSum="0.00" meanIntervalHaltingDuration="0.00" maxIntervalHaltingDuration="0.00" intervalHaltingDurationSum="0.00" startedHalts="0.00" meanVehicleNumber="0.00" maxVehicleNumber="0" />
   <interval begin="410.00" end="420.00" id="3/1to2/1" sampledSeconds="0.00" nVehEntered="0" meanSpeed="-1.00" meanTimeLoss="-1.00" meanOccupancy="0.00" maxOccupancy="0.00" meanMaxJamLengthInVehicles="0.00" meanMaxJamLengthInMeters="0.00" maxJamLengthInVehicles="0" maxJamLengthInMeters="0.00" jamLengthInVehiclesSum="0" jamLengthInMetersSum="0.00" meanHaltingDuration="0.00" maxHaltingDuration="0.00" haltingDurationSum="0.00" meanIntervalHaltingDuration="0.00" maxIntervalHaltingDuration="0.00" intervalHaltingDurationSum="0.00" startedHalts="0.00" meanVehicleNumber="0.00" maxVehicleNumber="0" />
   <interval begin="420.00" end="430.00" id="3/1to2/1" sampledSeconds="0.00" nVehEntered="0" meanSpeed="-1.00" meanTimeLoss="-1.00" meanOccupancy="0.00" maxOccupancy="0.00" meanMaxJamLengthInVehicles="0.00" meanMaxJamLengthInMeters="0.00" maxJamLengthInVehicles="0" maxJamLengthInMeters="0.00" jamLengthInVehiclesSum="0" jamLengthInMetersSum="0.00" meanHaltingDuration="0.00" maxHaltingDuration="0.00" haltingDurationSum="0.00" meanIntervalHaltingDuration="0.00" maxIntervalHaltingDuration="0.00" intervalHaltingDurationSum="0.00" startedHalts="0.00" meanVehicleNumber="0.00" maxVehicleNumber="0" />
   <interval begin="430.00" end="440.00" id="3/1to2/1" sampledSeconds="0.00" nVehEntered="0" meanSpeed="-1.00" meanTimeLoss="-1.00" meanOccupancy="0.00" maxOccupancy="0.00" meanMaxJamLengthInVehicles="0.00" meanMaxJamLengthInMeters="0.00" maxJamLengthInVehicles="0" maxJamLengthInMeters="0.00" jamLengthInVehiclesSum="0" jamLengthInMetersSum="0.00" meanHaltingDuration="0.00" maxHaltingDuration="0.00" haltingDurationSum="0.00" meanIntervalHaltingDuration="0.00" maxIntervalHaltingDuration="0.00" intervalHaltingDurationSum="0.00" startedHalts="0.00" meanVehicleNumber="0.00" maxVehicleNumber="0" />
   <interval begin="440.00" end="450.00" id="3/1to2/1" sampledSeconds="0.00" nVehEntered="0" meanSpeed="-1.00" meanTimeLoss="-1.00" meanOccupancy="0.00" maxOccupancy="0.00" meanMaxJamLengthInVehicles="0.00" meanMaxJamLengthInMeters="0.00" maxJamLengthInVehicles="0" maxJamLengthInMeters="0.00" jamLengthInVehiclesSum="0" jamLengthInMetersSum="0.00" meanHaltingDuration="0.00" maxHaltingDuration="0.00" haltingDurationSum="0.00" meanIntervalHaltingDuration="0.00" maxIntervalHaltingDuration="0.00" intervalHaltingDurationSum="0.00" startedHalts="0.00" meanVehicleNumber="0.00" maxVehicleNumber="0" />
   <interval begin="450.00" end="460.00" id="3/1to2/1" sampledSeconds="0.00" nVehEntered="0" meanSpeed="-1.00" meanTimeLoss="-1.00" meanOccupancy="0.00" maxOccupancy="0.00" meanMaxJamLengthInVehicles="0.00" meanMaxJamLengthInMeters="0.00" maxJamLengthInVehicles="0" maxJamLengthInMeters="0.00" jamLengthInVehiclesSum="0" jamLengthInMetersSum="0.00" meanHaltingDuration="0.00" maxHaltingDuration="0.00" haltingDurationSum="0.00" meanIntervalHaltingDuration="0.00" maxIntervalHaltingDuration="0.00" intervalHaltingDurationSum="0.00" startedHalts="0.00" meanVehicleNumber="0.00" maxVehicleNumber="0" />
   <interval begin="460.00" end="470.00" id="3/1to2/1" sampledSeconds="0.00" nVehEntered="0" meanSpeed="-1.00" meanTimeLoss="-1.00" meanOccupancy="0.00" maxOccupancy="0.00" meanMaxJamLengthInVehicles="0.00" meanMaxJamLengthInMeters="0.00" maxJamLengthInVehicles="0" maxJamLengthInMeters="0.00" jamLengthInVehiclesSum="0" jamLengthInMetersSum="0.00" meanHaltingDuration="0.00" maxHaltingDuration="0.00" haltingDurationSum="0.00" meanIntervalHaltingDuration="0.00" maxIntervalHaltingDuration="0.00" intervalHaltingDurationSum="0.00" startedHalts="0.00" meanVehicleNumber="0.00" maxVehicleNumber="0" />
   <interval begin="470.00" end="480.00" id="3/1to2/1" sampledSeconds="0.00" nVehEntered="0" meanSpeed="-1.00" meanTimeLoss="-1.00" meanOccupancy="0.00" maxOccupancy="0.00" meanMaxJamLengthInVehicles="0.00" meanMaxJamLengthInMeters="0.00" maxJamLengthInVehicles="0" maxJamLengthInMeters="0.00" jamLengthInVehiclesSum="0" jamLengthInMetersSum="0.00" meanHaltingDuration="0.00" maxHaltingDuration="0.00" haltingDurationSum="0.00" meanIntervalHaltingDuration="0.00" maxIntervalHaltingDuration="0.00" intervalHaltingDurationSum="0.00" startedHalts="0.00" meanVehicleNumber="0.00" maxVehicleNumber="0" />