<?xml version="1.0" encoding="UTF-8"?>

<!-- generated on 05/02/13 14:09:44 by SUMO sumo Version 0.17.0
<?xml version="1.0" encoding="UTF-8"?>

<configuration xmlns:xsi="http://www.w3.org/2001/XMLSchema-instance" xsi:noNamespaceSchemaLocation="http://sumo.dlr.de/xsd/sumoConfiguration.xsd">

    <input>
        <net-file value="net.net.xml"/>
        <route-files value="input_routes.rou.xml"/>
    </input>

    <output>
        <netstate-dump value="rawdump.xml"/>
    </output>

    <report>
        <no-duration-log value="true"/>
        <no-step-log value="true"/>
    </report>

</configuration>
-->

<netstate xmlns:xsi="http://www.w3.org/2001/XMLSchema-instance" xsi:noNamespaceSchemaLocation="http://sumo.dlr.de/xsd/netstate_file.xsd">
    <timestep time="0.00">
        <edge id="beg">
            <lane id="beg_0">
                <vehicle id="1" pos="5.10" speed="0.00"/>
            </lane>
            <lane id="beg_1"/>
            <lane id="beg_2"/>
        </edge>
    </timestep>
    <timestep time="1.00">
        <edge id="beg">
            <lane id="beg_0">
                <vehicle id="1" pos="7.70" speed="2.60"/>
            </lane>
            <lane id="beg_1"/>
            <lane id="beg_2"/>
        </edge>
    </timestep>
    <timestep time="2.00">
        <edge id="beg">
            <lane id="beg_0">
                <vehicle id="1" pos="12.90" speed="5.20"/>
            </lane>
            <lane id="beg_1"/>
            <lane id="beg_2"/>
        </edge>
    </timestep>
    <timestep time="3.00">
        <edge id="beg">
            <lane id="beg_0">
                <vehicle id="1" pos="20.70" speed="7.80"/>
            </lane>
            <lane id="beg_1"/>
            <lane id="beg_2"/>
        </edge>
    </timestep>
    <timestep time="4.00">
        <edge id="beg">
            <lane id="beg_0">
                <vehicle id="1" pos="31.10" speed="10.40"/>
            </lane>
            <lane id="beg_1"/>
            <lane id="beg_2"/>
        </edge>
    </timestep>
    <timestep time="5.00">
        <edge id="beg">
            <lane id="beg_0">
                <vehicle id="1" pos="44.10" speed="13.00"/>
            </lane>
            <lane id="beg_1"/>
            <lane id="beg_2"/>
        </edge>
    </timestep>
    <timestep time="6.00">
        <edge id="beg">
            <lane id="beg_0">
                <vehicle id="1" pos="59.70" speed="15.60"/>
            </lane>
            <lane id="beg_1"/>
            <lane id="beg_2"/>
        </edge>
    </timestep>
    <timestep time="7.00">
        <edge id="beg">
            <lane id="beg_0">
                <vehicle id="1" pos="77.90" speed="18.20"/>
            </lane>
            <lane id="beg_1"/>
            <lane id="beg_2"/>
        </edge>
    </timestep>
    <timestep time="8.00">
        <edge id="beg">
            <lane id="beg_0">
                <vehicle id="1" pos="98.70" speed="20.80"/>
            </lane>
            <lane id="beg_1"/>
            <lane id="beg_2"/>
        </edge>
    </timestep>
    <timestep time="9.00">
        <edge id="beg">
            <lane id="beg_0">
                <vehicle id="1" pos="122.10" speed="23.40"/>
            </lane>
            <lane id="beg_1"/>
            <lane id="beg_2"/>
        </edge>
    </timestep>
    <timestep time="10.00">
        <edge id="beg">
            <lane id="beg_0">
                <vehicle id="1" pos="148.10" speed="26.00"/>
            </lane>
            <lane id="beg_1"/>
            <lane id="beg_2"/>
        </edge>
    </timestep>
    <timestep time="11.00">
        <edge id="beg">
            <lane id="beg_0">
                <vehicle id="1" pos="176.70" speed="28.60"/>
            </lane>
            <lane id="beg_1"/>
            <lane id="beg_2"/>
        </edge>
    </timestep>
    <timestep time="12.00">
        <edge id="beg">
            <lane id="beg_0">
                <vehicle id="1" pos="207.90" speed="31.20"/>
            </lane>
            <lane id="beg_1"/>
            <lane id="beg_2"/>
        </edge>
    </timestep>
    <timestep time="13.00">
        <edge id="beg">
            <lane id="beg_0">
                <vehicle id="1" pos="241.70" speed="33.80"/>
            </lane>
            <lane id="beg_1"/>
            <lane id="beg_2"/>
        </edge>
    </timestep>
    <timestep time="14.00">
        <edge id="beg">
            <lane id="beg_0">
                <vehicle id="1" pos="278.10" speed="36.40"/>
            </lane>
            <lane id="beg_1"/>
            <lane id="beg_2"/>
        </edge>
    </timestep>
    <timestep time="15.00">
        <edge id="beg">
            <lane id="beg_0">
                <vehicle id="1" pos="317.10" speed="39.00"/>
            </lane>
            <lane id="beg_1"/>
            <lane id="beg_2"/>
        </edge>
    </timestep>
    <timestep time="16.00">
        <edge id="beg">
            <lane id="beg_0">
                <vehicle id="1" pos="358.70" speed="41.60"/>
            </lane>
            <lane id="beg_1"/>
            <lane id="beg_2"/>
        </edge>
    </timestep>
    <timestep time="17.00">
        <edge id="beg">
            <lane id="beg_0">
                <vehicle id="1" pos="400.40" speed="41.70"/>
            </lane>
            <lane id="beg_1"/>
            <lane id="beg_2"/>
        </edge>
    </timestep>
    <timestep time="18.00">
        <edge id="beg">
            <lane id="beg_0">
                <vehicle id="1" pos="442.10" speed="41.70"/>
            </lane>
            <lane id="beg_1"/>
            <lane id="beg_2"/>
        </edge>
    </timestep>
    <timestep time="19.00">
        <edge id="beg">
            <lane id="beg_0">
                <vehicle id="1" pos="483.80" speed="41.70"/>
            </lane>
            <lane id="beg_1"/>
            <lane id="beg_2"/>
        </edge>
    </timestep>
    <timestep time="20.00">
        <edge id="end">
            <lane id="end_0">
                <vehicle id="1" pos="25.40" speed="41.70"/>
            </lane>
            <lane id="end_1"/>
            <lane id="end_2"/>
        </edge>
    </timestep>
    <timestep time="21.00">
        <edge id="end">
            <lane id="end_0">
                <vehicle id="1" pos="67.10" speed="41.70"/>
            </lane>
            <lane id="end_1"/>
            <lane id="end_2"/>
        </edge>
    </timestep>
    <timestep time="22.00">
        <edge id="end">
            <lane id="end_0">
                <vehicle id="1" pos="108.80" speed="41.70"/>
            </lane>
            <lane id="end_1"/>
            <lane id="end_2"/>
        </edge>
    </timestep>
    <timestep time="23.00">
        <edge id="end">
            <lane id="end_0">
                <vehicle id="1" pos="150.50" speed="41.70"/>
            </lane>
            <lane id="end_1"/>
            <lane id="end_2"/>
        </edge>
    </timestep>
    <timestep time="24.00">
        <edge id="end">
            <lane id="end_0">
                <vehicle id="1" pos="192.20" speed="41.70"/>
            </lane>
            <lane id="end_1"/>
            <lane id="end_2"/>
        </edge>
    </timestep>
    <timestep time="25.00">
        <edge id="end">
            <lane id="end_0">
                <vehicle id="1" pos="233.90" speed="41.70"/>
            </lane>
            <lane id="end_1"/>
            <lane id="end_2"/>
        </edge>
    </timestep>
    <timestep time="26.00">
        <edge id="end">
            <lane id="end_0">
                <vehicle id="1" pos="275.60" speed="41.70"/>
            </lane>
            <lane id="end_1"/>
            <lane id="end_2"/>
        </edge>
    </timestep>
    <timestep time="27.00">
        <edge id="end">
            <lane id="end_0">
                <vehicle id="1" pos="317.30" speed="41.70"/>
            </lane>
            <lane id="end_1"/>
            <lane id="end_2"/>
        </edge>
    </timestep>
    <timestep time="28.00">
        <edge id="end">
            <lane id="end_0">
                <vehicle id="1" pos="359.00" speed="41.70"/>
            </lane>
            <lane id="end_1"/>
            <lane id="end_2"/>
        </edge>
    </timestep>
    <timestep time="29.00">
        <edge id="end">
            <lane id="end_0">
                <vehicle id="1" pos="400.70" speed="41.70"/>
            </lane>
            <lane id="end_1"/>
            <lane id="end_2"/>
        </edge>
    </timestep>
    <timestep time="30.00">
        <edge id="end">
            <lane id="end_0">
                <vehicle id="1" pos="442.40" speed="41.70"/>
            </lane>
            <lane id="end_1"/>
            <lane id="end_2"/>
        </edge>
    </timestep>
    <timestep time="31.00">
        <edge id="end">
            <lane id="end_0">
                <vehicle id="1" pos="484.10" speed="41.70"/>
            </lane>
            <lane id="end_1"/>
            <lane id="end_2"/>
        </edge>
    </timestep>
    <timestep time="32.00"/>
</netstate>
