<?xml version="1.0" encoding="UTF-8"?>

<!-- generated on 2024-09-29 18:01:52 by Eclipse SUMO sumo Version v1_20_0+2188-0471f363612
<sumoConfiguration xmlns:xsi="http://www.w3.org/2001/XMLSchema-instance" xsi:noNamespaceSchemaLocation="http://sumo.dlr.de/xsd/sumoConfiguration.xsd">

    <input>
        <net-file value="input_net.net.xml"/>
        <route-files value="input_routes.rou.xml"/>
    </input>

    <output>
        <vehroute-output value="vehroutes.xml"/>
        <save-state.times value="50"/>
        <save-state.files value="state.xml"/>
    </output>

    <time>
        <step-length value="0.5"/>
    </time>

    <processing>
        <default.action-step-length value="0.5"/>
    </processing>

    <report>
        <duration-log.disable value="true"/>
        <no-step-log value="true"/>
    </report>

    <traci_server>
        <remote-port value="40473"/>
    </traci_server>

</sumoConfiguration>
-->

<snapshot xmlns:xsi="http://www.w3.org/2001/XMLSchema-instance" xsi:noNamespaceSchemaLocation="http://sumo.dlr.de/xsd/state_file.xsd" version="v1_20_0+2188-0471f363612" time="50.00" type="micro">
    <route id="r1" state="1" edges="4/1to3/1 3/1to2/1 2/1to1/1 1/1to0/1"/>
    <delay number="3" begin="3" end="0" depart="0.00" time="0.00"/>
    <vType id="DEFAULT_VEHTYPE" length="3.00" minGap="2.00" maxSpeed="10.00" accel="0.8" decel="4.5" sigma="0"/>
    <vType id="t1" length="4.00" minGap="0.80" maxSpeed="99.90" speedFactor="normc(0.90,0.10,0.20,2.00)" actionStepLength="1.50" width="3.30" accel="2.5" decel="3.5" tau="1.5"/>
    <vType id="t2" length="5.00" minGap="1.50" maxSpeed="20.00" actionStepLength="2.00" color="yellow" accel="2.5" decel="4.5" sigma="0.5" tau="2.0"/>
    <vType id="t2@veh2" length="4.00" minGap="0.80" maxSpeed="99.90" actionStepLength="1.50" width="3.30" color="yellow" accel="2.5" decel="4.5" sigma="0.5" tau="2.0"/>
    <vehicle id="veh0" depart="0.00" departPos="100.00" departSpeed="10.00" route="r1" distance="400 0" speedFactor="1.0600" state="2072 0 1 100.00 0 17.85 49500 0 0" pos="18.60 15.60 2.70" speed="5.60 5.20" angle="270.00" posLat="0.00" waitingTime="100000 1 7000 18500">
        <device id="vehroute_veh0" state="0 0.00 10.00 100.00 0"/>
    </vehicle>
    <vehicle id="veh1" type="t1" depart="10.00" departPos="100.00" departSpeed="10.00" route="r1" distance="400 0" speedFactor="1.0000" state="2074 10000 1 100.00 0 9.11 49500 0 0" pos="5.39 1.39 2.04" speed="4.02 4.13" angle="270.00" posLat="0.00" waitingTime="100000 0">
        <device id="vehroute_veh1" state="0 0.00 10.00 100.00 0"/>
    </vehicle>
    <vehicle id="veh2" type="t2@veh2" depart="20.00" departPos="100.00" departSpeed="10.00" route="r1" distance="0 0" speedFactor="0.9000" state="2074 20000 0 100.00 0 3.32 49500 0 0" pos="359.86 355.86 4.35" speed="8.59 8.83" angle="270.00" posLat="0.00" waitingTime="100000 0">
        <device id="vehroute_veh2" state="0 0.00 10.00 100.00 0"/>
    </vehicle>
    <lane id="3/1to2/1_0">
        <vehicles value="veh1 veh0"/>
    </lane>
    <lane id="4/1to3/1_0">
        <vehicles value="veh2"/>
    </lane>
    <tlLogic id="0/0" programID="0" phase="2" duration="16000"/>
    <tlLogic id="0/1" programID="0" phase="4" duration="7000"/>
    <tlLogic id="0/2" programID="0" phase="2" duration="16000"/>
    <tlLogic id="1/0" programID="0" phase="4" duration="7000"/>
    <tlLogic id="1/1" programID="0" phase="4" duration="7000"/>
    <tlLogic id="1/2" programID="0" phase="4" duration="7000"/>
    <tlLogic id="2/0" programID="0" phase="4" duration="7000"/>
    <tlLogic id="2/1" programID="0" phase="4" duration="7000"/>
    <tlLogic id="2/2" programID="0" phase="4" duration="7000"/>
    <tlLogic id="3/0" programID="0" phase="4" duration="7000"/>
    <tlLogic id="3/1" programID="0" phase="4" duration="7000"/>
    <tlLogic id="3/2" programID="0" phase="4" duration="7000"/>
    <tlLogic id="4/0" programID="0" phase="2" duration="16000"/>
    <tlLogic id="4/1" programID="0" phase="4" duration="7000"/>
    <tlLogic id="4/2" programID="0" phase="2" duration="16000"/>
</snapshot>
