<?xml version="1.0" encoding="UTF-8"?>

<!-- generated on Wed Aug 14 08:34:15 2013 by SUMO sumo Version dev-SVN-r14373
<?xml version="1.0" encoding="UTF-8"?>

<configuration xmlns:xsi="http://www.w3.org/2001/XMLSchema-instance" xsi:noNamespaceSchemaLocation="http://sumo.sf.net/xsd/sumoConfiguration.xsd">

    <input>
        <net-file value="net.net.xml"/>
        <route-files value="input_routes.rou.xml"/>
    </input>

    <output>
        <vehroute-output value="vehroutes.xml"/>
        <save-state.times value="1,10"/>
        <save-state.files value="state.xml,state2.xml"/>
    </output>

    <report>
        <verbose value="true"/>
        <no-duration-log value="true"/>
        <no-step-log value="true"/>
    </report>

</configuration>
-->

<routes xmlns:xsi="http://www.w3.org/2001/XMLSchema-instance" xsi:noNamespaceSchemaLocation="http://sumo.sf.net/xsd/routes_file.xsd">
    <vehicle id="v0" depart="0.00" arrival="28.00">
        <route edges="beg middle end"/>
    </vehicle>

    <vehicle id="v1" depart="5.00" arrival="34.00">
        <route edges="beg middle end"/>
    </vehicle>

</routes>
