<?xml version="1.0" encoding="UTF-8"?>

<!-- generated on Mon Apr 12 13:06:29 2021 by Eclipse SUMO sumo Version v1_8_0+2019-e94bf55
<configuration xmlns:xsi="http://www.w3.org/2001/XMLSchema-instance" xsi:noNamespaceSchemaLocation="http://sumo.dlr.de/xsd/sumoConfiguration.xsd">

    <input>
        <net-file value="input_net.net.xml"/>
        <route-files value="input_routes.rou.xml"/>
        <additional-files value="input_additional.add.xml"/>
    </input>

    <output>
        <tripinfo-output value="tripinfo.xml"/>
    </output>

    <report>
        <no-step-log value="true"/>
    </report>

    <traci_server>
        <remote-port value="35900"/>
    </traci_server>

</configuration>
-->

<tripinfos xmlns:xsi="http://www.w3.org/2001/XMLSchema-instance" xsi:noNamespaceSchemaLocation="http://sumo.dlr.de/xsd/tripinfo_file.xsd">
    <tripinfo id="t2" depart="0.00" departLane="h_0" departPos="50.10" departSpeed="13.89" departDelay="0.00" arrival="400.00" arrivalLane="g_0" arrivalPos="400.00" arrivalSpeed="13.89" duration="400.00" routeLength="1349.90" waitingTime="301.00" waitingCount="1" stopTime="0.00" timeLoss="305.88" rerouteNo="1" devices="tripinfo_t2 routing_t2" vType="train" speedFactor="1.00" vaporized=""/>
    <tripinfo id="t0" depart="0.00" departLane="d_0" departPos="50.10" departSpeed="13.89" departDelay="0.00" arrival="406.00" arrivalLane="g_0" arrivalPos="400.00" arrivalSpeed="13.89" duration="406.00" routeLength="1432.74" waitingTime="301.00" waitingCount="1" stopTime="0.00" timeLoss="305.90" rerouteNo="1" devices="tripinfo_t0 routing_t0" vType="train" speedFactor="1.00" vaporized=""/>
    <tripinfo id="t1" depart="0.00" departLane="a_0" departPos="50.10" departSpeed="13.89" departDelay="0.00" arrival="473.00" arrivalLane="g_0" arrivalPos="400.00" arrivalSpeed="13.89" duration="473.00" routeLength="1391.32" waitingTime="320.00" waitingCount="3" stopTime="0.00" timeLoss="375.84" rerouteNo="1" devices="tripinfo_t1 routing_t1" vType="train" speedFactor="1.00" vaporized=""/>
</tripinfos>
