<?xml version="1.0" encoding="UTF-8"?>

<!-- generated on Tue Sep  5 22:04:41 2017 by SUMO Version dev-SVN-r24506
<?xml version="1.0" encoding="UTF-8"?>

<configuration xmlns:xsi="http://www.w3.org/2001/XMLSchema-instance" xsi:noNamespaceSchemaLocation="http://sumo.dlr.de/xsd/sumoConfiguration.xsd">

    <input>
        <net-file value="net.net.xml"/>
        <route-files value="input_routes.rou.xml"/>
        <additional-files value="input_additional.add.xml"/>
    </input>

    <output>
        <tripinfo-output value="tripinfos.xml"/>
    </output>

    <processing>
        <pedestrian.model value="striping"/>
        <pedestrian.striping.stripe-width value="0.75"/>
        <pedestrian.striping.dawdling value="0.2"/>
    </processing>

    <report>
        <verbose value="true"/>
        <xml-validation value="never"/>
        <duration-log.statistics value="true"/>
        <no-step-log value="true"/>
    </report>

</configuration>
-->

<tripinfos xmlns:xsi="http://www.w3.org/2001/XMLSchema-instance" xsi:noNamespaceSchemaLocation="http://sumo.dlr.de/xsd/tripinfo_file.xsd">
    <personinfo id="p4" depart="4.00">
        <walk depart="4.00" arrival="89.00" arrivalPos="19.00"/>
    </personinfo>
    <personinfo id="p14" depart="14.00">
        <walk depart="14.00" arrival="91.00" arrivalPos="19.00"/>
    </personinfo>
    <personinfo id="p20" depart="20.00">
        <walk depart="20.00" arrival="96.00" arrivalPos="19.00"/>
    </personinfo>
    <personinfo id="p3" depart="3.00">
        <walk depart="3.00" arrival="96.00" arrivalPos="19.00"/>
    </personinfo>
    <personinfo id="p15" depart="15.00">
        <walk depart="15.00" arrival="97.00" arrivalPos="19.00"/>
    </personinfo>
    <personinfo id="p22" depart="22.00">
        <walk depart="22.00" arrival="98.00" arrivalPos="19.00"/>
    </personinfo>
    <personinfo id="p16" depart="16.00">
        <walk depart="16.00" arrival="98.00" arrivalPos="19.00"/>
    </personinfo>
    <personinfo id="p18" depart="18.00">
        <walk depart="18.00" arrival="99.00" arrivalPos="19.00"/>
    </personinfo>
    <personinfo id="p23" depart="23.00">
        <walk depart="23.00" arrival="100.00" arrivalPos="19.00"/>
    </personinfo>
    <personinfo id="p7" depart="7.00">
        <walk depart="7.00" arrival="103.00" arrivalPos="19.00"/>
    </personinfo>
    <personinfo id="p31" depart="31.00">
        <walk depart="31.00" arrival="103.00" arrivalPos="19.00"/>
    </personinfo>
    <personinfo id="p12" depart="12.00">
        <walk depart="12.00" arrival="105.00" arrivalPos="19.00"/>
    </personinfo>
    <personinfo id="p11" depart="11.00">
        <walk depart="11.00" arrival="106.00" arrivalPos="19.00"/>
    </personinfo>
    <personinfo id="p13" depart="13.00">
        <walk depart="13.00" arrival="108.00" arrivalPos="19.00"/>
    </personinfo>
    <personinfo id="p0" depart="0.00">
        <walk depart="0.00" arrival="111.00" arrivalPos="19.00"/>
    </personinfo>
    <personinfo id="p5" depart="5.00">
        <walk depart="5.00" arrival="112.00" arrivalPos="19.00"/>
    </personinfo>
    <personinfo id="p1" depart="1.00">
        <walk depart="1.00" arrival="118.00" arrivalPos="19.00"/>
    </personinfo>
    <personinfo id="p8" depart="8.00">
        <walk depart="8.00" arrival="121.00" arrivalPos="19.00"/>
    </personinfo>
    <personinfo id="p2" depart="2.00">
        <walk depart="2.00" arrival="123.00" arrivalPos="19.00"/>
    </personinfo>
    <personinfo id="p9" depart="9.00">
        <walk depart="9.00" arrival="124.00" arrivalPos="19.00"/>
    </personinfo>
    <personinfo id="p51" depart="51.00">
        <walk depart="51.00" arrival="159.00" arrivalPos="19.00"/>
    </personinfo>
    <personinfo id="p49" depart="49.00">
        <walk depart="49.00" arrival="164.00" arrivalPos="19.00"/>
    </personinfo>
    <personinfo id="p44" depart="44.00">
        <walk depart="44.00" arrival="165.00" arrivalPos="19.00"/>
    </personinfo>
    <personinfo id="p19" depart="19.00">
        <walk depart="19.00" arrival="166.00" arrivalPos="19.00"/>
    </personinfo>
    <personinfo id="p43" depart="43.00">
        <walk depart="43.00" arrival="167.00" arrivalPos="19.00"/>
    </personinfo>
    <personinfo id="p21" depart="21.00">
        <walk depart="21.00" arrival="167.00" arrivalPos="19.00"/>
    </personinfo>
    <personinfo id="p41" depart="41.00">
        <walk depart="41.00" arrival="167.00" arrivalPos="19.00"/>
    </personinfo>
    <personinfo id="p24" depart="24.00">
        <walk depart="24.00" arrival="168.00" arrivalPos="19.00"/>
    </personinfo>
    <personinfo id="p45" depart="45.00">
        <walk depart="45.00" arrival="168.00" arrivalPos="19.00"/>
    </personinfo>
    <personinfo id="p26" depart="26.00">
        <walk depart="26.00" arrival="175.00" arrivalPos="19.00"/>
    </personinfo>
    <personinfo id="p10" depart="10.00">
        <walk depart="10.00" arrival="175.00" arrivalPos="19.00"/>
    </personinfo>
    <personinfo id="p35" depart="35.00">
        <walk depart="35.00" arrival="175.00" arrivalPos="19.00"/>
    </personinfo>
    <personinfo id="p57" depart="57.00">
        <walk depart="57.00" arrival="176.00" arrivalPos="19.00"/>
    </personinfo>
    <personinfo id="p25" depart="25.00">
        <walk depart="25.00" arrival="176.00" arrivalPos="19.00"/>
    </personinfo>
    <personinfo id="p6" depart="6.00">
        <walk depart="6.00" arrival="176.00" arrivalPos="19.00"/>
    </personinfo>
    <personinfo id="p30" depart="30.00">
        <walk depart="30.00" arrival="176.00" arrivalPos="19.00"/>
    </personinfo>
    <personinfo id="p34" depart="34.00">
        <walk depart="34.00" arrival="177.00" arrivalPos="19.00"/>
    </personinfo>
    <personinfo id="p29" depart="29.00">
        <walk depart="29.00" arrival="178.00" arrivalPos="19.00"/>
    </personinfo>
    <personinfo id="p17" depart="17.00">
        <walk depart="17.00" arrival="180.00" arrivalPos="19.00"/>
    </personinfo>
    <personinfo id="p32" depart="32.00">
        <walk depart="32.00" arrival="181.00" arrivalPos="19.00"/>
    </personinfo>
    <personinfo id="p47" depart="47.00">
        <walk depart="47.00" arrival="182.00" arrivalPos="19.00"/>
    </personinfo>
    <personinfo id="p28" depart="28.00">
        <walk depart="28.00" arrival="183.00" arrivalPos="19.00"/>
    </personinfo>
    <personinfo id="p27" depart="27.00">
        <walk depart="27.00" arrival="187.00" arrivalPos="19.00"/>
    </personinfo>
    <personinfo id="p55" depart="55.00">
        <walk depart="55.00" arrival="212.00" arrivalPos="19.00"/>
    </personinfo>
    <personinfo id="p68" depart="68.00">
        <walk depart="68.00" arrival="213.00" arrivalPos="19.00"/>
    </personinfo>
    <personinfo id="p52" depart="52.00">
        <walk depart="52.00" arrival="214.00" arrivalPos="19.00"/>
    </personinfo>
    <personinfo id="p50" depart="50.00">
        <walk depart="50.00" arrival="214.00" arrivalPos="19.00"/>
    </personinfo>
    <personinfo id="p65" depart="65.00">
        <walk depart="65.00" arrival="214.00" arrivalPos="19.00"/>
    </personinfo>
    <personinfo id="p63" depart="63.00">
        <walk depart="63.00" arrival="216.00" arrivalPos="19.00"/>
    </personinfo>
    <personinfo id="p61" depart="61.00">
        <walk depart="61.00" arrival="218.00" arrivalPos="19.00"/>
    </personinfo>
    <personinfo id="p38" depart="38.00">
        <walk depart="38.00" arrival="220.00" arrivalPos="19.00"/>
    </personinfo>
    <personinfo id="p72" depart="72.00">
        <walk depart="72.00" arrival="221.00" arrivalPos="19.00"/>
    </personinfo>
    <personinfo id="p78" depart="78.00">
        <walk depart="78.00" arrival="223.00" arrivalPos="19.00"/>
    </personinfo>
    <personinfo id="p70" depart="70.00">
        <walk depart="70.00" arrival="223.00" arrivalPos="19.00"/>
    </personinfo>
    <personinfo id="p59" depart="59.00">
        <walk depart="59.00" arrival="224.00" arrivalPos="19.00"/>
    </personinfo>
    <personinfo id="p58" depart="58.00">
        <walk depart="58.00" arrival="225.00" arrivalPos="19.00"/>
    </personinfo>
    <personinfo id="p33" depart="33.00">
        <walk depart="33.00" arrival="229.00" arrivalPos="19.00"/>
    </personinfo>
    <personinfo id="p56" depart="56.00">
        <walk depart="56.00" arrival="230.00" arrivalPos="19.00"/>
    </personinfo>
    <personinfo id="p40" depart="40.00">
        <walk depart="40.00" arrival="230.00" arrivalPos="19.00"/>
    </personinfo>
    <personinfo id="p36" depart="36.00">
        <walk depart="36.00" arrival="234.00" arrivalPos="19.00"/>
    </personinfo>
    <personinfo id="p42" depart="42.00">
        <walk depart="42.00" arrival="235.00" arrivalPos="19.00"/>
    </personinfo>
    <personinfo id="p46" depart="46.00">
        <walk depart="46.00" arrival="236.00" arrivalPos="19.00"/>
    </personinfo>
    <personinfo id="p48" depart="48.00">
        <walk depart="48.00" arrival="236.00" arrivalPos="19.00"/>
    </personinfo>
    <personinfo id="p54" depart="54.00">
        <walk depart="54.00" arrival="237.00" arrivalPos="19.00"/>
    </personinfo>
    <personinfo id="p37" depart="37.00">
        <walk depart="37.00" arrival="239.00" arrivalPos="19.00"/>
    </personinfo>
    <personinfo id="p39" depart="39.00">
        <walk depart="39.00" arrival="240.00" arrivalPos="19.00"/>
    </personinfo>
    <personinfo id="p53" depart="53.00">
        <walk depart="53.00" arrival="241.00" arrivalPos="19.00"/>
    </personinfo>
    <personinfo id="p94" depart="94.00">
        <walk depart="94.00" arrival="269.00" arrivalPos="19.00"/>
    </personinfo>
    <personinfo id="p96" depart="96.00">
        <walk depart="96.00" arrival="270.00" arrivalPos="19.00"/>
    </personinfo>
    <personinfo id="p81" depart="81.00">
        <walk depart="81.00" arrival="278.00" arrivalPos="19.00"/>
    </personinfo>
    <personinfo id="p80" depart="80.00">
        <walk depart="80.00" arrival="278.00" arrivalPos="19.00"/>
    </personinfo>
    <personinfo id="p62" depart="62.00">
        <walk depart="62.00" arrival="280.00" arrivalPos="19.00"/>
    </personinfo>
    <personinfo id="p73" depart="73.00">
        <walk depart="73.00" arrival="281.00" arrivalPos="19.00"/>
    </personinfo>
    <personinfo id="p79" depart="79.00">
        <walk depart="79.00" arrival="282.00" arrivalPos="19.00"/>
    </personinfo>
    <personinfo id="p85" depart="85.00">
        <walk depart="85.00" arrival="283.00" arrivalPos="19.00"/>
    </personinfo>
    <personinfo id="p60" depart="60.00">
        <walk depart="60.00" arrival="284.00" arrivalPos="19.00"/>
    </personinfo>
    <personinfo id="p97" depart="97.00">
        <walk depart="97.00" arrival="284.00" arrivalPos="19.00"/>
    </personinfo>
    <personinfo id="p67" depart="67.00">
        <walk depart="67.00" arrival="284.00" arrivalPos="19.00"/>
    </personinfo>
    <personinfo id="p66" depart="66.00">
        <walk depart="66.00" arrival="284.00" arrivalPos="19.00"/>
    </personinfo>
    <personinfo id="p77" depart="77.00">
        <walk depart="77.00" arrival="285.00" arrivalPos="19.00"/>
    </personinfo>
    <personinfo id="p83" depart="83.00">
        <walk depart="83.00" arrival="285.00" arrivalPos="19.00"/>
    </personinfo>
    <personinfo id="p84" depart="84.00">
        <walk depart="84.00" arrival="285.00" arrivalPos="19.00"/>
    </personinfo>
    <personinfo id="p91" depart="91.00">
        <walk depart="91.00" arrival="286.00" arrivalPos="19.00"/>
    </personinfo>
    <personinfo id="p89" depart="89.00">
        <walk depart="89.00" arrival="287.00" arrivalPos="19.00"/>
    </personinfo>
    <personinfo id="p90" depart="90.00">
        <walk depart="90.00" arrival="290.00" arrivalPos="19.00"/>
    </personinfo>
    <personinfo id="p92" depart="92.00">
        <walk depart="92.00" arrival="293.00" arrivalPos="19.00"/>
    </personinfo>
    <personinfo id="p88" depart="88.00">
        <walk depart="88.00" arrival="294.00" arrivalPos="19.00"/>
    </personinfo>
    <personinfo id="p76" depart="76.00">
        <walk depart="76.00" arrival="300.00" arrivalPos="19.00"/>
    </personinfo>
    <personinfo id="p64" depart="64.00">
        <walk depart="64.00" arrival="300.00" arrivalPos="19.00"/>
    </personinfo>
    <personinfo id="p86" depart="86.00">
        <walk depart="86.00" arrival="301.00" arrivalPos="19.00"/>
    </personinfo>
    <personinfo id="p69" depart="69.00">
        <walk depart="69.00" arrival="304.00" arrivalPos="19.00"/>
    </personinfo>
    <personinfo id="p106" depart="106.00">
        <walk depart="106.00" arrival="337.00" arrivalPos="19.00"/>
    </personinfo>
    <personinfo id="p104" depart="104.00">
        <walk depart="104.00" arrival="338.00" arrivalPos="19.00"/>
    </personinfo>
    <personinfo id="p110" depart="110.00">
        <walk depart="110.00" arrival="339.00" arrivalPos="19.00"/>
    </personinfo>
    <personinfo id="p100" depart="100.00">
        <walk depart="100.00" arrival="340.00" arrivalPos="19.00"/>
    </personinfo>
    <personinfo id="p102" depart="102.00">
        <walk depart="102.00" arrival="341.00" arrivalPos="19.00"/>
    </personinfo>
    <personinfo id="p101" depart="101.00">
        <walk depart="101.00" arrival="342.00" arrivalPos="19.00"/>
    </personinfo>
    <personinfo id="p87" depart="87.00">
        <walk depart="87.00" arrival="343.00" arrivalPos="19.00"/>
    </personinfo>
    <personinfo id="p107" depart="107.00">
        <walk depart="107.00" arrival="343.00" arrivalPos="19.00"/>
    </personinfo>
    <personinfo id="p115" depart="115.00">
        <walk depart="115.00" arrival="344.00" arrivalPos="19.00"/>
    </personinfo>
    <personinfo id="p129" depart="129.00">
        <walk depart="129.00" arrival="344.00" arrivalPos="19.00"/>
    </personinfo>
    <personinfo id="p114" depart="114.00">
        <walk depart="114.00" arrival="348.00" arrivalPos="19.00"/>
    </personinfo>
    <personinfo id="p75" depart="75.00">
        <walk depart="75.00" arrival="349.00" arrivalPos="19.00"/>
    </personinfo>
    <personinfo id="p74" depart="74.00">
        <walk depart="74.00" arrival="349.00" arrivalPos="19.00"/>
    </personinfo>
    <personinfo id="p103" depart="103.00">
        <walk depart="103.00" arrival="350.00" arrivalPos="19.00"/>
    </personinfo>
    <personinfo id="p105" depart="105.00">
        <walk depart="105.00" arrival="350.00" arrivalPos="19.00"/>
    </personinfo>
    <personinfo id="p112" depart="112.00">
        <walk depart="112.00" arrival="351.00" arrivalPos="19.00"/>
    </personinfo>
    <personinfo id="p82" depart="82.00">
        <walk depart="82.00" arrival="354.00" arrivalPos="19.00"/>
    </personinfo>
    <personinfo id="p109" depart="109.00">
        <walk depart="109.00" arrival="355.00" arrivalPos="19.00"/>
    </personinfo>
    <personinfo id="p122" depart="122.00">
        <walk depart="122.00" arrival="356.00" arrivalPos="19.00"/>
    </personinfo>
    <personinfo id="p116" depart="116.00">
        <walk depart="116.00" arrival="357.00" arrivalPos="19.00"/>
    </personinfo>
    <personinfo id="p113" depart="113.00">
        <walk depart="113.00" arrival="360.00" arrivalPos="19.00"/>
    </personinfo>
    <personinfo id="p71" depart="71.00">
        <walk depart="71.00" arrival="360.00" arrivalPos="19.00"/>
    </personinfo>
    <personinfo id="p93" depart="93.00">
        <walk depart="93.00" arrival="362.00" arrivalPos="19.00"/>
    </personinfo>
    <personinfo id="p95" depart="95.00">
        <walk depart="95.00" arrival="362.00" arrivalPos="19.00"/>
    </personinfo>
    <personinfo id="p98" depart="98.00">
        <walk depart="98.00" arrival="367.00" arrivalPos="19.00"/>
    </personinfo>
    <personinfo id="p137" depart="137.00">
        <walk depart="137.00" arrival="402.00" arrivalPos="19.00"/>
    </personinfo>
    <personinfo id="p120" depart="120.00">
        <walk depart="120.00" arrival="403.00" arrivalPos="19.00"/>
    </personinfo>
    <personinfo id="p126" depart="126.00">
        <walk depart="126.00" arrival="403.00" arrivalPos="19.00"/>
    </personinfo>
    <personinfo id="p139" depart="139.00">
        <walk depart="139.00" arrival="404.00" arrivalPos="19.00"/>
    </personinfo>
    <personinfo id="p131" depart="131.00">
        <walk depart="131.00" arrival="405.00" arrivalPos="19.00"/>
    </personinfo>
    <personinfo id="p145" depart="145.00">
        <walk depart="145.00" arrival="405.00" arrivalPos="19.00"/>
    </personinfo>
    <personinfo id="p147" depart="147.00">
        <walk depart="147.00" arrival="407.00" arrivalPos="19.00"/>
    </personinfo>
    <personinfo id="p108" depart="108.00">
        <walk depart="108.00" arrival="409.00" arrivalPos="19.00"/>
    </personinfo>
    <personinfo id="p136" depart="136.00">
        <walk depart="136.00" arrival="410.00" arrivalPos="19.00"/>
    </personinfo>
    <personinfo id="p121" depart="121.00">
        <walk depart="121.00" arrival="410.00" arrivalPos="19.00"/>
    </personinfo>
    <personinfo id="p111" depart="111.00">
        <walk depart="111.00" arrival="410.00" arrivalPos="19.00"/>
    </personinfo>
    <personinfo id="p150" depart="150.00">
        <walk depart="150.00" arrival="411.00" arrivalPos="19.00"/>
    </personinfo>
    <personinfo id="p118" depart="118.00">
        <walk depart="118.00" arrival="414.00" arrivalPos="19.00"/>
    </personinfo>
    <personinfo id="p133" depart="133.00">
        <walk depart="133.00" arrival="415.00" arrivalPos="19.00"/>
    </personinfo>
    <personinfo id="p124" depart="124.00">
        <walk depart="124.00" arrival="418.00" arrivalPos="19.00"/>
    </personinfo>
    <personinfo id="p125" depart="125.00">
        <walk depart="125.00" arrival="420.00" arrivalPos="19.00"/>
    </personinfo>
    <personinfo id="p99" depart="99.00">
        <walk depart="99.00" arrival="420.00" arrivalPos="19.00"/>
    </personinfo>
    <personinfo id="p119" depart="119.00">
        <walk depart="119.00" arrival="421.00" arrivalPos="19.00"/>
    </personinfo>
    <personinfo id="p117" depart="117.00">
        <walk depart="117.00" arrival="424.00" arrivalPos="19.00"/>
    </personinfo>
    <personinfo id="p128" depart="128.00">
        <walk depart="128.00" arrival="425.00" arrivalPos="19.00"/>
    </personinfo>
    <personinfo id="p140" depart="140.00">
        <walk depart="140.00" arrival="425.00" arrivalPos="19.00"/>
    </personinfo>
    <personinfo id="p123" depart="123.00">
        <walk depart="123.00" arrival="426.00" arrivalPos="19.00"/>
    </personinfo>
    <personinfo id="p149" depart="149.00">
        <walk depart="149.00" arrival="470.00" arrivalPos="19.00"/>
    </personinfo>
    <personinfo id="p157" depart="157.00">
        <walk depart="157.00" arrival="471.00" arrivalPos="19.00"/>
    </personinfo>
    <personinfo id="p141" depart="141.00">
        <walk depart="141.00" arrival="471.00" arrivalPos="19.00"/>
    </personinfo>
    <personinfo id="p144" depart="144.00">
        <walk depart="144.00" arrival="473.00" arrivalPos="19.00"/>
    </personinfo>
    <personinfo id="p138" depart="138.00">
        <walk depart="138.00" arrival="473.00" arrivalPos="19.00"/>
    </personinfo>
    <personinfo id="p154" depart="154.00">
        <walk depart="154.00" arrival="475.00" arrivalPos="19.00"/>
    </personinfo>
    <personinfo id="p134" depart="134.00">
        <walk depart="134.00" arrival="475.00" arrivalPos="19.00"/>
    </personinfo>
    <personinfo id="p132" depart="132.00">
        <walk depart="132.00" arrival="475.00" arrivalPos="19.00"/>
    </personinfo>
    <personinfo id="p159" depart="159.00">
        <walk depart="159.00" arrival="476.00" arrivalPos="19.00"/>
    </personinfo>
    <personinfo id="p143" depart="143.00">
        <walk depart="143.00" arrival="476.00" arrivalPos="19.00"/>
    </personinfo>
    <personinfo id="p151" depart="151.00">
        <walk depart="151.00" arrival="476.00" arrivalPos="19.00"/>
    </personinfo>
    <personinfo id="p160" depart="160.00">
        <walk depart="160.00" arrival="477.00" arrivalPos="19.00"/>
    </personinfo>
    <personinfo id="p148" depart="148.00">
        <walk depart="148.00" arrival="477.00" arrivalPos="19.00"/>
    </personinfo>
    <personinfo id="p127" depart="127.00">
        <walk depart="127.00" arrival="477.00" arrivalPos="19.00"/>
    </personinfo>
    <personinfo id="p163" depart="163.00">
        <walk depart="163.00" arrival="478.00" arrivalPos="19.00"/>
    </personinfo>
    <personinfo id="p156" depart="156.00">
        <walk depart="156.00" arrival="478.00" arrivalPos="19.00"/>
    </personinfo>
    <personinfo id="p161" depart="161.00">
        <walk depart="161.00" arrival="478.00" arrivalPos="19.00"/>
    </personinfo>
    <personinfo id="p152" depart="152.00">
        <walk depart="152.00" arrival="478.00" arrivalPos="19.00"/>
    </personinfo>
    <personinfo id="p153" depart="153.00">
        <walk depart="153.00" arrival="479.00" arrivalPos="19.00"/>
    </personinfo>
    <personinfo id="p135" depart="135.00">
        <walk depart="135.00" arrival="482.00" arrivalPos="19.00"/>
    </personinfo>
    <personinfo id="p167" depart="167.00">
        <walk depart="167.00" arrival="483.00" arrivalPos="19.00"/>
    </personinfo>
    <personinfo id="p142" depart="142.00">
        <walk depart="142.00" arrival="483.00" arrivalPos="19.00"/>
    </personinfo>
    <personinfo id="p172" depart="172.00">
        <walk depart="172.00" arrival="513.00" arrivalPos="19.00"/>
    </personinfo>
    <personinfo id="p164" depart="164.00">
        <walk depart="164.00" arrival="515.00" arrivalPos="19.00"/>
    </personinfo>
    <personinfo id="p173" depart="173.00">
        <walk depart="173.00" arrival="515.00" arrivalPos="19.00"/>
    </personinfo>
    <personinfo id="p165" depart="165.00">
        <walk depart="165.00" arrival="516.00" arrivalPos="19.00"/>
    </personinfo>
    <personinfo id="p182" depart="182.00">
        <walk depart="182.00" arrival="518.00" arrivalPos="19.00"/>
    </personinfo>
    <personinfo id="p170" depart="170.00">
        <walk depart="170.00" arrival="522.00" arrivalPos="19.00"/>
    </personinfo>
    <personinfo id="p191" depart="191.00">
        <walk depart="191.00" arrival="523.00" arrivalPos="19.00"/>
    </personinfo>
    <personinfo id="p168" depart="168.00">
        <walk depart="168.00" arrival="528.00" arrivalPos="19.00"/>
    </personinfo>
    <personinfo id="p130" depart="130.00">
        <walk depart="130.00" arrival="529.00" arrivalPos="19.00"/>
    </personinfo>
    <personinfo id="p176" depart="176.00">
        <walk depart="176.00" arrival="529.00" arrivalPos="19.00"/>
    </personinfo>
    <personinfo id="p162" depart="162.00">
        <walk depart="162.00" arrival="532.00" arrivalPos="19.00"/>
    </personinfo>
    <personinfo id="p158" depart="158.00">
        <walk depart="158.00" arrival="532.00" arrivalPos="19.00"/>
    </personinfo>
    <personinfo id="p185" depart="185.00">
        <walk depart="185.00" arrival="533.00" arrivalPos="19.00"/>
    </personinfo>
    <personinfo id="p171" depart="171.00">
        <walk depart="171.00" arrival="534.00" arrivalPos="19.00"/>
    </personinfo>
    <personinfo id="p166" depart="166.00">
        <walk depart="166.00" arrival="534.00" arrivalPos="19.00"/>
    </personinfo>
    <personinfo id="p187" depart="187.00">
        <walk depart="187.00" arrival="534.00" arrivalPos="19.00"/>
    </personinfo>
    <personinfo id="p146" depart="146.00">
        <walk depart="146.00" arrival="536.00" arrivalPos="19.00"/>
    </personinfo>
    <personinfo id="p186" depart="186.00">
        <walk depart="186.00" arrival="537.00" arrivalPos="19.00"/>
    </personinfo>
    <personinfo id="p174" depart="174.00">
        <walk depart="174.00" arrival="537.00" arrivalPos="19.00"/>
    </personinfo>
    <personinfo id="p183" depart="183.00">
        <walk depart="183.00" arrival="540.00" arrivalPos="19.00"/>
    </personinfo>
    <personinfo id="p179" depart="179.00">
        <walk depart="179.00" arrival="541.00" arrivalPos="19.00"/>
    </personinfo>
    <personinfo id="p188" depart="188.00">
        <walk depart="188.00" arrival="548.00" arrivalPos="19.00"/>
    </personinfo>
    <personinfo id="p178" depart="178.00">
        <walk depart="178.00" arrival="571.00" arrivalPos="19.00"/>
    </personinfo>
    <personinfo id="p180" depart="180.00">
        <walk depart="180.00" arrival="576.00" arrivalPos="19.00"/>
    </personinfo>
    <personinfo id="p224" depart="224.00">
        <walk depart="224.00" arrival="578.00" arrivalPos="19.00"/>
    </personinfo>
    <personinfo id="p177" depart="177.00">
        <walk depart="177.00" arrival="578.00" arrivalPos="19.00"/>
    </personinfo>
    <personinfo id="p199" depart="199.00">
        <walk depart="199.00" arrival="578.00" arrivalPos="19.00"/>
    </personinfo>
    <personinfo id="p184" depart="184.00">
        <walk depart="184.00" arrival="584.00" arrivalPos="19.00"/>
    </personinfo>
    <personinfo id="p218" depart="218.00">
        <walk depart="218.00" arrival="585.00" arrivalPos="19.00"/>
    </personinfo>
    <personinfo id="p175" depart="175.00">
        <walk depart="175.00" arrival="587.00" arrivalPos="19.00"/>
    </personinfo>
    <personinfo id="p192" depart="192.00">
        <walk depart="192.00" arrival="588.00" arrivalPos="19.00"/>
    </personinfo>
    <personinfo id="p190" depart="190.00">
        <walk depart="190.00" arrival="588.00" arrivalPos="19.00"/>
    </personinfo>
    <personinfo id="p169" depart="169.00">
        <walk depart="169.00" arrival="590.00" arrivalPos="19.00"/>
    </personinfo>
    <personinfo id="p196" depart="196.00">
        <walk depart="196.00" arrival="591.00" arrivalPos="19.00"/>
    </personinfo>
    <personinfo id="p189" depart="189.00">
        <walk depart="189.00" arrival="592.00" arrivalPos="19.00"/>
    </personinfo>
    <personinfo id="p204" depart="204.00">
        <walk depart="204.00" arrival="593.00" arrivalPos="19.00"/>
    </personinfo>
    <personinfo id="p155" depart="155.00">
        <walk depart="155.00" arrival="594.00" arrivalPos="19.00"/>
    </personinfo>
    <personinfo id="p205" depart="205.00">
        <walk depart="205.00" arrival="595.00" arrivalPos="19.00"/>
    </personinfo>
    <personinfo id="p225" depart="225.00">
        <walk depart="225.00" arrival="599.00" arrivalPos="19.00"/>
    </personinfo>
    <personinfo id="p206" depart="206.00">
        <walk depart="206.00" arrival="602.00" arrivalPos="19.00"/>
    </personinfo>
    <personinfo id="p181" depart="181.00">
        <walk depart="181.00" arrival="602.00" arrivalPos="19.00"/>
    </personinfo>
    <personinfo id="p211" depart="211.00">
        <walk depart="211.00" arrival="603.00" arrivalPos="19.00"/>
    </personinfo>
    <personinfo id="p193" depart="193.00">
        <walk depart="193.00" arrival="603.00" arrivalPos="19.00"/>
    </personinfo>
    <personinfo id="p200" depart="200.00">
        <walk depart="200.00" arrival="604.00" arrivalPos="19.00"/>
    </personinfo>
    <personinfo id="p194" depart="194.00">
        <walk depart="194.00" arrival="607.00" arrivalPos="19.00"/>
    </personinfo>
    <personinfo id="p201" depart="201.00">
        <walk depart="201.00" arrival="635.00" arrivalPos="19.00"/>
    </personinfo>
    <personinfo id="p212" depart="212.00">
        <walk depart="212.00" arrival="638.00" arrivalPos="19.00"/>
    </personinfo>
    <personinfo id="p222" depart="222.00">
        <walk depart="222.00" arrival="639.00" arrivalPos="19.00"/>
    </personinfo>
    <personinfo id="p235" depart="235.00">
        <walk depart="235.00" arrival="640.00" arrivalPos="19.00"/>
    </personinfo>
    <personinfo id="p209" depart="209.00">
        <walk depart="209.00" arrival="640.00" arrivalPos="19.00"/>
    </personinfo>
    <personinfo id="p207" depart="207.00">
        <walk depart="207.00" arrival="641.00" arrivalPos="19.00"/>
    </personinfo>
    <personinfo id="p202" depart="202.00">
        <walk depart="202.00" arrival="645.00" arrivalPos="19.00"/>
    </personinfo>
    <personinfo id="p216" depart="216.00">
        <walk depart="216.00" arrival="646.00" arrivalPos="19.00"/>
    </personinfo>
    <personinfo id="p198" depart="198.00">
        <walk depart="198.00" arrival="646.00" arrivalPos="19.00"/>
    </personinfo>
    <personinfo id="p219" depart="219.00">
        <walk depart="219.00" arrival="647.00" arrivalPos="19.00"/>
    </personinfo>
    <personinfo id="p217" depart="217.00">
        <walk depart="217.00" arrival="647.00" arrivalPos="19.00"/>
    </personinfo>
    <personinfo id="p227" depart="227.00">
        <walk depart="227.00" arrival="648.00" arrivalPos="19.00"/>
    </personinfo>
    <personinfo id="p213" depart="213.00">
        <walk depart="213.00" arrival="650.00" arrivalPos="19.00"/>
    </personinfo>
    <personinfo id="p203" depart="203.00">
        <walk depart="203.00" arrival="654.00" arrivalPos="19.00"/>
    </personinfo>
    <personinfo id="p237" depart="237.00">
        <walk depart="237.00" arrival="655.00" arrivalPos="19.00"/>
    </personinfo>
    <personinfo id="p221" depart="221.00">
        <walk depart="221.00" arrival="657.00" arrivalPos="19.00"/>
    </personinfo>
    <personinfo id="p197" depart="197.00">
        <walk depart="197.00" arrival="658.00" arrivalPos="19.00"/>
    </personinfo>
    <personinfo id="p229" depart="229.00">
        <walk depart="229.00" arrival="659.00" arrivalPos="19.00"/>
    </personinfo>
    <personinfo id="p230" depart="230.00">
        <walk depart="230.00" arrival="661.00" arrivalPos="19.00"/>
    </personinfo>
    <personinfo id="p195" depart="195.00">
        <walk depart="195.00" arrival="663.00" arrivalPos="19.00"/>
    </personinfo>
    <personinfo id="p208" depart="208.00">
        <walk depart="208.00" arrival="665.00" arrivalPos="19.00"/>
    </personinfo>
    <personinfo id="p248" depart="248.00">