<?xml version="1.0" encoding="UTF-8"?>

<!-- generated on 2022-01-10 14:59:31 by Eclipse SUMO sumo Version v1_11_0+0988-8b51211
This data file and the accompanying materials
are made available under the terms of the Eclipse Public License v2.0
which accompanies this distribution, and is available at
http://www.eclipse.org/legal/epl-v20.html
SPDX-License-Identifier: EPL-2.0
<configuration xmlns:xsi="http://www.w3.org/2001/XMLSchema-instance" xsi:noNamespaceSchemaLocation="http://sumo.dlr.de/xsd/sumoConfiguration.xsd">

    <input>
        <net-file value="net.net.xml"/>
        <route-files value="input_routes.rou.xml"/>
        <additional-files value="input_additional.add.xml"/>
    </input>

    <output>
        <write-license value="true"/>
    </output>

    <processing>
        <default.speeddev value="0"/>
    </processing>

    <routing>
        <weights.separate-turns value="1"/>
        <device.rerouting.adaptation-steps value="18"/>
        <device.rerouting.adaptation-interval value="10"/>
    </routing>

    <report>
        <verbose value="true"/>
        <xml-validation value="never"/>
        <xml-validation.routes value="never"/>
        <duration-log.statistics value="true"/>
        <no-step-log value="true"/>
    </report>

</configuration>
-->

<meandata xmlns:xsi="http://www.w3.org/2001/XMLSchema-instance" xsi:noNamespaceSchemaLocation="http://sumo.dlr.de/xsd/meandata_file.xsd">
    <interval begin="0.00" end="600.00" id="ed">
        <edge id=":gneJ1_0" sampledSeconds="205.58" traveltime="0.85" overlapTraveltime="1.22" density="30.59" laneDensity="30.59" occupancy="10.57" waitingTime="0.00" timeLoss="9.64" speed="13.24" speedRelative="0.95" departed="0" arrived="0" entered="168" left="168" laneChangedFrom="0" laneChangedTo="0"/>
        <edge id=":gneJ1_4" sampledSeconds="190.51" traveltime="0.87" overlapTraveltime="1.24" density="27.63" laneDensity="13.82" occupancy="4.81" waitingTime="0.00" timeLoss="8.53" speed="13.27" speedRelative="0.96" departed="0" arrived="0" entered="154" left="153" laneChangedFrom="0" laneChangedTo="0"/>
        <edge id=":gneJ2_1" sampledSeconds="264.63" traveltime="1.13" overlapTraveltime="1.51" density="30.63" laneDensity="30.63" occupancy="11.36" waitingTime="0.00" timeLoss="20.21" speed="12.83" speedRelative="0.92" departed="0" arrived="0" entered="175" left="175" laneChangedFrom="0" laneChangedTo="0"/>
        <edge id=":gneJ2_4" sampledSeconds="115.79" traveltime="1.53" overlapTraveltime="2.27" density="21.37" laneDensity="21.37" occupancy="7.05" waitingTime="0.00" timeLoss="40.59" speed="6.18" speedRelative="0.95" departed="0" arrived="0" entered="51" left="51" laneChangedFrom="0" laneChangedTo="0"/>
        <edge id=":gneJ2_5" sampledSeconds="113.63" traveltime="1.16" overlapTraveltime="1.54" density="12.77" laneDensity="12.77" occupancy="4.76" waitingTime="0.00" timeLoss="7.98" speed="12.91" speedRelative="0.93" departed="0" arrived="0" entered="74" left="74" laneChangedFrom="0" laneChangedTo="0"/>
        <edge id=":gneJ2_6" sampledSeconds="491.31" traveltime="21.69" overlapTraveltime="23.93" density="133.33" laneDensity="133.33" occupancy="64.60" waitingTime="388.00" timeLoss="463.47" speed="0.46" speedRelative="0.06" departed="0" arrived="0" entered="21" left="20" laneChangedFrom="0" laneChangedTo="0"/>
        <edge id=":gneJ2_10" sampledSeconds="64.76" traveltime="2.45" overlapTraveltime="3.24" density="13.07" laneDensity="13.07" occupancy="3.64" waitingTime="0.00" timeLoss="39.75" speed="4.09" speedRelative="0.51" departed="0" arrived="0" entered="20" left="20" laneChangedFrom="0" laneChangedTo="0"/>
        <edge id=":gneJ3_0" sampledSeconds="217.13" traveltime="0.85" overlapTraveltime="1.22" density="32.31" laneDensity="32.31" occupancy="11.17" waitingTime="0.00" timeLoss="9.91" speed="13.26" speedRelative="0.95" departed="0" arrived="0" entered="178" left="177" laneChangedFrom="0" laneChangedTo="0"/>
        <edge id=":gneJ3_4" sampledSeconds="89.22" traveltime="0.85" overlapTraveltime="1.22" density="13.28" laneDensity="13.28" occupancy="4.59" waitingTime="0.00" timeLoss="4.08" speed="13.25" speedRelative="0.95" departed="0" arrived="0" entered="73" left="73" laneChangedFrom="0" laneChangedTo="0"/>
        <edge id=":gneJ5_0" sampledSeconds="112.91" traveltime="1.53" overlapTraveltime="2.26" density="20.84" laneDensity="20.84" occupancy="6.89" waitingTime="0.00" timeLoss="41.36" speed="6.21" speedRelative="0.95" departed="0" arrived="0" entered="50" left="50" laneChangedFrom="0" laneChangedTo="0"/>
        <edge id=":gneJ5_1" sampledSeconds="51.58" traveltime="2.00" overlapTraveltime="2.58" density="7.68" laneDensity="7.68" occupancy="2.48" waitingTime="0.00" timeLoss="28.26" speed="6.28" speedRelative="0.45" departed="0" arrived="0" entered="20" left="20" laneChangedFrom="0" laneChangedTo="0"/>
        <edge id="-a" sampledSeconds="1219.56" traveltime="7.02" overlapTraveltime="7.40" density="21.90" laneDensity="21.90" occupancy="10.46" waitingTime="0.00" timeLoss="58.82" speed="13.22" speedRelative="0.95" departed="0" arrived="165" entered="168" left="0" laneChangedFrom="0" laneChangedTo="0"/>
        <edge id="-b" sampledSeconds="3798.39" traveltime="21.82" overlapTraveltime="22.20" density="21.92" laneDensity="21.92" occupancy="10.77" waitingTime="0.00" timeLoss="179.06" speed="13.24" speedRelative="0.95" departed="0" arrived="0" entered="175" left="168" laneChangedFrom="0" laneChangedTo="0"/>
        <edge id="-c" sampledSeconds="1263.03" traveltime="6.77" overlapTraveltime="7.16" density="23.71" laneDensity="23.71" occupancy="11.21" waitingTime="0.00" timeLoss="72.56" speed="13.09" speedRelative="0.94" departed="0" arrived="0" entered="177" left="175" laneChangedFrom="0" laneChangedTo="0"/>
        <edge id="-d" sampledSeconds="1782.17" traveltime="10.14" overlapTraveltime="10.51" density="32.01" laneDensity="32.01" occupancy="15.70" waitingTime="0.00" timeLoss="588.45" speed="9.30" speedRelative="0.67" departed="181" arrived="0" entered="0" left="178" laneChangedFrom="0" laneChangedTo="0"/>
        <edge id="a" sampledSeconds="1539.12" traveltime="10.13" overlapTraveltime="10.50" density="27.64" laneDensity="27.64" occupancy="13.56" waitingTime="0.00" timeLoss="506.94" speed="9.31" speedRelative="0.67" departed="156" arrived="0" entered="0" left="154" laneChangedFrom="0" laneChangedTo="0"/>
        <edge id="b" sampledSeconds="6955.20" traveltime="45.49" overlapTraveltime="46.24" density="40.14" laneDensity="20.07" occupancy="9.91" waitingTime="2417.00" timeLoss="3739.74" speed="6.35" speedRelative="0.46" departed="0" arrived="0" entered="153" left="146" laneChangedFrom="0" laneChangedTo="0"/>
        <edge id="c" sampledSeconds="518.66" traveltime="6.70" overlapTraveltime="7.08" density="9.73" laneDensity="9.73" occupancy="4.61" waitingTime="0.00" timeLoss="23.96" speed="13.25" speedRelative="0.95" departed="0" arrived="0" entered="74" left="73" laneChangedFrom="0" laneChangedTo="0"/>
        <edge id="d" sampledSeconds="528.59" traveltime="7.00" overlapTraveltime="7.38" density="9.49" laneDensity="9.49" occupancy="4.53" waitingTime="0.00" timeLoss="24.22" speed="13.25" speedRelative="0.95" departed="0" arrived="72" entered="73" left="0" laneChangedFrom="0" laneChangedTo="0"/>
        <edge id="f" sampledSeconds="1244.81" traveltime="23.59" overlapTraveltime="24.43" density="7.11" laneDensity="7.11" occupancy="3.43" waitingTime="0.00" timeLoss="131.39" speed="12.16" speedRelative="0.88" departed="0" arrived="0" entered="51" left="50" laneChangedFrom="0" laneChangedTo="0"/>
        <edge id="g" sampledSeconds="282.05" traveltime="12.98" overlapTraveltime="14.10" density="5.29" laneDensity="5.29" occupancy="2.48" waitingTime="61.00" timeLoss="146.98" speed="6.65" speedRelative="0.48" departed="0" arrived="0" entered="20" left="20" laneChangedFrom="0" laneChangedTo="0"/>
        <edge id="h" sampledSeconds="566.34" traveltime="7.87" overlapTraveltime="8.25" density="10.17" laneDensity="10.17" occupancy="4.77" waitingTime="0.00" timeLoss="83.13" speed="11.85" speedRelative="0.85" departed="0" arrived="69" entered="70" left="0" laneChangedFrom="0" laneChangedTo="0"/>
    </interval>
    <interval begin="600.00" end="1200.00" id="ed">
        <edge id=":gneJ1_0" sampledSeconds="236.22" traveltime="0.85" overlapTraveltime="1.23" density="35.15" laneDensity="35.15" occupancy="12.16" waitingTime="0.00" timeLoss="11.62" speed="13.21" speedRelative="0.95" departed="0" arrived="0" entered="193" left="192" laneChangedFrom="0" laneChangedTo="0"/>
        <edge id=":gneJ1_4" sampledSeconds="58.30" traveltime="0.87" overlapTraveltime="1.25" density="8.46" laneDensity="4.23" occupancy="1.48" waitingTime="0.00" timeLoss="2.84" speed="13.21" speedRelative="0.95" departed="0" arrived="0" entered="46" left="47" laneChangedFrom="0" laneChangedTo="0"/>
        <edge id=":gneJ2_1" sampledSeconds="285.28" traveltime="1.10" overlapTraveltime="1.48" density="33.02" laneDensity="33.02" occupancy="12.25" waitingTime="0.00" timeLoss="15.72" speed="13.12" speedRelative="0.94" departed="0" arrived="0" entered="193" left="193" laneChangedFrom="0" laneChangedTo="0"/>
        <edge id=":gneJ2_4" sampledSeconds="45.62" traveltime="1.52" overlapTraveltime="2.28" density="8.42" laneDensity="8.42" occupancy="2.77" waitingTime="0.00" timeLoss="16.24" speed="6.15" speedRelative="0.94" departed="0" arrived="0" entered="20" left="20" laneChangedFrom="0" laneChangedTo="0"/>
        <edge id=":gneJ2_5" sampledSeconds="39.49" traveltime="1.14" overlapTraveltime="1.52" density="4.44" laneDensity="4.44" occupancy="1.66" waitingTime="0.00" timeLoss="2.37" speed="13.06" speedRelative="0.94" departed="0" arrived="0" entered="26" left="26" laneChangedFrom="0" laneChangedTo="0"/>
        <edge id=":gneJ2_6" sampledSeconds="199.84" traveltime="23.01" overlapTraveltime="23.60" density="56.17" laneDensity="56.17" occupancy="26.29" waitingTime="160.00" timeLoss="188.27" speed="0.46" speedRelative="0.06" departed="0" arrived="0" entered="8" left="9" laneChangedFrom="0" laneChangedTo="0"/>
        <edge id=":gneJ2_10" sampledSeconds="28.31" traveltime="2.34" overlapTraveltime="3.15" density="5.71" laneDensity="5.71" occupancy="1.61" waitingTime="0.00" timeLoss="16.84" speed="4.22" speedRelative="0.53" departed="0" arrived="0" entered="9" left="9" laneChangedFrom="0" laneChangedTo="0"/>
        <edge id=":gneJ3_0" sampledSeconds="236.27" traveltime="0.84" overlapTraveltime="1.22" density="35.16" laneDensity="35.16" occupancy="12.15" waitingTime="0.00" timeLoss="10.79" speed="13.26" speedRelative="0.95" departed="0" arrived="0" entered="193" left="194" laneChangedFrom="0" laneChangedTo="0"/>
        <edge id=":gneJ3_4" sampledSeconds="33.04" traveltime="0.84" overlapTraveltime="1.22" density="4.92" laneDensity="4.92" occupancy="1.70" waitingTime="0.00" timeLoss="1.55" speed="13.24" speedRelative="0.95" departed="0" arrived="0" entered="27" left="27" laneChangedFrom="0" laneChangedTo="0"/>
        <edge id=":gneJ5_0" sampledSeconds="48.55" traveltime="1.56" overlapTraveltime="2.31" density="8.96" laneDensity="8.96" occupancy="2.95" waitingTime="0.00" timeLoss="17.44" speed="6.07" speedRelative="0.93" departed="0" arrived="0" entered="21" left="21" laneChangedFrom="0" laneChangedTo="0"/>
        <edge id=":gneJ5_1" sampledSeconds="23.79" traveltime="2.04" overlapTraveltime="2.64" density="3.54" laneDensity="3.54" occupancy="1.17" waitingTime="0.00" timeLoss="13.29" speed="6.13" speedRelative="0.44" departed="0" arrived="0" entered="9" left="9" laneChangedFrom="0" laneChangedTo="0"/>
        <edge id="-a" sampledSeconds="1410.06" traveltime="7.02" overlapTraveltime="7.39" density="25.32" laneDensity="25.32" occupancy="12.09" waitingTime="0.00" timeLoss="67.49" speed="13.23" speedRelative="0.95" departed="0" arrived="193" entered="192" left="0" laneChangedFrom="0" laneChangedTo="0"/>
        <edge id="-b" sampledSeconds="4289.27" traveltime="21.81" overlapTraveltime="22.19" density="24.75" laneDensity="24.75" occupancy="12.17" waitingTime="0.00" timeLoss="201.22" speed="13.24" speedRelative="0.95" departed="0" arrived="0" entered="193" left="193" laneChangedFrom="0" laneChangedTo="0"/>
        <edge id="-c" sampledSeconds="1373.58" traveltime="6.73" overlapTraveltime="7.11" density="25.78" laneDensity="25.78" occupancy="12.20" waitingTime="0.00" timeLoss="68.95" speed="13.19" speedRelative="0.95" departed="0" arrived="0" entered="194" left="193" laneChangedFrom="0" laneChangedTo="0"/>
        <edge id="-d" sampledSeconds="1920.78" traveltime="10.12" overlapTraveltime="10.49" density="34.50" laneDensity="34.50" occupancy="16.92" waitingTime="0.00" timeLoss="631.33" speed="9.32" speedRelative="0.67" departed="193" arrived="0" entered="0" left="193" laneChangedFrom="0" laneChangedTo="0"/>
        <edge id="a" sampledSeconds="446.10" traveltime="10.01" overlapTraveltime="10.38" density="8.01" laneDensity="8.01" occupancy="3.93" waitingTime="0.00" timeLoss="143.50" speed="9.42" speedRelative="0.68" departed="44" arrived="0" entered="0" left="46" laneChangedFrom="0" laneChangedTo="0"/>
        <edge id="b" sampledSeconds="1788.39" traveltime="35.30" overlapTraveltime="36.07" density="10.32" laneDensity="5.16" occupancy="2.54" waitingTime="496.00" timeLoss="726.85" speed="8.15" speedRelative="0.59" departed="0" arrived="0" entered="47" left="54" laneChangedFrom="0" laneChangedTo="0"/>
        <edge id="c" sampledSeconds="189.73" traveltime="6.72" overlapTraveltime="7.09" density="3.56" laneDensity="3.56" occupancy="1.69" waitingTime="0.00" timeLoss="9.13" speed="13.22" speedRelative="0.95" departed="0" arrived="0" entered="26" left="27" laneChangedFrom="0" laneChangedTo="0"/>
        <edge id="d" sampledSeconds="203.09" traveltime="7.00" overlapTraveltime="7.38" density="3.65" laneDensity="3.65" occupancy="1.74" waitingTime="0.00" timeLoss="9.23" speed="13.26" speedRelative="0.95" departed="0" arrived="28" entered="27" left="0" laneChangedFrom="0" laneChangedTo="0"/>
        <edge id="f" sampledSeconds="494.60" traveltime="23.78" overlapTraveltime="24.67" density="2.82" laneDensity="2.82" occupancy="1.36" waitingTime="0.00" timeLoss="55.09" speed="12.04" speedRelative="0.87" departed="0" arrived="0" entered="20" left="21" laneChangedFrom="0" laneChangedTo="0"/>
        <edge id="g" sampledSeconds="141.92" traveltime="14.65" overlapTraveltime="15.77" density="2.66" laneDensity="2.66" occupancy="1.25" waitingTime="44.00" timeLoss="81.15" speed="5.95" speedRelative="0.43" departed="0" arrived="0" entered="9" left="9" laneChangedFrom="0" laneChangedTo="0"/>
        <edge id="h" sampledSeconds="252.55" traveltime="7.90" overlapTraveltime="8.29" density="4.54" laneDensity="4.54" occupancy="2.13" waitingTime="0.00" timeLoss="38.07" speed="11.80" speedRelative="0.85" departed="0" arrived="31" entered="30" left="0" laneChangedFrom="0" laneChangedTo="0"/>
    </interval>
    <interval begin="1200.00" end="1325.00" id="ed">
        <edge id=":gneJ1_0" sampledSeconds="48.29" traveltime="0.85" overlapTraveltime="1.22" density="34.49" laneDensity="34.49" occupancy="11.91" waitingTime="0.00" timeLoss="2.31" speed="13.23" speedRelative="0.95" departed="0" arrived="0" entered="39" left="40" laneChangedFrom="0" laneChangedTo="0"/>
        <edge id=":gneJ2_1" sampledSeconds="46.99" traveltime="1.09" overlapTraveltime="1.47" density="26.10" laneDensity="26.10" occupancy="9.68" waitingTime="0.00" timeLoss="2.29" speed="13.21" speedRelative="0.95" departed="0" arrived="0" entered="32" left="32" laneChangedFrom="0" laneChangedTo="0"/>
        <edge id=":gneJ3_0" sampledSeconds="35.72" traveltime="0.85" overlapTraveltime="1.23" density="25.52" laneDensity="25.52" occupancy="8.82" waitingTime="0.00" timeLoss="1.90" speed="13.15" speedRelative="0.95" departed="0" arrived="0" entered="29" left="29" laneChangedFrom="0" laneChangedTo="0"/>
        <edge id="-a" sampledSeconds="298.82" traveltime="7.01" overlapTraveltime="7.38" density="25.76" laneDensity="25.76" occupancy="12.28" waitingTime="0.00" timeLoss="13.85" speed="13.25" speedRelative="0.95" departed="0" arrived="42" entered="40" left="0" laneChangedFrom="0" laneChangedTo="0"/>
        <edge id="-b" sampledSeconds="791.60" traveltime="21.85" overlapTraveltime="22.23" density="21.93" laneDensity="21.93" occupancy="10.78" waitingTime="0.00" timeLoss="38.23" speed="13.22" speedRelative="0.95" departed="0" arrived="0" entered="32" left="39" laneChangedFrom="0" laneChangedTo="0"/>
        <edge id="-c" sampledSeconds="216.30" traveltime="6.71" overlapTraveltime="7.09" density="19.49" laneDensity="19.49" occupancy="9.22" waitingTime="0.00" timeLoss="10.17" speed="13.24" speedRelative="0.95" departed="0" arrived="0" entered="29" left="32" laneChangedFrom="0" laneChangedTo="0"/>
        <edge id="-d" sampledSeconds="275.40" traveltime="10.04" overlapTraveltime="10.40" density="23.74" laneDensity="23.74" occupancy="11.63" waitingTime="0.00" timeLoss="89.02" speed="9.40" speedRelative="0.68" departed="26" arrived="0" entered="0" left="29" laneChangedFrom="0" laneChangedTo="0"/>
    </interval>
</meandata>
