<?xml version="1.0" encoding="UTF-8"?>

<!-- generated on 2023-03-01 14:34:41 by Eclipse SUMO sumo Version v1_16_0+0853-bb3bf2e
This data file and the accompanying materials
are made available under the terms of the Eclipse Public License v2.0
which accompanies this distribution, and is available at
http://www.eclipse.org/legal/epl-v20.html
This file may also be made available under the following Secondary
Licenses when the conditions for such availability set forth in the Eclipse
Public License 2.0 are satisfied: GNU General Public License, version 2
or later which is available at
https://www.gnu.org/licenses/old-licenses/gpl-2.0-standalone.html
SPDX-License-Identifier: EPL-2.0 OR GPL-2.0-or-later
<configuration xmlns:xsi="http://www.w3.org/2001/XMLSchema-instance" xsi:noNamespaceSchemaLocation="http://sumo.dlr.de/xsd/sumoConfiguration.xsd">

    <input>
        <net-file value="net.net.xml"/>
        <route-files value="input_routes.rou.xml"/>
        <additional-files value="input_additional.add.xml"/>
    </input>

    <output>
        <write-license value="true"/>
    </output>

    <processing>
        <default.speeddev value="0"/>
    </processing>

    <routing>
        <weights.separate-turns value="1"/>
        <device.rerouting.adaptation-steps value="18"/>
        <device.rerouting.adaptation-interval value="10"/>
    </routing>

    <report>
        <xml-validation value="never"/>
        <duration-log.statistics value="true"/>
        <no-step-log value="true"/>
    </report>

</configuration>
-->

<meandata xmlns:xsi="http://www.w3.org/2001/XMLSchema-instance" xsi:noNamespaceSchemaLocation="http://sumo.dlr.de/xsd/meandata_file.xsd">
    <interval begin="0.00" end="600.00" id="ed">
        <edge id=":gneJ1_0" sampledSeconds="206.36" traveltime="0.85" overlapTraveltime="1.22" density="30.71" laneDensity="30.71" occupancy="10.62" waitingTime="0.00" timeLoss="9.53" speed="13.25" speedRelative="0.95" departed="0" arrived="0" entered="169" left="169" laneChangedFrom="0" laneChangedTo="0"/>
        <edge id=":gneJ1_4" sampledSeconds="200.13" traveltime="0.87" overlapTraveltime="1.24" density="29.03" laneDensity="14.51" occupancy="5.05" waitingTime="0.00" timeLoss="8.99" speed="13.27" speedRelative="0.96" departed="0" arrived="0" entered="161" left="161" laneChangedFrom="0" laneChangedTo="0"/>
        <edge id=":gneJ2_1" sampledSeconds="258.02" traveltime="1.09" overlapTraveltime="1.47" density="29.86" laneDensity="29.86" occupancy="11.09" waitingTime="0.00" timeLoss="12.48" speed="13.22" speedRelative="0.95" departed="0" arrived="0" entered="176" left="176" laneChangedFrom="0" laneChangedTo="0"/>
        <edge id=":gneJ2_4" sampledSeconds="116.38" traveltime="1.52" overlapTraveltime="2.28" density="21.48" laneDensity="21.48" occupancy="7.07" waitingTime="0.00" timeLoss="40.13" speed="6.15" speedRelative="0.94" departed="0" arrived="0" entered="51" left="51" laneChangedFrom="0" laneChangedTo="0"/>
        <edge id=":gneJ2_5" sampledSeconds="119.41" traveltime="1.15" overlapTraveltime="1.53" density="13.42" laneDensity="13.42" occupancy="5.01" waitingTime="0.00" timeLoss="8.05" speed="12.95" speedRelative="0.93" departed="0" arrived="0" entered="78" left="78" laneChangedFrom="0" laneChangedTo="0"/>
        <edge id=":gneJ2_6" sampledSeconds="561.19" traveltime="54.65" overlapTraveltime="58.87" density="133.33" laneDensity="133.33" occupancy="76.83" waitingTime="512.00" timeLoss="548.17" speed="0.19" speedRelative="0.02" departed="0" arrived="0" entered="10" left="9" laneChangedFrom="0" laneChangedTo="0"/>
        <edge id=":gneJ2_10" sampledSeconds="28.52" traveltime="2.37" overlapTraveltime="3.17" density="5.76" laneDensity="5.76" occupancy="1.63" waitingTime="0.00" timeLoss="17.13" speed="4.18" speedRelative="0.52" departed="0" arrived="0" entered="9" left="9" laneChangedFrom="0" laneChangedTo="0"/>
        <edge id=":gneJ3_0" sampledSeconds="216.74" traveltime="0.84" overlapTraveltime="1.22" density="32.25" laneDensity="32.25" occupancy="11.15" waitingTime="0.00" timeLoss="9.71" speed="13.27" speedRelative="0.96" departed="0" arrived="0" entered="178" left="177" laneChangedFrom="0" laneChangedTo="0"/>
        <edge id=":gneJ3_4" sampledSeconds="93.93" traveltime="0.84" overlapTraveltime="1.22" density="13.98" laneDensity="13.98" occupancy="4.83" waitingTime="0.00" timeLoss="4.13" speed="13.28" speedRelative="0.96" departed="0" arrived="0" entered="77" left="77" laneChangedFrom="0" laneChangedTo="0"/>
        <edge id=":gneJ5_0" sampledSeconds="108.79" traveltime="1.55" overlapTraveltime="2.27" density="20.08" laneDensity="20.08" occupancy="6.63" waitingTime="0.00" timeLoss="39.93" speed="6.19" speedRelative="0.95" departed="0" arrived="0" entered="48" left="48" laneChangedFrom="0" laneChangedTo="0"/>
        <edge id=":gneJ5_1" sampledSeconds="24.49" traveltime="2.11" overlapTraveltime="2.72" density="3.64" laneDensity="3.64" occupancy="1.17" waitingTime="0.00" timeLoss="14.00" speed="5.95" speedRelative="0.43" departed="0" arrived="0" entered="9" left="9" laneChangedFrom="0" laneChangedTo="0"/>
        <edge id="-a" sampledSeconds="1227.18" traveltime="7.02" overlapTraveltime="7.40" density="22.04" laneDensity="22.04" occupancy="10.52" waitingTime="0.00" timeLoss="58.82" speed="13.22" speedRelative="0.95" departed="0" arrived="167" entered="169" left="0" laneChangedFrom="0" laneChangedTo="0"/>
        <edge id="-b" sampledSeconds="3814.97" traveltime="21.81" overlapTraveltime="22.18" density="22.02" laneDensity="22.02" occupancy="10.82" waitingTime="0.00" timeLoss="177.51" speed="13.24" speedRelative="0.95" departed="0" arrived="0" entered="176" left="169" laneChangedFrom="0" laneChangedTo="0"/>
        <edge id="-c" sampledSeconds="1252.96" traveltime="6.71" overlapTraveltime="7.09" density="23.52" laneDensity="23.52" occupancy="11.13" waitingTime="0.00" timeLoss="60.02" speed="13.22" speedRelative="0.95" departed="0" arrived="0" entered="177" left="176" laneChangedFrom="0" laneChangedTo="0"/>
        <edge id="-d" sampledSeconds="1783.95" traveltime="10.16" overlapTraveltime="10.53" density="32.04" laneDensity="32.04" occupancy="15.72" waitingTime="1.00" timeLoss="591.37" speed="9.29" speedRelative="0.67" departed="180" arrived="0" entered="0" left="178" laneChangedFrom="0" laneChangedTo="0"/>
        <edge id="a" sampledSeconds="1612.62" traveltime="10.15" overlapTraveltime="10.52" density="28.96" laneDensity="28.96" occupancy="14.21" waitingTime="0.00" timeLoss="533.26" speed="9.30" speedRelative="0.67" departed="163" arrived="0" entered="0" left="161" laneChangedFrom="0" laneChangedTo="0"/>
        <edge id="b" sampledSeconds="13021.55" traveltime="83.31" overlapTraveltime="84.06" density="75.15" laneDensity="37.57" occupancy="18.67" waitingTime="8070.00" timeLoss="9712.22" speed="3.50" speedRelative="0.25" departed="0" arrived="0" entered="161" left="139" laneChangedFrom="0" laneChangedTo="0"/>
        <edge id="c" sampledSeconds="546.09" traveltime="6.70" overlapTraveltime="7.08" density="10.25" laneDensity="10.25" occupancy="4.85" waitingTime="0.00" timeLoss="25.32" speed="13.25" speedRelative="0.95" departed="0" arrived="0" entered="78" left="77" laneChangedFrom="0" laneChangedTo="0"/>
        <edge id="d" sampledSeconds="556.99" traveltime="7.00" overlapTraveltime="7.38" density="10.00" laneDensity="10.00" occupancy="4.77" waitingTime="0.00" timeLoss="25.39" speed="13.26" speedRelative="0.95" departed="0" arrived="76" entered="77" left="0" laneChangedFrom="0" laneChangedTo="0"/>
        <edge id="f" sampledSeconds="1211.50" traveltime="23.64" overlapTraveltime="24.49" density="6.91" laneDensity="6.91" occupancy="3.34" waitingTime="0.00" timeLoss="129.88" speed="12.13" speedRelative="0.87" departed="0" arrived="0" entered="51" left="48" laneChangedFrom="0" laneChangedTo="0"/>
        <edge id="g" sampledSeconds="109.47" traveltime="10.98" overlapTraveltime="12.16" density="2.05" laneDensity="2.05" occupancy="0.95" waitingTime="8.00" timeLoss="48.69" speed="7.71" speedRelative="0.56" departed="0" arrived="0" entered="9" left="9" laneChangedFrom="0" laneChangedTo="0"/>
        <edge id="h" sampledSeconds="464.27" traveltime="7.92" overlapTraveltime="8.30" density="8.34" laneDensity="8.34" occupancy="3.90" waitingTime="0.00" timeLoss="70.47" speed="11.78" speedRelative="0.85" departed="0" arrived="56" entered="57" left="0" laneChangedFrom="0" laneChangedTo="0"/>
    </interval>
    <interval begin="600.00" end="1200.00" id="ed">
        <edge id=":gneJ1_0" sampledSeconds="235.92" traveltime="0.85" overlapTraveltime="1.23" density="35.11" laneDensity="35.11" occupancy="12.13" waitingTime="0.00" timeLoss="11.61" speed="13.21" speedRelative="0.95" departed="0" arrived="0" entered="193" left="192" laneChangedFrom="0" laneChangedTo="0"/>
        <edge id=":gneJ1_4" sampledSeconds="48.67" traveltime="0.87" overlapTraveltime="1.25" density="7.06" laneDensity="3.53" occupancy="1.23" waitingTime="0.00" timeLoss="2.37" speed="13.21" speedRelative="0.95" departed="0" arrived="0" entered="39" left="39" laneChangedFrom="0" laneChangedTo="0"/>
        <edge id=":gneJ2_1" sampledSeconds="289.73" traveltime="1.12" overlapTraveltime="1.50" density="33.53" laneDensity="33.53" occupancy="12.42" waitingTime="0.00" timeLoss="19.89" speed="12.94" speedRelative="0.93" departed="0" arrived="0" entered="193" left="193" laneChangedFrom="0" laneChangedTo="0"/>
        <edge id=":gneJ2_4" sampledSeconds="52.80" traveltime="1.55" overlapTraveltime="2.30" density="9.75" laneDensity="9.75" occupancy="3.21" waitingTime="0.00" timeLoss="18.86" speed="6.11" speedRelative="0.94" departed="0" arrived="0" entered="23" left="23" laneChangedFrom="0" laneChangedTo="0"/>
        <edge id=":gneJ2_5" sampledSeconds="34.43" traveltime="1.18" overlapTraveltime="1.57" density="3.87" laneDensity="3.87" occupancy="1.44" waitingTime="0.00" timeLoss="3.02" speed="12.67" speedRelative="0.91" departed="0" arrived="0" entered="22" left="22" laneChangedFrom="0" laneChangedTo="0"/>
        <edge id=":gneJ2_6" sampledSeconds="598.48" traveltime="73.01" overlapTraveltime="74.81" density="133.33" laneDensity="133.33" occupancy="82.32" waitingTime="561.00" timeLoss="587.60" speed="0.15" speedRelative="0.02" departed="0" arrived="0" entered="8" left="8" laneChangedFrom="0" laneChangedTo="0"/>
        <edge id=":gneJ2_10" sampledSeconds="25.83" traveltime="2.44" overlapTraveltime="3.23" density="5.21" laneDensity="5.21" occupancy="1.46" waitingTime="0.00" timeLoss="15.83" speed="4.11" speedRelative="0.51" departed="0" arrived="0" entered="8" left="8" laneChangedFrom="0" laneChangedTo="0"/>
        <edge id=":gneJ3_0" sampledSeconds="237.42" traveltime="0.85" overlapTraveltime="1.22" density="35.33" laneDensity="35.33" occupancy="12.22" waitingTime="0.00" timeLoss="11.14" speed="13.24" speedRelative="0.95" departed="0" arrived="0" entered="194" left="194" laneChangedFrom="0" laneChangedTo="0"/>
        <edge id=":gneJ3_4" sampledSeconds="28.17" traveltime="0.85" overlapTraveltime="1.22" density="4.19" laneDensity="4.19" occupancy="1.45" waitingTime="0.00" timeLoss="1.34" speed="13.23" speedRelative="0.95" departed="0" arrived="0" entered="23" left="23" laneChangedFrom="0" laneChangedTo="0"/>
        <edge id=":gneJ5_0" sampledSeconds="60.11" traveltime="1.56" overlapTraveltime="2.31" density="11.10" laneDensity="11.10" occupancy="3.66" waitingTime="0.00" timeLoss="21.21" speed="6.07" speedRelative="0.93" departed="0" arrived="0" entered="26" left="26" laneChangedFrom="0" laneChangedTo="0"/>
        <edge id=":gneJ5_1" sampledSeconds="19.50" traveltime="1.92" overlapTraveltime="2.51" density="2.90" laneDensity="2.90" occupancy="0.95" waitingTime="0.00" timeLoss="10.43" speed="6.46" speedRelative="0.46" departed="0" arrived="0" entered="8" left="8" laneChangedFrom="0" laneChangedTo="0"/>
        <edge id="-a" sampledSeconds="1407.03" traveltime="7.02" overlapTraveltime="7.40" density="25.27" laneDensity="25.27" occupancy="12.08" waitingTime="0.00" timeLoss="67.64" speed="13.22" speedRelative="0.95" departed="0" arrived="192" entered="192" left="0" laneChangedFrom="0" laneChangedTo="0"/>
        <edge id="-b" sampledSeconds="4285.03" traveltime="21.82" overlapTraveltime="22.20" density="24.73" laneDensity="24.73" occupancy="12.15" waitingTime="0.00" timeLoss="202.34" speed="13.23" speedRelative="0.95" departed="0" arrived="0" entered="193" left="193" laneChangedFrom="0" laneChangedTo="0"/>
        <edge id="-c" sampledSeconds="1379.59" traveltime="6.74" overlapTraveltime="7.13" density="25.89" laneDensity="25.89" occupancy="12.25" waitingTime="0.00" timeLoss="73.15" speed="13.15" speedRelative="0.95" departed="0" arrived="0" entered="194" left="193" laneChangedFrom="0" laneChangedTo="0"/>
        <edge id="-d" sampledSeconds="1933.40" traveltime="10.14" overlapTraveltime="10.51" density="34.72" laneDensity="34.72" occupancy="17.03" waitingTime="0.00" timeLoss="637.82" speed="9.31" speedRelative="0.67" departed="195" arrived="0" entered="0" left="194" laneChangedFrom="0" laneChangedTo="0"/>
        <edge id="a" sampledSeconds="376.23" traveltime="10.01" overlapTraveltime="10.37" density="6.76" laneDensity="6.76" occupancy="3.31" waitingTime="0.00" timeLoss="120.83" speed="9.43" speedRelative="0.68" departed="37" arrived="0" entered="0" left="39" laneChangedFrom="0" laneChangedTo="0"/>
        <edge id="b" sampledSeconds="7815.98" traveltime="176.61" overlapTraveltime="176.97" density="45.11" laneDensity="22.55" occupancy="11.23" waitingTime="6133.00" timeLoss="6866.67" speed="1.66" speedRelative="0.12" departed="0" arrived="0" entered="39" left="53" laneChangedFrom="0" laneChangedTo="0"/>
        <edge id="c" sampledSeconds="162.86" traveltime="6.74" overlapTraveltime="7.12" density="3.06" laneDensity="3.06" occupancy="1.45" waitingTime="0.00" timeLoss="8.32" speed="13.18" speedRelative="0.95" departed="0" arrived="0" entered="22" left="23" laneChangedFrom="0" laneChangedTo="0"/>
        <edge id="d" sampledSeconds="173.74" traveltime="7.00" overlapTraveltime="7.38" density="3.12" laneDensity="3.12" occupancy="1.49" waitingTime="0.00" timeLoss="8.01" speed="13.25" speedRelative="0.95" departed="0" arrived="24" entered="23" left="0" laneChangedFrom="0" laneChangedTo="0"/>
        <edge id="f" sampledSeconds="601.38" traveltime="23.62" overlapTraveltime="24.51" density="3.43" laneDensity="3.43" occupancy="1.66" waitingTime="0.00" timeLoss="63.21" speed="12.12" speedRelative="0.87" departed="0" arrived="0" entered="23" left="26" laneChangedFrom="0" laneChangedTo="0"/>
        <edge id="g" sampledSeconds="250.61" traveltime="30.25" overlapTraveltime="31.33" density="4.70" laneDensity="4.70" occupancy="2.28" waitingTime="150.00" timeLoss="196.59" speed="2.99" speedRelative="0.22" departed="0" arrived="0" entered="8" left="8" laneChangedFrom="0" laneChangedTo="0"/>
        <edge id="h" sampledSeconds="277.12" traveltime="7.91" overlapTraveltime="8.30" density="4.98" laneDensity="4.98" occupancy="2.33" waitingTime="0.00" timeLoss="41.96" speed="11.79" speedRelative="0.85" departed="0" arrived="34" entered="34" left="0" laneChangedFrom="0" laneChangedTo="0"/>
    </interval>
    <interval begin="1200.00" end="1333.00" id="ed">
        <edge id=":gneJ1_0" sampledSeconds="47.67" traveltime="0.85" overlapTraveltime="1.23" density="32.00" laneDensity="32.00" occupancy="11.08" waitingTime="0.00" timeLoss="2.29" speed="13.22" speedRelative="0.95" departed="0" arrived="0" entered="38" left="39" laneChangedFrom="0" laneChangedTo="0"/>
        <edge id=":gneJ2_1" sampledSeconds="45.35" traveltime="1.08" overlapTraveltime="1.46" density="23.68" laneDensity="23.68" occupancy="8.78" waitingTime="0.00" timeLoss="2.06" speed="13.26" speedRelative="0.95" departed="0" arrived="0" entered="31" left="31" laneChangedFrom="0" laneChangedTo="0"/>
        <edge id=":gneJ2_6" sampledSeconds="109.74" traveltime="12.71" overlapTraveltime="12.96" density="133.33" laneDensity="133.33" occupancy="64.40" waitingTime="92.00" timeLoss="98.54" speed="0.84" speedRelative="0.11" departed="0" arrived="0" entered="8" left="9" laneChangedFrom="0" laneChangedTo="0"/>
        <edge id=":gneJ2_10" sampledSeconds="18.02" traveltime="1.34" overlapTraveltime="2.00" density="16.40" laneDensity="16.40" occupancy="5.04" waitingTime="0.00" timeLoss="7.22" speed="6.62" speedRelative="0.83" departed="0" arrived="0" entered="9" left="9" laneChangedFrom="0" laneChangedTo="0"/>
        <edge id=":gneJ3_0" sampledSeconds="35.12" traveltime="0.85" overlapTraveltime="1.23" density="23.57" laneDensity="23.57" occupancy="8.15" waitingTime="0.00" timeLoss="1.91" speed="13.14" speedRelative="0.95" departed="0" arrived="0" entered="28" left="29" laneChangedFrom="0" laneChangedTo="0"/>
        <edge id=":gneJ5_1" sampledSeconds="17.99" traveltime="1.44" overlapTraveltime="1.95" density="12.08" laneDensity="12.08" occupancy="4.11" waitingTime="0.00" timeLoss="7.22" speed="8.31" speedRelative="0.60" departed="0" arrived="0" entered="9" left="9" laneChangedFrom="0" laneChangedTo="0"/>
        <edge id="-a" sampledSeconds="294.00" traveltime="7.01" overlapTraveltime="7.39" density="23.82" laneDensity="23.82" occupancy="11.36" waitingTime="0.00" timeLoss="13.76" speed="13.24" speedRelative="0.95" departed="0" arrived="41" entered="39" left="0" laneChangedFrom="0" laneChangedTo="0"/>
        <edge id="-b" sampledSeconds="778.19" traveltime="21.85" overlapTraveltime="22.23" density="20.26" laneDensity="20.26" occupancy="9.96" waitingTime="0.00" timeLoss="37.58" speed="13.22" speedRelative="0.95" departed="0" arrived="0" entered="31" left="38" laneChangedFrom="0" laneChangedTo="0"/>
        <edge id="-c" sampledSeconds="211.68" traveltime="6.71" overlapTraveltime="7.08" density="17.92" laneDensity="17.92" occupancy="8.48" waitingTime="0.00" timeLoss="9.85" speed="13.24" speedRelative="0.95" departed="0" arrived="0" entered="29" left="31" laneChangedFrom="0" laneChangedTo="0"/>
        <edge id="-d" sampledSeconds="268.02" traveltime="10.04" overlapTraveltime="10.40" density="21.72" laneDensity="21.72" occupancy="10.64" waitingTime="0.00" timeLoss="86.64" speed="9.40" speedRelative="0.68" departed="25" arrived="0" entered="0" left="28" laneChangedFrom="0" laneChangedTo="0"/>
        <edge id="b" sampledSeconds="835.21" traveltime="1029.96" overlapTraveltime="902.91" density="21.74" laneDensity="10.87" occupancy="5.41" waitingTime="759.00" timeLoss="812.25" speed="0.33" speedRelative="0.02" departed="0" arrived="0" entered="0" left="8" laneChangedFrom="0" laneChangedTo="0"/>
        <edge id="g" sampledSeconds="90.49" traveltime="9.33" overlapTraveltime="10.05" density="7.66" laneDensity="7.66" occupancy="3.57" waitingTime="0.00" timeLoss="29.71" speed="9.33" speedRelative="0.67" departed="0" arrived="0" entered="9" left="9" laneChangedFrom="0" laneChangedTo="0"/>
        <edge id="h" sampledSeconds="76.27" traveltime="7.36" overlapTraveltime="7.75" density="6.18" laneDensity="6.18" occupancy="2.94" waitingTime="0.00" timeLoss="6.99" speed="12.62" speedRelative="0.91" departed="0" arrived="10" entered="9" left="0" laneChangedFrom="0" laneChangedTo="0"/>
    </interval>
</meandata>
