<?xml version="1.0" encoding="UTF-8"?>

<!-- generated on 2025-09-25T13:45:35.115368+01:00 by Eclipse SUMO sumo v1_24_0+0988-90d076c371e
This data file and the accompanying materials
are made available under the terms of the Eclipse Public License v2.0
which accompanies this distribution, and is available at
http://www.eclipse.org/legal/epl-v20.html
This file may also be made available under the following Secondary
Licenses when the conditions for such availability set forth in the Eclipse
Public License 2.0 are satisfied: GNU General Public License, version 2
or later which is available at
https://www.gnu.org/licenses/old-licenses/gpl-2.0-standalone.html
SPDX-License-Identifier: EPL-2.0 OR GPL-2.0-or-later
<sumoConfiguration xmlns:xsi="http://www.w3.org/2001/XMLSchema-instance" xsi:noNamespaceSchemaLocation="http://sumo.dlr.de/xsd/sumoConfiguration.xsd">

    <input>
        <net-file value="net.net.xml"/>
        <route-files value="input_routes.rou.xml"/>
        <additional-files value="input_additional.add.xml"/>
    </input>

    <output>
        <write-license value="true"/>
        <vehroute-output value="vehroutes.xml"/>
    </output>

    <processing>
        <ignore-route-errors value="true"/>
        <default.speeddev value="0"/>
    </processing>

    <routing>
        <device.rerouting.probability value="0.3"/>
        <device.rerouting.pre-period value="0"/>
    </routing>

    <report>
        <xml-validation value="never"/>
        <duration-log.statistics value="true"/>
        <no-step-log value="true"/>
    </report>

    <random_number>
        <seed value="42"/>
    </random_number>

</sumoConfiguration>
-->

<routes xmlns:xsi="http://www.w3.org/2001/XMLSchema-instance" xsi:noNamespaceSchemaLocation="http://sumo.dlr.de/xsd/routes_file.xsd">
    <vehicle id="flow.0" depart="0.00" departLane="0" departSpeed="27.80" speedFactor="1.0000" arrival="38.00">
        <route edges="beg beg2 middle end"/>
    </vehicle>

    <vehicle id="flow.1" depart="1.00" departLane="1" departSpeed="27.80" speedFactor="1.0000" arrival="38.00">
        <route edges="beg beg2 middle end"/>
    </vehicle>

    <vehicle id="flow.26" depart="19.00" departLane="0" departSpeed="27.80" speedFactor="1.0000" arrival="79.00">
        <routeDistribution>
            <route replacedOnEdge="beg" reason="rerouter" replacedAtTime="20.00" probability="0" edges="beg beg2 middle end"/>
            <route edges="beg detour end"/>
        </routeDistribution>
    </vehicle>

    <vehicle id="flow.27" depart="19.00" departLane="2" departSpeed="27.80" speedFactor="1.0000" arrival="81.00">
        <routeDistribution>
            <route replacedOnEdge="beg" reason="rerouter" replacedAtTime="20.00" probability="0" edges="beg beg2 middle end"/>
            <route edges="beg detour end"/>
        </routeDistribution>
    </vehicle>

    <vehicle id="flow.28" depart="20.00" departLane="1" departSpeed="27.80" speedFactor="1.0000" arrival="82.00">
        <routeDistribution>
            <route replacedOnEdge="beg" reason="rerouter" replacedAtTime="20.00" probability="0" edges="beg beg2 middle end"/>
            <route edges="beg detour end"/>
        </routeDistribution>
    </vehicle>

    <vehicle id="flow.30" depart="21.00" departLane="2" departSpeed="27.80" speedFactor="1.0000" arrival="84.00">
        <routeDistribution>
            <route replacedOnEdge="beg" reason="rerouter" replacedAtTime="21.00" probability="0" edges="beg beg2 middle end"/>
            <route edges="beg detour end"/>
        </routeDistribution>
    </vehicle>

    <vehicle id="flow.35" depart="25.00" departLane="2" departSpeed="27.80" speedFactor="1.0000" arrival="88.00">
        <routeDistribution>
            <route replacedOnEdge="beg" reason="rerouter" replacedAtTime="25.00" probability="0" edges="beg beg2 middle end"/>
            <route edges="beg detour end"/>
        </routeDistribution>
    </vehicle>

    <vehicle id="flow.37" depart="26.00" departLane="1" departSpeed="27.80" speedFactor="1.0000" arrival="92.00">
        <routeDistribution>
            <route replacedOnEdge="beg" reason="rerouter" replacedAtTime="26.00" probability="0" edges="beg beg2 middle end"/>
            <route edges="beg detour end"/>
        </routeDistribution>
    </vehicle>

    <vehicle id="flow.38" depart="27.00" departLane="2" departSpeed="27.80" speedFactor="1.0000" arrival="93.00">
        <routeDistribution>
            <route replacedOnEdge="beg" reason="rerouter" replacedAtTime="27.00" probability="0" edges="beg beg2 middle end"/>
            <route edges="beg detour end"/>
        </routeDistribution>
    </vehicle>

    <vehicle id="flow.44" depart="31.00" departLane="2" departSpeed="27.6766" speedFactor="1.0000" arrival="95.00">
        <routeDistribution>
            <route replacedOnEdge="beg" reason="rerouter" replacedAtTime="31.00" probability="0" edges="beg beg2 middle end"/>
            <route edges="beg detour end"/>
        </routeDistribution>
    </vehicle>

    <vehicle id="flow.42" depart="30.00" departLane="0" departSpeed="26.6832" speedFactor="1.0000" arrival="98.00">
        <routeDistribution>
            <route replacedOnEdge="beg" reason="rerouter" replacedAtTime="30.00" probability="0" edges="beg beg2 middle end"/>
            <route edges="beg detour end"/>
        </routeDistribution>
    </vehicle>

    <vehicle id="flow.49" depart="35.00" departLane="2" departSpeed="27.80" speedFactor="1.0000" arrival="100.00">
        <routeDistribution>
            <route replacedOnEdge="beg" reason="rerouter" replacedAtTime="35.00" probability="0" edges="beg beg2 middle end"/>
            <route edges="beg detour end"/>
        </routeDistribution>
    </vehicle>

    <vehicle id="flow.43" depart="31.00" departLane="1" departSpeed="25.433" speedFactor="1.0000" arrival="102.00">
        <routeDistribution>
            <route replacedOnEdge="beg" reason="rerouter" replacedAtTime="31.00" probability="0" edges="beg beg2 middle end"/>
            <route edges="beg detour end"/>
        </routeDistribution>
    </vehicle>

    <vehicle id="flow.52" depart="37.00" departLane="1" departSpeed="22.9327" speedFactor="1.0000" arrival="104.00">
        <routeDistribution>
            <route replacedOnEdge="beg" reason="rerouter" replacedAtTime="37.00" probability="0" edges="beg beg2 middle end"/>
            <route edges="beg detour end"/>
        </routeDistribution>
    </vehicle>

    <vehicle id="flow.47" depart="33.00" departLane="1" departSpeed="24.1828" speedFactor="1.0000" arrival="105.00">
        <routeDistribution>
            <route replacedOnEdge="beg" reason="rerouter" replacedAtTime="33.00" probability="0" edges="beg beg2 middle end"/>
            <route edges="beg detour end"/>
        </routeDistribution>
    </vehicle>

    <vehicle id="flow.58" depart="41.00" departLane="1" departSpeed="24.4396" speedFactor="1.0000" arrival="109.00">
        <routeDistribution>
            <route replacedOnEdge="beg" reason="rerouter" replacedAtTime="41.00" probability="0" edges="beg beg2 middle end"/>
            <route edges="beg detour end"/>
        </routeDistribution>
    </vehicle>

    <vehicle id="flow.62" depart="44.00" departLane="2" departSpeed="27.80" speedFactor="1.0000" arrival="112.00">
        <routeDistribution>
            <route replacedOnEdge="beg" reason="rerouter" replacedAtTime="44.00" probability="0" edges="beg beg2 middle end"/>
            <route edges="beg detour end"/>
        </routeDistribution>
    </vehicle>

    <vehicle id="flow.64" depart="45.00" departLane="1" departSpeed="25.1966" speedFactor="1.0000" arrival="114.00">
        <routeDistribution>
            <route replacedOnEdge="beg" reason="rerouter" replacedAtTime="45.00" probability="0" edges="beg beg2 middle end"/>
            <route edges="beg detour end"/>
        </routeDistribution>
    </vehicle>

    <vehicle id="flow.65" depart="46.00" departLane="2" departSpeed="27.80" speedFactor="1.0000" arrival="116.00">
        <routeDistribution>
            <route replacedOnEdge="beg" reason="rerouter" replacedAtTime="46.00" probability="0" edges="beg beg2 middle end"/>
            <route edges="beg detour end"/>
        </routeDistribution>
    </vehicle>

    <vehicle id="flow.73" depart="52.00" departLane="0" departSpeed="19.4866" speedFactor="1.0000" arrival="121.00">
        <routeDistribution>
            <route replacedOnEdge="beg" reason="rerouter" replacedAtTime="52.00" probability="0" edges="beg beg2 middle end"/>
            <route edges="beg detour end"/>
        </routeDistribution>
    </vehicle>

    <vehicle id="flow.75" depart="53.00" departLane="1" departSpeed="24.3721" speedFactor="1.0000" arrival="123.00">
        <routeDistribution>
            <route replacedOnEdge="beg" reason="rerouter" replacedAtTime="53.00" probability="0" edges="beg beg2 middle end"/>
            <route edges="beg detour end"/>
        </routeDistribution>
    </vehicle>

    <vehicle id="flow.74" depart="52.00" departLane="2" departSpeed="25.6223" speedFactor="1.0000" arrival="125.00">
        <routeDistribution>
            <route replacedOnEdge="beg" reason="rerouter" replacedAtTime="52.00" probability="0" edges="beg beg2 middle end"/>
            <route edges="beg detour end"/>
        </routeDistribution>
    </vehicle>

    <vehicle id="flow.77" depart="54.00" departLane="0" departSpeed="19.1444" speedFactor="1.0000" arrival="127.00">
        <routeDistribution>
            <route replacedOnEdge="beg" reason="rerouter" replacedAtTime="54.00" probability="0" edges="beg beg2 middle end"/>
            <route edges="beg detour end"/>
        </routeDistribution>
    </vehicle>

    <vehicle id="flow.85" depart="60.00" departLane="2" departSpeed="21.1763" speedFactor="1.0000" arrival="128.00">
        <routeDistribution>
            <route replacedOnEdge="beg" reason="rerouter" replacedAtTime="60.00" probability="0" edges="beg beg2 middle end"/>
            <route edges="beg detour end"/>
        </routeDistribution>
    </vehicle>

    <vehicle id="flow.88" depart="62.00" departLane="2" departSpeed="20.0349" speedFactor="1.0000" arrival="130.00">
        <routeDistribution>
            <route replacedOnEdge="beg" reason="rerouter" replacedAtTime="62.00" probability="0" edges="beg beg2 middle end"/>
            <route edges="beg detour end"/>
        </routeDistribution>
    </vehicle>

    <vehicle id="flow.80" depart="56.00" departLane="0" departSpeed="17.8966" speedFactor="1.0000" arrival="131.00">
        <routeDistribution>
            <route replacedOnEdge="beg" reason="rerouter" replacedAtTime="56.00" probability="0" edges="beg beg2 middle end"/>
            <route edges="beg detour end"/>
        </routeDistribution>
    </vehicle>

    <vehicle id="flow.84" depart="59.00" departLane="1" departSpeed="20.2459" speedFactor="1.0000" arrival="133.00">
        <routeDistribution>
            <route replacedOnEdge="beg" reason="rerouter" replacedAtTime="59.00" probability="0" edges="beg beg2 middle end"/>
            <route edges="beg detour end"/>
        </routeDistribution>
    </vehicle>

    <vehicle id="flow.89" depart="63.00" departLane="0" departSpeed="17.2626" speedFactor="1.0000" arrival="136.00">
        <routeDistribution>
            <route replacedOnEdge="beg" reason="rerouter" replacedAtTime="63.00" probability="0" edges="beg beg2 middle end"/>
            <route edges="beg detour end"/>
        </routeDistribution>
    </vehicle>

    <vehicle id="flow.99" depart="70.00" departLane="1" departSpeed="14.9057" speedFactor="1.0000" arrival="138.00">
        <routeDistribution>
            <route replacedOnEdge="beg" reason="rerouter" replacedAtTime="70.00" probability="0" edges="beg beg2 middle end"/>
            <route edges="beg detour end"/>
        </routeDistribution>
    </vehicle>

    <vehicle id="flow.2" depart="2.00" departLane="2" departSpeed="27.80" speedFactor="1.0000" arrival="139.00">
        <route edges="beg beg2 middle end"/>
    </vehicle>

    <vehicle id="flow.3" depart="3.00" departLane="0" departSpeed="27.80" speedFactor="1.0000" arrival="139.00">
        <route edges="beg beg2 middle end"/>
    </vehicle>

    <vehicle id="flow.4" depart="3.00" departLane="1" departSpeed="27.80" speedFactor="1.0000" arrival="139.00">
        <route edges="beg beg2 middle end"/>
    </vehicle>

    <vehicle id="flow.5" depart="4.00" departLane="2" departSpeed="27.80" speedFactor="1.0000" arrival="140.00">
        <route edges="beg beg2 middle end"/>
    </vehicle>

    <vehicle id="flow.6" depart="5.00" departLane="0" departSpeed="27.80" speedFactor="1.0000" arrival="140.00">
        <route edges="beg beg2 middle end"/>
    </vehicle>

    <vehicle id="flow.7" depart="5.00" departLane="1" departSpeed="27.80" speedFactor="1.0000" arrival="140.00">
        <route edges="beg beg2 middle end"/>
    </vehicle>

    <vehicle id="flow.95" depart="67.00" departLane="0" departSpeed="13.5121" speedFactor="1.0000" arrival="140.00">
        <routeDistribution>
            <route replacedOnEdge="beg" reason="rerouter" replacedAtTime="67.00" probability="0" edges="beg beg2 middle end"/>
            <route edges="beg detour end"/>
        </routeDistribution>
    </vehicle>

    <vehicle id="flow.8" depart="6.00" departLane="2" departSpeed="27.80" speedFactor="1.0000" arrival="141.00">
        <route edges="beg beg2 middle end"/>
    </vehicle>

    <vehicle id="flow.9" depart="7.00" departLane="0" departSpeed="27.80" speedFactor="1.0000" arrival="141.00">
        <route edges="beg beg2 middle end"/>
    </vehicle>

    <vehicle id="flow.10" depart="7.00" departLane="1" departSpeed="27.80" speedFactor="1.0000" arrival="141.00">
        <route edges="beg beg2 middle end"/>
    </vehicle>

    <vehicle id="flow.98" depart="69.00" departLane="0" departSpeed="12.8192" speedFactor="1.0000" arrival="141.00">
        <routeDistribution>
            <route replacedOnEdge="beg" reason="rerouter" replacedAtTime="69.00" probability="0" edges="beg beg2 middle end"/>
            <route edges="beg detour end"/>
        </routeDistribution>
    </vehicle>

    <vehicle id="flow.11" depart="8.00" departLane="2" departSpeed="27.80" speedFactor="1.0000" arrival="143.00">
        <route edges="beg beg2 middle end"/>
    </vehicle>

    <vehicle id="flow.12" depart="9.00" departLane="0" departSpeed="27.80" speedFactor="1.0000" arrival="143.00">
        <route edges="beg beg2 middle end"/>
    </vehicle>

    <vehicle id="flow.13" depart="10.00" departLane="1" departSpeed="27.80" speedFactor="1.0000" arrival="143.00">
        <route edges="beg beg2 middle end"/>
    </vehicle>

    <vehicle id="flow.14" depart="10.00" departLane="2" departSpeed="27.80" speedFactor="1.0000" arrival="144.00">
        <route edges="beg beg2 middle end"/>
    </vehicle>

    <vehicle id="flow.15" depart="11.00" departLane="0" departSpeed="27.80" speedFactor="1.0000" arrival="144.00">
        <route edges="beg beg2 middle end"/>
    </vehicle>

    <vehicle id="flow.16" depart="12.00" departLane="1" departSpeed="27.80" speedFactor="1.0000" arrival="144.00">
        <route edges="beg beg2 middle end"/>
    </vehicle>

    <vehicle id="flow.112" depart="79.00" departLane="1" departSpeed="10.8763" speedFactor="1.0000" arrival="144.00">
        <routeDistribution>
            <route replacedOnEdge="beg" reason="rerouter" replacedAtTime="79.00" probability="0" edges="beg beg2 middle end"/>
            <route edges="beg detour end"/>
        </routeDistribution>
    </vehicle>

    <vehicle id="flow.17" depart="12.00" departLane="2" departSpeed="27.80" speedFactor="1.0000" arrival="145.00">
        <route edges="beg beg2 middle end"/>
    </vehicle>

    <vehicle id="flow.18" depart="13.00" departLane="0" departSpeed="27.80" speedFactor="1.0000" arrival="145.00">
        <route edges="beg beg2 middle end"/>
    </vehicle>

    <vehicle id="flow.19" depart="14.00" departLane="1" departSpeed="27.80" speedFactor="1.0000" arrival="145.00">
        <route edges="beg beg2 middle end"/>
    </vehicle>

    <vehicle id="flow.20" depart="14.00" departLane="2" departSpeed="27.80" speedFactor="1.0000" arrival="146.00">
        <route edges="beg beg2 middle end"/>
    </vehicle>

    <vehicle id="flow.21" depart="15.00" departLane="0" departSpeed="27.80" speedFactor="1.0000" arrival="146.00">
        <route edges="beg beg2 middle end"/>
    </vehicle>

    <vehicle id="flow.22" depart="16.00" departLane="1" departSpeed="27.80" speedFactor="1.0000" arrival="147.00">
        <route edges="beg beg2 middle end"/>
    </vehicle>

    <vehicle id="flow.23" depart="17.00" departLane="2" departSpeed="27.80" speedFactor="1.0000" arrival="148.00">
        <route edges="beg beg2 middle end"/>
    </vehicle>

    <vehicle id="flow.24" depart="17.00" departLane="0" departSpeed="27.80" speedFactor="1.0000" arrival="148.00">
        <route edges="beg beg2 middle end"/>
    </vehicle>

    <vehicle id="flow.25" depart="18.00" departLane="1" departSpeed="27.80" speedFactor="1.0000" arrival="148.00">
        <route edges="beg beg2 middle end"/>
    </vehicle>

    <vehicle id="flow.116" depart="82.00" departLane="2" departSpeed="17.8387" speedFactor="1.0000" arrival="148.00">
        <routeDistribution>
            <route replacedOnEdge="beg" reason="rerouter" replacedAtTime="82.00" probability="0" edges="beg beg2 middle end"/>
            <route edges="beg detour end"/>
        </routeDistribution>
    </vehicle>

    <vehicle id="flow.31" depart="22.00" departLane="1" departSpeed="27.4494" speedFactor="1.0000" arrival="149.00">
        <route edges="beg beg2 middle end"/>
    </vehicle>

    <vehicle id="flow.32" depart="23.00" departLane="2" departSpeed="27.80" speedFactor="1.0000" arrival="149.00">
        <route edges="beg beg2 middle end"/>
    </vehicle>

    <vehicle id="flow.33" depart="24.00" departLane="0" departSpeed="27.80" speedFactor="1.0000" arrival="149.00">
        <route edges="beg beg2 middle end"/>
    </vehicle>

    <vehicle id="flow.29" depart="21.00" departLane="0" departSpeed="27.80" speedFactor="1.0000" arrival="150.00">
        <route edges="beg beg2 middle end"/>
    </vehicle>

    <vehicle id="flow.34" depart="24.00" departLane="1" departSpeed="26.4658" speedFactor="1.0000" arrival="150.00">
        <route edges="beg beg2 middle end"/>
    </vehicle>

    <vehicle id="flow.36" depart="26.00" departLane="0" departSpeed="27.80" speedFactor="1.0000" arrival="151.00">
        <route edges="beg beg2 middle end"/>
    </vehicle>

    <vehicle id="flow.39" depart="28.00" departLane="0" departSpeed="27.80" speedFactor="1.0000" arrival="151.00">
        <route edges="beg beg2 middle end"/>
    </vehicle>

    <vehicle id="flow.41" depart="29.00" departLane="2" departSpeed="27.80" speedFactor="1.0000" arrival="151.00">
        <route edges="beg beg2 middle end"/>
    </vehicle>

    <vehicle id="flow.122" depart="86.00" departLane="1" departSpeed="18.506" speedFactor="1.0000" arrival="151.00">
        <routeDistribution>
            <route replacedOnEdge="beg" reason="rerouter" replacedAtTime="86.00" probability="0" edges="beg beg2 middle end"/>
            <route edges="beg detour end"/>
        </routeDistribution>
    </vehicle>

    <vehicle id="flow.40" depart="28.00" departLane="1" departSpeed="26.6832" speedFactor="1.0000" arrival="152.00">
        <route edges="beg beg2 middle end"/>
    </vehicle>

    <vehicle id="flow.114" depart="80.00" departLane="0" departSpeed="9.6651" speedFactor="1.0000" arrival="152.00">
        <routeDistribution>
            <route replacedOnEdge="beg" reason="rerouter" replacedAtTime="80.00" probability="0" edges="beg beg2 middle end"/>
            <route edges="beg detour end"/>
        </routeDistribution>
    </vehicle>

    <vehicle id="flow.45" depart="32.00" departLane="0" departSpeed="25.433" speedFactor="1.0000" arrival="153.00">
        <route edges="beg beg2 middle end"/>
    </vehicle>

    <vehicle id="flow.46" depart="33.00" departLane="2" departSpeed="27.80" speedFactor="1.0000" arrival="153.00">
        <route edges="beg beg2 middle end"/>
    </vehicle>

    <vehicle id="flow.56" depart="40.00" departLane="2" departSpeed="27.1462" speedFactor="1.0000" arrival="153.00">
        <route edges="beg beg2 middle end"/>
    </vehicle>

    <vehicle id="flow.50" depart="35.00" departLane="1" departSpeed="22.9327" speedFactor="1.0000" arrival="154.00">
        <route edges="beg beg2 middle end"/>
    </vehicle>

    <vehicle id="flow.54" depart="38.00" departLane="0" departSpeed="21.519" speedFactor="1.0000" arrival="154.00">
        <route edges="beg beg2 middle end"/>
    </vehicle>

    <vehicle id="flow.55" depart="39.00" departLane="1" departSpeed="23.8121" speedFactor="1.0000" arrival="154.00">
        <route edges="beg beg2 middle end"/>
    </vehicle>

    <vehicle id="flow.53" depart="38.00" departLane="2" departSpeed="26.6214" speedFactor="1.0000" arrival="155.00">
        <route edges="beg beg2 middle end"/>
    </vehicle>

    <vehicle id="flow.60" depart="42.00" departLane="0" departSpeed="22.4274" speedFactor="1.0000" arrival="155.00">
        <route edges="beg beg2 middle end"/>
    </vehicle>

    <vehicle id="flow.128" depart="90.00" departLane="1" departSpeed="21.0798" speedFactor="1.0000" arrival="155.00">
        <routeDistribution>
            <route replacedOnEdge="beg" reason="rerouter" replacedAtTime="90.00" probability="0" edges="beg beg2 middle end"/>
            <route edges="beg detour end"/>
        </routeDistribution>
    </vehicle>

    <vehicle id="flow.51" depart="36.00" departLane="0" departSpeed="22.9327" speedFactor="1.0000" arrival="156.00">
        <route edges="beg beg2 middle end"/>
    </vehicle>

    <vehicle id="flow.57" depart="40.00" departLane="0" departSpeed="20.4228" speedFactor="1.0000" arrival="157.00">
        <route edges="beg beg2 middle end"/>
    </vehicle>

    <vehicle id="flow.59" depart="42.00" departLane="2" departSpeed="27.80" speedFactor="1.0000" arrival="157.00">
        <route edges="beg beg2 middle end"/>
    </vehicle>

    <vehicle id="flow.63" depart="45.00" departLane="0" departSpeed="23.7393" speedFactor="1.0000" arrival="157.00">
        <route edges="beg beg2 middle end"/>
    </vehicle>

    <vehicle id="flow.48" depart="34.00" departLane="0" departSpeed="24.1828" speedFactor="1.0000" arrival="158.00">
        <route edges="beg beg2 middle end"/>
    </vehicle>

    <vehicle id="flow.61" depart="43.00" departLane="1" departSpeed="24.8932" speedFactor="1.0000" arrival="158.00">
        <route edges="beg beg2 middle end"/>
    </vehicle>

    <vehicle id="flow.67" depart="47.00" departLane="0" departSpeed="22.487" speedFactor="1.0000" arrival="158.00">
        <route edges="beg beg2 middle end"/>
    </vehicle>

    <vehicle id="flow.66" depart="47.00" departLane="1" departSpeed="23.9464" speedFactor="1.0000" arrival="159.00">
        <route edges="beg beg2 middle end"/>
    </vehicle>

    <vehicle id="flow.68" depart="48.00" departLane="2" departSpeed="27.6766" speedFactor="1.0000" arrival="159.00">
        <route edges="beg beg2 middle end"/>
    </vehicle>

    <vehicle id="flow.70" depart="49.00" departLane="0" departSpeed="20.9868" speedFactor="1.0000" arrival="159.00">
        <route edges="beg beg2 middle end"/>
    </vehicle>

    <vehicle id="flow.71" depart="50.00" departLane="2" departSpeed="26.8724" speedFactor="1.0000" arrival="160.00">
        <route edges="beg beg2 middle end"/>
    </vehicle>

    <vehicle id="flow.72" depart="51.00" departLane="1" departSpeed="22.1448" speedFactor="1.0000" arrival="160.00">
        <route edges="beg beg2 middle end"/>
    </vehicle>

    <vehicle id="flow.69" depart="49.00" departLane="1" departSpeed="22.6963" speedFactor="1.0000" arrival="161.00">
        <route edges="beg beg2 middle end"/>
    </vehicle>

    <vehicle id="flow.76" depart="54.00" departLane="2" departSpeed="24.3721" speedFactor="1.0000" arrival="162.00">
        <route edges="beg beg2 middle end"/>
    </vehicle>

    <vehicle id="flow.78" depart="55.00" departLane="1" departSpeed="23.1219" speedFactor="1.0000" arrival="162.00">
        <route edges="beg beg2 middle end"/>
    </vehicle>

    <vehicle id="flow.82" depart="58.00" departLane="2" departSpeed="22.4495" speedFactor="1.0000" arrival="162.00">
        <route edges="beg beg2 middle end"/>
    </vehicle>

    <vehicle id="flow.79" depart="56.00" departLane="2" departSpeed="23.1219" speedFactor="1.0000" arrival="163.00">
        <route edges="beg beg2 middle end"/>
    </vehicle>

    <vehicle id="flow.83" depart="59.00" departLane="0" departSpeed="20.4104" speedFactor="1.0000" arrival="163.00">
        <route edges="beg beg2 middle end"/>
    </vehicle>

    <vehicle id="flow.86" depart="61.00" departLane="0" departSpeed="18.9102" speedFactor="1.0000" arrival="163.00">
        <route edges="beg beg2 middle end"/>
    </vehicle>

    <vehicle id="flow.81" depart="57.00" departLane="1" departSpeed="21.7461" speedFactor="1.0000" arrival="164.00">
        <route edges="beg beg2 middle end"/>
    </vehicle>

    <vehicle id="flow.87" depart="61.00" departLane="1" departSpeed="18.7457" speedFactor="1.0000" arrival="164.00">
        <route edges="beg beg2 middle end"/>
    </vehicle>

    <vehicle id="flow.90" depart="63.00" departLane="1" departSpeed="17.0569" speedFactor="1.0000" arrival="164.00">
        <route edges="beg beg2 middle end"/>
    </vehicle>

    <vehicle id="flow.91" depart="64.00" departLane="2" departSpeed="18.7311" speedFactor="1.0000" arrival="165.00">
        <route edges="beg beg2 middle end"/>
    </vehicle>

    <vehicle id="flow.92" depart="65.00" departLane="0" departSpeed="15.3873" speedFactor="1.0000" arrival="166.00">
        <route edges="beg beg2 middle end"/>
    </vehicle>

    <vehicle id="flow.93" depart="66.00" departLane="1" departSpeed="16.781" speedFactor="1.0000" arrival="166.00">
        <route edges="beg beg2 middle end"/>
    </vehicle>

    <vehicle id="flow.94" depart="66.00" departLane="2" departSpeed="18.3185" speedFactor="1.0000" arrival="167.00">
        <route edges="beg beg2 middle end"/>
    </vehicle>

    <vehicle id="flow.101" depart="71.00" departLane="0" departSpeed="10.9413" speedFactor="1.0000" arrival="167.00">
        <route edges="beg beg2 middle end"/>
    </vehicle>

    <vehicle id="flow.103" depart="73.00" departLane="0" departSpeed="11.8673" speedFactor="1.0000" arrival="167.00">
        <route edges="beg beg2 middle end"/>
    </vehicle>

    <vehicle id="flow.96" depart="68.00" departLane="2" departSpeed="17.4867" speedFactor="1.0000" arrival="168.00">
        <route edges="beg beg2 middle end"/>
    </vehicle>

    <vehicle id="flow.104" depart="73.00" departLane="1" departSpeed="9.3669" speedFactor="1.0000" arrival="168.00">
        <route edges="beg beg2 middle end"/>
    </vehicle>

    <vehicle id="flow.106" depart="75.00" departLane="0" departSpeed="10.2336" speedFactor="1.0000" arrival="168.00">
        <route edges="beg beg2 middle end"/>
    </vehicle>

    <vehicle id="flow.97" depart="68.00" departLane="1" departSpeed="14.9057" speedFactor="1.0000" arrival="169.00">
        <route edges="beg beg2 middle end"/>
    </vehicle>

    <vehicle id="flow.100" depart="70.00" departLane="2" departSpeed="12.874" speedFactor="1.0000" arrival="170.00">
        <route edges="beg beg2 middle end"/>
    </vehicle>

    <vehicle id="flow.107" depart="75.00" departLane="1" departSpeed="10.7066" speedFactor="1.0000" arrival="170.00">
        <route edges="beg beg2 middle end"/>
    </vehicle>

    <vehicle id="flow.110" depart="77.00" departLane="0" departSpeed="8.3999" speedFactor="1.0000" arrival="170.00">
        <route edges="beg beg2 middle end"/>
    </vehicle>

    <vehicle id="flow.109" depart="77.00" departLane="1" departSpeed="11.673" speedFactor="1.0000" arrival="171.00">
        <route edges="beg beg2 middle end"/>
    </vehicle>

    <vehicle id="flow.118" depart="83.00" departLane="0" departSpeed="11.128" speedFactor="1.0000" arrival="171.00">
        <route edges="beg beg2 middle end"/>
    </vehicle>

    <vehicle id="flow.102" depart="72.00" departLane="2" departSpeed="15.7067" speedFactor="1.0000" arrival="172.00">
        <route edges="beg beg2 middle end"/>
    </vehicle>

    <vehicle id="flow.108" depart="76.00" departLane="2" departSpeed="15.078" speedFactor="1.0000" arrival="172.00">
        <route edges="beg beg2 middle end"/>
    </vehicle>

    <vehicle id="flow.121" depart="85.00" departLane="0" departSpeed="12.3532" speedFactor="1.0000" arrival="172.00">
        <route edges="beg beg2 middle end"/>
    </vehicle>

    <vehicle id="flow.105" depart="74.00" departLane="2" departSpeed="15.6755" speedFactor="1.0000" arrival="173.00">
        <route edges="beg beg2 middle end"/>
    </vehicle>

    <vehicle id="flow.115" depart="81.00" departLane="1" departSpeed="13.1909" speedFactor="1.0000" arrival="173.00">
        <route edges="beg beg2 middle end"/>
    </vehicle>

    <vehicle id="flow.125" depart="88.00" departLane="1" departSpeed="17.4503" speedFactor="1.0000" arrival="173.00">
        <route edges="beg beg2 middle end"/>
    </vehicle>

    <vehicle id="flow.111" depart="78.00" departLane="2" departSpeed="14.2504" speedFactor="1.0000" arrival="174.00">
        <route edges="beg beg2 middle end"/>
    </vehicle>

    <vehicle id="flow.117" depart="82.00" departLane="0" departSpeed="9.1357" speedFactor="1.0000" arrival="175.00">
        <route edges="beg beg2 middle end"/>
    </vehicle>

    <vehicle id="flow.113" depart="80.00" departLane="2" departSpeed="15.4343" speedFactor="1.0000" arrival="176.00">
        <route edges="beg beg2 middle end"/>
    </vehicle>

    <vehicle id="flow.124" depart="87.00" departLane="0" departSpeed="13.8866" speedFactor="1.0000" arrival="176.00">
        <route edges="beg beg2 middle end"/>
    </vehicle>
