<?xml version="1.0" encoding="UTF-8"?>

<!-- generated on 2022-04-05 10:31:25 by Eclipse SUMO sumo Version v1_12_0+1949-1d2ae20f770
This data file and the accompanying materials
are made available under the terms of the Eclipse Public License v2.0
which accompanies this distribution, and is available at
http://www.eclipse.org/legal/epl-v20.html
This file may also be made available under the following Secondary
Licenses when the conditions for such availability set forth in the Eclipse
Public License 2.0 are satisfied: GNU General Public License, version 2
or later which is available at
https://www.gnu.org/licenses/old-licenses/gpl-2.0-standalone.html
SPDX-License-Identifier: EPL-2.0 OR GPL-2.0-or-later
<configuration xmlns:xsi="http://www.w3.org/2001/XMLSchema-instance" xsi:noNamespaceSchemaLocation="http://sumo.dlr.de/xsd/sumoConfiguration.xsd">

    <input>
        <net-file value="net.net.xml"/>
        <route-files value="input_routes.rou.xml"/>
        <additional-files value="input_additional.add.xml"/>
    </input>

    <output>
        <write-license value="true"/>
        <vehroute-output value="vehroutes.xml"/>
    </output>

    <processing>
        <ignore-route-errors value="true"/>
        <default.speeddev value="0"/>
        <pedestrian.model value="nonInteracting"/>
    </processing>

    <routing>
        <device.rerouting.probability value="0.3"/>
        <device.rerouting.pre-period value="0"/>
    </routing>

    <report>
        <verbose value="true"/>
        <xml-validation value="never"/>
        <xml-validation.routes value="never"/>
        <duration-log.statistics value="true"/>
        <no-step-log value="true"/>
    </report>

    <mesoscopic>
        <mesosim value="true"/>
    </mesoscopic>

    <random_number>
        <seed value="42"/>
    </random_number>

</configuration>
-->

<routes xmlns:xsi="http://www.w3.org/2001/XMLSchema-instance" xsi:noNamespaceSchemaLocation="http://sumo.dlr.de/xsd/routes_file.xsd">
    <vehicle id="flow.28" depart="20.00" departLane="free" departSpeed="27.80" speedFactor="1.0000" arrival="78.00">
        <routeDistribution>
            <route replacedOnEdge="beg" reason="rerouter" replacedAtTime="20.00" probability="0" edges="beg beg2 middle end"/>
            <route edges="beg detour end"/>
        </routeDistribution>
    </vehicle>

    <vehicle id="flow.30" depart="21.00" departLane="free" departSpeed="24.6184" speedFactor="1.0000" arrival="80.00">
        <routeDistribution>
            <route replacedOnEdge="beg" reason="rerouter" replacedAtTime="21.00" probability="0" edges="beg beg2 middle end"/>
            <route edges="beg detour end"/>
        </routeDistribution>
    </vehicle>

    <vehicle id="flow.35" depart="25.00" departLane="free" departSpeed="27.80" speedFactor="1.0000" arrival="83.00">
        <routeDistribution>
            <route replacedOnEdge="beg" reason="rerouter" replacedAtTime="25.00" probability="0" edges="beg beg2 middle end"/>
            <route edges="beg detour end"/>
        </routeDistribution>
    </vehicle>

    <vehicle id="flow.37" depart="26.00" departLane="free" departSpeed="24.6184" speedFactor="1.0000" arrival="85.00">
        <routeDistribution>
            <route replacedOnEdge="beg" reason="rerouter" replacedAtTime="26.00" probability="0" edges="beg beg2 middle end"/>
            <route edges="beg detour end"/>
        </routeDistribution>
    </vehicle>

    <vehicle id="flow.38" depart="27.00" departLane="free" departSpeed="27.80" speedFactor="1.0000" arrival="87.00">
        <routeDistribution>
            <route replacedOnEdge="beg" reason="rerouter" replacedAtTime="27.00" probability="0" edges="beg beg2 middle end"/>
            <route edges="beg detour end"/>
        </routeDistribution>
    </vehicle>

    <vehicle id="flow.42" depart="30.00" departLane="free" departSpeed="27.80" speedFactor="1.0000" arrival="90.00">
        <routeDistribution>
            <route replacedOnEdge="beg" reason="rerouter" replacedAtTime="30.00" probability="0" edges="beg beg2 middle end"/>
            <route edges="beg detour end"/>
        </routeDistribution>
    </vehicle>

    <vehicle id="flow.43" depart="31.00" departLane="free" departSpeed="27.80" speedFactor="1.0000" arrival="91.00">
        <routeDistribution>
            <route replacedOnEdge="beg" reason="rerouter" replacedAtTime="31.00" probability="0" edges="beg beg2 middle end"/>
            <route edges="beg detour end"/>
        </routeDistribution>
    </vehicle>

    <vehicle id="flow.44" depart="31.00" departLane="free" departSpeed="24.6184" speedFactor="1.0000" arrival="93.00">
        <routeDistribution>
            <route replacedOnEdge="beg" reason="rerouter" replacedAtTime="31.00" probability="0" edges="beg beg2 middle end"/>
            <route edges="beg detour end"/>
        </routeDistribution>
    </vehicle>

    <vehicle id="flow.47" depart="33.00" departLane="free" departSpeed="24.6184" speedFactor="1.0000" arrival="95.00">
        <routeDistribution>
            <route replacedOnEdge="beg" reason="rerouter" replacedAtTime="33.00" probability="0" edges="beg beg2 middle end"/>
            <route edges="beg detour end"/>
        </routeDistribution>
    </vehicle>

    <vehicle id="flow.49" depart="35.00" departLane="free" departSpeed="27.80" speedFactor="1.0000" arrival="96.00">
        <routeDistribution>
            <route replacedOnEdge="beg" reason="rerouter" replacedAtTime="35.00" probability="0" edges="beg beg2 middle end"/>
            <route edges="beg detour end"/>
        </routeDistribution>
    </vehicle>

    <vehicle id="flow.52" depart="37.00" departLane="free" departSpeed="27.80" speedFactor="1.0000" arrival="98.00">
        <routeDistribution>
            <route replacedOnEdge="beg" reason="rerouter" replacedAtTime="37.00" probability="0" edges="beg beg2 middle end"/>
            <route edges="beg detour end"/>
        </routeDistribution>
    </vehicle>

    <vehicle id="flow.58" depart="41.00" departLane="free" departSpeed="27.80" speedFactor="1.0000" arrival="101.00">
        <routeDistribution>
            <route replacedOnEdge="beg" reason="rerouter" replacedAtTime="41.00" probability="0" edges="beg beg2 middle end"/>
            <route edges="beg detour end"/>
        </routeDistribution>
    </vehicle>

    <vehicle id="flow.62" depart="44.00" departLane="free" departSpeed="27.80" speedFactor="1.0000" arrival="104.00">
        <routeDistribution>
            <route replacedOnEdge="beg" reason="rerouter" replacedAtTime="44.00" probability="0" edges="beg beg2 middle end"/>
            <route edges="beg detour end"/>
        </routeDistribution>
    </vehicle>

    <vehicle id="flow.64" depart="45.00" departLane="free" departSpeed="24.6184" speedFactor="1.0000" arrival="105.00">
        <routeDistribution>
            <route replacedOnEdge="beg" reason="rerouter" replacedAtTime="45.00" probability="0" edges="beg beg2 middle end"/>
            <route edges="beg detour end"/>
        </routeDistribution>
    </vehicle>

    <vehicle id="flow.65" depart="46.00" departLane="free" departSpeed="27.80" speedFactor="1.0000" arrival="107.00">
        <routeDistribution>
            <route replacedOnEdge="beg" reason="rerouter" replacedAtTime="46.00" probability="0" edges="beg beg2 middle end"/>
            <route edges="beg detour end"/>
        </routeDistribution>
    </vehicle>

    <vehicle id="flow.73" depart="52.00" departLane="free" departSpeed="27.80" speedFactor="1.0000" arrival="111.00">
        <routeDistribution>
            <route replacedOnEdge="beg" reason="rerouter" replacedAtTime="52.00" probability="0" edges="beg beg2 middle end"/>
            <route edges="beg detour end"/>
        </routeDistribution>
    </vehicle>

    <vehicle id="flow.74" depart="52.00" departLane="free" departSpeed="24.6184" speedFactor="1.0000" arrival="113.00">
        <routeDistribution>
            <route replacedOnEdge="beg" reason="rerouter" replacedAtTime="52.00" probability="0" edges="beg beg2 middle end"/>
            <route edges="beg detour end"/>
        </routeDistribution>
    </vehicle>

    <vehicle id="flow.75" depart="53.00" departLane="free" departSpeed="27.80" speedFactor="1.0000" arrival="114.00">
        <routeDistribution>
            <route replacedOnEdge="beg" reason="rerouter" replacedAtTime="53.00" probability="0" edges="beg beg2 middle end"/>
            <route edges="beg detour end"/>
        </routeDistribution>
    </vehicle>

    <vehicle id="flow.77" depart="54.00" departLane="free" departSpeed="24.6184" speedFactor="1.0000" arrival="116.00">
        <routeDistribution>
            <route replacedOnEdge="beg" reason="rerouter" replacedAtTime="54.00" probability="0" edges="beg beg2 middle end"/>
            <route edges="beg detour end"/>
        </routeDistribution>
    </vehicle>

    <vehicle id="flow.80" depart="56.00" departLane="free" departSpeed="24.6184" speedFactor="1.0000" arrival="118.00">
        <routeDistribution>
            <route replacedOnEdge="beg" reason="rerouter" replacedAtTime="56.00" probability="0" edges="beg beg2 middle end"/>
            <route edges="beg detour end"/>
        </routeDistribution>
    </vehicle>

    <vehicle id="flow.0" depart="0.00" departLane="free" departSpeed="27.80" speedFactor="1.0000" arrival="130.00">
        <route edges="beg beg2 middle end"/>
    </vehicle>

    <vehicle id="flow.1" depart="1.00" departLane="free" departSpeed="27.80" speedFactor="1.0000" arrival="131.00">
        <route edges="beg beg2 middle end"/>
    </vehicle>

    <vehicle id="flow.2" depart="2.00" departLane="free" departSpeed="27.80" speedFactor="1.0000" arrival="131.00">
        <route edges="beg beg2 middle end"/>
    </vehicle>

    <vehicle id="flow.3" depart="3.00" departLane="free" departSpeed="27.80" speedFactor="1.0000" arrival="132.00">
        <route edges="beg beg2 middle end"/>
    </vehicle>

    <vehicle id="flow.4" depart="3.00" departLane="free" departSpeed="24.6184" speedFactor="1.0000" arrival="132.00">
        <route edges="beg beg2 middle end"/>
    </vehicle>

    <vehicle id="flow.5" depart="4.00" departLane="free" departSpeed="27.80" speedFactor="1.0000" arrival="133.00">
        <route edges="beg beg2 middle end"/>
    </vehicle>

    <vehicle id="flow.6" depart="5.00" departLane="free" departSpeed="27.80" speedFactor="1.0000" arrival="134.00">
        <route edges="beg beg2 middle end"/>
    </vehicle>

    <vehicle id="flow.7" depart="5.00" departLane="free" departSpeed="24.6184" speedFactor="1.0000" arrival="135.00">
        <route edges="beg beg2 middle end"/>
    </vehicle>

    <vehicle id="flow.8" depart="6.00" departLane="free" departSpeed="27.80" speedFactor="1.0000" arrival="135.00">
        <route edges="beg beg2 middle end"/>
    </vehicle>

    <vehicle id="flow.9" depart="7.00" departLane="free" departSpeed="27.80" speedFactor="1.0000" arrival="136.00">
        <route edges="beg beg2 middle end"/>
    </vehicle>

    <vehicle id="flow.10" depart="7.00" departLane="free" departSpeed="24.6184" speedFactor="1.0000" arrival="137.00">
        <route edges="beg beg2 middle end"/>
    </vehicle>

    <vehicle id="flow.84" depart="59.00" departLane="free" departSpeed="24.6184" speedFactor="1.0000" arrival="137.00">
        <routeDistribution>
            <route replacedOnEdge="beg" reason="rerouter" replacedAtTime="59.00" probability="0" edges="beg beg2 middle end"/>
            <route edges="beg detour end"/>
        </routeDistribution>
    </vehicle>

    <vehicle id="flow.11" depart="8.00" departLane="free" departSpeed="27.80" speedFactor="1.0000" arrival="138.00">
        <route edges="beg beg2 middle end"/>
    </vehicle>

    <vehicle id="flow.12" depart="9.00" departLane="free" departSpeed="27.80" speedFactor="1.0000" arrival="138.00">
        <route edges="beg beg2 middle end"/>
    </vehicle>

    <vehicle id="flow.13" depart="10.00" departLane="free" departSpeed="27.80" speedFactor="1.0000" arrival="139.00">
        <route edges="beg beg2 middle end"/>
    </vehicle>

    <vehicle id="flow.85" depart="60.00" departLane="free" departSpeed="27.80" speedFactor="1.0000" arrival="139.00">
        <routeDistribution>
            <route replacedOnEdge="beg" reason="rerouter" replacedAtTime="60.00" probability="0" edges="beg beg2 middle end"/>
            <route edges="beg detour end"/>
        </routeDistribution>
    </vehicle>

    <vehicle id="flow.14" depart="10.00" departLane="free" departSpeed="24.6184" speedFactor="1.0000" arrival="140.00">
        <route edges="beg beg2 middle end"/>
    </vehicle>

    <vehicle id="flow.15" depart="11.00" departLane="free" departSpeed="27.80" speedFactor="1.0000" arrival="140.00">
        <route edges="beg beg2 middle end"/>
    </vehicle>

    <vehicle id="flow.16" depart="12.00" departLane="free" departSpeed="27.80" speedFactor="1.0000" arrival="141.00">
        <route edges="beg beg2 middle end"/>
    </vehicle>

    <vehicle id="flow.88" depart="62.00" departLane="free" departSpeed="27.80" speedFactor="1.0000" arrival="141.00">
        <routeDistribution>
            <route replacedOnEdge="beg" reason="rerouter" replacedAtTime="62.00" probability="0" edges="beg beg2 middle end"/>
            <route edges="beg detour end"/>
        </routeDistribution>
    </vehicle>

    <vehicle id="flow.17" depart="12.00" departLane="free" departSpeed="24.6184" speedFactor="1.0000" arrival="142.00">
        <route edges="beg beg2 middle end"/>
    </vehicle>

    <vehicle id="flow.18" depart="13.00" departLane="free" departSpeed="27.80" speedFactor="1.0000" arrival="142.00">
        <route edges="beg beg2 middle end"/>
    </vehicle>

    <vehicle id="flow.19" depart="14.00" departLane="free" departSpeed="27.80" speedFactor="1.0000" arrival="143.00">
        <route edges="beg beg2 middle end"/>
    </vehicle>

    <vehicle id="flow.89" depart="63.00" departLane="free" departSpeed="27.80" speedFactor="1.0000" arrival="143.00">
        <routeDistribution>
            <route replacedOnEdge="beg" reason="rerouter" replacedAtTime="63.00" probability="0" edges="beg beg2 middle end"/>
            <route edges="beg detour end"/>
        </routeDistribution>
    </vehicle>

    <vehicle id="flow.20" depart="14.00" departLane="free" departSpeed="24.6184" speedFactor="1.0000" arrival="144.00">
        <route edges="beg beg2 middle end"/>
    </vehicle>

    <vehicle id="flow.21" depart="15.00" departLane="free" departSpeed="27.80" speedFactor="1.0000" arrival="144.00">
        <route edges="beg beg2 middle end"/>
    </vehicle>

    <vehicle id="flow.22" depart="16.00" departLane="free" departSpeed="27.80" speedFactor="1.0000" arrival="145.00">
        <route edges="beg beg2 middle end"/>
    </vehicle>

    <vehicle id="flow.23" depart="17.00" departLane="free" departSpeed="27.80" speedFactor="1.0000" arrival="145.00">
        <route edges="beg beg2 middle end"/>
    </vehicle>

    <vehicle id="flow.24" depart="17.00" departLane="free" departSpeed="24.6184" speedFactor="1.0000" arrival="146.00">
        <route edges="beg beg2 middle end"/>
    </vehicle>

    <vehicle id="flow.25" depart="18.00" departLane="free" departSpeed="27.80" speedFactor="1.0000" arrival="147.00">
        <route edges="beg beg2 middle end"/>
    </vehicle>

    <vehicle id="flow.26" depart="19.00" departLane="free" departSpeed="27.80" speedFactor="1.0000" arrival="147.00">
        <route edges="beg beg2 middle end"/>
    </vehicle>

    <vehicle id="flow.27" depart="19.00" departLane="free" departSpeed="24.6184" speedFactor="1.0000" arrival="148.00">
        <route edges="beg beg2 middle end"/>
    </vehicle>

    <vehicle id="flow.29" depart="21.00" departLane="free" departSpeed="27.80" speedFactor="1.0000" arrival="149.00">
        <route edges="beg beg2 middle end"/>
    </vehicle>

    <vehicle id="flow.31" depart="22.00" departLane="free" departSpeed="27.80" speedFactor="1.0000" arrival="149.00">
        <route edges="beg beg2 middle end"/>
    </vehicle>

    <vehicle id="flow.32" depart="23.00" departLane="free" departSpeed="27.80" speedFactor="1.0000" arrival="150.00">
        <route edges="beg beg2 middle end"/>
    </vehicle>

    <vehicle id="flow.33" depart="24.00" departLane="free" departSpeed="27.80" speedFactor="1.0000" arrival="151.00">
        <route edges="beg beg2 middle end"/>
    </vehicle>

    <vehicle id="flow.34" depart="24.00" departLane="free" departSpeed="24.6184" speedFactor="1.0000" arrival="151.00">
        <route edges="beg beg2 middle end"/>
    </vehicle>

    <vehicle id="flow.36" depart="26.00" departLane="free" departSpeed="27.80" speedFactor="1.0000" arrival="152.00">
        <route edges="beg beg2 middle end"/>
    </vehicle>

    <vehicle id="flow.39" depart="28.00" departLane="free" departSpeed="27.80" speedFactor="1.0000" arrival="153.00">
        <route edges="beg beg2 middle end"/>
    </vehicle>

    <vehicle id="flow.40" depart="28.00" departLane="free" departSpeed="24.6184" speedFactor="1.0000" arrival="153.00">
        <route edges="beg beg2 middle end"/>
    </vehicle>

    <vehicle id="flow.41" depart="29.00" departLane="free" departSpeed="27.80" speedFactor="1.0000" arrival="154.00">
        <route edges="beg beg2 middle end"/>
    </vehicle>

    <vehicle id="flow.45" depart="32.00" departLane="free" departSpeed="27.80" speedFactor="1.0000" arrival="155.00">
        <route edges="beg beg2 middle end"/>
    </vehicle>

    <vehicle id="flow.46" depart="33.00" departLane="free" departSpeed="27.80" speedFactor="1.0000" arrival="155.00">
        <route edges="beg beg2 middle end"/>
    </vehicle>

    <vehicle id="flow.48" depart="34.00" departLane="free" departSpeed="27.80" speedFactor="1.0000" arrival="156.00">
        <route edges="beg beg2 middle end"/>
    </vehicle>

    <vehicle id="flow.50" depart="35.00" departLane="free" departSpeed="24.6184" speedFactor="1.0000" arrival="156.00">
        <route edges="beg beg2 middle end"/>
    </vehicle>

    <vehicle id="flow.51" depart="36.00" departLane="free" departSpeed="27.80" speedFactor="1.0000" arrival="157.00">
        <route edges="beg beg2 middle end"/>
    </vehicle>

    <vehicle id="flow.53" depart="38.00" departLane="free" departSpeed="27.80" speedFactor="1.0000" arrival="157.00">
        <route edges="beg beg2 middle end"/>
    </vehicle>

    <vehicle id="flow.54" depart="39.00" departLane="free" departSpeed="27.80" speedFactor="1.0000" arrival="158.00">
        <route edges="beg beg2 middle end"/>
    </vehicle>

    <vehicle id="flow.56" depart="40.00" departLane="free" departSpeed="27.80" speedFactor="1.0000" arrival="158.00">
        <route edges="beg beg2 middle end"/>
    </vehicle>

    <vehicle id="flow.55" depart="39.00" departLane="free" departSpeed="24.6184" speedFactor="1.0000" arrival="159.00">
        <route edges="beg beg2 middle end"/>
    </vehicle>

    <vehicle id="flow.57" depart="40.00" departLane="free" departSpeed="24.6184" speedFactor="1.0000" arrival="159.00">
        <route edges="beg beg2 middle end"/>
    </vehicle>

    <vehicle id="flow.59" depart="42.00" departLane="free" departSpeed="27.80" speedFactor="1.0000" arrival="160.00">
        <route edges="beg beg2 middle end"/>
    </vehicle>

    <vehicle id="flow.60" depart="42.00" departLane="free" departSpeed="24.6184" speedFactor="1.0000" arrival="160.00">
        <route edges="beg beg2 middle end"/>
    </vehicle>

    <vehicle id="flow.61" depart="43.00" departLane="free" departSpeed="27.80" speedFactor="1.0000" arrival="161.00">
        <route edges="beg beg2 middle end"/>
    </vehicle>

    <vehicle id="flow.63" depart="45.00" departLane="free" departSpeed="27.80" speedFactor="1.0000" arrival="161.00">
        <route edges="beg beg2 middle end"/>
    </vehicle>

    <vehicle id="flow.66" depart="47.00" departLane="free" departSpeed="27.80" speedFactor="1.0000" arrival="162.00">
        <route edges="beg beg2 middle end"/>
    </vehicle>

    <vehicle id="flow.67" depart="47.00" departLane="free" departSpeed="24.6184" speedFactor="1.0000" arrival="162.00">
        <route edges="beg beg2 middle end"/>
    </vehicle>

    <vehicle id="flow.69" depart="49.00" departLane="free" departSpeed="27.80" speedFactor="1.0000" arrival="163.00">
        <route edges="beg beg2 middle end"/>
    </vehicle>

    <vehicle id="flow.68" depart="48.00" departLane="free" departSpeed="27.80" speedFactor="1.0000" arrival="164.00">
        <route edges="beg beg2 middle end"/>
    </vehicle>

    <vehicle id="flow.70" depart="49.00" departLane="free" departSpeed="24.6184" speedFactor="1.0000" arrival="164.00">
        <route edges="beg beg2 middle end"/>
    </vehicle>

    <vehicle id="flow.72" depart="51.00" departLane="free" departSpeed="27.80" speedFactor="1.0000" arrival="165.00">
        <route edges="beg beg2 middle end"/>
    </vehicle>

    <vehicle id="flow.71" depart="50.00" departLane="free" departSpeed="27.80" speedFactor="1.0000" arrival="166.00">
        <route edges="beg beg2 middle end"/>
    </vehicle>

    <vehicle id="flow.76" depart="54.00" departLane="free" departSpeed="27.80" speedFactor="1.0000" arrival="166.00">
        <route edges="beg beg2 middle end"/>
    </vehicle>

    <vehicle id="flow.78" depart="55.00" departLane="free" departSpeed="27.80" speedFactor="1.0000" arrival="167.00">
        <route edges="beg beg2 middle end"/>
    </vehicle>

    <vehicle id="flow.79" depart="56.00" departLane="free" departSpeed="27.80" speedFactor="1.0000" arrival="168.00">
        <route edges="beg beg2 middle end"/>
    </vehicle>

    <vehicle id="flow.81" depart="57.00" departLane="free" departSpeed="27.80" speedFactor="1.0000" arrival="168.00">
        <route edges="beg beg2 middle end"/>
    </vehicle>

    <vehicle id="flow.82" depart="58.00" departLane="free" departSpeed="27.80" speedFactor="1.0000" arrival="169.00">
        <route edges="beg beg2 middle end"/>
    </vehicle>

    <vehicle id="flow.83" depart="59.00" departLane="free" departSpeed="27.80" speedFactor="1.0000" arrival="170.00">
        <route edges="beg beg2 middle end"/>
    </vehicle>

    <vehicle id="flow.86" depart="61.00" departLane="free" departSpeed="27.80" speedFactor="1.0000" arrival="170.00">
        <route edges="beg beg2 middle end"/>
    </vehicle>

    <vehicle id="flow.87" depart="61.00" departLane="free" departSpeed="24.6184" speedFactor="1.0000" arrival="171.00">
        <route edges="beg beg2 middle end"/>
    </vehicle>

    <vehicle id="flow.90" depart="63.00" departLane="free" departSpeed="24.6184" speedFactor="1.0000" arrival="172.00">
        <route edges="beg beg2 middle end"/>
    </vehicle>

    <vehicle id="flow.91" depart="64.00" departLane="free" departSpeed="27.80" speedFactor="1.0000" arrival="172.00">
        <route edges="beg beg2 middle end"/>
    </vehicle>

    <vehicle id="flow.93" depart="66.00" departLane="free" departSpeed="27.80" speedFactor="1.0000" arrival="173.00">
        <route edges="beg beg2 middle end"/>
    </vehicle>

    <vehicle id="flow.94" depart="66.00" departLane="free" departSpeed="24.6184" speedFactor="1.0000" arrival="174.00">
        <route edges="beg beg2 middle end"/>
    </vehicle>

    <vehicle id="flow.96" depart="68.00" departLane="free" departSpeed="27.80" speedFactor="1.0000" arrival="174.00">
        <route edges="beg beg2 middle end"/>
    </vehicle>

    <vehicle id="flow.97" depart="68.00" departLane="free" departSpeed="24.6184" speedFactor="1.0000" arrival="175.00">
        <route edges="beg beg2 middle end"/>
    </vehicle>

    <vehicle id="flow.100" depart="70.00" departLane="free" departSpeed="24.6184" speedFactor="1.0000" arrival="176.00">
        <route edges="beg beg2 middle end"/>
    </vehicle>

    <vehicle id="flow.101" depart="71.00" departLane="free" departSpeed="27.80" speedFactor="1.0000" arrival="176.00">
        <route edges="beg beg2 middle end"/>
    </vehicle>

    <vehicle id="flow.103" depart="73.00" departLane="free" departSpeed="27.80" speedFactor="1.0000" arrival="177.00">
        <route edges="beg beg2 middle end"/>
    </vehicle>

    <vehicle id="flow.104" depart="73.00" departLane="free" departSpeed="24.6184" speedFactor="1.0000" arrival="178.00">
        <route edges="beg beg2 middle end"/>
    </vehicle>

    <vehicle id="flow.106" depart="75.00" departLane="free" departSpeed="27.80" speedFactor="1.0000" arrival="178.00">
        <route edges="beg beg2 middle end"/>
    </vehicle>

    <vehicle id="flow.107" depart="75.00" departLane="free" departSpeed="24.6184" speedFactor="1.0000" arrival="179.00">
        <route edges="beg beg2 middle end"/>
    </vehicle>

    <vehicle id="flow.109" depart="77.00" departLane="free" departSpeed="27.80" speedFactor="1.0000" arrival="180.00">
        <route edges="beg beg2 middle end"/>
    </vehicle>

    <vehicle id="flow.110" depart="77.00" departLane="free" departSpeed="24.6184" speedFactor="1.0000" arrival="180.00">
        <route edges="beg beg2 middle end"/>
    </vehicle>

    <vehicle id="flow.113" depart="80.00" departLane="free" departSpeed="27.80" speedFactor="1.0000" arrival="181.00">
        <route edges="beg beg2 middle end"/>
    </vehicle>

    <vehicle id="flow.115" depart="81.00" departLane="free" departSpeed="27.80" speedFactor="1.0000" arrival="182.00">
        <route edges="beg beg2 middle end"/>
    </vehicle>

    <vehicle id="flow.117" depart="82.00" departLane="free" departSpeed="24.6184" speedFactor="1.0000" arrival="182.00">
        <route edges="beg beg2 middle end"/>
    </vehicle>

    <vehicle id="flow.118" depart="83.00" departLane="free" departSpeed="27.80" speedFactor="1.0000" arrival="183.00">
        <route edges="beg beg2 middle end"/>
    </vehicle>

    <vehicle id="flow.119" depart="84.00" departLane="free" departSpeed="27.80" speedFactor="1.0000" arrival="184.00">
        <route edges="beg beg2 middle end"/>
    </vehicle>

    <vehicle id="flow.120" depart="84.00" departLane="free" departSpeed="24.6184" speedFactor="1.0000" arrival="184.00">
        <route edges="beg beg2 middle end"/>
    </vehicle>

    <vehicle id="flow.92" depart="65.00" departLane="free" departSpeed="27.80" speedFactor="1.0000" arrival="185.00">
        <route edges="beg beg2 middle end"/>
    </vehicle>

    <vehicle id="flow.124" depart="88.00" departLane="free" departSpeed="27.80" speedFactor="1.0000" arrival="185.00">
        <route edges="beg beg2 middle end"/>
    </vehicle>

    <vehicle id="flow.123" depart="87.00" departLane="free" departSpeed="27.80" speedFactor="1.0000" arrival="186.00">
        <route edges="beg beg2 middle end"/>
    </vehicle>

    <vehicle id="flow.126" depart="90.00" departLane="free" departSpeed="27.80" speedFactor="1.0000" arrival="186.00">
        <route edges="beg beg2 middle end"/>
    </vehicle>

    <vehicle id="flow.125" depart="89.00" departLane="free" departSpeed="27.80" speedFactor="1.0000" arrival="187.00">
        <route edges="beg beg2 middle end"/>
    </vehicle>

    <vehicle id="flow.127" depart="90.00" departLane="free" departSpeed="24.6184" speedFactor="1.0000" arrival="187.00">
        <route edges="beg beg2 middle end"/>
    </vehicle>

    <vehicle id="flow.129" depart="92.00" departLane="free" departSpeed="27.80" speedFactor="1.0000" arrival="188.00">
        <route edges="beg beg2 middle end"/>
    </vehicle>

    <vehicle id="flow.130" depart="92.00" departLane="free" departSpeed="24.6184" speedFactor="1.0000" arrival="188.00">
        <route edges="beg beg2 middle end"/>
    </vehicle>

    <vehicle id="flow.102" depart="72.00" departLane="free" departSpeed="27.80" speedFactor="1.0000" arrival="220.00">
        <route edges="beg beg2 middle end"/>
    </vehicle>

    <vehicle id="flow.105" depart="74.00" departLane="free" departSpeed="27.80" speedFactor="1.0000" arrival="222.00">
        <route edges="beg beg2 middle end"/>
    </vehicle>

    <vehicle id="flow.108" depart="76.00" departLane="free" departSpeed="27.80" speedFactor="1.0000" arrival="224.00">
        <route edges="beg beg2 middle end"/>
    </vehicle>

    <vehicle id="flow.111" depart="78.00" departLane="free" departSpeed="27.80" speedFactor="1.0000" arrival="226.00">
        <route edges="beg beg2 middle end"/>
    </vehicle>

    <vehicle id="flow.134" depart="95.00" departLane="free" departSpeed="25.0501" speedFactor="1.0000" arrival="233.00">
        <route edges="beg beg2 middle end"/>
    </vehicle>

    <vehicle id="flow.121" depart="85.00" departLane="free" departSpeed="27.80" speedFactor="1.0000" arrival="234.00">
        <route edges="beg beg2 middle end"/>
    </vehicle>

    <vehicle id="flow.138" depart="100.00" departLane="free" departSpeed="27.80" speedFactor="1.0000" arrival="236.00">
        <route edges="beg beg2 middle end"/>
    </vehicle>

    <vehicle id="flow.139" depart="101.00" departLane="free" departSpeed="27.80" speedFactor="1.0000" arrival="237.00">
        <route edges="beg beg2 middle end"/>
    </vehicle>

    <vehicle id="flow.141" depart="105.00" departLane="free" departSpeed="27.80" speedFactor="1.0000" arrival="238.00">
        <route edges="beg beg2 middle end"/>
    </vehicle>

    <vehicle id="flow.95" depart="67.00" departLane="free" departSpeed="27.80" speedFactor="1.0000" arrival="243.00">
        <routeDistribution>
            <route replacedOnEdge="beg" reason="rerouter" replacedAtTime="67.00" probability="0" edges="beg beg2 middle end"/>
            <route edges="beg detour end"/>
        </routeDistribution>
    </vehicle>

    <vehicle id="flow.98" depart="69.00" departLane="free" departSpeed="27.80" speedFactor="1.0000" arrival="245.00">
        <routeDistribution>
            <route replacedOnEdge="beg" reason="rerouter" replacedAtTime="69.00" probability="0" edges="beg beg2 middle end"/>
            <route edges="beg detour end"/>
        </routeDistribution>
    </vehicle>
