<?xml version="1.0" encoding="UTF-8"?>

<!-- generated on 2022-01-03 14:45:47 by Eclipse SUMO sumo Version v1_11_0+0715-d0eea3a
This data file and the accompanying materials
are made available under the terms of the Eclipse Public License v2.0
which accompanies this distribution, and is available at
http://www.eclipse.org/legal/epl-v20.html
SPDX-License-Identifier: EPL-2.0
<configuration xmlns:xsi="http://www.w3.org/2001/XMLSchema-instance" xsi:noNamespaceSchemaLocation="http://sumo.dlr.de/xsd/sumoConfiguration.xsd">

    <input>
        <net-file value="net.net.xml"/>
        <route-files value="input_routes.rou.xml"/>
    </input>

    <output>
        <write-license value="true"/>
        <tripinfo-output value="tripinfos.xml"/>
        <tripinfo-output.write-unfinished value="true"/>
        <vehroute-output value="vehroutes.xml"/>
        <vehroute-output.write-unfinished value="true"/>
    </output>

    <time>
        <end value="300"/>
    </time>

    <processing>
        <default.speeddev value="0"/>
    </processing>

    <report>
        <xml-validation value="never"/>
        <xml-validation.routes value="never"/>
        <duration-log.disable value="true"/>
        <no-step-log value="true"/>
    </report>

    <taxi_device>
        <device.taxi.idle-algorithm value="randomCircling"/>
    </taxi_device>

</configuration>
-->

<routes xmlns:xsi="http://www.w3.org/2001/XMLSchema-instance" xsi:noNamespaceSchemaLocation="http://sumo.dlr.de/xsd/routes_file.xsd">
    <person id="p0" depart="0.00" arrival="75.00">
        <ride from="B2C2" to="A0B0" arrivalPos="87.60" lines="taxi"/>
    </person>

    <vehicle id="trip_0" type="taxi" depart="0.00">
        <routeDistribution>
            <route replacedOnEdge="A0B0" reason="taxi:idling:randomCircling" replacedAtTime="1.00" probability="0" edges="A0B0 B0C0 C0C1 C1C2"/>
            <route replacedOnEdge="A0B0" reason="taxi:idling:randomCircling" replacedAtTime="2.00" probability="0" edges="A0B0 B0C0 C0C1 C1C2 C2D2 D2D1"/>
            <route replacedOnEdge="A0B0" reason="taxi:idling:randomCircling" replacedAtTime="3.00" probability="0" edges="A0B0 B0C0 C0C1 C1C2 C2D2 D2D1 D1C1 C1C2"/>
            <route replacedOnEdge="A0B0" reason="taxi:idling:randomCircling" replacedAtTime="4.00" probability="0" edges="A0B0 B0C0 C0C1 C1C2 C2D2 D2D1 D1C1 C1C2 C2C1 C1B1"/>
            <route replacedOnEdge="A0B0" reason="taxi:idling:randomCircling" replacedAtTime="5.00" probability="0" edges="A0B0 B0C0 C0C1 C1C2 C2D2 D2D1 D1C1 C1C2 C2C1 C1B1 B1C1 C1D1"/>
            <route replacedOnEdge="A0B0" reason="taxi:idling:randomCircling" replacedAtTime="6.00" probability="0" edges="A0B0 B0C0 C0C1 C1C2 C2D2 D2D1 D1C1 C1C2 C2C1 C1B1 B1C1 C1D1 D1E1 E1E2"/>
            <route replacedOnEdge="A0B0" reason="taxi:idling:randomCircling" replacedAtTime="7.00" probability="0" edges="A0B0 B0C0 C0C1 C1C2 C2D2 D2D1 D1C1 C1C2 C2C1 C1B1 B1C1 C1D1 D1E1 E1E2 E2F2 F2F1"/>
            <route replacedOnEdge="A0B0" reason="taxi:idling:randomCircling" replacedAtTime="8.00" probability="0" edges="A0B0 B0C0 C0C1 C1C2 C2D2 D2D1 D1C1 C1C2 C2C1 C1B1 B1C1 C1D1 D1E1 E1E2 E2F2 F2F1 F1F0 F0E0"/>
            <route replacedOnEdge="A0B0" reason="taxi:idling:randomCircling" replacedAtTime="9.00" probability="0" edges="A0B0 B0C0 C0C1 C1C2 C2D2 D2D1 D1C1 C1C2 C2C1 C1B1 B1C1 C1D1 D1E1 E1E2 E2F2 F2F1 F1F0 F0E0 E0D0 D0D1"/>
            <route replacedOnEdge="A0B0" reason="taxi:idling:randomCircling" replacedAtTime="10.00" probability="0" edges="A0B0 B0C0 C0C1 C1C2 C2D2 D2D1 D1C1 C1C2 C2C1 C1B1 B1C1 C1D1 D1E1 E1E2 E2F2 F2F1 F1F0 F0E0 E0D0 D0D1 D1C1 C1C0"/>
            <route replacedOnEdge="A0B0" reason="taxi:idling:randomCircling" replacedAtTime="10.00" probability="0" edges="A0B0 B0C0 C0C1 C1C2 C2D2 D2D1 D1C1 C1C2 C2C1 C1B1 B1C1 C1D1 D1E1 E1E2 E2F2 F2F1 F1F0 F0E0 E0D0 D0D1 D1C1 C1C0 C0C1 C1C2"/>
            <route replacedOnEdge="B0C0" reason="taxi:idling:randomCircling" replacedAtTime="11.00" probability="0" edges="A0B0 B0C0 C0C1 C1C2 C2D2 D2D1 D1C1 C1C2 C2C1 C1B1 B1C1 C1D1 D1E1 E1E2 E2F2 F2F1 F1F0 F0E0 E0D0 D0D1 D1C1 C1C0 C0C1 C1C2 C2B2 B2C2"/>
            <route replacedOnEdge="B0C0" reason="taxi:idling:randomCircling" replacedAtTime="11.00" probability="0" edges="A0B0 B0C0 C0C1 C1C2 C2D2 D2D1 D1C1 C1C2 C2C1 C1B1 B1C1 C1D1 D1E1 E1E2 E2F2 F2F1 F1F0 F0E0 E0D0 D0D1 D1C1 C1C0 C0C1 C1C2 C2B2 B2C2 C2B2 B2B1"/>
            <route replacedOnEdge="B0C0" reason="taxi:idling:randomCircling" replacedAtTime="12.00" probability="0" edges="A0B0 B0C0 C0C1 C1C2 C2D2 D2D1 D1C1 C1C2 C2C1 C1B1 B1C1 C1D1 D1E1 E1E2 E2F2 F2F1 F1F0 F0E0 E0D0 D0D1 D1C1 C1C0 C0C1 C1C2 C2B2 B2C2 C2B2 B2B1 B1A1 A1B1"/>
            <route replacedOnEdge="B0C0" reason="taxi:idling:randomCircling" replacedAtTime="13.00" probability="0" edges="A0B0 B0C0 C0C1 C1C2 C2D2 D2D1 D1C1 C1C2 C2C1 C1B1 B1C1 C1D1 D1E1 E1E2 E2F2 F2F1 F1F0 F0E0 E0D0 D0D1 D1C1 C1C0 C0C1 C1C2 C2B2 B2C2 C2B2 B2B1 B1A1 A1B1 B1B0 B0A0"/>
            <route replacedOnEdge="B0C0" reason="taxi:idling:randomCircling" replacedAtTime="14.00" probability="0" edges="A0B0 B0C0 C0C1 C1C2 C2D2 D2D1 D1C1 C1C2 C2C1 C1B1 B1C1 C1D1 D1E1 E1E2 E2F2 F2F1 F1F0 F0E0 E0D0 D0D1 D1C1 C1C0 C0C1 C1C2 C2B2 B2C2 C2B2 B2B1 B1A1 A1B1 B1B0 B0A0 A0A1 A1A2"/>
            <route replacedOnEdge="B0C0" reason="taxi:idling:randomCircling" replacedAtTime="15.00" probability="0" edges="A0B0 B0C0 C0C1 C1C2 C2D2 D2D1 D1C1 C1C2 C2C1 C1B1 B1C1 C1D1 D1E1 E1E2 E2F2 F2F1 F1F0 F0E0 E0D0 D0D1 D1C1 C1C0 C0C1 C1C2 C2B2 B2C2 C2B2 B2B1 B1A1 A1B1 B1B0 B0A0 A0A1 A1A2 A2B2 B2A2"/>
            <route replacedOnEdge="B0C0" reason="taxi:idling:randomCircling" replacedAtTime="16.00" probability="0" edges="A0B0 B0C0 C0C1 C1C2 C2D2 D2D1 D1C1 C1C2 C2C1 C1B1 B1C1 C1D1 D1E1 E1E2 E2F2 F2F1 F1F0 F0E0 E0D0 D0D1 D1C1 C1C0 C0C1 C1C2 C2B2 B2C2 C2B2 B2B1 B1A1 A1B1 B1B0 B0A0 A0A1 A1A2 A2B2 B2A2 A2A1 A1A2"/>
            <route replacedOnEdge="B0C0" reason="taxi:idling:randomCircling" replacedAtTime="17.00" probability="0" edges="A0B0 B0C0 C0C1 C1C2 C2D2 D2D1 D1C1 C1C2 C2C1 C1B1 B1C1 C1D1 D1E1 E1E2 E2F2 F2F1 F1F0 F0E0 E0D0 D0D1 D1C1 C1C0 C0C1 C1C2 C2B2 B2C2 C2B2 B2B1 B1A1 A1B1 B1B0 B0A0 A0A1 A1A2 A2B2 B2A2 A2A1 A1A2 A2B2 B2A2"/>
            <route replacedOnEdge="B0C0" reason="taxi:idling:randomCircling" replacedAtTime="18.00" probability="0" edges="A0B0 B0C0 C0C1 C1C2 C2D2 D2D1 D1C1 C1C2 C2C1 C1B1 B1C1 C1D1 D1E1 E1E2 E2F2 F2F1 F1F0 F0E0 E0D0 D0D1 D1C1 C1C0 C0C1 C1C2 C2B2 B2C2 C2B2 B2B1 B1A1 A1B1 B1B0 B0A0 A0A1 A1A2 A2B2 B2A2 A2A1 A1A2 A2B2 B2A2 A2A1 A1B1"/>
            <route replacedOnEdge="B0C0" reason="taxi:idling:randomCircling" replacedAtTime="18.00" probability="0" edges="A0B0 B0C0 C0C1 C1C2 C2D2 D2D1 D1C1 C1C2 C2C1 C1B1 B1C1 C1D1 D1E1 E1E2 E2F2 F2F1 F1F0 F0E0 E0D0 D0D1 D1C1 C1C0 C0C1 C1C2 C2B2 B2C2 C2B2 B2B1 B1A1 A1B1 B1B0 B0A0 A0A1 A1A2 A2B2 B2A2 A2A1 A1A2 A2B2 B2A2 A2A1 A1B1 B1B2 B2C2"/>
            <route replacedOnEdge="B0C0" reason="taxi:idling:randomCircling" replacedAtTime="19.00" probability="0" edges="A0B0 B0C0 C0C1 C1C2 C2D2 D2D1 D1C1 C1C2 C2C1 C1B1 B1C1 C1D1 D1E1 E1E2 E2F2 F2F1 F1F0 F0E0 E0D0 D0D1 D1C1 C1C0 C0C1 C1C2 C2B2 B2C2 C2B2 B2B1 B1A1 A1B1 B1B0 B0A0 A0A1 A1A2 A2B2 B2A2 A2A1 A1A2 A2B2 B2A2 A2A1 A1B1 B1B2 B2C2 C2C1 C1B1"/>
            <route replacedOnEdge="B0C0" reason="taxi:idling:randomCircling" replacedAtTime="19.00" probability="0" edges="A0B0 B0C0 C0C1 C1C2 C2D2 D2D1 D1C1 C1C2 C2C1 C1B1 B1C1 C1D1 D1E1 E1E2 E2F2 F2F1 F1F0 F0E0 E0D0 D0D1 D1C1 C1C0 C0C1 C1C2 C2B2 B2C2 C2B2 B2B1 B1A1 A1B1 B1B0 B0A0 A0A1 A1A2 A2B2 B2A2 A2A1 A1A2 A2B2 B2A2 A2A1 A1B1 B1B2 B2C2 C2C1 C1B1 B1B0 B0A0"/>
            <route replacedOnEdge="C0C1" reason="taxi:idling:randomCircling" replacedAtTime="20.00" probability="0" edges="A0B0 B0C0 C0C1 C1C2 C2D2 D2D1 D1C1 C1C2 C2C1 C1B1 B1C1 C1D1 D1E1 E1E2 E2F2 F2F1 F1F0 F0E0 E0D0 D0D1 D1C1 C1C0 C0C1 C1C2 C2B2 B2C2 C2B2 B2B1 B1A1 A1B1 B1B0 B0A0 A0A1 A1A2 A2B2 B2A2 A2A1 A1A2 A2B2 B2A2 A2A1 A1B1 B1B2 B2C2 C2C1 C1B1 B1B0 B0A0 A0A1 A1A0"/>
            <route replacedOnEdge="C0C1" reason="taxi:idling:randomCircling" replacedAtTime="20.00" probability="0" edges="A0B0 B0C0 C0C1 C1C2 C2D2 D2D1 D1C1 C1C2 C2C1 C1B1 B1C1 C1D1 D1E1 E1E2 E2F2 F2F1 F1F0 F0E0 E0D0 D0D1 D1C1 C1C0 C0C1 C1C2 C2B2 B2C2 C2B2 B2B1 B1A1 A1B1 B1B0 B0A0 A0A1 A1A2 A2B2 B2A2 A2A1 A1A2 A2B2 B2A2 A2A1 A1B1 B1B2 B2C2 C2C1 C1B1 B1B0 B0A0 A0A1 A1A0 A0B0 B0B1"/>
            <route replacedOnEdge="C0C1" reason="taxi:idling:randomCircling" replacedAtTime="21.00" probability="0" edges="A0B0 B0C0 C0C1 C1C2 C2D2 D2D1 D1C1 C1C2 C2C1 C1B1 B1C1 C1D1 D1E1 E1E2 E2F2 F2F1 F1F0 F0E0 E0D0 D0D1 D1C1 C1C0 C0C1 C1C2 C2B2 B2C2 C2B2 B2B1 B1A1 A1B1 B1B0 B0A0 A0A1 A1A2 A2B2 B2A2 A2A1 A1A2 A2B2 B2A2 A2A1 A1B1 B1B2 B2C2 C2C1 C1B1 B1B0 B0A0 A0A1 A1A0 A0B0 B0B1 B1A1 A1B1"/>
            <route replacedOnEdge="C0C1" reason="taxi:idling:randomCircling" replacedAtTime="22.00" probability="0" edges="A0B0 B0C0 C0C1 C1C2 C2D2 D2D1 D1C1 C1C2 C2C1 C1B1 B1C1 C1D1 D1E1 E1E2 E2F2 F2F1 F1F0 F0E0 E0D0 D0D1 D1C1 C1C0 C0C1 C1C2 C2B2 B2C2 C2B2 B2B1 B1A1 A1B1 B1B0 B0A0 A0A1 A1A2 A2B2 B2A2 A2A1 A1A2 A2B2 B2A2 A2A1 A1B1 B1B2 B2C2 C2C1 C1B1 B1B0 B0A0 A0A1 A1A0 A0B0 B0B1 B1A1 A1B1 B1B0 B0A0"/>
            <route replacedOnEdge="C0C1" reason="taxi:idling:randomCircling" replacedAtTime="23.00" probability="0" edges="A0B0 B0C0 C0C1 C1C2 C2D2 D2D1 D1C1 C1C2 C2C1 C1B1 B1C1 C1D1 D1E1 E1E2 E2F2 F2F1 F1F0 F0E0 E0D0 D0D1 D1C1 C1C0 C0C1 C1C2 C2B2 B2C2 C2B2 B2B1 B1A1 A1B1 B1B0 B0A0 A0A1 A1A2 A2B2 B2A2 A2A1 A1A2 A2B2 B2A2 A2A1 A1B1 B1B2 B2C2 C2C1 C1B1 B1B0 B0A0 A0A1 A1A0 A0B0 B0B1 B1A1 A1B1 B1B0 B0A0 A0A1 A1A2"/>
            <route replacedOnEdge="C0C1" reason="taxi:idling:randomCircling" replacedAtTime="24.00" probability="0" edges="A0B0 B0C0 C0C1 C1C2 C2D2 D2D1 D1C1 C1C2 C2C1 C1B1 B1C1 C1D1 D1E1 E1E2 E2F2 F2F1 F1F0 F0E0 E0D0 D0D1 D1C1 C1C0 C0C1 C1C2 C2B2 B2C2 C2B2 B2B1 B1A1 A1B1 B1B0 B0A0 A0A1 A1A2 A2B2 B2A2 A2A1 A1A2 A2B2 B2A2 A2A1 A1B1 B1B2 B2C2 C2C1 C1B1 B1B0 B0A0 A0A1 A1A0 A0B0 B0B1 B1A1 A1B1 B1B0 B0A0 A0A1 A1A2 A2B2 B2B1"/>
            <route replacedOnEdge="C0C1" reason="taxi:idling:randomCircling" replacedAtTime="25.00" probability="0" edges="A0B0 B0C0 C0C1 C1C2 C2D2 D2D1 D1C1 C1C2 C2C1 C1B1 B1C1 C1D1 D1E1 E1E2 E2F2 F2F1 F1F0 F0E0 E0D0 D0D1 D1C1 C1C0 C0C1 C1C2 C2B2 B2C2 C2B2 B2B1 B1A1 A1B1 B1B0 B0A0 A0A1 A1A2 A2B2 B2A2 A2A1 A1A2 A2B2 B2A2 A2A1 A1B1 B1B2 B2C2 C2C1 C1B1 B1B0 B0A0 A0A1 A1A0 A0B0 B0B1 B1A1 A1B1 B1B0 B0A0 A0A1 A1A2 A2B2 B2B1 B1A1 A1A0"/>
            <route replacedOnEdge="C0C1" reason="taxi:idling:randomCircling" replacedAtTime="26.00" probability="0" edges="A0B0 B0C0 C0C1 C1C2 C2D2 D2D1 D1C1 C1C2 C2C1 C1B1 B1C1 C1D1 D1E1 E1E2 E2F2 F2F1 F1F0 F0E0 E0D0 D0D1 D1C1 C1C0 C0C1 C1C2 C2B2 B2C2 C2B2 B2B1 B1A1 A1B1 B1B0 B0A0 A0A1 A1A2 A2B2 B2A2 A2A1 A1A2 A2B2 B2A2 A2A1 A1B1 B1B2 B2C2 C2C1 C1B1 B1B0 B0A0 A0A1 A1A0 A0B0 B0B1 B1A1 A1B1 B1B0 B0A0 A0A1 A1A2 A2B2 B2B1 B1A1 A1A0 A0B0 B0B1"/>
            <route replacedOnEdge="C0C1" reason="taxi:idling:randomCircling" replacedAtTime="27.00" probability="0" edges="A0B0 B0C0 C0C1 C1C2 C2D2 D2D1 D1C1 C1C2 C2C1 C1B1 B1C1 C1D1 D1E1 E1E2 E2F2 F2F1 F1F0 F0E0 E0D0 D0D1 D1C1 C1C0 C0C1 C1C2 C2B2 B2C2 C2B2 B2B1 B1A1 A1B1 B1B0 B0A0 A0A1 A1A2 A2B2 B2A2 A2A1 A1A2 A2B2 B2A2 A2A1 A1B1 B1B2 B2C2 C2C1 C1B1 B1B0 B0A0 A0A1 A1A0 A0B0 B0B1 B1A1 A1B1 B1B0 B0A0 A0A1 A1A2 A2B2 B2B1 B1A1 A1A0 A0B0 B0B1 B1B0 B0B1"/>
            <route replacedOnEdge="C0C1" reason="taxi:idling:randomCircling" replacedAtTime="27.00" probability="0" edges="A0B0 B0C0 C0C1 C1C2 C2D2 D2D1 D1C1 C1C2 C2C1 C1B1 B1C1 C1D1 D1E1 E1E2 E2F2 F2F1 F1F0 F0E0 E0D0 D0D1 D1C1 C1C0 C0C1 C1C2 C2B2 B2C2 C2B2 B2B1 B1A1 A1B1 B1B0 B0A0 A0A1 A1A2 A2B2 B2A2 A2A1 A1A2 A2B2 B2A2 A2A1 A1B1 B1B2 B2C2 C2C1 C1B1 B1B0 B0A0 A0A1 A1A0 A0B0 B0B1 B1A1 A1B1 B1B0 B0A0 A0A1 A1A2 A2B2 B2B1 B1A1 A1A0 A0B0 B0B1 B1B0 B0B1 B1B2 B2C2"/>
            <route replacedOnEdge="C1C2" reason="taxi:idling:randomCircling" replacedAtTime="28.00" probability="0" edges="A0B0 B0C0 C0C1 C1C2 C2D2 D2D1 D1C1 C1C2 C2C1 C1B1 B1C1 C1D1 D1E1 E1E2 E2F2 F2F1 F1F0 F0E0 E0D0 D0D1 D1C1 C1C0 C0C1 C1C2 C2B2 B2C2 C2B2 B2B1 B1A1 A1B1 B1B0 B0A0 A0A1 A1A2 A2B2 B2A2 A2A1 A1A2 A2B2 B2A2 A2A1 A1B1 B1B2 B2C2 C2C1 C1B1 B1B0 B0A0 A0A1 A1A0 A0B0 B0B1 B1A1 A1B1 B1B0 B0A0 A0A1 A1A2 A2B2 B2B1 B1A1 A1A0 A0B0 B0B1 B1B0 B0B1 B1B2 B2C2 C2D2 D2D1"/>
            <route replacedOnEdge="C1C2" reason="taxi:idling:randomCircling" replacedAtTime="28.00" probability="0" edges="A0B0 B0C0 C0C1 C1C2 C2D2 D2D1 D1C1 C1C2 C2C1 C1B1 B1C1 C1D1 D1E1 E1E2 E2F2 F2F1 F1F0 F0E0 E0D0 D0D1 D1C1 C1C0 C0C1 C1C2 C2B2 B2C2 C2B2 B2B1 B1A1 A1B1 B1B0 B0A0 A0A1 A1A2 A2B2 B2A2 A2A1 A1A2 A2B2 B2A2 A2A1 A1B1 B1B2 B2C2 C2C1 C1B1 B1B0 B0A0 A0A1 A1A0 A0B0 B0B1 B1A1 A1B1 B1B0 B0A0 A0A1 A1A2 A2B2 B2B1 B1A1 A1A0 A0B0 B0B1 B1B0 B0B1 B1B2 B2C2 C2D2 D2D1 D1D2 D2E2"/>
            <route replacedOnEdge="C1C2" reason="taxi:idling:randomCircling" replacedAtTime="29.00" probability="0" edges="A0B0 B0C0 C0C1 C1C2 C2D2 D2D1 D1C1 C1C2 C2C1 C1B1 B1C1 C1D1 D1E1 E1E2 E2F2 F2F1 F1F0 F0E0 E0D0 D0D1 D1C1 C1C0 C0C1 C1C2 C2B2 B2C2 C2B2 B2B1 B1A1 A1B1 B1B0 B0A0 A0A1 A1A2 A2B2 B2A2 A2A1 A1A2 A2B2 B2A2 A2A1 A1B1 B1B2 B2C2 C2C1 C1B1 B1B0 B0A0 A0A1 A1A0 A0B0 B0B1 B1A1 A1B1 B1B0 B0A0 A0A1 A1A2 A2B2 B2B1 B1A1 A1A0 A0B0 B0B1 B1B0 B0B1 B1B2 B2C2 C2D2 D2D1 D1D2 D2E2 E2D2 D2C2"/>
            <route replacedOnEdge="C1C2" reason="taxi:idling:randomCircling" replacedAtTime="30.00" probability="0" edges="A0B0 B0C0 C0C1 C1C2 C2D2 D2D1 D1C1 C1C2 C2C1 C1B1 B1C1 C1D1 D1E1 E1E2 E2F2 F2F1 F1F0 F0E0 E0D0 D0D1 D1C1 C1C0 C0C1 C1C2 C2B2 B2C2 C2B2 B2B1 B1A1 A1B1 B1B0 B0A0 A0A1 A1A2 A2B2 B2A2 A2A1 A1A2 A2B2 B2A2 A2A1 A1B1 B1B2 B2C2 C2C1 C1B1 B1B0 B0A0 A0A1 A1A0 A0B0 B0B1 B1A1 A1B1 B1B0 B0A0 A0A1 A1A2 A2B2 B2B1 B1A1 A1A0 A0B0 B0B1 B1B0 B0B1 B1B2 B2C2 C2D2 D2D1 D1D2 D2E2 E2D2 D2C2 C2D2 D2C2"/>
            <route replacedOnEdge="C1C2" reason="taxi:idling:randomCircling" replacedAtTime="31.00" probability="0" edges="A0B0 B0C0 C0C1 C1C2 C2D2 D2D1 D1C1 C1C2 C2C1 C1B1 B1C1 C1D1 D1E1 E1E2 E2F2 F2F1 F1F0 F0E0 E0D0 D0D1 D1C1 C1C0 C0C1 C1C2 C2B2 B2C2 C2B2 B2B1 B1A1 A1B1 B1B0 B0A0 A0A1 A1A2 A2B2 B2A2 A2A1 A1A2 A2B2 B2A2 A2A1 A1B1 B1B2 B2C2 C2C1 C1B1 B1B0 B0A0 A0A1 A1A0 A0B0 B0B1 B1A1 A1B1 B1B0 B0A0 A0A1 A1A2 A2B2 B2B1 B1A1 A1A0 A0B0 B0B1 B1B0 B0B1 B1B2 B2C2 C2D2 D2D1 D1D2 D2E2 E2D2 D2C2 C2D2 D2C2 C2D2 D2E2"/>
            <route replacedOnEdge="C1C2" reason="taxi:idling:randomCircling" replacedAtTime="32.00" probability="0" edges="A0B0 B0C0 C0C1 C1C2 C2D2 D2D1 D1C1 C1C2 C2C1 C1B1 B1C1 C1D1 D1E1 E1E2 E2F2 F2F1 F1F0 F0E0 E0D0 D0D1 D1C1 C1C0 C0C1 C1C2 C2B2 B2C2 C2B2 B2B1 B1A1 A1B1 B1B0 B0A0 A0A1 A1A2 A2B2 B2A2 A2A1 A1A2 A2B2 B2A2 A2A1 A1B1 B1B2 B2C2 C2C1 C1B1 B1B0 B0A0 A0A1 A1A0 A0B0 B0B1 B1A1 A1B1 B1B0 B0A0 A0A1 A1A2 A2B2 B2B1 B1A1 A1A0 A0B0 B0B1 B1B0 B0B1 B1B2 B2C2 C2D2 D2D1 D1D2 D2E2 E2D2 D2C2 C2D2 D2C2 C2D2 D2E2 E2F2 F2F1"/>
            <route replacedOnEdge="C1C2" reason="taxi:idling:randomCircling" replacedAtTime="33.00" probability="0" edges="A0B0 B0C0 C0C1 C1C2 C2D2 D2D1 D1C1 C1C2 C2C1 C1B1 B1C1 C1D1 D1E1 E1E2 E2F2 F2F1 F1F0 F0E0 E0D0 D0D1 D1C1 C1C0 C0C1 C1C2 C2B2 B2C2 C2B2 B2B1 B1A1 A1B1 B1B0 B0A0 A0A1 A1A2 A2B2 B2A2 A2A1 A1A2 A2B2 B2A2 A2A1 A1B1 B1B2 B2C2 C2C1 C1B1 B1B0 B0A0 A0A1 A1A0 A0B0 B0B1 B1A1 A1B1 B1B0 B0A0 A0A1 A1A2 A2B2 B2B1 B1A1 A1A0 A0B0 B0B1 B1B0 B0B1 B1B2 B2C2 C2D2 D2D1 D1D2 D2E2 E2D2 D2C2 C2D2 D2C2 C2D2 D2E2 E2F2 F2F1 F1F2 F2E2"/>
            <route replacedOnEdge="C1C2" reason="taxi:idling:randomCircling" replacedAtTime="34.00" probability="0" edges="A0B0 B0C0 C0C1 C1C2 C2D2 D2D1 D1C1 C1C2 C2C1 C1B1 B1C1 C1D1 D1E1 E1E2 E2F2 F2F1 F1F0 F0E0 E0D0 D0D1 D1C1 C1C0 C0C1 C1C2 C2B2 B2C2 C2B2 B2B1 B1A1 A1B1 B1B0 B0A0 A0A1 A1A2 A2B2 B2A2 A2A1 A1A2 A2B2 B2A2 A2A1 A1B1 B1B2 B2C2 C2C1 C1B1 B1B0 B0A0 A0A1 A1A0 A0B0 B0B1 B1A1 A1B1 B1B0 B0A0 A0A1 A1A2 A2B2 B2B1 B1A1 A1A0 A0B0 B0B1 B1B0 B0B1 B1B2 B2C2 C2D2 D2D1 D1D2 D2E2 E2D2 D2C2 C2D2 D2C2 C2D2 D2E2 E2F2 F2F1 F1F2 F2E2 E2F2 F2F1"/>
            <route replacedOnEdge="C1C2" reason="taxi:idling:randomCircling" replacedAtTime="35.00" probability="0" edges="A0B0 B0C0 C0C1 C1C2 C2D2 D2D1 D1C1 C1C2 C2C1 C1B1 B1C1 C1D1 D1E1 E1E2 E2F2 F2F1 F1F0 F0E0 E0D0 D0D1 D1C1 C1C0 C0C1 C1C2 C2B2 B2C2 C2B2 B2B1 B1A1 A1B1 B1B0 B0A0 A0A1 A1A2 A2B2 B2A2 A2A1 A1A2 A2B2 B2A2 A2A1 A1B1 B1B2 B2C2 C2C1 C1B1 B1B0 B0A0 A0A1 A1A0 A0B0 B0B1 B1A1 A1B1 B1B0 B0A0 A0A1 A1A2 A2B2 B2B1 B1A1 A1A0 A0B0 B0B1 B1B0 B0B1 B1B2 B2C2 C2D2 D2D1 D1D2 D2E2 E2D2 D2C2 C2D2 D2C2 C2D2 D2E2 E2F2 F2F1 F1F2 F2E2 E2F2 F2F1 F1E1 E1E0"/>
            <route replacedOnEdge="C1C2" reason="taxi:idling:randomCircling" replacedAtTime="36.00" probability="0" edges="A0B0 B0C0 C0C1 C1C2 C2D2 D2D1 D1C1 C1C2 C2C1 C1B1 B1C1 C1D1 D1E1 E1E2 E2F2 F2F1 F1F0 F0E0 E0D0 D0D1 D1C1 C1C0 C0C1 C1C2 C2B2 B2C2 C2B2 B2B1 B1A1 A1B1 B1B0 B0A0 A0A1 A1A2 A2B2 B2A2 A2A1 A1A2 A2B2 B2A2 A2A1 A1B1 B1B2 B2C2 C2C1 C1B1 B1B0 B0A0 A0A1 A1A0 A0B0 B0B1 B1A1 A1B1 B1B0 B0A0 A0A1 A1A2 A2B2 B2B1 B1A1 A1A0 A0B0 B0B1 B1B0 B0B1 B1B2 B2C2 C2D2 D2D1 D1D2 D2E2 E2D2 D2C2 C2D2 D2C2 C2D2 D2E2 E2F2 F2F1 F1F2 F2E2 E2F2 F2F1 F1E1 E1E0 E0E1 E1E0"/>
            <route replacedOnEdge="C1C2" reason="taxi:idling:randomCircling" replacedAtTime="36.00" probability="0" edges="A0B0 B0C0 C0C1 C1C2 C2D2 D2D1 D1C1 C1C2 C2C1 C1B1 B1C1 C1D1 D1E1 E1E2 E2F2 F2F1 F1F0 F0E0 E0D0 D0D1 D1C1 C1C0 C0C1 C1C2 C2B2 B2C2 C2B2 B2B1 B1A1 A1B1 B1B0 B0A0 A0A1 A1A2 A2B2 B2A2 A2A1 A1A2 A2B2 B2A2 A2A1 A1B1 B1B2 B2C2 C2C1 C1B1 B1B0 B0A0 A0A1 A1A0 A0B0 B0B1 B1A1 A1B1 B1B0 B0A0 A0A1 A1A2 A2B2 B2B1 B1A1 A1A0 A0B0 B0B1 B1B0 B0B1 B1B2 B2C2 C2D2 D2D1 D1D2 D2E2 E2D2 D2C2 C2D2 D2C2 C2D2 D2E2 E2F2 F2F1 F1F2 F2E2 E2F2 F2F1 F1E1 E1E0 E0E1 E1E0 E0D0 D0E0"/>
            <route replacedOnEdge="C2D2" reason="taxi:idling:randomCircling" replacedAtTime="37.00" probability="0" edges="A0B0 B0C0 C0C1 C1C2 C2D2 D2D1 D1C1 C1C2 C2C1 C1B1 B1C1 C1D1 D1E1 E1E2 E2F2 F2F1 F1F0 F0E0 E0D0 D0D1 D1C1 C1C0 C0C1 C1C2 C2B2 B2C2 C2B2 B2B1 B1A1 A1B1 B1B0 B0A0 A0A1 A1A2 A2B2 B2A2 A2A1 A1A2 A2B2 B2A2 A2A1 A1B1 B1B2 B2C2 C2C1 C1B1 B1B0 B0A0 A0A1 A1A0 A0B0 B0B1 B1A1 A1B1 B1B0 B0A0 A0A1 A1A2 A2B2 B2B1 B1A1 A1A0 A0B0 B0B1 B1B0 B0B1 B1B2 B2C2 C2D2 D2D1 D1D2 D2E2 E2D2 D2C2 C2D2 D2C2 C2D2 D2E2 E2F2 F2F1 F1F2 F2E2 E2F2 F2F1 F1E1 E1E0 E0E1 E1E0 E0D0 D0E0 E0E1 E1E0"/>
            <route replacedOnEdge="C2D2" reason="taxi:idling:randomCircling" replacedAtTime="37.00" probability="0" edges="A0B0 B0C0 C0C1 C1C2 C2D2 D2D1 D1C1 C1C2 C2C1 C1B1 B1C1 C1D1 D1E1 E1E2 E2F2 F2F1 F1F0 F0E0 E0D0 D0D1 D1C1 C1C0 C0C1 C1C2 C2B2 B2C2 C2B2 B2B1 B1A1 A1B1 B1B0 B0A0 A0A1 A1A2 A2B2 B2A2 A2A1 A1A2 A2B2 B2A2 A2A1 A1B1 B1B2 B2C2 C2C1 C1B1 B1B0 B0A0 A0A1 A1A0 A0B0 B0B1 B1A1 A1B1 B1B0 B0A0 A0A1 A1A2 A2B2 B2B1 B1A1 A1A0 A0B0 B0B1 B1B0 B0B1 B1B2 B2C2 C2D2 D2D1 D1D2 D2E2 E2D2 D2C2 C2D2 D2C2 C2D2 D2E2 E2F2 F2F1 F1F2 F2E2 E2F2 F2F1 F1E1 E1E0 E0E1 E1E0 E0D0 D0E0 E0E1 E1E0 E0F0 F0F1"/>
            <route replacedOnEdge="C2D2" reason="taxi:idling:randomCircling" replacedAtTime="38.00" probability="0" edges="A0B0 B0C0 C0C1 C1C2 C2D2 D2D1 D1C1 C1C2 C2C1 C1B1 B1C1 C1D1 D1E1 E1E2 E2F2 F2F1 F1F0 F0E0 E0D0 D0D1 D1C1 C1C0 C0C1 C1C2 C2B2 B2C2 C2B2 B2B1 B1A1 A1B1 B1B0 B0A0 A0A1 A1A2 A2B2 B2A2 A2A1 A1A2 A2B2 B2A2 A2A1 A1B1 B1B2 B2C2 C2C1 C1B1 B1B0 B0A0 A0A1 A1A0 A0B0 B0B1 B1A1 A1B1 B1B0 B0A0 A0A1 A1A2 A2B2 B2B1 B1A1 A1A0 A0B0 B0B1 B1B0 B0B1 B1B2 B2C2 C2D2 D2D1 D1D2 D2E2 E2D2 D2C2 C2D2 D2C2 C2D2 D2E2 E2F2 F2F1 F1F2 F2E2 E2F2 F2F1 F1E1 E1E0 E0E1 E1E0 E0D0 D0E0 E0E1 E1E0 E0F0 F0F1 F1F2 F2E2"/>
            <route replacedOnEdge="C2D2" reason="taxi:idling:randomCircling" replacedAtTime="39.00" probability="0" edges="A0B0 B0C0 C0C1 C1C2 C2D2 D2D1 D1C1 C1C2 C2C1 C1B1 B1C1 C1D1 D1E1 E1E2 E2F2 F2F1 F1F0 F0E0 E0D0 D0D1 D1C1 C1C0 C0C1 C1C2 C2B2 B2C2 C2B2 B2B1 B1A1 A1B1 B1B0 B0A0 A0A1 A1A2 A2B2 B2A2 A2A1 A1A2 A2B2 B2A2 A2A1 A1B1 B1B2 B2C2 C2C1 C1B1 B1B0 B0A0 A0A1 A1A0 A0B0 B0B1 B1A1 A1B1 B1B0 B0A0 A0A1 A1A2 A2B2 B2B1 B1A1 A1A0 A0B0 B0B1 B1B0 B0B1 B1B2 B2C2 C2D2 D2D1 D1D2 D2E2 E2D2 D2C2 C2D2 D2C2 C2D2 D2E2 E2F2 F2F1 F1F2 F2E2 E2F2 F2F1 F1E1 E1E0 E0E1 E1E0 E0D0 D0E0 E0E1 E1E0 E0F0 F0F1 F1F2 F2E2 E2D2 D2E2"/>
            <route replacedOnEdge="C2D2" reason="taxi:idling:randomCircling" replacedAtTime="40.00" probability="0" edges="A0B0 B0C0 C0C1 C1C2 C2D2 D2D1 D1C1 C1C2 C2C1 C1B1 B1C1 C1D1 D1E1 E1E2 E2F2 F2F1 F1F0 F0E0 E0D0 D0D1 D1C1 C1C0 C0C1 C1C2 C2B2 B2C2 C2B2 B2B1 B1A1 A1B1 B1B0 B0A0 A0A1 A1A2 A2B2 B2A2 A2A1 A1A2 A2B2 B2A2 A2A1 A1B1 B1B2 B2C2 C2C1 C1B1 B1B0 B0A0 A0A1 A1A0 A0B0 B0B1 B1A1 A1B1 B1B0 B0A0 A0A1 A1A2 A2B2 B2B1 B1A1 A1A0 A0B0 B0B1 B1B0 B0B1 B1B2 B2C2 C2D2 D2D1 D1D2 D2E2 E2D2 D2C2 C2D2 D2C2 C2D2 D2E2 E2F2 F2F1 F1F2 F2E2 E2F2 F2F1 F1E1 E1E0 E0E1 E1E0 E0D0 D0E0 E0E1 E1E0 E0F0 F0F1 F1F2 F2E2 E2D2 D2E2 E2D2 D2D1"/>
            <route replacedOnEdge="C2D2" reason="taxi:idling:randomCircling" replacedAtTime="41.00" probability="0" edges="A0B0 B0C0 C0C1 C1C2 C2D2 D2D1 D1C1 C1C2 C2C1 C1B1 B1C1 C1D1 D1E1 E1E2 E2F2 F2F1 F1F0 F0E0 E0D0 D0D1 D1C1 C1C0 C0C1 C1C2 C2B2 B2C2 C2B2 B2B1 B1A1 A1B1 B1B0 B0A0 A0A1 A1A2 A2B2 B2A2 A2A1 A1A2 A2B2 B2A2 A2A1 A1B1 B1B2 B2C2 C2C1 C1B1 B1B0 B0A0 A0A1 A1A0 A0B0 B0B1 B1A1 A1B1 B1B0 B0A0 A0A1 A1A2 A2B2 B2B1 B1A1 A1A0 A0B0 B0B1 B1B0 B0B1 B1B2 B2C2 C2D2 D2D1 D1D2 D2E2 E2D2 D2C2 C2D2 D2C2 C2D2 D2E2 E2F2 F2F1 F1F2 F2E2 E2F2 F2F1 F1E1 E1E0 E0E1 E1E0 E0D0 D0E0 E0E1 E1E0 E0F0 F0F1 F1F2 F2E2 E2D2 D2E2 E2D2 D2D1 D1D2 D2C2"/>
            <route replacedOnEdge="C2D2" reason="taxi:idling:randomCircling" replacedAtTime="42.00" probability="0" edges="A0B0 B0C0 C0C1 C1C2 C2D2 D2D1 D1C1 C1C2 C2C1 C1B1 B1C1 C1D1 D1E1 E1E2 E2F2 F2F1 F1F0 F0E0 E0D0 D0D1 D1C1 C1C0 C0C1 C1C2 C2B2 B2C2 C2B2 B2B1 B1A1 A1B1 B1B0 B0A0 A0A1 A1A2 A2B2 B2A2 A2A1 A1A2 A2B2 B2A2 A2A1 A1B1 B1B2 B2C2 C2C1 C1B1 B1B0 B0A0 A0A1 A1A0 A0B0 B0B1 B1A1 A1B1 B1B0 B0A0 A0A1 A1A2 A2B2 B2B1 B1A1 A1A0 A0B0 B0B1 B1B0 B0B1 B1B2 B2C2 C2D2 D2D1 D1D2 D2E2 E2D2 D2C2 C2D2 D2C2 C2D2 D2E2 E2F2 F2F1 F1F2 F2E2 E2F2 F2F1 F1E1 E1E0 E0E1 E1E0 E0D0 D0E0 E0E1 E1E0 E0F0 F0F1 F1F2 F2E2 E2D2 D2E2 E2D2 D2D1 D1D2 D2C2 C2C1 C1D1"/>
            <route replacedOnEdge="C2D2" reason="taxi:idling:randomCircling" replacedAtTime="43.00" probability="0" edges="A0B0 B0C0 C0C1 C1C2 C2D2 D2D1 D1C1 C1C2 C2C1 C1B1 B1C1 C1D1 D1E1 E1E2 E2F2 F2F1 F1F0 F0E0 E0D0 D0D1 D1C1 C1C0 C0C1 C1C2 C2B2 B2C2 C2B2 B2B1 B1A1 A1B1 B1B0 B0A0 A0A1 A1A2 A2B2 B2A2 A2A1 A1A2 A2B2 B2A2 A2A1 A1B1 B1B2 B2C2 C2C1 C1B1 B1B0 B0A0 A0A1 A1A0 A0B0 B0B1 B1A1 A1B1 B1B0 B0A0 A0A1 A1A2 A2B2 B2B1 B1A1 A1A0 A0B0 B0B1 B1B0 B0B1 B1B2 B2C2 C2D2 D2D1 D1D2 D2E2 E2D2 D2C2 C2D2 D2C2 C2D2 D2E2 E2F2 F2F1 F1F2 F2E2 E2F2 F2F1 F1E1 E1E0 E0E1 E1E0 E0D0 D0E0 E0E1 E1E0 E0F0 F0F1 F1F2 F2E2 E2D2 D2E2 E2D2 D2D1 D1D2 D2C2 C2C1 C1D1 D1E1 E1E0"/>
            <route replacedOnEdge="C2D2" reason="taxi:idling:randomCircling" replacedAtTime="44.00" probability="0" edges="A0B0 B0C0 C0C1 C1C2 C2D2 D2D1 D1C1 C1C2 C2C1 C1B1 B1C1 C1D1 D1E1 E1E2 E2F2 F2F1 F1F0 F0E0 E0D0 D0D1 D1C1 C1C0 C0C1 C1C2 C2B2 B2C2 C2B2 B2B1 B1A1 A1B1 B1B0 B0A0 A0A1 A1A2 A2B2 B2A2 A2A1 A1A2 A2B2 B2A2 A2A1 A1B1 B1B2 B2C2 C2C1 C1B1 B1B0 B0A0 A0A1 A1A0 A0B0 B0B1 B1A1 A1B1 B1B0 B0A0 A0A1 A1A2 A2B2 B2B1 B1A1 A1A0 A0B0 B0B1 B1B0 B0B1 B1B2 B2C2 C2D2 D2D1 D1D2 D2E2 E2D2 D2C2 C2D2 D2C2 C2D2 D2E2 E2F2 F2F1 F1F2 F2E2 E2F2 F2F1 F1E1 E1E0 E0E1 E1E0 E0D0 D0E0 E0E1 E1E0 E0F0 F0F1 F1F2 F2E2 E2D2 D2E2 E2D2 D2D1 D1D2 D2C2 C2C1 C1D1 D1E1 E1E0 E0F0 F0F1"/>
            <route replacedOnEdge="C2D2" reason="taxi:idling:randomCircling" replacedAtTime="45.00" probability="0" edges="A0B0 B0C0 C0C1 C1C2 C2D2 D2D1 D1C1 C1C2 C2C1 C1B1 B1C1 C1D1 D1E1 E1E2 E2F2 F2F1 F1F0 F0E0 E0D0 D0D1 D1C1 C1C0 C0C1 C1C2 C2B2 B2C2 C2B2 B2B1 B1A1 A1B1 B1B0 B0A0 A0A1 A1A2 A2B2 B2A2 A2A1 A1A2 A2B2 B2A2 A2A1 A1B1 B1B2 B2C2 C2C1 C1B1 B1B0 B0A0 A0A1 A1A0 A0B0 B0B1 B1A1 A1B1 B1B0 B0A0 A0A1 A1A2 A2B2 B2B1 B1A1 A1A0 A0B0 B0B1 B1B0 B0B1 B1B2 B2C2 C2D2 D2D1 D1D2 D2E2 E2D2 D2C2 C2D2 D2C2 C2D2 D2E2 E2F2 F2F1 F1F2 F2E2 E2F2 F2F1 F1E1 E1E0 E0E1 E1E0 E0D0 D0E0 E0E1 E1E0 E0F0 F0F1 F1F2 F2E2 E2D2 D2E2 E2D2 D2D1 D1D2 D2C2 C2C1 C1D1 D1E1 E1E0 E0F0 F0F1 F1F0 F0E0"/>
            <route replacedOnEdge="C2D2" reason="taxi:idling:randomCircling" replacedAtTime="46.00" probability="0" edges="A0B0 B0C0 C0C1 C1C2 C2D2 D2D1 D1C1 C1C2 C2C1 C1B1 B1C1 C1D1 D1E1 E1E2 E2F2 F2F1 F1F0 F0E0 E0D0 D0D1 D1C1 C1C0 C0C1 C1C2 C2B2 B2C2 C2B2 B2B1 B1A1 A1B1 B1B0 B0A0 A0A1 A1A2 A2B2 B2A2 A2A1 A1A2 A2B2 B2A2 A2A1 A1B1 B1B2 B2C2 C2C1 C1B1 B1B0 B0A0 A0A1 A1A0 A0B0 B0B1 B1A1 A1B1 B1B0 B0A0 A0A1 A1A2 A2B2 B2B1 B1A1 A1A0 A0B0 B0B1 B1B0 B0B1 B1B2 B2C2 C2D2 D2D1 D1D2 D2E2 E2D2 D2C2 C2D2 D2C2 C2D2 D2E2 E2F2 F2F1 F1F2 F2E2 E2F2 F2F1 F1E1 E1E0 E0E1 E1E0 E0D0 D0E0 E0E1 E1E0 E0F0 F0F1 F1F2 F2E2 E2D2 D2E2 E2D2 D2D1 D1D2 D2C2 C2C1 C1D1 D1E1 E1E0 E0F0 F0F1 F1F0 F0E0 E0E1 E1E2"/>
            <route replacedOnEdge="C2D2" reason="taxi:idling:randomCircling" replacedAtTime="46.00" probability="0" edges="A0B0 B0C0 C0C1 C1C2 C2D2 D2D1 D1C1 C1C2 C2C1 C1B1 B1C1 C1D1 D1E1 E1E2 E2F2 F2F1 F1F0 F0E0 E0D0 D0D1 D1C1 C1C0 C0C1 C1C2 C2B2 B2C2 C2B2 B2B1 B1A1 A1B1 B1B0 B0A0 A0A1 A1A2 A2B2 B2A2 A2A1 A1A2 A2B2 B2A2 A2A1 A1B1 B1B2 B2C2 C2C1 C1B1 B1B0 B0A0 A0A1 A1A0 A0B0 B0B1 B1A1 A1B1 B1B0 B0A0 A0A1 A1A2 A2B2 B2B1 B1A1 A1A0 A0B0 B0B1 B1B0 B0B1 B1B2 B2C2 C2D2 D2D1 D1D2 D2E2 E2D2 D2C2 C2D2 D2C2 C2D2 D2E2 E2F2 F2F1 F1F2 F2E2 E2F2 F2F1 F1E1 E1E0 E0E1 E1E0 E0D0 D0E0 E0E1 E1E0 E0F0 F0F1 F1F2 F2E2 E2D2 D2E2 E2D2 D2D1 D1D2 D2C2 C2C1 C1D1 D1E1 E1E0 E0F0 F0F1 F1F0 F0E0 E0E1 E1E2 E2F2 F2F1"/>
            <route replacedOnEdge="D2D1" reason="taxi:idling:randomCircling" replacedAtTime="47.00" probability="0" edges="A0B0 B0C0 C0C1 C1C2 C2D2 D2D1 D1C1 C1C2 C2C1 C1B1 B1C1 C1D1 D1E1 E1E2 E2F2 F2F1 F1F0 F0E0 E0D0 D0D1 D1C1 C1C0 C0C1 C1C2 C2B2 B2C2 C2B2 B2B1 B1A1 A1B1 B1B0 B0A0 A0A1 A1A2 A2B2 B2A2 A2A1 A1A2 A2B2 B2A2 A2A1 A1B1 B1B2 B2C2 C2C1 C1B1 B1B0 B0A0 A0A1 A1A0 A0B0 B0B1 B1A1 A1B1 B1B0 B0A0 A0A1 A1A2 A2B2 B2B1 B1A1 A1A0 A0B0 B0B1 B1B0 B0B1 B1B2 B2C2 C2D2 D2D1 D1D2 D2E2 E2D2 D2C2 C2D2 D2C2 C2D2 D2E2 E2F2 F2F1 F1F2 F2E2 E2F2 F2F1 F1E1 E1E0 E0E1 E1E0 E0D0 D0E0 E0E1 E1E0 E0F0 F0F1 F1F2 F2E2 E2D2 D2E2 E2D2 D2D1 D1D2 D2C2 C2C1 C1D1 D1E1 E1E0 E0F0 F0F1 F1F0 F0E0 E0E1 E1E2 E2F2 F2F1 F1E1 E1E2"/>
            <route replacedOnEdge="D2D1" reason="taxi:idling:randomCircling" replacedAtTime="47.00" probability="0" edges="A0B0 B0C0 C0C1 C1C2 C2D2 D2D1 D1C1 C1C2 C2C1 C1B1 B1C1 C1D1 D1E1 E1E2 E2F2 F2F1 F1F0 F0E0 E0D0 D0D1 D1C1 C1C0 C0C1 C1C2 C2B2 B2C2 C2B2 B2B1 B1A1 A1B1 B1B0 B0A0 A0A1 A1A2 A2B2 B2A2 A2A1 A1A2 A2B2 B2A2 A2A1 A1B1 B1B2 B2C2 C2C1 C1B1 B1B0 B0A0 A0A1 A1A0 A0B0 B0B1 B1A1 A1B1 B1B0 B0A0 A0A1 A1A2 A2B2 B2B1 B1A1 A1A0 A0B0 B0B1 B1B0 B0B1 B1B2 B2C2 C2D2 D2D1 D1D2 D2E2 E2D2 D2C2 C2D2 D2C2 C2D2 D2E2 E2F2 F2F1 F1F2 F2E2 E2F2 F2F1 F1E1 E1E0 E0E1 E1E0 E0D0 D0E0 E0E1 E1E0 E0F0 F0F1 F1F2 F2E2 E2D2 D2E2 E2D2 D2D1 D1D2 D2C2 C2C1 C1D1 D1E1 E1E0 E0F0 F0F1 F1F0 F0E0 E0E1 E1E2 E2F2 F2F1 F1E1 E1E2 E2F2 F2F1"/>
            <route replacedOnEdge="D2D1" reason="taxi:idling:randomCircling" replacedAtTime="48.00" probability="0" edges="A0B0 B0C0 C0C1 C1C2 C2D2 D2D1 D1C1 C1C2 C2C1 C1B1 B1C1 C1D1 D1E1 E1E2 E2F2 F2F1 F1F0 F0E0 E0D0 D0D1 D1C1 C1C0 C0C1 C1C2 C2B2 B2C2 C2B2 B2B1 B1A1 A1B1 B1B0 B0A0 A0A1 A1A2 A2B2 B2A2 A2A1 A1A2 A2B2 B2A2 A2A1 A1B1 B1B2 B2C2 C2C1 C1B1 B1B0 B0A0 A0A1 A1A0 A0B0 B0B1 B1A1 A1B1 B1B0 B0A0 A0A1 A1A2 A2B2 B2B1 B1A1 A1A0 A0B0 B0B1 B1B0 B0B1 B1B2 B2C2 C2D2 D2D1 D1D2 D2E2 E2D2 D2C2 C2D2 D2C2 C2D2 D2E2 E2F2 F2F1 F1F2 F2E2 E2F2 F2F1 F1E1 E1E0 E0E1 E1E0 E0D0 D0E0 E0E1 E1E0 E0F0 F0F1 F1F2 F2E2 E2D2 D2E2 E2D2 D2D1 D1D2 D2C2 C2C1 C1D1 D1E1 E1E0 E0F0 F0F1 F1F0 F0E0 E0E1 E1E2 E2F2 F2F1 F1E1 E1E2 E2F2 F2F1 F1F2 F2E2"/>
            <route replacedOnEdge="D2D1" reason="taxi:idling:randomCircling" replacedAtTime="49.00" probability="0" edges="A0B0 B0C0 C0C1 C1C2 C2D2 D2D1 D1C1 C1C2 C2C1 C1B1 B1C1 C1D1 D1E1 E1E2 E2F2 F2F1 F1F0 F0E0 E0D0 D0D1 D1C1 C1C0 C0C1 C1C2 C2B2 B2C2 C2B2 B2B1 B1A1 A1B1 B1B0 B0A0 A0A1 A1A2 A2B2 B2A2 A2A1 A1A2 A2B2 B2A2 A2A1 A1B1 B1B2 B2C2 C2C1 C1B1 B1B0 B0A0 A0A1 A1A0 A0B0 B0B1 B1A1 A1B1 B1B0 B0A0 A0A1 A1A2 A2B2 B2B1 B1A1 A1A0 A0B0 B0B1 B1B0 B0B1 B1B2 B2C2 C2D2 D2D1 D1D2 D2E2 E2D2 D2C2 C2D2 D2C2 C2D2 D2E2 E2F2 F2F1 F1F2 F2E2 E2F2 F2F1 F1E1 E1E0 E0E1 E1E0 E0D0 D0E0 E0E1 E1E0 E0F0 F0F1 F1F2 F2E2 E2D2 D2E2 E2D2 D2D1 D1D2 D2C2 C2C1 C1D1 D1E1 E1E0 E0F0 F0F1 F1F0 F0E0 E0E1 E1E2 E2F2 F2F1 F1E1 E1E2 E2F2 F2F1 F1F2 F2E2 E2F2 F2F1"/>
            <route replacedOnEdge="D2D1" reason="taxi:idling:randomCircling" replacedAtTime="50.00" probability="0" edges="A0B0 B0C0 C0C1 C1C2 C2D2 D2D1 D1C1 C1C2 C2C1 C1B1 B1C1 C1D1 D1E1 E1E2 E2F2 F2F1 F1F0 F0E0 E0D0 D0D1 D1C1 C1C0 C0C1 C1C2 C2B2 B2C2 C2B2 B2B1 B1A1 A1B1 B1B0 B0A0 A0A1 A1A2 A2B2 B2A2 A2A1 A1A2 A2B2 B2A2 A2A1 A1B1 B1B2 B2C2 C2C1 C1B1 B1B0 B0A0 A0A1 A1A0 A0B0 B0B1 B1A1 A1B1 B1B0 B0A0 A0A1 A1A2 A2B2 B2B1 B1A1 A1A0 A0B0 B0B1 B1B0 B0B1 B1B2 B2C2 C2D2 D2D1 D1D2 D2E2 E2D2 D2C2 C2D2 D2C2 C2D2 D2E2 E2F2 F2F1 F1F2 F2E2 E2F2 F2F1 F1E1 E1E0 E0E1 E1E0 E0D0 D0E0 E0E1 E1E0 E0F0 F0F1 F1F2 F2E2 E2D2 D2E2 E2D2 D2D1 D1D2 D2C2 C2C1 C1D1 D1E1 E1E0 E0F0 F0F1 F1F0 F0E0 E0E1 E1E2 E2F2 F2F1 F1E1 E1E2 E2F2 F2F1 F1F2 F2E2 E2F2 F2F1 F1F0 F0E0"/>
            <route replacedOnEdge="D2D1" reason="taxi:idling:randomCircling" replacedAtTime="51.00" probability="0" edges="A0B0 B0C0 C0C1 C1C2 C2D2 D2D1 D1C1 C1C2 C2C1 C1B1 B1C1 C1D1 D1E1 E1E2 E2F2 F2F1 F1F0 F0E0 E0D0 D0D1 D1C1 C1C0 C0C1 C1C2 C2B2 B2C2 C2B2 B2B1 B1A1 A1B1 B1B0 B0A0 A0A1 A1A2 A2B2 B2A2 A2A1 A1A2 A2B2 B2A2 A2A1 A1B1 B1B2 B2C2 C2C1 C1B1 B1B0 B0A0 A0A1 A1A0 A0B0 B0B1 B1A1 A1B1 B1B0 B0A0 A0A1 A1A2 A2B2 B2B1 B1A1 A1A0 A0B0 B0B1 B1B0 B0B1 B1B2 B2C2 C2D2 D2D1 D1D2 D2E2 E2D2 D2C2 C2D2 D2C2 C2D2 D2E2 E2F2 F2F1 F1F2 F2E2 E2F2 F2F1 F1E1 E1E0 E0E1 E1E0 E0D0 D0E0 E0E1 E1E0 E0F0 F0F1 F1F2 F2E2 E2D2 D2E2 E2D2 D2D1 D1D2 D2C2 C2C1 C1D1 D1E1 E1E0 E0F0 F0F1 F1F0 F0E0 E0E1 E1E2 E2F2 F2F1 F1E1 E1E2 E2F2 F2F1 F1F2 F2E2 E2F2 F2F1 F1F0 F0E0 E0F0 F0F1"/>