<?xml version="1.0" encoding="UTF-8"?>

<!-- generated on 2024-06-26 13:47:13 by Eclipse SUMO sumo Version v1_20_0+0840-6edfc792969
This data file and the accompanying materials
are made available under the terms of the Eclipse Public License v2.0
which accompanies this distribution, and is available at
http://www.eclipse.org/legal/epl-v20.html
This file may also be made available under the following Secondary
Licenses when the conditions for such availability set forth in the Eclipse
Public License 2.0 are satisfied: GNU General Public License, version 2
or later which is available at
https://www.gnu.org/licenses/old-licenses/gpl-2.0-standalone.html
SPDX-License-Identifier: EPL-2.0 OR GPL-2.0-or-later
<sumoConfiguration xmlns:xsi="http://www.w3.org/2001/XMLSchema-instance" xsi:noNamespaceSchemaLocation="http://sumo.dlr.de/xsd/sumoConfiguration.xsd">

    <input>
        <net-file value="net.net.xml"/>
        <route-files value="input_routes.rou.xml"/>
    </input>

    <output>
        <write-license value="true"/>
        <tripinfo-output value="tripinfos.xml"/>
        <tripinfo-output.write-unfinished value="true"/>
        <vehroute-output value="vehroutes.xml"/>
        <vehroute-output.write-unfinished value="true"/>
    </output>

    <time>
        <end value="300"/>
    </time>

    <processing>
        <default.speeddev value="0"/>
    </processing>

    <report>
        <xml-validation value="never"/>
        <duration-log.disable value="true"/>
        <no-step-log value="true"/>
    </report>

    <taxi_device>
        <device.taxi.idle-algorithm value="randomCircling"/>
    </taxi_device>

</sumoConfiguration>
-->

<routes xmlns:xsi="http://www.w3.org/2001/XMLSchema-instance" xsi:noNamespaceSchemaLocation="http://sumo.dlr.de/xsd/routes_file.xsd">
    <person id="p0" depart="0.00" arrival="136.00">
        <ride from="B2C2" to="A0B0" arrivalPos="87.60" lines="taxi"/>
    </person>

    <vehicle id="trip_0" type="taxi" depart="0.00">
        <routeDistribution>
            <route replacedOnEdge="A0B0" reason="taxi:idling:randomCircling" replacedAtTime="0.00" probability="0" edges="A0B0 B0C0"/>
            <route replacedOnEdge="A0B0" reason="taxi:idling:randomCircling" replacedAtTime="7.00" probability="0" edges="A0B0 B0C0 C0C1 C1C2"/>
            <route replacedOnEdge="B0C0" replacedOnIndex="1" reason="taxi:idling:randomCircling" replacedAtTime="15.00" probability="0" edges="A0B0 B0C0 C0C1 C1C2 C2B2"/>
            <route replacedOnEdge="C0C1" replacedOnIndex="2" reason="taxi:idling:randomCircling" replacedAtTime="24.00" probability="0" edges="A0B0 B0C0 C0C1 C1C2 C2B2 B2B1"/>
            <route replacedOnEdge="C1C2" replacedOnIndex="3" reason="taxi:idling:randomCircling" replacedAtTime="32.00" probability="0" edges="A0B0 B0C0 C0C1 C1C2 C2B2 B2B1 B1B0"/>
            <route replacedOnEdge="C2B2" replacedOnIndex="4" reason="taxi:idling:randomCircling" replacedAtTime="42.00" probability="0" edges="A0B0 B0C0 C0C1 C1C2 C2B2 B2B1 B1B0 B0C0"/>
            <route replacedOnEdge="B2B1" replacedOnIndex="5" reason="taxi:idling:randomCircling" replacedAtTime="52.00" probability="0" edges="A0B0 B0C0 C0C1 C1C2 C2B2 B2B1 B1B0 B0C0 C0B0"/>
            <route replacedOnEdge="B1B0" replacedOnIndex="6" reason="taxi:idling:randomCircling" replacedAtTime="59.00" probability="0" edges="A0B0 B0C0 C0C1 C1C2 C2B2 B2B1 B1B0 B0C0 C0B0 B0C0"/>
            <route replacedOnEdge="B0C0" replacedOnIndex="7" reason="taxi:idling:randomCircling" replacedAtTime="70.00" probability="0" edges="A0B0 B0C0 C0C1 C1C2 C2B2 B2B1 B1B0 B0C0 C0B0 B0C0 C0C1"/>
            <route replacedOnEdge="C0B0" replacedOnIndex="8" reason="taxi:idling:randomCircling" replacedAtTime="80.00" probability="0" edges="A0B0 B0C0 C0C1 C1C2 C2B2 B2B1 B1B0 B0C0 C0B0 B0C0 C0C1 C1C0"/>
            <route replacedOnEdge="B0C0" replacedOnIndex="9" reason="taxi:idling:randomCircling" replacedAtTime="92.00" probability="0" edges="A0B0 B0C0 C0C1 C1C2 C2B2 B2B1 B1B0 B0C0 C0B0 B0C0 C0C1 C1C0 C0B0"/>
            <route replacedOnEdge="C0C1" replacedOnIndex="10" reason="taxi:idling:randomCircling" replacedAtTime="102.00" probability="0" edges="A0B0 B0C0 C0C1 C1C2 C2B2 B2B1 B1B0 B0C0 C0B0 B0C0 C0C1 C1C0 C0B0 B0C0"/>
            <route replacedOnEdge="C1C0" replacedOnIndex="11" reason="taxi:idling:randomCircling" replacedAtTime="113.00" probability="0" edges="A0B0 B0C0 C0C1 C1C2 C2B2 B2B1 B1B0 B0C0 C0B0 B0C0 C0C1 C1C0 C0B0 B0C0 C0B0"/>
            <route replacedOnEdge="C0B0" replacedOnIndex="12" reason="taxi:idling:randomCircling" replacedAtTime="123.00" probability="0" edges="A0B0 B0C0 C0C1 C1C2 C2B2 B2B1 B1B0 B0C0 C0B0 B0C0 C0C1 C1C0 C0B0 B0C0 C0B0 B0C0"/>
            <route replacedOnEdge="B0C0" replacedOnIndex="13" reason="taxi:idling:randomCircling" replacedAtTime="134.00" probability="0" edges="A0B0 B0C0 C0C1 C1C2 C2B2 B2B1 B1B0 B0C0 C0B0 B0C0 C0C1 C1C0 C0B0 B0C0 C0B0 B0C0 C0C1"/>
            <route replacedOnEdge="C0B0" replacedOnIndex="14" reason="taxi:idling:randomCircling" replacedAtTime="145.00" probability="0" edges="A0B0 B0C0 C0C1 C1C2 C2B2 B2B1 B1B0 B0C0 C0B0 B0C0 C0C1 C1C0 C0B0 B0C0 C0B0 B0C0 C0C1 C1C0"/>
            <route replacedOnEdge="B0C0" replacedOnIndex="15" reason="taxi:idling:randomCircling" replacedAtTime="156.00" probability="0" edges="A0B0 B0C0 C0C1 C1C2 C2B2 B2B1 B1B0 B0C0 C0B0 B0C0 C0C1 C1C0 C0B0 B0C0 C0B0 B0C0 C0C1 C1C0 C0B0"/>
            <route replacedOnEdge="C0C1" replacedOnIndex="16" reason="taxi:idling:randomCircling" replacedAtTime="166.00" probability="0" edges="A0B0 B0C0 C0C1 C1C2 C2B2 B2B1 B1B0 B0C0 C0B0 B0C0 C0C1 C1C0 C0B0 B0C0 C0B0 B0C0 C0C1 C1C0 C0B0 B0A0"/>
            <route replacedOnEdge="C1C0" replacedOnIndex="17" reason="taxi:idling:randomCircling" replacedAtTime="177.00" probability="0" edges="A0B0 B0C0 C0C1 C1C2 C2B2 B2B1 B1B0 B0C0 C0B0 B0C0 C0C1 C1C0 C0B0 B0C0 C0B0 B0C0 C0C1 C1C0 C0B0 B0A0 A0A1"/>
            <route replacedOnEdge="C0B0" replacedOnIndex="18" reason="taxi:idling:randomCircling" replacedAtTime="188.00" probability="0" edges="A0B0 B0C0 C0C1 C1C2 C2B2 B2B1 B1B0 B0C0 C0B0 B0C0 C0C1 C1C0 C0B0 B0C0 C0B0 B0C0 C0C1 C1C0 C0B0 B0A0 A0A1 A1A0"/>
            <route replacedOnEdge="B0A0" replacedOnIndex="19" reason="taxi:idling:randomCircling" replacedAtTime="196.00" probability="0" edges="A0B0 B0C0 C0C1 C1C2 C2B2 B2B1 B1B0 B0C0 C0B0 B0C0 C0C1 C1C0 C0B0 B0C0 C0B0 B0C0 C0C1 C1C0 C0B0 B0A0 A0A1 A1A0 A0B0"/>
            <route replacedOnEdge="A0A1" replacedOnIndex="20" reason="taxi:idling:randomCircling" replacedAtTime="205.00" probability="0" edges="A0B0 B0C0 C0C1 C1C2 C2B2 B2B1 B1B0 B0C0 C0B0 B0C0 C0C1 C1C0 C0B0 B0C0 C0B0 B0C0 C0C1 C1C0 C0B0 B0A0 A0A1 A1A0 A0B0 B0A0"/>
            <route replacedOnEdge="A1A0" replacedOnIndex="21" reason="taxi:idling:randomCircling" replacedAtTime="216.00" probability="0" edges="A0B0 B0C0 C0C1 C1C2 C2B2 B2B1 B1B0 B0C0 C0B0 B0C0 C0C1 C1C0 C0B0 B0C0 C0B0 B0C0 C0C1 C1C0 C0B0 B0A0 A0A1 A1A0 A0B0 B0A0 A0A1"/>
            <route replacedOnEdge="A0B0" replacedOnIndex="22" reason="taxi:idling:randomCircling" replacedAtTime="226.00" probability="0" edges="A0B0 B0C0 C0C1 C1C2 C2B2 B2B1 B1B0 B0C0 C0B0 B0C0 C0C1 C1C0 C0B0 B0C0 C0B0 B0C0 C0C1 C1C0 C0B0 B0A0 A0A1 A1A0 A0B0 B0A0 A0A1 A1A2"/>
            <route replacedOnEdge="B0A0" replacedOnIndex="23" reason="taxi:idling:randomCircling" replacedAtTime="237.00" probability="0" edges="A0B0 B0C0 C0C1 C1C2 C2B2 B2B1 B1B0 B0C0 C0B0 B0C0 C0C1 C1C0 C0B0 B0C0 C0B0 B0C0 C0C1 C1C0 C0B0 B0A0 A0A1 A1A0 A0B0 B0A0 A0A1 A1A2 A2B2"/>
            <route replacedOnEdge="A0A1" replacedOnIndex="24" reason="taxi:idling:randomCircling" replacedAtTime="247.00" probability="0" edges="A0B0 B0C0 C0C1 C1C2 C2B2 B2B1 B1B0 B0C0 C0B0 B0C0 C0C1 C1C0 C0B0 B0C0 C0B0 B0C0 C0C1 C1C0 C0B0 B0A0 A0A1 A1A0 A0B0 B0A0 A0A1 A1A2 A2B2 B2C2"/>
            <route replacedOnEdge="A1A2" replacedOnIndex="25" reason="taxi:idling:randomCircling" replacedAtTime="255.00" probability="0" edges="A0B0 B0C0 C0C1 C1C2 C2B2 B2B1 B1B0 B0C0 C0B0 B0C0 C0C1 C1C0 C0B0 B0C0 C0B0 B0C0 C0C1 C1C0 C0B0 B0A0 A0A1 A1A0 A0B0 B0A0 A0A1 A1A2 A2B2 B2C2 C2C1"/>
            <route replacedOnEdge="A2B2" replacedOnIndex="26" reason="taxi:idling:randomCircling" replacedAtTime="265.00" probability="0" edges="A0B0 B0C0 C0C1 C1C2 C2B2 B2B1 B1B0 B0C0 C0B0 B0C0 C0C1 C1C0 C0B0 B0C0 C0B0 B0C0 C0C1 C1C0 C0B0 B0A0 A0A1 A1A0 A0B0 B0A0 A0A1 A1A2 A2B2 B2C2 C2C1 C1D1"/>
            <route replacedOnEdge="B2C2" replacedOnIndex="27" reason="taxi:idling:randomCircling" replacedAtTime="273.00" probability="0" edges="A0B0 B0C0 C0C1 C1C2 C2B2 B2B1 B1B0 B0C0 C0B0 B0C0 C0C1 C1C0 C0B0 B0C0 C0B0 B0C0 C0C1 C1C0 C0B0 B0A0 A0A1 A1A0 A0B0 B0A0 A0A1 A1A2 A2B2 B2C2 C2C1 C1D1 D1C1"/>
            <route replacedOnEdge="C2C1" replacedOnIndex="28" reason="taxi:idling:randomCircling" replacedAtTime="282.00" probability="0" edges="A0B0 B0C0 C0C1 C1C2 C2B2 B2B1 B1B0 B0C0 C0B0 B0C0 C0C1 C1C0 C0B0 B0C0 C0B0 B0C0 C0C1 C1C0 C0B0 B0A0 A0A1 A1A0 A0B0 B0A0 A0A1 A1A2 A2B2 B2C2 C2C1 C1D1 D1C1 C1C2"/>
            <route replacedOnEdge="C1D1" replacedOnIndex="29" reason="taxi:idling:randomCircling" replacedAtTime="292.00" probability="0" edges="A0B0 B0C0 C0C1 C1C2 C2B2 B2B1 B1B0 B0C0 C0B0 B0C0 C0C1 C1C0 C0B0 B0C0 C0B0 B0C0 C0C1 C1C0 C0B0 B0A0 A0A1 A1A0 A0B0 B0A0 A0A1 A1A2 A2B2 B2C2 C2C1 C1D1 D1C1 C1C2 C2B2"/>
            <route edges="A0B0 B0C0 C0C1 C1C2 C2B2 B2B1 B1B0 B0C0 C0B0 B0C0 C0C1 C1C0 C0B0 B0C0 C0B0 B0C0 C0C1 C1C0 C0B0 B0A0 A0A1 A1A0 A0B0 B0A0 A0A1 A1A2 A2B2 B2C2 C2C1 C1D1 D1C1 C1C2 C2B2 B2A2"/>
        </routeDistribution>
    </vehicle>

    <vehicle id="trip_1" type="taxi" depart="0.00">
        <routeDistribution>
            <route replacedOnEdge="A2B2" reason="taxi:idling:randomCircling" replacedAtTime="0.00" probability="0" edges="A2B2 B2C2"/>
            <route replacedOnEdge="A2B2" reason="taxi:prepare_dispatch" replacedAtTime="0.00" probability="0" edges="A2B2 B2C2 C2D2 D2C2"/>
            <route replacedOnEdge="A2B2" reason="taxi:dispatch" replacedAtTime="0.00" probability="0" edges="A2B2 B2C2 A0B0"/>
            <route replacedOnEdge="A0B0" replacedOnIndex="6" reason="taxi:idling:randomCircling" replacedAtTime="137.00" probability="0" edges="A2B2 B2C2 C2C1 C1B1 B1A1 A1A0 A0B0"/>
            <route replacedOnEdge="B0B1" replacedOnIndex="7" reason="taxi:idling:randomCircling" replacedAtTime="147.00" probability="0" edges="A2B2 B2C2 C2C1 C1B1 B1A1 A1A0 A0B0 B0B1 B1A1 A1A2 A2B2"/>
            <route replacedOnEdge="B1A1" replacedOnIndex="8" reason="taxi:idling:randomCircling" replacedAtTime="157.00" probability="0" edges="A2B2 B2C2 C2C1 C1B1 B1A1 A1A0 A0B0 B0B1 B1A1 A1A2 A2B2 B2B1"/>
            <route replacedOnEdge="A1A2" replacedOnIndex="9" reason="taxi:idling:randomCircling" replacedAtTime="168.00" probability="0" edges="A2B2 B2C2 C2C1 C1B1 B1A1 A1A0 A0B0 B0B1 B1A1 A1A2 A2B2 B2B1 B1A1"/>
            <route replacedOnEdge="A2B2" replacedOnIndex="10" reason="taxi:idling:randomCircling" replacedAtTime="178.00" probability="0" edges="A2B2 B2C2 C2C1 C1B1 B1A1 A1A0 A0B0 B0B1 B1A1 A1A2 A2B2 B2B1 B1A1 A1B1"/>
            <route replacedOnEdge="B2B1" replacedOnIndex="11" reason="taxi:idling:randomCircling" replacedAtTime="187.00" probability="0" edges="A2B2 B2C2 C2C1 C1B1 B1A1 A1A0 A0B0 B0B1 B1A1 A1A2 A2B2 B2B1 B1A1 A1B1 B1B0"/>
            <route replacedOnEdge="B1A1" replacedOnIndex="12" reason="taxi:idling:randomCircling" replacedAtTime="197.00" probability="0" edges="A2B2 B2C2 C2C1 C1B1 B1A1 A1A0 A0B0 B0B1 B1A1 A1A2 A2B2 B2B1 B1A1 A1B1 B1B0 B0A0"/>
            <route replacedOnEdge="A1B1" replacedOnIndex="13" reason="taxi:idling:randomCircling" replacedAtTime="209.00" probability="0" edges="A2B2 B2C2 C2C1 C1B1 B1A1 A1A0 A0B0 B0B1 B1A1 A1A2 A2B2 B2B1 B1A1 A1B1 B1B0 B0A0 A0A1"/>
            <route replacedOnEdge="B1B0" replacedOnIndex="14" reason="taxi:idling:randomCircling" replacedAtTime="220.00" probability="0" edges="A2B2 B2C2 C2C1 C1B1 B1A1 A1A0 A0B0 B0B1 B1A1 A1A2 A2B2 B2B1 B1A1 A1B1 B1B0 B0A0 A0A1 A1B1"/>
            <route replacedOnEdge="B0A0" replacedOnIndex="15" reason="taxi:idling:randomCircling" replacedAtTime="229.00" probability="0" edges="A2B2 B2C2 C2C1 C1B1 B1A1 A1A0 A0B0 B0B1 B1A1 A1A2 A2B2 B2B1 B1A1 A1B1 B1B0 B0A0 A0A1 A1B1 B1B0"/>
            <route replacedOnEdge="A0A1" replacedOnIndex="16" reason="taxi:idling:randomCircling" replacedAtTime="240.00" probability="0" edges="A2B2 B2C2 C2C1 C1B1 B1A1 A1A0 A0B0 B0B1 B1A1 A1A2 A2B2 B2B1 B1A1 A1B1 B1B0 B0A0 A0A1 A1B1 B1B0 B0C0"/>
            <route replacedOnEdge="A1B1" replacedOnIndex="17" reason="taxi:idling:randomCircling" replacedAtTime="249.00" probability="0" edges="A2B2 B2C2 C2C1 C1B1 B1A1 A1A0 A0B0 B0B1 B1A1 A1A2 A2B2 B2B1 B1A1 A1B1 B1B0 B0A0 A0A1 A1B1 B1B0 B0C0 C0C1"/>
            <route replacedOnEdge="B1B0" replacedOnIndex="18" reason="taxi:idling:randomCircling" replacedAtTime="259.00" probability="0" edges="A2B2 B2C2 C2C1 C1B1 B1A1 A1A0 A0B0 B0B1 B1A1 A1A2 A2B2 B2B1 B1A1 A1B1 B1B0 B0A0 A0A1 A1B1 B1B0 B0C0 C0C1 C1C0"/>
            <route replacedOnEdge="B0C0" replacedOnIndex="19" reason="taxi:idling:randomCircling" replacedAtTime="270.00" probability="0" edges="A2B2 B2C2 C2C1 C1B1 B1A1 A1A0 A0B0 B0B1 B1A1 A1A2 A2B2 B2B1 B1A1 A1B1 B1B0 B0A0 A0A1 A1B1 B1B0 B0C0 C0C1 C1C0 C0C1"/>
            <route replacedOnEdge="C0C1" replacedOnIndex="20" reason="taxi:idling:randomCircling" replacedAtTime="279.00" probability="0" edges="A2B2 B2C2 C2C1 C1B1 B1A1 A1A0 A0B0 B0B1 B1A1 A1A2 A2B2 B2B1 B1A1 A1B1 B1B0 B0A0 A0A1 A1B1 B1B0 B0C0 C0C1 C1C0 C0C1 C1B1"/>
            <route replacedOnEdge="C1C0" replacedOnIndex="21" reason="taxi:idling:randomCircling" replacedAtTime="290.00" probability="0" edges="A2B2 B2C2 C2C1 C1B1 B1A1 A1A0 A0B0 B0B1 B1A1 A1A2 A2B2 B2B1 B1A1 A1B1 B1B0 B0A0 A0A1 A1B1 B1B0 B0C0 C0C1 C1C0 C0C1 C1B1 B1C1"/>
            <route edges="A2B2 B2C2 C2C1 C1B1 B1A1 A1A0 A0B0 B0B1 B1A1 A1A2 A2B2 B2B1 B1A1 A1B1 B1B0 B0A0 A0A1 A1B1 B1B0 B0C0 C0C1 C1C0 C0C1 C1B1 B1C1 C1D1"/>
        </routeDistribution>
        <stop lane="B2C2_1" permitted="p0" actType="pickup p0 (0)"/>
        <stop lane="A0B0_1" actType="dropOff p0 (0)"/>
    </vehicle>

</routes>
