<?xml version="1.0" encoding="UTF-8"?>

<!-- generated on 2026-04-15T10:24:01.161249+01:00 by Eclipse SUMO sumo v1_26_0+1166-f38e976d003
<sumoConfiguration xmlns:xsi="http://www.w3.org/2001/XMLSchema-instance" xsi:noNamespaceSchemaLocation="http://sumo.dlr.de/xsd/sumoConfiguration.xsd">

    <input>
        <net-file value="net.net.xml"/>
        <load-state value="state.xml"/>
    </input>

    <output>
        <output-suffix value="2"/>
        <tripinfo-output value="tripinfo.xml"/>
        <tripinfo-output.write-unfinished value="true"/>
        <vehroute-output value="vehroutes.xml"/>
        <vehroute-output.write-unfinished value="true"/>
    </output>

    <processing>
        <default.departspeed value="0"/>
        <default.departlane value="first"/>
    </processing>

    <report>
        <duration-log.statistics value="true"/>
        <no-step-log value="true"/>
    </report>

    <taxi_device>
        <device.taxi.dispatch-algorithm.output value="dispatchinfos.xml"/>
    </taxi_device>

</sumoConfiguration>
-->

<tripinfos xmlns:xsi="http://www.w3.org/2001/XMLSchema-instance" xsi:noNamespaceSchemaLocation="http://sumo.dlr.de/xsd/tripinfo_file.xsd">
    <personinfo id="p0" depart="0.00" type="DEFAULT_PEDTYPE" speedFactor="1.01" duration="139.00" waitingTime="60.00" timeLoss="8.26" traveltime="79.00">
        <ride waitingTime="60.00" vehicle="trip_0" depart="60.00" arrival="139.00" arrivalPos="285.60" duration="79.00" routeLength="880.01" timeLoss="8.26"/>
    </personinfo>
    <personinfo id="p1" depart="10.00" type="DEFAULT_PEDTYPE" speedFactor="1.08" duration="196.00" waitingTime="60.00" timeLoss="10.04" traveltime="136.00">
        <ride waitingTime="60.00" vehicle="trip_1" depart="70.00" arrival="206.00" arrivalPos="285.60" duration="136.00" routeLength="774.81" timeLoss="10.04"/>
    </personinfo>
    <personinfo id="p2" depart="20.00" type="DEFAULT_PEDTYPE" speedFactor="1.03" duration="317.00" waitingTime="187.00" timeLoss="9.34" traveltime="130.00">
        <ride waitingTime="187.00" vehicle="trip_0" depart="207.00" arrival="337.00" arrivalPos="85.60" duration="130.00" routeLength="780.20" timeLoss="9.34"/>
    </personinfo>
    <personinfo id="p3" depart="30.00" type="DEFAULT_PEDTYPE" speedFactor="0.83" duration="420.00" waitingTime="284.00" timeLoss="10.46" traveltime="136.00">
        <ride waitingTime="284.00" vehicle="trip_1" depart="314.00" arrival="450.00" arrivalPos="85.60" duration="136.00" routeLength="765.29" timeLoss="10.46"/>
    </personinfo>
    <personinfo id="p4" depart="40.00" type="DEFAULT_PEDTYPE" speedFactor="1.05" duration="623.00" waitingTime="429.00" timeLoss="14.16" traveltime="194.00">
        <ride waitingTime="429.00" vehicle="trip_0" depart="469.00" arrival="663.00" arrivalPos="85.60" duration="194.00" routeLength="1570.25" timeLoss="14.16"/>
    </personinfo>
    <personinfo id="p5" depart="50.00" type="DEFAULT_PEDTYPE" speedFactor="0.89" duration="632.00" waitingTime="498.00" timeLoss="10.45" traveltime="134.00">
        <ride waitingTime="498.00" vehicle="trip_1" depart="548.00" arrival="682.00" arrivalPos="87.60" duration="134.00" routeLength="771.94" timeLoss="10.45"/>
    </personinfo>
    <personinfo id="p7" depart="70.00" type="DEFAULT_PEDTYPE" speedFactor="0.86" duration="829.00" waitingTime="708.00" timeLoss="9.74" traveltime="121.00">
        <ride waitingTime="708.00" vehicle="trip_1" depart="778.00" arrival="899.00" arrivalPos="85.60" duration="121.00" routeLength="570.52" timeLoss="9.74"/>
    </personinfo>
    <personinfo id="p6" depart="60.00" type="DEFAULT_PEDTYPE" speedFactor="0.94" duration="883.00" waitingTime="702.00" timeLoss="16.52" traveltime="181.00">
        <ride waitingTime="702.00" vehicle="trip_0" depart="762.00" arrival="943.00" arrivalPos="285.60" duration="181.00" routeLength="1359.14" timeLoss="16.52"/>
    </personinfo>
    <personinfo id="p8" depart="80.00" type="DEFAULT_PEDTYPE" speedFactor="1.09" duration="959.00" waitingTime="866.00" timeLoss="4.73" traveltime="93.00">
        <ride waitingTime="866.00" vehicle="trip_1" depart="946.00" arrival="1039.00" arrivalPos="85.60" duration="93.00" routeLength="270.88" timeLoss="4.73"/>
    </personinfo>
    <personinfo id="p9" depart="90.00" type="DEFAULT_PEDTYPE" speedFactor="1.03" duration="1106.00" waitingTime="912.00" timeLoss="16.40" traveltime="194.00">
        <ride waitingTime="912.00" vehicle="trip_0" depart="1002.00" arrival="1196.00" arrivalPos="285.60" duration="194.00" routeLength="1560.20" timeLoss="16.40"/>
    </personinfo>
    <tripinfo id="trip_0" depart="0.00" departLane="A0B0_1" departPos="5.10" departSpeed="0.00" departDelay="0.00" arrival="-1.00" arrivalLane="" arrivalPos="-1.00" arrivalSpeed="-1.00" duration="1199.00" routeLength="9192.48" waitingTime="18.00" waitingCount="5" stopTime="391.00" timeLoss="98.71" rerouteNo="11" devices="vehroute_trip_0 tripinfo_trip_0 routing_trip_0 taxi_trip_0 person_trip_0" vType="taxi" speedFactor="1.03" vaporized="">
        <taxi customers="5" occupiedDistance="6149.81" occupiedTime="551.00"/>
    </tripinfo>
    <tripinfo id="trip_1" depart="0.00" departLane="A2B2_1" departPos="5.10" departSpeed="0.00" departDelay="0.00" arrival="-1.00" arrivalLane="" arrivalPos="-1.00" arrivalSpeed="-1.00" duration="1199.00" routeLength="5894.12" waitingTime="19.00" waitingCount="7" stopTime="603.00" timeLoss="86.13" rerouteNo="11" devices="vehroute_trip_1 tripinfo_trip_1 routing_trip_1 taxi_trip_1 person_trip_1" vType="taxi" speedFactor="0.97" vaporized="">
        <taxi customers="5" occupiedDistance="3153.44" occupiedTime="335.00"/>
    </tripinfo>
</tripinfos>
