<?xml version="1.0" encoding="UTF-8"?>

<!-- generated on 05/02/13 14:15:22 by SUMO sumo Version 0.17.0
<?xml version="1.0" encoding="UTF-8"?>

<configuration xmlns:xsi="http://www.w3.org/2001/XMLSchema-instance" xsi:noNamespaceSchemaLocation="http://sumo-sim.org/xsd/sumoConfiguration.xsd">

    <input>
        <net-file value="net.net.xml"/>
        <route-files value="input_routes.rou.xml"/>
        <additional-files value="input_additional.add.xml,input_additional2.add.xml"/>
    </input>

    <time>
        <begin value="0"/>
        <end value="1000"/>
    </time>

    <report>
        <no-duration-log value="true"/>
        <no-step-log value="true"/>
    </report>

</configuration>
-->

<meandata xmlns:xsi="http://www.w3.org/2001/XMLSchema-instance" xsi:noNamespaceSchemaLocation="http://sumo-sim.org/xsd/meandata_file.xsd">
    <interval begin="0.00" end="25.00" id="dump_25">
        <edge id="beg" sampledSeconds="42.00" traveltime="29.32" density="3.37" occupancy="1.01" waitingTime="0.00" speed="17.00" departed="3" arrived="0" entered="0" left="0" laneChangedFrom="0" laneChangedTo="0"/>
    </interval>
    <interval begin="25.00" end="50.00" id="dump_25">
        <edge id="beg" sampledSeconds="61.50" traveltime="24.62" density="4.93" occupancy="1.48" waitingTime="0.00" speed="20.25" departed="2" arrived="0" entered="0" left="3" laneChangedFrom="0" laneChangedTo="0"/>
        <edge id="middle" sampledSeconds="40.90" traveltime="75.02" density="1.65" occupancy="0.50" waitingTime="0.00" speed="13.20" departed="0" arrived="0" entered="3" left="0" laneChangedFrom="0" laneChangedTo="0"/>
    </interval>
    <interval begin="50.00" end="75.00" id="dump_25">
        <edge id="beg" sampledSeconds="64.62" traveltime="26.07" density="5.18" occupancy="1.56" waitingTime="0.00" speed="19.12" departed="3" arrived="0" entered="0" left="2" laneChangedFrom="0" laneChangedTo="0"/>
        <edge id="middle" sampledSeconds="101.95" traveltime="74.63" density="4.12" occupancy="1.24" waitingTime="0.00" speed="13.27" departed="0" arrived="0" entered="2" left="0" laneChangedFrom="0" laneChangedTo="0"/>
    </interval>
    <interval begin="75.00" end="100.00" id="dump_25">
        <edge id="beg" sampledSeconds="63.43" traveltime="25.40" density="5.09" occupancy="1.53" waitingTime="0.00" speed="19.63" departed="2" arrived="0" entered="0" left="3" laneChangedFrom="0" laneChangedTo="0"/>
        <edge id="middle" sampledSeconds="163.93" traveltime="74.78" density="6.62" occupancy="1.99" waitingTime="0.00" speed="13.25" departed="0" arrived="0" entered="3" left="0" laneChangedFrom="0" laneChangedTo="0"/>
    </interval>
    <interval begin="100.00" end="125.00" id="dump_25">
        <edge id="beg" sampledSeconds="68.02" traveltime="26.67" density="5.46" occupancy="1.64" waitingTime="0.00" speed="18.69" departed="3" arrived="0" entered="0" left="2" laneChangedFrom="0" laneChangedTo="0"/>
        <edge id="end" sampledSeconds="14.98" traveltime="26.01" density="1.20" occupancy="0.36" waitingTime="0.00" speed="19.17" departed="0" arrived="0" entered="1" left="0" laneChangedFrom="0" laneChangedTo="0"/>
        <edge id="middle" sampledSeconds="207.11" traveltime="401.07" density="8.36" occupancy="2.51" waitingTime="0.00" speed="2.47" departed="0" arrived="0" entered="2" left="1" laneChangedFrom="0" laneChangedTo="0"/>
    </interval>
    <interval begin="125.00" end="150.00" id="dump_25">
        <edge id="beg" sampledSeconds="67.83" traveltime="27.48" density="5.44" occupancy="1.63" waitingTime="0.00" speed="18.14" departed="2" arrived="0" entered="0" left="3" laneChangedFrom="0" laneChangedTo="0"/>
        <edge id="end" sampledSeconds="7.89" traveltime="18.34" density="0.63" occupancy="0.19" waitingTime="0.00" speed="27.19" departed="0" arrived="0" entered="0" left="1" laneChangedFrom="0" laneChangedTo="0"/>
        <edge id="middle" sampledSeconds="258.20" traveltime="459.30" density="10.43" occupancy="3.13" waitingTime="0.00" speed="2.16" departed="0" arrived="0" entered="3" left="0" laneChangedFrom="0" laneChangedTo="0"/>
        <edge id="rend" sampledSeconds="17.22" traveltime="18.41" density="1.38" occupancy="0.41" waitingTime="0.00" speed="27.16" departed="0" arrived="0" entered="1" left="0" laneChangedFrom="0" laneChangedTo="0"/>
    </interval>
    <interval begin="150.00" end="175.00" id="dump_25">
        <edge id="beg" sampledSeconds="69.00" traveltime="26.61" density="5.54" occupancy="1.66" waitingTime="0.00" speed="18.74" departed="3" arrived="0" entered="0" left="2" laneChangedFrom="0" laneChangedTo="0"/>
        <edge id="end" sampledSeconds="10.93" traveltime="32.90" density="0.88" occupancy="0.26" waitingTime="0.00" speed="15.15" departed="0" arrived="0" entered="1" left="0" laneChangedFrom="0" laneChangedTo="0"/>
        <edge id="middle" sampledSeconds="309.29" traveltime="449.91" density="12.49" occupancy="3.75" waitingTime="0.00" speed="2.20" departed="0" arrived="0" entered="2" left="1" laneChangedFrom="0" laneChangedTo="0"/>
        <edge id="rend" sampledSeconds="1.32" traveltime="18.62" density="0.11" occupancy="0.03" waitingTime="0.00" speed="26.85" departed="0" arrived="1" entered="0" left="0" laneChangedFrom="0" laneChangedTo="0"/>
    </interval>
    <interval begin="175.00" end="200.00" id="dump_25">
        <edge id="beg" sampledSeconds="66.80" traveltime="27.61" density="5.36" occupancy="1.61" waitingTime="0.00" speed="18.06" departed="2" arrived="0" entered="0" left="3" laneChangedFrom="0" laneChangedTo="0"/>
        <edge id="end" sampledSeconds="12.38" traveltime="18.38" density="0.99" occupancy="0.30" waitingTime="0.00" speed="27.13" departed="0" arrived="0" entered="0" left="1" laneChangedFrom="0" laneChangedTo="0"/>
        <edge id="middle" sampledSeconds="358.15" traveltime="455.03" density="14.46" occupancy="4.34" waitingTime="0.00" speed="2.18" departed="0" arrived="0" entered="3" left="0" laneChangedFrom="0" laneChangedTo="0"/>
        <edge id="rend" sampledSeconds="12.72" traveltime="18.42" density="1.02" occupancy="0.31" waitingTime="0.00" speed="27.14" departed="0" arrived="0" entered="1" left="0" laneChangedFrom="0" laneChangedTo="0"/>
    </interval>
    <interval begin="200.00" end="225.00" id="dump_25">
        <edge id="beg" sampledSeconds="65.19" traveltime="25.31" density="5.23" occupancy="1.57" waitingTime="0.00" speed="19.70" departed="3" arrived="0" entered="0" left="2" laneChangedFrom="0" laneChangedTo="0"/>
        <edge id="end" sampledSeconds="28.15" traveltime="25.65" density="2.26" occupancy="0.68" waitingTime="0.00" speed="19.44" departed="0" arrived="0" entered="3" left="0" laneChangedFrom="0" laneChangedTo="0"/>
        <edge id="middle" sampledSeconds="397.28" traveltime="49.14" density="16.04" occupancy="4.81" waitingTime="0.00" speed="20.16" departed="0" arrived="0" entered="2" left="4" laneChangedFrom="0" laneChangedTo="0"/>
        <edge id="rend" sampledSeconds="5.83" traveltime="18.49" density="0.47" occupancy="0.14" waitingTime="0.00" speed="27.05" departed="0" arrived="1" entered="0" left="0" laneChangedFrom="0" laneChangedTo="0"/>
    </interval>
    <interval begin="225.00" end="250.00" id="dump_25">
        <edge id="beg" sampledSeconds="61.41" traveltime="24.57" density="4.93" occupancy="1.48" waitingTime="0.00" speed="20.29" departed="2" arrived="0" entered="0" left="3" laneChangedFrom="0" laneChangedTo="0"/>
        <edge id="end" sampledSeconds="133.47" traveltime="22.80" density="10.71" occupancy="3.21" waitingTime="0.00" speed="21.86" departed="0" arrived="0" entered="8" left="4" laneChangedFrom="0" laneChangedTo="0"/>
        <edge id="middle" sampledSeconds="313.28" traveltime="48.15" density="12.65" occupancy="3.80" waitingTime="0.00" speed="20.57" departed="0" arrived="0" entered="3" left="8" laneChangedFrom="0" laneChangedTo="0"/>
        <edge id="rend" sampledSeconds="40.08" traveltime="18.43" density="3.21" occupancy="0.96" waitingTime="0.00" speed="27.13" departed="0" arrived="1" entered="4" left="0" laneChangedFrom="0" laneChangedTo="0"/>
    </interval>
    <interval begin="250.00" end="275.00" id="dump_25">
        <edge id="beg" sampledSeconds="63.95" traveltime="25.14" density="5.13" occupancy="1.54" waitingTime="0.00" speed="19.83" departed="3" arrived="0" entered="0" left="2" laneChangedFrom="0" laneChangedTo="0"/>
        <edge id="end" sampledSeconds="197.24" traveltime="21.75" density="15.82" occupancy="4.75" waitingTime="0.00" speed="22.92" departed="0" arrived="0" entered="9" left="9" laneChangedFrom="0" laneChangedTo="0"/>
        <edge id="middle" sampledSeconds="151.90" traveltime="54.50" density="6.13" occupancy="1.84" waitingTime="0.00" speed="18.17" departed="0" arrived="0" entered="2" left="8" laneChangedFrom="0" laneChangedTo="0"/>
        <edge id="rend" sampledSeconds="129.27" traveltime="18.42" density="10.34" occupancy="3.10" waitingTime="0.00" speed="27.14" departed="0" arrived="5" entered="9" left="0" laneChangedFrom="0" laneChangedTo="0"/>
    </interval>
    <interval begin="275.00" end="300.00" id="dump_25">
        <edge id="beg" sampledSeconds="61.25" traveltime="24.87" density="4.91" occupancy="1.47" waitingTime="0.00" speed="20.04" departed="2" arrived="0" entered="0" left="3" laneChangedFrom="0" laneChangedTo="0"/>
        <edge id="end" sampledSeconds="113.57" traveltime="20.13" density="9.11" occupancy="2.73" waitingTime="0.00" speed="24.76" departed="0" arrived="0" entered="3" left="8" laneChangedFrom="0" laneChangedTo="0"/>
        <edge id="middle" sampledSeconds="80.05" traveltime="32.00" density="3.23" occupancy="0.97" waitingTime="0.00" speed="30.95" departed="0" arrived="0" entered="3" left="3" laneChangedFrom="0" laneChangedTo="0"/>
        <edge id="rend" sampledSeconds="163.58" traveltime="18.42" density="13.09" occupancy="3.93" waitingTime="0.00" speed="27.15" departed="0" arrived="9" entered="8" left="0" laneChangedFrom="0" laneChangedTo="0"/>
    </interval>
    <interval begin="300.00" end="325.00" id="dump_25">
        <edge id="beg" sampledSeconds="22.43" traveltime="19.31" density="1.80" occupancy="0.54" waitingTime="0.00" speed="25.81" departed="0" arrived="0" entered="0" left="2" laneChangedFrom="0" laneChangedTo="0"/>
        <edge id="end" sampledSeconds="53.52" traveltime="22.60" density="4.29" occupancy="1.29" waitingTime="0.00" speed="22.06" departed="0" arrived="0" entered="2" left="2" laneChangedFrom="0" laneChangedTo="0"/>
        <edge id="middle" sampledSeconds="78.59" traveltime="31.57" density="3.17" occupancy="0.95" waitingTime="0.00" speed="31.38" departed="0" arrived="0" entered="2" left="2" laneChangedFrom="0" laneChangedTo="0"/>
        <edge id="rend" sampledSeconds="75.92" traveltime="18.46" density="6.07" occupancy="1.82" waitingTime="0.00" speed="27.08" departed="0" arrived="6" entered="2" left="0" laneChangedFrom="0" laneChangedTo="0"/>
    </interval>
    <interval begin="325.00" end="350.00" id="dump_25">
        <edge id="end" sampledSeconds="55.25" traveltime="21.40" density="4.43" occupancy="1.33" waitingTime="0.00" speed="23.30" departed="0" arrived="0" entered="3" left="3" laneChangedFrom="0" laneChangedTo="0"/>
        <edge id="middle" sampledSeconds="38.80" traveltime="36.44" density="1.57" occupancy="0.47" waitingTime="0.00" speed="27.18" departed="0" arrived="0" entered="0" left="3" laneChangedFrom="0" laneChangedTo="0"/>
        <edge id="rend" sampledSeconds="46.58" traveltime="18.36" density="3.73" occupancy="1.12" waitingTime="0.00" speed="27.24" departed="0" arrived="3" entered="3" left="0" laneChangedFrom="0" laneChangedTo="0"/>
    </interval>
    <interval begin="350.00" end="375.00" id="dump_25">
        <edge id="end" sampledSeconds="31.23" traveltime="20.04" density="2.51" occupancy="0.75" waitingTime="0.00" speed="24.88" departed="0" arrived="0" entered="0" left="2" laneChangedFrom="0" laneChangedTo="0"/>
        <edge id="rend" sampledSeconds="45.36" traveltime="18.40" density="3.63" occupancy="1.09" waitingTime="0.00" speed="27.17" departed="0" arrived="2" entered="2" left="0" laneChangedFrom="0" laneChangedTo="0"/>
    </interval>
    <interval begin="375.00" end="400.00" id="dump_25">
        <edge id="rend" sampledSeconds="18.00" traveltime="18.42" density="1.44" occupancy="0.43" waitingTime="0.00" speed="27.15" departed="0" arrived="2" entered="0" left="0" laneChangedFrom="0" laneChangedTo="0"/>
    </interval>
    <interval begin="400.00" end="425.00" id="dump_25"/>
    <interval begin="425.00" end="450.00" id="dump_25"/>
    <interval begin="450.00" end="475.00" id="dump_25"/>
    <interval begin="475.00" end="500.00" id="dump_25"/>
    <interval begin="500.00" end="525.00" id="dump_25"/>
    <interval begin="525.00" end="550.00" id="dump_25"/>
    <interval begin="550.00" end="575.00" id="dump_25"/>
    <interval begin="575.00" end="600.00" id="dump_25"/>
    <interval begin="600.00" end="625.00" id="dump_25"/>
    <interval begin="625.00" end="650.00" id="dump_25"/>
    <interval begin="650.00" end="675.00" id="dump_25"/>
    <interval begin="675.00" end="700.00" id="dump_25"/>
    <interval begin="700.00" end="725.00" id="dump_25"/>
    <interval begin="725.00" end="750.00" id="dump_25"/>
    <interval begin="750.00" end="775.00" id="dump_25"/>
    <interval begin="775.00" end="800.00" id="dump_25"/>
    <interval begin="800.00" end="825.00" id="dump_25"/>
    <interval begin="825.00" end="850.00" id="dump_25"/>
    <interval begin="850.00" end="875.00" id="dump_25"/>
    <interval begin="875.00" end="900.00" id="dump_25"/>
    <interval begin="900.00" end="925.00" id="dump_25"/>
    <interval begin="925.00" end="950.00" id="dump_25"/>
    <interval begin="950.00" end="975.00" id="dump_25"/>
    <interval begin="975.00" end="1000.00" id="dump_25"/>
</meandata>
