<?xml version="1.0" encoding="UTF-8"?>

<!-- generated on 2022-10-26 20:32:10 by Eclipse SUMO sumo Version v1_14_1+1635-30347d4bd51
This data file and the accompanying materials
are made available under the terms of the Eclipse Public License v2.0
which accompanies this distribution, and is available at
http://www.eclipse.org/legal/epl-v20.html
This file may also be made available under the following Secondary
Licenses when the conditions for such availability set forth in the Eclipse
Public License 2.0 are satisfied: GNU General Public License, version 2
or later which is available at
https://www.gnu.org/licenses/old-licenses/gpl-2.0-standalone.html
SPDX-License-Identifier: EPL-2.0 OR GPL-2.0-or-later
<configuration xmlns:xsi="http://www.w3.org/2001/XMLSchema-instance" xsi:noNamespaceSchemaLocation="http://sumo.dlr.de/xsd/sumoConfiguration.xsd">

    <input>
        <net-file value="net.net.xml"/>
        <route-files value="input_routes.rou.xml"/>
    </input>

    <output>
        <write-license value="true"/>
        <fcd-output value="fcd.xml"/>
    </output>

    <time>
        <begin value="0"/>
        <end value="3000"/>
    </time>

    <processing>
        <default.speeddev value="0"/>
    </processing>

    <report>
        <xml-validation value="never"/>
        <duration-log.disable value="true"/>
        <no-step-log value="true"/>
    </report>

</configuration>
-->

<fcd-export xmlns:xsi="http://www.w3.org/2001/XMLSchema-instance" xsi:noNamespaceSchemaLocation="http://sumo.dlr.de/xsd/fcd_file.xsd">
    <timestep time="0.00">
        <vehicle id="r0" x="358.08" y="1.73" z="1.79" angle="89.46" type="0" speed="0.00" pos="358.10" lane="e0_0" slope="0.29"/>
    </timestep>
    <timestep time="1.00">
        <vehicle id="r0" x="358.43" y="1.74" z="1.79" angle="89.46" type="0" speed="0.36" pos="358.46" lane="e0_0" slope="0.29"/>
    </timestep>
    <timestep time="2.00">
        <vehicle id="r0" x="359.15" y="1.74" z="1.80" angle="89.46" type="0" speed="0.72" pos="359.18" lane="e0_0" slope="0.29"/>
    </timestep>
    <timestep time="3.00">
        <vehicle id="r0" x="360.23" y="1.75" z="1.80" angle="89.46" type="0" speed="1.08" pos="360.25" lane="e0_0" slope="0.29"/>
    </timestep>
    <timestep time="4.00">
        <vehicle id="r0" x="361.66" y="1.77" z="1.81" angle="89.46" type="0" speed="1.43" pos="361.68" lane="e0_0" slope="0.29"/>
    </timestep>
    <timestep time="5.00">
        <vehicle id="r0" x="363.45" y="1.78" z="1.82" angle="89.46" type="0" speed="1.79" pos="363.47" lane="e0_0" slope="0.29"/>
    </timestep>
    <timestep time="6.00">
        <vehicle id="r0" x="365.59" y="1.80" z="1.83" angle="89.46" type="0" speed="2.14" pos="365.61" lane="e0_0" slope="0.29"/>
    </timestep>
    <timestep time="7.00">
        <vehicle id="r0" x="368.08" y="1.83" z="1.84" angle="89.46" type="0" speed="2.49" pos="368.11" lane="e0_0" slope="0.29"/>
    </timestep>
    <timestep time="8.00">
        <vehicle id="r0" x="370.93" y="1.85" z="1.86" angle="89.46" type="0" speed="2.85" pos="370.95" lane="e0_0" slope="0.29"/>
    </timestep>
    <timestep time="9.00">
        <vehicle id="r0" x="374.12" y="1.88" z="1.87" angle="89.46" type="0" speed="3.20" pos="374.15" lane="e0_0" slope="0.29"/>
    </timestep>
    <timestep time="10.00">
        <vehicle id="r0" x="377.67" y="1.92" z="1.89" angle="89.46" type="0" speed="3.55" pos="377.70" lane="e0_0" slope="0.29"/>
    </timestep>
    <timestep time="11.00">
        <vehicle id="r0" x="381.57" y="1.95" z="1.91" angle="89.46" type="0" speed="3.90" pos="381.60" lane="e0_0" slope="0.29"/>
    </timestep>
    <timestep time="12.00">
        <vehicle id="r0" x="385.81" y="1.99" z="1.93" angle="89.46" type="0" speed="4.25" pos="385.84" lane="e0_0" slope="0.29"/>
    </timestep>
    <timestep time="13.00">
        <vehicle id="r0" x="390.41" y="2.04" z="1.95" angle="89.46" type="0" speed="4.59" pos="390.44" lane="e0_0" slope="0.29"/>
    </timestep>
    <timestep time="14.00">
        <vehicle id="r0" x="395.35" y="2.08" z="1.98" angle="89.46" type="0" speed="4.94" pos="395.37" lane="e0_0" slope="0.29"/>
    </timestep>
    <timestep time="15.00">
        <vehicle id="r0" x="400.63" y="2.13" z="2.00" angle="89.46" type="0" speed="5.28" pos="400.66" lane="e0_0" slope="0.29"/>
    </timestep>
    <timestep time="16.00">
        <vehicle id="r0" x="406.26" y="2.19" z="2.03" angle="89.46" type="0" speed="5.63" pos="406.29" lane="e0_0" slope="0.29"/>
    </timestep>
    <timestep time="17.00">
        <vehicle id="r0" x="412.23" y="2.24" z="2.06" angle="89.46" type="0" speed="5.97" pos="412.26" lane="e0_0" slope="0.29"/>
    </timestep>
    <timestep time="18.00">
        <vehicle id="r0" x="418.54" y="2.30" z="2.09" angle="89.46" type="0" speed="6.31" pos="418.57" lane="e0_0" slope="0.29"/>
    </timestep>
    <timestep time="19.00">
        <vehicle id="r0" x="425.19" y="2.37" z="2.13" angle="89.46" type="0" speed="6.65" pos="425.23" lane="e0_0" slope="0.29"/>
    </timestep>
    <timestep time="20.00">
        <vehicle id="r0" x="432.19" y="2.43" z="2.16" angle="89.46" type="0" speed="6.99" pos="432.22" lane="e0_0" slope="0.29"/>
    </timestep>
    <timestep time="21.00">
        <vehicle id="r0" x="439.52" y="2.50" z="2.20" angle="89.46" type="0" speed="7.33" pos="439.55" lane="e0_0" slope="0.29"/>
    </timestep>
    <timestep time="22.00">
        <vehicle id="r0" x="447.19" y="2.57" z="2.24" angle="89.46" type="0" speed="7.67" pos="447.23" lane="e0_0" slope="0.29"/>
    </timestep>
    <timestep time="23.00">
        <vehicle id="r0" x="455.20" y="2.65" z="2.28" angle="89.46" type="0" speed="8.01" pos="455.23" lane="e0_0" slope="0.29"/>
    </timestep>
    <timestep time="24.00">
        <vehicle id="r0" x="463.54" y="2.73" z="2.32" angle="89.46" type="0" speed="8.34" pos="463.58" lane="e0_0" slope="0.29"/>
    </timestep>
    <timestep time="25.00">
        <vehicle id="r0" x="472.22" y="2.81" z="2.36" angle="89.46" type="0" speed="8.68" pos="472.26" lane="e0_0" slope="0.29"/>
    </timestep>
    <timestep time="26.00">
        <vehicle id="r0" x="481.23" y="2.90" z="2.41" angle="89.46" type="0" speed="9.01" pos="481.27" lane="e0_0" slope="0.29"/>
    </timestep>
    <timestep time="27.00">
        <vehicle id="r0" x="490.57" y="2.98" z="2.45" angle="89.46" type="0" speed="9.35" pos="490.61" lane="e0_0" slope="0.29"/>
    </timestep>
    <timestep time="28.00">
        <vehicle id="r0" x="500.25" y="3.08" z="2.50" angle="89.46" type="0" speed="9.68" pos="500.29" lane="e0_0" slope="0.29"/>
    </timestep>
    <timestep time="29.00">
        <vehicle id="r0" x="510.26" y="3.17" z="2.55" angle="89.46" type="0" speed="10.01" pos="510.30" lane="e0_0" slope="0.29"/>
    </timestep>
    <timestep time="30.00">
        <vehicle id="r0" x="520.59" y="3.27" z="2.60" angle="89.46" type="0" speed="10.34" pos="520.64" lane="e0_0" slope="0.29"/>
    </timestep>
    <timestep time="31.00">
        <vehicle id="r0" x="531.26" y="3.37" z="2.66" angle="89.46" type="0" speed="10.67" pos="531.31" lane="e0_0" slope="0.29"/>
    </timestep>
    <timestep time="32.00">
        <vehicle id="r0" x="542.26" y="3.47" z="2.71" angle="89.46" type="0" speed="11.00" pos="542.30" lane="e0_0" slope="0.29"/>
    </timestep>
    <timestep time="33.00">
        <vehicle id="r0" x="553.58" y="3.58" z="2.77" angle="89.46" type="0" speed="11.32" pos="553.63" lane="e0_0" slope="0.29"/>
    </timestep>
    <timestep time="34.00">
        <vehicle id="r0" x="565.23" y="3.69" z="2.83" angle="89.46" type="0" speed="11.65" pos="565.28" lane="e0_0" slope="0.29"/>
    </timestep>
    <timestep time="35.00">
        <vehicle id="r0" x="577.20" y="3.80" z="2.89" angle="89.46" type="0" speed="11.98" pos="577.25" lane="e0_0" slope="0.29"/>
    </timestep>
    <timestep time="36.00">
        <vehicle id="r0" x="589.50" y="3.92" z="2.95" angle="89.46" type="0" speed="12.30" pos="589.56" lane="e0_0" slope="0.29"/>
    </timestep>
    <timestep time="37.00">
        <vehicle id="r0" x="602.13" y="4.04" z="3.01" angle="89.46" type="0" speed="12.63" pos="602.18" lane="e0_0" slope="0.29"/>
    </timestep>
    <timestep time="38.00">
        <vehicle id="r0" x="615.07" y="4.16" z="3.08" angle="89.46" type="0" speed="12.95" pos="615.13" lane="e0_0" slope="0.29"/>
    </timestep>
    <timestep time="39.00">
        <vehicle id="r0" x="628.34" y="4.29" z="3.14" angle="89.46" type="0" speed="13.27" pos="628.40" lane="e0_0" slope="0.29"/>
    </timestep>
    <timestep time="40.00">
        <vehicle id="r0" x="641.93" y="4.41" z="3.21" angle="89.46" type="0" speed="13.59" pos="641.99" lane="e0_0" slope="0.29"/>
    </timestep>
    <timestep time="41.00">
        <vehicle id="r0" x="655.84" y="4.55" z="3.28" angle="89.46" type="0" speed="13.91" pos="655.90" lane="e0_0" slope="0.29"/>
    </timestep>
    <timestep time="42.00">
        <vehicle id="r0" x="670.07" y="4.68" z="3.35" angle="89.46" type="0" speed="14.23" pos="670.13" lane="e0_0" slope="0.29"/>
    </timestep>
    <timestep time="43.00">
        <vehicle id="r0" x="684.61" y="4.82" z="3.43" angle="89.46" type="0" speed="14.55" pos="684.68" lane="e0_0" slope="0.29"/>
    </timestep>
    <timestep time="44.00">
        <vehicle id="r0" x="699.48" y="4.96" z="3.50" angle="89.46" type="0" speed="14.87" pos="699.55" lane="e0_0" slope="0.29"/>
    </timestep>
    <timestep time="45.00">
        <vehicle id="r0" x="714.66" y="5.10" z="3.58" angle="89.46" type="0" speed="15.18" pos="714.73" lane="e0_0" slope="0.29"/>
    </timestep>
    <timestep time="46.00">
        <vehicle id="r0" x="730.16" y="5.25" z="3.65" angle="89.46" type="0" speed="15.50" pos="730.23" lane="e0_0" slope="0.29"/>
    </timestep>
    <timestep time="47.00">
        <vehicle id="r0" x="745.98" y="5.40" z="3.73" angle="89.46" type="0" speed="15.82" pos="746.05" lane="e0_0" slope="0.29"/>
    </timestep>
    <timestep time="48.00">
        <vehicle id="r0" x="762.10" y="5.55" z="3.81" angle="89.46" type="0" speed="16.13" pos="762.18" lane="e0_0" slope="0.29"/>
    </timestep>
    <timestep time="49.00">
        <vehicle id="r0" x="778.55" y="5.71" z="3.90" angle="89.46" type="0" speed="16.45" pos="778.63" lane="e0_0" slope="0.29"/>
    </timestep>
    <timestep time="50.00">
        <vehicle id="r0" x="795.31" y="5.86" z="3.98" angle="89.46" type="0" speed="16.76" pos="795.39" lane="e0_0" slope="0.29"/>
    </timestep>
    <timestep time="51.00">
        <vehicle id="r0" x="812.38" y="6.02" z="4.07" angle="89.46" type="0" speed="17.07" pos="812.46" lane="e0_0" slope="0.29"/>
    </timestep>
    <timestep time="52.00">
        <vehicle id="r0" x="829.76" y="6.19" z="4.15" angle="89.46" type="0" speed="17.38" pos="829.84" lane="e0_0" slope="0.29"/>
    </timestep>
    <timestep time="53.00">
        <vehicle id="r0" x="847.45" y="6.36" z="4.24" angle="89.46" type="0" speed="17.70" pos="847.54" lane="e0_0" slope="0.29"/>
    </timestep>
    <timestep time="54.00">
        <vehicle id="r0" x="865.46" y="6.53" z="4.33" angle="89.46" type="0" speed="18.01" pos="865.55" lane="e0_0" slope="0.29"/>
    </timestep>
    <timestep time="55.00">
        <vehicle id="r0" x="883.77" y="6.70" z="4.42" angle="89.46" type="0" speed="18.32" pos="883.86" lane="e0_0" slope="0.29"/>
    </timestep>
    <timestep time="56.00">
        <vehicle id="r0" x="902.40" y="6.88" z="4.52" angle="89.46" type="0" speed="18.63" pos="902.49" lane="e0_0" slope="0.29"/>
    </timestep>
    <timestep time="57.00">
        <vehicle id="r0" x="921.33" y="7.05" z="4.61" angle="89.46" type="0" speed="18.94" pos="921.43" lane="e0_0" slope="0.29"/>
    </timestep>
    <timestep time="58.00">
        <vehicle id="r0" x="940.57" y="7.24" z="4.71" angle="89.46" type="0" speed="19.24" pos="940.67" lane="e0_0" slope="0.29"/>
    </timestep>
    <timestep time="59.00">
        <vehicle id="r0" x="960.12" y="7.42" z="4.80" angle="89.46" type="0" speed="19.55" pos="960.22" lane="e0_0" slope="0.29"/>
    </timestep>
    <timestep time="60.00">
        <vehicle id="r0" x="979.98" y="7.61" z="4.90" angle="89.46" type="0" speed="19.86" pos="980.08" lane="e0_0" slope="0.29"/>
    </timestep>
    <timestep time="61.00">
        <vehicle id="r0" x="1000.14" y="7.80" z="5.00" angle="89.46" type="0" speed="20.16" pos="1000.24" lane="e0_0" slope="0.29"/>
    </timestep>
    <timestep time="62.00">
        <vehicle id="r0" x="1020.60" y="7.99" z="5.11" angle="89.46" type="0" speed="20.47" pos="1020.71" lane="e0_0" slope="0.29"/>
    </timestep>
    <timestep time="63.00">
        <vehicle id="r0" x="1041.38" y="8.19" z="5.21" angle="89.46" type="0" speed="20.77" pos="1041.49" lane="e0_0" slope="0.29"/>
    </timestep>
    <timestep time="64.00">
        <vehicle id="r0" x="1062.45" y="8.39" z="5.32" angle="89.46" type="0" speed="21.08" pos="1062.56" lane="e0_0" slope="0.29"/>
    </timestep>
    <timestep time="65.00">
        <vehicle id="r0" x="1083.83" y="8.59" z="5.42" angle="89.46" type="0" speed="21.38" pos="1083.94" lane="e0_0" slope="0.29"/>
    </timestep>
    <timestep time="66.00">
        <vehicle id="r0" x="1105.51" y="8.79" z="5.53" angle="89.46" type="0" speed="21.68" pos="1105.63" lane="e0_0" slope="0.29"/>
    </timestep>
    <timestep time="67.00">
        <vehicle id="r0" x="1127.49" y="9.00" z="5.64" angle="89.46" type="0" speed="21.98" pos="1127.61" lane="e0_0" slope="0.29"/>
    </timestep>
    <timestep time="68.00">
        <vehicle id="r0" x="1149.77" y="9.21" z="5.75" angle="89.46" type="0" speed="22.28" pos="1149.89" lane="e0_0" slope="0.29"/>
    </timestep>
    <timestep time="69.00">
        <vehicle id="r0" x="1172.35" y="9.43" z="5.87" angle="89.46" type="0" speed="22.59" pos="1172.48" lane="e0_0" slope="0.29"/>
    </timestep>
    <timestep time="70.00">
        <vehicle id="r0" x="1195.23" y="9.64" z="5.98" angle="89.46" type="0" speed="22.88" pos="1195.36" lane="e0_0" slope="0.29"/>
    </timestep>
    <timestep time="71.00">
        <vehicle id="r0" x="1218.42" y="9.86" z="6.10" angle="89.46" type="0" speed="23.18" pos="1218.55" lane="e0_0" slope="0.29"/>
    </timestep>
    <timestep time="72.00">
        <vehicle id="r0" x="1241.90" y="10.08" z="6.21" angle="89.46" type="0" speed="23.48" pos="1242.03" lane="e0_0" slope="0.29"/>
    </timestep>
    <timestep time="73.00">
        <vehicle id="r0" x="1265.67" y="10.31" z="6.33" angle="89.46" type="0" speed="23.78" pos="1265.81" lane="e0_0" slope="0.29"/>
    </timestep>
    <timestep time="74.00">
        <vehicle id="r0" x="1289.75" y="10.53" z="6.45" angle="89.46" type="0" speed="24.08" pos="1289.89" lane="e0_0" slope="0.29"/>
    </timestep>
    <timestep time="75.00">
        <vehicle id="r0" x="1314.12" y="10.77" z="6.58" angle="89.46" type="0" speed="24.37" pos="1314.26" lane="e0_0" slope="0.29"/>
    </timestep>
    <timestep time="76.00">
        <vehicle id="r0" x="1338.78" y="11.00" z="6.70" angle="89.46" type="0" speed="24.67" pos="1338.93" lane="e0_0" slope="0.29"/>
    </timestep>
    <timestep time="77.00">
        <vehicle id="r0" x="1363.74" y="11.23" z="6.82" angle="89.46" type="0" speed="24.96" pos="1363.90" lane="e0_0" slope="0.29"/>
    </timestep>
    <timestep time="78.00">
        <vehicle id="r0" x="1389.00" y="11.47" z="6.95" angle="89.46" type="0" speed="25.26" pos="1389.15" lane="e0_0" slope="0.29"/>
    </timestep>
    <timestep time="79.00">
        <vehicle id="r0" x="1414.55" y="11.71" z="7.08" angle="89.46" type="0" speed="25.55" pos="1414.71" lane="e0_0" slope="0.29"/>
    </timestep>
    <timestep time="80.00">
        <vehicle id="r0" x="1440.39" y="11.96" z="7.21" angle="89.46" type="0" speed="25.84" pos="1440.55" lane="e0_0" slope="0.29"/>
    </timestep>
    <timestep time="81.00">
        <vehicle id="r0" x="1466.52" y="12.21" z="7.34" angle="89.46" type="0" speed="26.13" pos="1466.69" lane="e0_0" slope="0.29"/>
    </timestep>
    <timestep time="82.00">
        <vehicle id="r0" x="1492.94" y="12.45" z="7.47" angle="89.46" type="0" speed="26.42" pos="1493.11" lane="e0_0" slope="0.29"/>
    </timestep>
    <timestep time="83.00">
        <vehicle id="r0" x="1519.64" y="12.71" z="7.60" angle="89.46" type="0" speed="26.71" pos="1519.81" lane="e0_0" slope="0.29"/>
    </timestep>
    <timestep time="84.00">
        <vehicle id="r0" x="1546.63" y="12.96" z="7.74" angle="89.46" type="0" speed="26.99" pos="1546.81" lane="e0_0" slope="0.29"/>
    </timestep>
    <timestep time="85.00">
        <vehicle id="r0" x="1573.91" y="13.22" z="7.88" angle="89.46" type="0" speed="27.28" pos="1574.08" lane="e0_0" slope="0.29"/>
    </timestep>
    <timestep time="86.00">
        <vehicle id="r0" x="1601.46" y="13.48" z="8.01" angle="89.46" type="0" speed="27.56" pos="1601.64" lane="e0_0" slope="0.29"/>
    </timestep>
    <timestep time="87.00">
        <vehicle id="r0" x="1629.29" y="13.74" z="8.15" angle="89.46" type="0" speed="27.84" pos="1629.48" lane="e0_0" slope="0.29"/>
    </timestep>
    <timestep time="88.00">
        <vehicle id="r0" x="1657.40" y="14.01" z="8.29" angle="89.46" type="0" speed="28.11" pos="1657.59" lane="e0_0" slope="0.29"/>
    </timestep>
    <timestep time="89.00">
        <vehicle id="r0" x="1685.79" y="14.28" z="8.44" angle="89.46" type="0" speed="28.39" pos="1685.98" lane="e0_0" slope="0.29"/>
    </timestep>
    <timestep time="90.00">
        <vehicle id="r0" x="1714.44" y="14.55" z="8.58" angle="89.46" type="0" speed="28.66" pos="1714.63" lane="e0_0" slope="0.29"/>
    </timestep>
    <timestep time="91.00">
        <vehicle id="r0" x="1743.36" y="14.82" z="8.72" angle="89.46" type="0" speed="28.92" pos="1743.56" lane="e0_0" slope="0.29"/>
    </timestep>
    <timestep time="92.00">
        <vehicle id="r0" x="1772.54" y="15.10" z="8.87" angle="89.46" type="0" speed="29.19" pos="1772.74" lane="e0_0" slope="0.29"/>
    </timestep>
    <timestep time="93.00">
        <vehicle id="r0" x="1801.98" y="15.37" z="9.02" angle="89.46" type="0" speed="29.45" pos="1802.19" lane="e0_0" slope="0.29"/>
    </timestep>
    <timestep time="94.00">
        <vehicle id="r0" x="1831.68" y="15.65" z="9.17" angle="89.46" type="0" speed="29.70" pos="1831.89" lane="e0_0" slope="0.29"/>
    </timestep>
    <timestep time="95.00">
        <vehicle id="r0" x="1861.63" y="15.94" z="9.32" angle="89.46" type="0" speed="29.95" pos="1861.85" lane="e0_0" slope="0.29"/>
    </timestep>
    <timestep time="96.00">
        <vehicle id="r0" x="1891.83" y="16.22" z="9.47" angle="89.46" type="0" speed="30.20" pos="1892.05" lane="e0_0" slope="0.29"/>
    </timestep>
    <timestep time="97.00">
        <vehicle id="r0" x="1922.28" y="16.51" z="9.62" angle="89.46" type="0" speed="30.45" pos="1922.50" lane="e0_0" slope="0.29"/>
    </timestep>
    <timestep time="98.00">
        <vehicle id="r0" x="1952.96" y="16.80" z="9.77" angle="89.46" type="0" speed="30.69" pos="1953.19" lane="e0_0" slope="0.29"/>
    </timestep>
    <timestep time="99.00">
        <vehicle id="r0" x="1983.89" y="17.09" z="9.93" angle="89.46" type="0" speed="30.93" pos="1984.12" lane="e0_0" slope="0.29"/>
    </timestep>
    <timestep time="100.00">
        <vehicle id="r0" x="2000.35" y="17.22" z="9.99" angle="89.46" type="0" speed="31.17" pos="16.66" lane="e1_0" slope="0.28"/>
    </timestep>
    <timestep time="101.00">
        <vehicle id="r0" x="2003.48" y="17.21" z="9.98" angle="89.47" type="0" speed="31.40" pos="48.07" lane="e1_0" slope="0.28"/>
    </timestep>
    <timestep time="102.00">
        <vehicle id="r0" x="2006.64" y="17.20" z="9.96" angle="89.48" type="0" speed="31.63" pos="79.70" lane="e1_0" slope="0.27"/>
    </timestep>
    <timestep time="103.00">
        <vehicle id="r0" x="2009.83" y="17.19" z="9.94" angle="89.49" type="0" speed="31.86" pos="111.56" lane="e1_0" slope="0.26"/>
    </timestep>
    <timestep time="104.00">
        <vehicle id="r0" x="2013.04" y="17.18" z="9.93" angle="89.51" type="0" speed="32.09" pos="143.66" lane="e1_0" slope="0.25"/>
    </timestep>
    <timestep time="105.00">
        <vehicle id="r0" x="2016.27" y="17.16" z="9.91" angle="89.53" type="0" speed="32.32" pos="175.98" lane="e1_0" slope="0.24"/>
    </timestep>
    <timestep time="106.00">
        <vehicle id="r0" x="2019.52" y="17.15" z="9.90" angle="89.55" type="0" speed="32.55" pos="208.53" lane="e1_0" slope="0.22"/>
    </timestep>
    <timestep time="107.00">
        <vehicle id="r0" x="2022.79" y="17.14" z="9.88" angle="89.59" type="0" speed="32.78" pos="241.31" lane="e1_0" slope="0.19"/>
    </timestep>
    <timestep time="108.00">
        <vehicle id="r0" x="2026.09" y="17.13" z="9.86" angle="89.65" type="0" speed="33.01" pos="274.32" lane="e1_0" slope="0.14"/>
    </timestep>
    <timestep time="109.00">
        <vehicle id="r0" x="2029.42" y="17.12" z="9.85" angle="89.75" type="0" speed="33.24" pos="307.56" lane="e1_0" slope="0.07"/>
    </timestep>
    <timestep time="110.00">
        <vehicle id="r0" x="2032.76" y="17.10" z="9.83" angle="89.96" type="0" speed="33.49" pos="341.05" lane="e1_0" slope="-0.10"/>
    </timestep>
    <timestep time="111.00">
        <vehicle id="r0" x="2036.13" y="17.09" z="9.81" angle="90.21" type="0" speed="33.75" pos="374.80" lane="e1_0" slope="-0.29"/>
    </timestep>
    <timestep time="112.00">
        <vehicle id="r0" x="2039.54" y="17.08" z="9.80" angle="90.21" type="0" speed="34.05" pos="408.85" lane="e1_0" slope="-0.29"/>
    </timestep>
    <timestep time="113.00">
        <vehicle id="r0" x="2042.97" y="17.06" z="9.78" angle="90.21" type="0" speed="34.34" pos="443.18" lane="e1_0" slope="-0.29"/>
    </timestep>
    <timestep time="114.00">
        <vehicle id="r0" x="2046.43" y="17.05" z="9.76" angle="90.21" type="0" speed="34.62" pos="477.81" lane="e1_0" slope="-0.29"/>
    </timestep>
    <timestep time="115.00">
        <vehicle id="r0" x="2049.92" y="17.04" z="9.74" angle="90.21" type="0" speed="34.91" pos="512.72" lane="e1_0" slope="-0.29"/>
    </timestep>
    <timestep time="116.00">
        <vehicle id="r0" x="2053.43" y="17.03" z="9.73" angle="90.21" type="0" speed="35.19" pos="547.91" lane="e1_0" slope="-0.29"/>
    </timestep>
    <timestep time="117.00">
        <vehicle id="r0" x="2056.98" y="17.01" z="9.71" angle="90.21" type="0" speed="35.47" pos="583.38" lane="e1_0" slope="-0.29"/>
    </timestep>
    <timestep time="118.00">
        <vehicle id="r0" x="2060.55" y="17.00" z="9.69" angle="90.21" type="0" speed="35.75" pos="619.13" lane="e1_0" slope="-0.29"/>
    </timestep>
    <timestep time="119.00">
        <vehicle id="r0" x="2064.15" y="16.99" z="9.67" angle="90.21" type="0" speed="36.02" pos="655.15" lane="e1_0" slope="-0.29"/>
    </timestep>
    <timestep time="120.00">
        <vehicle id="r0" x="2067.78" y="16.97" z="9.65" angle="90.21" type="0" speed="36.29" pos="691.44" lane="e1_0" slope="-0.29"/>
    </timestep>
    <timestep time="121.00">
        <vehicle id="r0" x="2071.43" y="16.96" z="9.64" angle="90.21" type="0" speed="36.56" pos="728.00" lane="e1_0" slope="-0.29"/>
    </timestep>
    <timestep time="122.00">
        <vehicle id="r0" x="2075.11" y="16.94" z="9.62" angle="90.21" type="0" speed="36.83" pos="764.83" lane="e1_0" slope="-0.29"/>
    </timestep>
    <timestep time="123.00">
        <vehicle id="r0" x="2078.82" y="16.93" z="9.60" angle="90.21" type="0" speed="37.09" pos="801.92" lane="e1_0" slope="-0.29"/>
    </timestep>
    <timestep time="124.00">
        <vehicle id="r0" x="2082.55" y="16.92" z="9.58" angle="90.21" type="0" speed="37.35" pos="839.27" lane="e1_0" slope="-0.29"/>
    </timestep>
    <timestep time="125.00">
        <vehicle id="r0" x="2086.31" y="16.90" z="9.56" angle="90.21" type="0" speed="37.61" pos="876.89" lane="e1_0" slope="-0.29"/>
    </timestep>
    <timestep time="126.00">
        <vehicle id="r0" x="2090.09" y="16.89" z="9.54" angle="90.21" type="0" speed="37.87" pos="914.75" lane="e1_0" slope="-0.29"/>
    </timestep>
    <timestep time="127.00">
        <vehicle id="r0" x="2093.90" y="16.87" z="9.52" angle="90.21" type="0" speed="38.12" pos="952.88" lane="e1_0" slope="-0.29"/>
    </timestep>
    <timestep time="128.00">
        <vehicle id="r0" x="2097.74" y="16.86" z="9.50" angle="90.21" type="0" speed="38.38" pos="991.25" lane="e1_0" slope="-0.29"/>
    </timestep>
    <timestep time="129.00">
        <vehicle id="r0" x="2101.60" y="16.85" z="9.49" angle="90.21" type="0" speed="38.63" pos="1029.88" lane="e1_0" slope="-0.29"/>
    </timestep>
    <timestep time="130.00">
        <vehicle id="r0" x="2105.48" y="16.83" z="9.47" angle="90.21" type="0" speed="38.87" pos="1068.75" lane="e1_0" slope="-0.29"/>
    </timestep>
    <timestep time="131.00">
        <vehicle id="r0" x="2109.39" y="16.82" z="9.45" angle="90.21" type="0" speed="39.12" pos="1107.87" lane="e1_0" slope="-0.29"/>
    </timestep>
    <timestep time="132.00">
        <vehicle id="r0" x="2113.33" y="16.80" z="9.43" angle="90.21" type="0" speed="39.36" pos="1147.23" lane="e1_0" slope="-0.29"/>
    </timestep>
    <timestep time="133.00">
        <vehicle id="r0" x="2117.28" y="16.79" z="9.41" angle="90.21" type="0" speed="39.60" pos="1186.84" lane="e1_0" slope="-0.29"/>
    </timestep>
    <timestep time="134.00">
        <vehicle id="r0" x="2121.27" y="16.77" z="9.39" angle="90.21" type="0" speed="39.84" pos="1226.68" lane="e1_0" slope="-0.29"/>
    </timestep>
    <timestep time="135.00">
        <vehicle id="r0" x="2125.27" y="16.76" z="9.37" angle="90.21" type="0" speed="40.08" pos="1266.76" lane="e1_0" slope="-0.29"/>
    </timestep>
    <timestep time="136.00">
        <vehicle id="r0" x="2129.30" y="16.74" z="9.35" angle="90.21" type="0" speed="40.32" pos="1307.08" lane="e1_0" slope="-0.29"/>
    </timestep>
    <timestep time="137.00">
        <vehicle id="r0" x="2133.35" y="16.73" z="9.33" angle="90.21" type="0" speed="40.55" pos="1347.63" lane="e1_0" slope="-0.29"/>
    </timestep>
    <timestep time="138.00">
        <vehicle id="r0" x="2137.43" y="16.71" z="9.31" angle="90.21" type="0" speed="40.78" pos="1388.42" lane="e1_0" slope="-0.29"/>
    </timestep>
    <timestep time="139.00">
        <vehicle id="r0" x="2141.53" y="16.70" z="9.29" angle="90.21" type="0" speed="41.01" pos="1429.43" lane="e1_0" slope="-0.29"/>
    </timestep>
    <timestep time="140.00">
        <vehicle id="r0" x="2145.65" y="16.68" z="9.26" angle="90.21" type="0" speed="41.24" pos="1470.67" lane="e1_0" slope="-0.29"/>
    </timestep>
    <timestep time="141.00">
        <vehicle id="r0" x="2149.79" y="16.67" z="9.24" angle="90.21" type="0" speed="41.47" pos="1512.14" lane="e1_0" slope="-0.29"/>
    </timestep>
    <timestep time="142.00">
        <vehicle id="r0" x="2153.96" y="16.65" z="9.22" angle="90.21" type="0" speed="41.69" pos="1553.83" lane="e1_0" slope="-0.29"/>
    </timestep>
    <timestep time="143.00">
        <vehicle id="r0" x="2158.15" y="16.63" z="9.20" angle="90.21" type="0" speed="41.91" pos="1595.74" lane="e1_0" slope="-0.29"/>
    </timestep>
    <timestep time="144.00">
        <vehicle id="r0" x="2162.36" y="16.62" z="9.18" angle="90.21" type="0" speed="42.13" pos="1637.88" lane="e1_0" slope="-0.29"/>
    </timestep>
    <timestep time="145.00">
        <vehicle id="r0" x="2166.59" y="16.60" z="9.16" angle="90.21" type="0" speed="42.35" pos="1680.23" lane="e1_0" slope="-0.29"/>
    </timestep>
    <timestep time="146.00">
        <vehicle id="r0" x="2170.84" y="16.59" z="9.14" angle="90.21" type="0" speed="42.57" pos="1722.80" lane="e1_0" slope="-0.29"/>
    </timestep>
    <timestep time="147.00">
        <vehicle id="r0" x="2175.12" y="16.57" z="9.12" angle="90.21" type="0" speed="42.79" pos="1765.59" lane="e1_0" slope="-0.29"/>
    </timestep>
    <timestep time="148.00">
        <vehicle id="r0" x="2179.42" y="16.56" z="9.10" angle="90.21" type="0" speed="43.00" pos="1808.59" lane="e1_0" slope="-0.29"/>
    </timestep>
    <timestep time="149.00">
        <vehicle id="r0" x="2183.74" y="16.54" z="9.07" angle="90.21" type="0" speed="43.21" pos="1851.81" lane="e1_0" slope="-0.29"/>
    </timestep>
    <timestep time="150.00">
        <vehicle id="r0" x="2188.08" y="16.52" z="9.05" angle="90.21" type="0" speed="43.43" pos="1895.23" lane="e1_0" slope="-0.29"/>
    </timestep>
    <timestep time="151.00">
        <vehicle id="r0" x="2192.44" y="16.51" z="9.03" angle="90.21" type="0" speed="43.63" pos="1938.87" lane="e1_0" slope="-0.29"/>
    </timestep>
    <timestep time="152.00">
        <vehicle id="r0" x="2196.82" y="16.49" z="9.01" angle="90.21" type="0" speed="43.84" pos="1982.71" lane="e1_0" slope="-0.29"/>
    </timestep>
    <timestep time="153.00">
        <vehicle id="r0" x="2201.22" y="16.47" z="8.99" angle="90.21" type="0" speed="44.05" pos="2026.76" lane="e1_0" slope="-0.29"/>
    </timestep>
    <timestep time="154.00">
        <vehicle id="r0" x="2205.64" y="16.46" z="8.96" angle="90.21" type="0" speed="44.25" pos="2071.01" lane="e1_0" slope="-0.29"/>
    </timestep>
    <timestep time="155.00">
        <vehicle id="r0" x="2210.09" y="16.44" z="8.94" angle="90.21" type="0" speed="44.46" pos="2115.47" lane="e1_0" slope="-0.29"/>
    </timestep>
    <timestep time="156.00">
        <vehicle id="r0" x="2214.55" y="16.42" z="8.92" angle="90.21" type="0" speed="44.66" pos="2160.13" lane="e1_0" slope="-0.29"/>
    </timestep>
    <timestep time="157.00">
        <vehicle id="r0" x="2219.03" y="16.41" z="8.90" angle="90.21" type="0" speed="44.86" pos="2204.99" lane="e1_0" slope="-0.29"/>
    </timestep>
    <timestep time="158.00">
        <vehicle id="r0" x="2223.53" y="16.39" z="8.87" angle="90.21" type="0" speed="45.06" pos="2250.04" lane="e1_0" slope="-0.29"/>
    </timestep>
    <timestep time="159.00">
        <vehicle id="r0" x="2228.06" y="16.37" z="8.85" angle="90.21" type="0" speed="45.26" pos="2295.30" lane="e1_0" slope="-0.29"/>
    </timestep>
    <timestep time="160.00">