<?xml version="1.0" encoding="UTF-8"?>

<!-- generated on Wed Jan  3 09:21:14 2018 by SUMO Version v0_32_0+0043-24523c2
<?xml version="1.0" encoding="UTF-8"?>

<configuration xmlns:xsi="http://www.w3.org/2001/XMLSchema-instance" xsi:noNamespaceSchemaLocation="http://sumo.dlr.de/xsd/sumoConfiguration.xsd">

    <input>
        <net-file value="net2.net.xml"/>
        <route-files value="input_routes.rou.xml"/>
        <additional-files value="input_additional.add.xml"/>
    </input>

    <output>
        <tripinfo-output value="tripinfos.xml"/>
    </output>

    <report>
        <xml-validation value="never"/>
        <duration-log.disable value="true"/>
        <no-step-log value="true"/>
    </report>

</configuration>
-->

<tripinfos xmlns:xsi="http://www.w3.org/2001/XMLSchema-instance" xsi:noNamespaceSchemaLocation="http://sumo.dlr.de/xsd/tripinfo_file.xsd">
    <tripinfo id="v0" depart="0.00" departLane="SC_0" departPos="5.10" departSpeed="15.28" departDelay="0.00" arrival="1.00" arrivalLane="SC_0" arrivalPos="5.10" arrivalSpeed="15.28" duration="1.00" routeLength="0.00" waitingTime="0.00" stopTime="0.00" timeLoss="0.00" rerouteNo="0" devices="tripinfo_v0" vType="t0" speedFactor="1.10" vaporized=""/>
    <tripinfo id="v1" depart="1.00" departLane="SC_0" departPos="5.10" departSpeed="15.28" departDelay="1.00" arrival="2.00" arrivalLane="SC_0" arrivalPos="5.10" arrivalSpeed="15.28" duration="1.00" routeLength="0.00" waitingTime="0.00" stopTime="0.00" timeLoss="0.00" rerouteNo="1" devices="tripinfo_v1" vType="t0" speedFactor="1.10" vaporized=""/>
</tripinfos>
