<?xml version="1.0" encoding="UTF-8"?>

<!-- generated on 2022-02-09 17:48:42 by Eclipse SUMO sumo Version v1_12_0+0407-89d3a2c
This data file and the accompanying materials
are made available under the terms of the Eclipse Public License v2.0
which accompanies this distribution, and is available at
http://www.eclipse.org/legal/epl-v20.html
This file may also be made available under the following Secondary
Licenses when the conditions for such availability set forth in the Eclipse
Public License 2.0 are satisfied: GNU General Public License, version 2
or later which is available at
https://www.gnu.org/licenses/old-licenses/gpl-2.0-standalone.html
SPDX-License-Identifier: EPL-2.0 OR GPL-2.0-or-later
<configuration xmlns:xsi="http://www.w3.org/2001/XMLSchema-instance" xsi:noNamespaceSchemaLocation="http://sumo.dlr.de/xsd/sumoConfiguration.xsd">

    <input>
        <net-file value="net.net.xml"/>
        <route-files value="input_routes.rou.xml"/>
        <additional-files value="input_additional.add.xml,input_additional2.add.xml"/>
    </input>

    <output>
        <write-license value="true"/>
    </output>

    <processing>
        <collision.check-junctions value="true"/>
        <tls.actuated.show-detectors value="true"/>
        <default.speeddev value="0"/>
    </processing>

    <report>
        <xml-validation value="never"/>
        <xml-validation.routes value="never"/>
        <duration-log.disable value="true"/>
        <no-step-log value="true"/>
    </report>

</configuration>
-->

<detector xmlns:xsi="http://www.w3.org/2001/XMLSchema-instance" xsi:noNamespaceSchemaLocation="http://sumo.dlr.de/xsd/det_e2_file.xsd">
   <interval begin="0.00" end="300.00" id="Detector_1" sampledSeconds="286.10" nVehEntered="17" nVehLeft="15" nVehSeen="17" meanSpeed="0.83" meanTimeLoss="15.71" meanOccupancy="35.68" maxOccupancy="73.98" meanMaxJamLengthInVehicles="0.83" meanMaxJamLengthInMeters="4.12" maxJamLengthInVehicles="2" maxJamLengthInMeters="9.90" jamLengthInVehiclesSum="250" jamLengthInMetersSum="1235.28" meanHaltingDuration="63.50" maxHaltingDuration="125.00" haltingDurationSum="254.00" meanIntervalHaltingDuration="63.50" maxIntervalHaltingDuration="125.00" intervalHaltingDurationSum="254.00" startedHalts="4.00" meanVehicleNumber="1.00" maxVehicleNumber="2" />
   <interval begin="0.00" end="300.00" id="Detector_6" sampledSeconds="128.58" nVehEntered="27" nVehLeft="25" nVehSeen="27" meanSpeed="3.00" meanTimeLoss="3.60" meanOccupancy="14.84" maxOccupancy="64.98" meanMaxJamLengthInVehicles="0.31" meanMaxJamLengthInMeters="1.39" maxJamLengthInVehicles="2" maxJamLengthInMeters="9.00" jamLengthInVehiclesSum="92" jamLengthInMetersSum="416.96" meanHaltingDuration="47.00" maxHaltingDuration="50.00" haltingDurationSum="94.00" meanIntervalHaltingDuration="47.00" maxIntervalHaltingDuration="50.00" intervalHaltingDurationSum="94.00" startedHalts="2.00" meanVehicleNumber="0.49" maxVehicleNumber="2" />
   <interval begin="0.00" end="300.00" id="Detector_2" sampledSeconds="204.36" nVehEntered="45" nVehLeft="43" nVehSeen="45" meanSpeed="3.21" meanTimeLoss="3.34" meanOccupancy="22.98" maxOccupancy="73.98" meanMaxJamLengthInVehicles="0.44" meanMaxJamLengthInMeters="1.96" maxJamLengthInVehicles="2" maxJamLengthInMeters="9.00" jamLengthInVehiclesSum="131" jamLengthInMetersSum="586.83" meanHaltingDuration="22.83" maxHaltingDuration="46.00" haltingDurationSum="137.00" meanIntervalHaltingDuration="22.83" maxIntervalHaltingDuration="46.00" intervalHaltingDurationSum="137.00" startedHalts="6.00" meanVehicleNumber="0.82" maxVehicleNumber="2" />
   <interval begin="0.00" end="300.00" id="Detector_5" sampledSeconds="186.98" nVehEntered="10" nVehLeft="8" nVehSeen="10" meanSpeed="0.71" meanTimeLoss="17.64" meanOccupancy="24.00" maxOccupancy="73.98" meanMaxJamLengthInVehicles="0.54" meanMaxJamLengthInMeters="2.67" maxJamLengthInVehicles="2" maxJamLengthInMeters="9.90" jamLengthInVehiclesSum="162" jamLengthInMetersSum="800.32" meanHaltingDuration="41.50" maxHaltingDuration="87.00" haltingDurationSum="166.00" meanIntervalHaltingDuration="41.50" maxIntervalHaltingDuration="87.00" intervalHaltingDurationSum="166.00" startedHalts="4.00" meanVehicleNumber="0.65" maxVehicleNumber="2" />
   <interval begin="0.00" end="300.00" id="Detector_4" sampledSeconds="249.57" nVehEntered="7" nVehLeft="6" nVehSeen="7" meanSpeed="0.38" meanTimeLoss="34.57" meanOccupancy="27.71" maxOccupancy="73.98" meanMaxJamLengthInVehicles="0.74" meanMaxJamLengthInMeters="3.30" maxJamLengthInVehicles="2" maxJamLengthInMeters="9.00" jamLengthInVehiclesSum="221" jamLengthInMetersSum="988.59" meanHaltingDuration="28.62" maxHaltingDuration="110.00" haltingDurationSum="229.00" meanIntervalHaltingDuration="28.62" maxIntervalHaltingDuration="110.00" intervalHaltingDurationSum="229.00" startedHalts="8.00" meanVehicleNumber="0.86" maxVehicleNumber="2" />
   <interval begin="0.00" end="300.00" id="Detector_7" sampledSeconds="236.69" nVehEntered="13" nVehLeft="11" nVehSeen="13" meanSpeed="0.75" meanTimeLoss="17.08" meanOccupancy="26.96" maxOccupancy="73.98" meanMaxJamLengthInVehicles="0.71" meanMaxJamLengthInMeters="3.25" maxJamLengthInVehicles="2" maxJamLengthInMeters="9.90" jamLengthInVehiclesSum="212" jamLengthInMetersSum="974.20" meanHaltingDuration="54.00" maxHaltingDuration="85.00" haltingDurationSum="216.00" meanIntervalHaltingDuration="54.00" maxIntervalHaltingDuration="85.00" intervalHaltingDurationSum="216.00" startedHalts="4.00" meanVehicleNumber="0.83" maxVehicleNumber="2" />
   <interval begin="0.00" end="300.00" id="Detector_8" sampledSeconds="279.03" nVehEntered="14" nVehLeft="13" nVehSeen="14" meanSpeed="0.72" meanTimeLoss="18.75" meanOccupancy="30.71" maxOccupancy="64.98" meanMaxJamLengthInVehicles="0.85" meanMaxJamLengthInMeters="3.82" maxJamLengthInVehicles="2" maxJamLengthInMeters="9.00" jamLengthInVehiclesSum="255" jamLengthInMetersSum="1146.37" meanHaltingDuration="128.50" maxHaltingDuration="130.00" haltingDurationSum="257.00" meanIntervalHaltingDuration="128.50" maxIntervalHaltingDuration="130.00" intervalHaltingDurationSum="257.00" startedHalts="2.00" meanVehicleNumber="0.98" maxVehicleNumber="2" />
   <interval begin="0.00" end="300.00" id="Detector_3" sampledSeconds="201.29" nVehEntered="11" nVehLeft="11" nVehSeen="11" meanSpeed="0.82" meanTimeLoss="17.05" meanOccupancy="22.30" maxOccupancy="64.98" meanMaxJamLengthInVehicles="0.60" meanMaxJamLengthInMeters="2.70" maxJamLengthInVehicles="2" maxJamLengthInMeters="9.00" jamLengthInVehiclesSum="180" jamLengthInMetersSum="810.41" meanHaltingDuration="91.00" maxHaltingDuration="94.00" haltingDurationSum="182.00" meanIntervalHaltingDuration="91.00" maxIntervalHaltingDuration="94.00" intervalHaltingDurationSum="182.00" startedHalts="2.00" meanVehicleNumber="0.71" maxVehicleNumber="2" />
   <interval begin="300.00" end="600.00" id="Detector_1" sampledSeconds="505.06" nVehEntered="24" nVehLeft="24" nVehSeen="26" meanSpeed="0.71" meanTimeLoss="18.27" meanOccupancy="64.06" maxOccupancy="73.98" meanMaxJamLengthInVehicles="1.53" meanMaxJamLengthInMeters="7.56" maxJamLengthInVehicles="2" maxJamLengthInMeters="9.90" jamLengthInVehiclesSum="459" jamLengthInMetersSum="2269.09" meanHaltingDuration="118.17" maxHaltingDuration="143.00" haltingDurationSum="709.00" meanIntervalHaltingDuration="77.17" maxIntervalHaltingDuration="127.00" intervalHaltingDurationSum="463.00" startedHalts="4.00" meanVehicleNumber="1.76" maxVehicleNumber="2" />
   <interval begin="300.00" end="600.00" id="Detector_6" sampledSeconds="455.42" nVehEntered="72" nVehLeft="72" nVehSeen="74" meanSpeed="2.37" meanTimeLoss="4.93" meanOccupancy="49.87" maxOccupancy="64.98" meanMaxJamLengthInVehicles="1.15" meanMaxJamLengthInMeters="5.14" maxJamLengthInVehicles="2" maxJamLengthInMeters="9.00" jamLengthInVehiclesSum="344" jamLengthInMetersSum="1542.83" meanHaltingDuration="73.67" maxHaltingDuration="87.00" haltingDurationSum="442.00" meanIntervalHaltingDuration="58.00" maxIntervalHaltingDuration="87.00" intervalHaltingDurationSum="348.00" startedHalts="4.00" meanVehicleNumber="1.76" maxVehicleNumber="2" />
   <interval begin="300.00" end="600.00" id="Detector_2" sampledSeconds="478.98" nVehEntered="60" nVehLeft="60" nVehSeen="62" meanSpeed="1.88" meanTimeLoss="6.51" meanOccupancy="52.33" maxOccupancy="64.98" meanMaxJamLengthInVehicles="1.28" meanMaxJamLengthInMeters="5.74" maxJamLengthInVehicles="2" maxJamLengthInMeters="9.00" jamLengthInVehiclesSum="384" jamLengthInMetersSum="1722.81" meanHaltingDuration="79.83" maxHaltingDuration="97.00" haltingDurationSum="479.00" meanIntervalHaltingDuration="64.67" maxIntervalHaltingDuration="97.00" intervalHaltingDurationSum="388.00" startedHalts="4.00" meanVehicleNumber="1.80" maxVehicleNumber="2" />
   <interval begin="300.00" end="600.00" id="Detector_5" sampledSeconds="574.26" nVehEntered="12" nVehLeft="12" nVehSeen="14" meanSpeed="0.31" meanTimeLoss="39.95" meanOccupancy="70.52" maxOccupancy="73.98" meanMaxJamLengthInVehicles="1.81" meanMaxJamLengthInMeters="8.95" maxJamLengthInVehicles="2" maxJamLengthInMeters="9.90" jamLengthInVehiclesSum="544" jamLengthInMetersSum="2685.73" meanHaltingDuration="117.17" maxHaltingDuration="137.00" haltingDurationSum="703.00" meanIntervalHaltingDuration="91.33" maxIntervalHaltingDuration="137.00" intervalHaltingDurationSum="548.00" startedHalts="4.00" meanVehicleNumber="1.95" maxVehicleNumber="2" />
   <interval begin="300.00" end="600.00" id="Detector_4" sampledSeconds="550.75" nVehEntered="23" nVehLeft="23" nVehSeen="24" meanSpeed="0.64" meanTimeLoss="21.77" meanOccupancy="61.32" maxOccupancy="73.98" meanMaxJamLengthInVehicles="1.51" meanMaxJamLengthInMeters="6.71" maxJamLengthInVehicles="2" maxJamLengthInMeters="9.00" jamLengthInVehiclesSum="452" jamLengthInMetersSum="2012.76" meanHaltingDuration="18.38" maxHaltingDuration="112.00" haltingDurationSum="478.00" meanIntervalHaltingDuration="18.38" maxIntervalHaltingDuration="112.00" intervalHaltingDurationSum="478.00" startedHalts="26.00" meanVehicleNumber="1.92" maxVehicleNumber="2" />
   <interval begin="300.00" end="600.00" id="Detector_7" sampledSeconds="357.27" nVehEntered="15" nVehLeft="17" nVehSeen="17" meanSpeed="0.68" meanTimeLoss="19.83" meanOccupancy="42.19" maxOccupancy="73.98" meanMaxJamLengthInVehicles="1.09" meanMaxJamLengthInMeters="5.19" maxJamLengthInVehicles="2" maxJamLengthInMeters="9.90" jamLengthInVehiclesSum="326" jamLengthInMetersSum="1555.64" meanHaltingDuration="94.25" maxHaltingDuration="127.00" haltingDurationSum="377.00" meanIntervalHaltingDuration="82.00" maxIntervalHaltingDuration="102.00" intervalHaltingDurationSum="328.00" startedHalts="2.00" meanVehicleNumber="1.24" maxVehicleNumber="2" />
   <interval begin="300.00" end="600.00" id="Detector_8" sampledSeconds="505.02" nVehEntered="46" nVehLeft="47" nVehSeen="47" meanSpeed="1.38" meanTimeLoss="9.52" meanOccupancy="55.32" maxOccupancy="73.98" meanMaxJamLengthInVehicles="1.41" meanMaxJamLengthInMeters="6.34" maxJamLengthInVehicles="2" maxJamLengthInMeters="9.90" jamLengthInVehiclesSum="424" jamLengthInMetersSum="1902.09" meanHaltingDuration="71.67" maxHaltingDuration="112.00" haltingDurationSum="430.00" meanIntervalHaltingDuration="71.67" maxIntervalHaltingDuration="112.00" intervalHaltingDurationSum="430.00" startedHalts="6.00" meanVehicleNumber="1.84" maxVehicleNumber="2" />
   <interval begin="300.00" end="600.00" id="Detector_3" sampledSeconds="265.19" nVehEntered="15" nVehLeft="15" nVehSeen="15" meanSpeed="0.85" meanTimeLoss="16.45" meanOccupancy="29.27" maxOccupancy="64.98" meanMaxJamLengthInVehicles="0.77" meanMaxJamLengthInMeters="3.47" maxJamLengthInVehicles="2" maxJamLengthInMeters="9.00" jamLengthInVehiclesSum="232" jamLengthInMetersSum="1040.88" meanHaltingDuration="59.00" maxHaltingDuration="73.00" haltingDurationSum="236.00" meanIntervalHaltingDuration="59.00" maxIntervalHaltingDuration="73.00" intervalHaltingDurationSum="236.00" startedHalts="4.00" meanVehicleNumber="0.93" maxVehicleNumber="2" />
   <interval begin="600.00" end="900.00" id="Detector_1" sampledSeconds="229.28" nVehEntered="11" nVehLeft="11" nVehSeen="13" meanSpeed="0.71" meanTimeLoss="16.60" meanOccupancy="28.29" maxOccupancy="73.98" meanMaxJamLengthInVehicles="0.67" meanMaxJamLengthInMeters="3.13" maxJamLengthInVehicles="2" maxJamLengthInMeters="9.90" jamLengthInVehiclesSum="202" jamLengthInMetersSum="939.62" meanHaltingDuration="69.83" maxHaltingDuration="121.00" haltingDurationSum="419.00" meanIntervalHaltingDuration="34.33" maxIntervalHaltingDuration="69.00" intervalHaltingDurationSum="206.00" startedHalts="4.00" meanVehicleNumber="0.81" maxVehicleNumber="2" />
   <interval begin="600.00" end="900.00" id="Detector_6" sampledSeconds="448.10" nVehEntered="75" nVehLeft="75" nVehSeen="77" meanSpeed="2.50" meanTimeLoss="4.60" meanOccupancy="49.15" maxOccupancy="64.98" meanMaxJamLengthInVehicles="1.11" meanMaxJamLengthInMeters="4.99" maxJamLengthInVehicles="2" maxJamLengthInMeters="9.00" jamLengthInVehiclesSum="334" jamLengthInMetersSum="1497.83" meanHaltingDuration="73.83" maxHaltingDuration="88.00" haltingDurationSum="443.00" meanIntervalHaltingDuration="56.33" maxIntervalHaltingDuration="88.00" intervalHaltingDurationSum="338.00" startedHalts="4.00" meanVehicleNumber="1.74" maxVehicleNumber="2" />
   <interval begin="600.00" end="900.00" id="Detector_2" sampledSeconds="455.12" nVehEntered="72" nVehLeft="72" nVehSeen="74" meanSpeed="2.37" meanTimeLoss="4.94" meanOccupancy="50.15" maxOccupancy="73.98" meanMaxJamLengthInVehicles="1.13" meanMaxJamLengthInMeters="5.08" maxJamLengthInVehicles="2" maxJamLengthInMeters="9.00" jamLengthInVehiclesSum="340" jamLengthInMetersSum="1524.83" meanHaltingDuration="56.38" maxHaltingDuration="87.00" haltingDurationSum="451.00" meanIntervalHaltingDuration="43.25" maxIntervalHaltingDuration="84.00" intervalHaltingDurationSum="346.00" startedHalts="6.00" meanVehicleNumber="1.76" maxVehicleNumber="2" />
   <interval begin="600.00" end="900.00" id="Detector_5" sampledSeconds="380.92" nVehEntered="12" nVehLeft="12" nVehSeen="14" meanSpeed="0.47" meanTimeLoss="26.15" meanOccupancy="46.42" maxOccupancy="73.98" meanMaxJamLengthInVehicles="1.17" meanMaxJamLengthInMeters="5.72" maxJamLengthInVehicles="2" maxJamLengthInMeters="9.90" jamLengthInVehiclesSum="351" jamLengthInMetersSum="1715.42" meanHaltingDuration="98.67" maxHaltingDuration="143.00" haltingDurationSum="592.00" meanIntervalHaltingDuration="59.17" maxIntervalHaltingDuration="143.00" intervalHaltingDurationSum="355.00" startedHalts="4.00" meanVehicleNumber="1.31" maxVehicleNumber="2" />
   <interval begin="600.00" end="900.00" id="Detector_4" sampledSeconds="549.65" nVehEntered="25" nVehLeft="24" nVehSeen="26" meanSpeed="0.64" meanTimeLoss="20.06" meanOccupancy="61.41" maxOccupancy="73.98" meanMaxJamLengthInVehicles="1.47" meanMaxJamLengthInMeters="6.53" maxJamLengthInVehicles="2" maxJamLengthInMeters="9.90" jamLengthInVehiclesSum="442" jamLengthInMetersSum="1959.76" meanHaltingDuration="14.81" maxHaltingDuration="122.00" haltingDurationSum="474.00" meanIntervalHaltingDuration="14.81" maxIntervalHaltingDuration="122.00" intervalHaltingDurationSum="474.00" startedHalts="32.00" meanVehicleNumber="1.91" maxVehicleNumber="2" />
   <interval begin="600.00" end="900.00" id="Detector_7" sampledSeconds="473.81" nVehEntered="13" nVehLeft="13" nVehSeen="13" meanSpeed="0.40" meanTimeLoss="35.24" meanOccupancy="59.17" maxOccupancy="74.98" meanMaxJamLengthInVehicles="1.49" meanMaxJamLengthInMeters="7.38" maxJamLengthInVehicles="2" maxJamLengthInMeters="10.00" jamLengthInVehiclesSum="446" jamLengthInMetersSum="2215.38" meanHaltingDuration="113.33" maxHaltingDuration="120.00" haltingDurationSum="340.00" meanIntervalHaltingDuration="113.33" maxIntervalHaltingDuration="120.00" intervalHaltingDurationSum="340.00" startedHalts="4.00" meanVehicleNumber="1.62" maxVehicleNumber="2" />
   <interval begin="600.00" end="900.00" id="Detector_8" sampledSeconds="520.68" nVehEntered="40" nVehLeft="39" nVehSeen="40" meanSpeed="1.13" meanTimeLoss="11.81" meanOccupancy="57.10" maxOccupancy="73.98" meanMaxJamLengthInVehicles="1.50" meanMaxJamLengthInMeters="6.72" maxJamLengthInVehicles="2" maxJamLengthInMeters="9.90" jamLengthInVehiclesSum="449" jamLengthInMetersSum="2014.97" meanHaltingDuration="75.83" maxHaltingDuration="118.00" haltingDurationSum="455.00" meanIntervalHaltingDuration="75.83" maxIntervalHaltingDuration="118.00" intervalHaltingDurationSum="455.00" startedHalts="6.00" meanVehicleNumber="1.87" maxVehicleNumber="2" />
   <interval begin="600.00" end="900.00" id="Detector_3" sampledSeconds="360.04" nVehEntered="20" nVehLeft="20" nVehSeen="20" meanSpeed="0.83" meanTimeLoss="16.76" meanOccupancy="40.34" maxOccupancy="64.98" meanMaxJamLengthInVehicles="1.07" meanMaxJamLengthInMeters="4.81" maxJamLengthInVehicles="2" maxJamLengthInMeters="9.00" jamLengthInVehiclesSum="320" jamLengthInMetersSum="1443.85" meanHaltingDuration="81.00" maxHaltingDuration="90.00" haltingDurationSum="324.00" meanIntervalHaltingDuration="81.00" maxIntervalHaltingDuration="90.00" intervalHaltingDurationSum="324.00" startedHalts="4.00" meanVehicleNumber="1.26" maxVehicleNumber="2" />
   <interval begin="900.00" end="1200.00" id="Detector_1" sampledSeconds="243.99" nVehEntered="15" nVehLeft="16" nVehSeen="17" meanSpeed="0.97" meanTimeLoss="13.21" meanOccupancy="26.94" maxOccupancy="64.98" meanMaxJamLengthInVehicles="0.69" meanMaxJamLengthInMeters="3.08" maxJamLengthInVehicles="2" maxJamLengthInMeters="9.00" jamLengthInVehiclesSum="207" jamLengthInMetersSum="925.40" meanHaltingDuration="47.83" maxHaltingDuration="64.00" haltingDurationSum="287.00" meanIntervalHaltingDuration="35.17" maxIntervalHaltingDuration="60.00" intervalHaltingDurationSum="211.00" startedHalts="4.00" meanVehicleNumber="0.86" maxVehicleNumber="2" />
   <interval begin="900.00" end="1200.00" id="Detector_6" sampledSeconds="429.60" nVehEntered="79" nVehLeft="80" nVehSeen="81" meanSpeed="2.80" meanTimeLoss="4.07" meanOccupancy="47.61" maxOccupancy="73.98" meanMaxJamLengthInVehicles="0.99" meanMaxJamLengthInMeters="4.46" maxJamLengthInVehicles="2" maxJamLengthInMeters="10.00" jamLengthInVehiclesSum="298" jamLengthInMetersSum="1339.15" meanHaltingDuration="45.55" maxHaltingDuration="87.00" haltingDurationSum="410.00" meanIntervalHaltingDuration="33.89" maxIntervalHaltingDuration="75.00" intervalHaltingDurationSum="305.00" startedHalts="7.00" meanVehicleNumber="1.70" maxVehicleNumber="2" />
   <interval begin="900.00" end="1200.00" id="Detector_2" sampledSeconds="447.50" nVehEntered="75" nVehLeft="76" nVehSeen="77" meanSpeed="2.54" meanTimeLoss="4.59" meanOccupancy="49.67" maxOccupancy="73.98" meanMaxJamLengthInVehicles="1.08" meanMaxJamLengthInMeters="4.84" maxJamLengthInVehicles="2" maxJamLengthInMeters="9.90" jamLengthInVehiclesSum="323" jamLengthInMetersSum="1451.83" meanHaltingDuration="54.50" maxHaltingDuration="95.00" haltingDurationSum="436.00" meanIntervalHaltingDuration="41.12" maxIntervalHaltingDuration="81.00" intervalHaltingDurationSum="329.00" startedHalts="6.00" meanVehicleNumber="1.74" maxVehicleNumber="2" />
   <interval begin="900.00" end="1200.00" id="Detector_5" sampledSeconds="451.64" nVehEntered="15" nVehLeft="15" nVehSeen="17" meanSpeed="0.50" meanTimeLoss="25.47" meanOccupancy="55.01" maxOccupancy="73.98" meanMaxJamLengthInVehicles="1.37" meanMaxJamLengthInMeters="6.70" maxJamLengthInVehicles="2" maxJamLengthInMeters="9.90" jamLengthInVehiclesSum="411" jamLengthInMetersSum="2008.99" meanHaltingDuration="57.62" maxHaltingDuration="128.00" haltingDurationSum="461.00" meanIntervalHaltingDuration="52.12" maxIntervalHaltingDuration="128.00" intervalHaltingDurationSum="417.00" startedHalts="6.00" meanVehicleNumber="1.56" maxVehicleNumber="2" />
   <interval begin="900.00" end="1200.00" id="Detector_4" sampledSeconds="550.98" nVehEntered="22" nVehLeft="23" nVehSeen="24" meanSpeed="0.60" meanTimeLoss="21.86" meanOccupancy="61.56" maxOccupancy="73.98" meanMaxJamLengthInVehicles="1.48" meanMaxJamLengthInMeters="6.59" maxJamLengthInVehicles="2" maxJamLengthInMeters="9.90" jamLengthInVehiclesSum="444" jamLengthInMetersSum="1977.16" meanHaltingDuration="15.35" maxHaltingDuration="113.00" haltingDurationSum="476.00" meanIntervalHaltingDuration="15.26" maxIntervalHaltingDuration="113.00" intervalHaltingDurationSum="473.00" startedHalts="29.00" meanVehicleNumber="1.91" maxVehicleNumber="2" />
   <interval begin="900.00" end="1200.00" id="Detector_7" sampledSeconds="189.56" nVehEntered="9" nVehLeft="9" nVehSeen="9" meanSpeed="0.69" meanTimeLoss="19.89" meanOccupancy="24.80" maxOccupancy="73.98" meanMaxJamLengthInVehicles="0.53" meanMaxJamLengthInMeters="2.60" maxJamLengthInVehicles="2" maxJamLengthInMeters="9.90" jamLengthInVehiclesSum="159" jamLengthInMetersSum="781.33" meanHaltingDuration="32.80" maxHaltingDuration="96.00" haltingDurationSum="164.00" meanIntervalHaltingDuration="32.80" maxIntervalHaltingDuration="96.00" intervalHaltingDurationSum="164.00" startedHalts="6.00" meanVehicleNumber="0.66" maxVehicleNumber="2" />
   <interval begin="900.00" end="1200.00" id="Detector_8" sampledSeconds="196.44" nVehEntered="46" nVehLeft="47" nVehSeen="47" meanSpeed="3.49" meanTimeLoss="2.99" meanOccupancy="23.35" maxOccupancy="73.98" meanMaxJamLengthInVehicles="0.25" meanMaxJamLengthInMeters="1.05" maxJamLengthInVehicles="2" maxJamLengthInMeters="9.90" jamLengthInVehiclesSum="74" jamLengthInMetersSum="313.95" meanHaltingDuration="3.85" maxHaltingDuration="23.00" haltingDurationSum="100.00" meanIntervalHaltingDuration="3.85" maxIntervalHaltingDuration="23.00" intervalHaltingDurationSum="100.00" startedHalts="26.00" meanVehicleNumber="0.80" maxVehicleNumber="2" />
   <interval begin="900.00" end="1200.00" id="Detector_3" sampledSeconds="194.31" nVehEntered="14" nVehLeft="14" nVehSeen="14" meanSpeed="1.08" meanTimeLoss="12.63" meanOccupancy="24.04" maxOccupancy="73.96" meanMaxJamLengthInVehicles="0.56" meanMaxJamLengthInMeters="2.78" maxJamLengthInVehicles="2" maxJamLengthInMeters="9.90" jamLengthInVehiclesSum="169" jamLengthInMetersSum="834.05" meanHaltingDuration="85.50" maxHaltingDuration="88.00" haltingDurationSum="171.00" meanIntervalHaltingDuration="85.50" maxIntervalHaltingDuration="88.00" intervalHaltingDurationSum="171.00" startedHalts="2.00" meanVehicleNumber="0.69" maxVehicleNumber="2" />
   <interval begin="1200.00" end="1500.00" id="Detector_1" sampledSeconds="457.99" nVehEntered="13" nVehLeft="14" nVehSeen="14" meanSpeed="0.44" meanTimeLoss="31.53" meanOccupancy="58.52" maxOccupancy="73.98" meanMaxJamLengthInVehicles="1.40" meanMaxJamLengthInMeters="6.84" maxJamLengthInVehicles="2" maxJamLengthInMeters="9.90" jamLengthInVehiclesSum="421" jamLengthInMetersSum="2052.92" meanHaltingDuration="71.17" maxHaltingDuration="126.00" haltingDurationSum="427.00" meanIntervalHaltingDuration="71.17" maxIntervalHaltingDuration="126.00" intervalHaltingDurationSum="427.00" startedHalts="6.00" meanVehicleNumber="1.57" maxVehicleNumber="2" />
   <interval begin="1200.00" end="1500.00" id="Detector_6" sampledSeconds="325.73" nVehEntered="99" nVehLeft="99" nVehSeen="100" meanSpeed="4.55" meanTimeLoss="2.02" meanOccupancy="36.52" maxOccupancy="65.00" meanMaxJamLengthInVehicles="0.61" meanMaxJamLengthInMeters="2.73" maxJamLengthInVehicles="2" maxJamLengthInMeters="10.00" jamLengthInVehiclesSum="182" jamLengthInMetersSum="818.71" meanHaltingDuration="46.50" maxHaltingDuration="48.00" haltingDurationSum="186.00" meanIntervalHaltingDuration="46.50" maxIntervalHaltingDuration="48.00" intervalHaltingDurationSum="186.00" startedHalts="4.00" meanVehicleNumber="1.39" maxVehicleNumber="2" />
   <interval begin="1200.00" end="1500.00" id="Detector_2" sampledSeconds="327.01" nVehEntered="94" nVehLeft="94" nVehSeen="95" meanSpeed="4.33" meanTimeLoss="2.21" meanOccupancy="37.09" maxOccupancy="73.98" meanMaxJamLengthInVehicles="0.61" meanMaxJamLengthInMeters="2.78" maxJamLengthInVehicles="2" maxJamLengthInMeters="9.90" jamLengthInVehiclesSum="183" jamLengthInMetersSum="832.61" meanHaltingDuration="31.50" maxHaltingDuration="52.00" haltingDurationSum="189.00" meanIntervalHaltingDuration="31.50" maxIntervalHaltingDuration="52.00" intervalHaltingDurationSum="189.00" startedHalts="6.00" meanVehicleNumber="1.38" maxVehicleNumber="2" />
   <interval begin="1200.00" end="1500.00" id="Detector_5" sampledSeconds="572.65" nVehEntered="13" nVehLeft="13" nVehSeen="15" meanSpeed="0.34" meanTimeLoss="37.11" meanOccupancy="69.26" maxOccupancy="73.98" meanMaxJamLengthInVehicles="1.79" meanMaxJamLengthInMeters="8.72" maxJamLengthInVehicles="2" maxJamLengthInMeters="9.90" jamLengthInVehiclesSum="536" jamLengthInMetersSum="2615.73" meanHaltingDuration="70.12" maxHaltingDuration="137.00" haltingDurationSum="561.00" meanIntervalHaltingDuration="67.75" maxIntervalHaltingDuration="137.00" intervalHaltingDurationSum="542.00" startedHalts="6.00" meanVehicleNumber="1.95" maxVehicleNumber="2" />
   <interval begin="1200.00" end="1500.00" id="Detector_4" sampledSeconds="561.28" nVehEntered="19" nVehLeft="18" nVehSeen="20" meanSpeed="0.48" meanTimeLoss="26.99" meanOccupancy="62.41" maxOccupancy="73.98" meanMaxJamLengthInVehicles="1.58" meanMaxJamLengthInMeters="7.07" maxJamLengthInVehicles="2" maxJamLengthInMeters="9.90" jamLengthInVehiclesSum="475" jamLengthInMetersSum="2120.15" meanHaltingDuration="19.27" maxHaltingDuration="101.00" haltingDurationSum="501.00" meanIntervalHaltingDuration="19.27" maxIntervalHaltingDuration="101.00" intervalHaltingDurationSum="501.00" startedHalts="26.00" meanVehicleNumber="1.94" maxVehicleNumber="2" />
   <interval begin="1200.00" end="1500.00" id="Detector_7" sampledSeconds="352.69" nVehEntered="10" nVehLeft="10" nVehSeen="10" meanSpeed="0.43" meanTimeLoss="34.05" meanOccupancy="39.93" maxOccupancy="64.98" meanMaxJamLengthInVehicles="1.09" meanMaxJamLengthInMeters="4.93" maxJamLengthInVehicles="2" maxJamLengthInMeters="9.00" jamLengthInVehiclesSum="327" jamLengthInMetersSum="1478.85" meanHaltingDuration="82.75" maxHaltingDuration="90.00" haltingDurationSum="331.00" meanIntervalHaltingDuration="82.75" maxIntervalHaltingDuration="90.00" intervalHaltingDurationSum="331.00" startedHalts="4.00" meanVehicleNumber="1.21" maxVehicleNumber="2" />
   <interval begin="1200.00" end="1500.00" id="Detector_8" sampledSeconds="0.00" nVehEntered="0" nVehLeft="0" nVehSeen="0" meanSpeed="-1.00" meanTimeLoss="-1.00" meanOccupancy="0.00" maxOccupancy="0.00" meanMaxJamLengthInVehicles="0.00" meanMaxJamLengthInMeters="0.00" maxJamLengthInVehicles="0" maxJamLengthInMeters="0.00" jamLengthInVehiclesSum="0" jamLengthInMetersSum="0.00" meanHaltingDuration="0.00" maxHaltingDuration="0.00" haltingDurationSum="0.00" meanIntervalHaltingDuration="0.00" maxIntervalHaltingDuration="0.00" intervalHaltingDurationSum="0.00" startedHalts="0.00" meanVehicleNumber="0.00" maxVehicleNumber="0" />
   <interval begin="1200.00" end="1500.00" id="Detector_3" sampledSeconds="0.00" nVehEntered="0" nVehLeft="0" nVehSeen="0" meanSpeed="-1.00" meanTimeLoss="-1.00" meanOccupancy="0.00" maxOccupancy="0.00" meanMaxJamLengthInVehicles="0.00" meanMaxJamLengthInMeters="0.00" maxJamLengthInVehicles="0" maxJamLengthInMeters="0.00" jamLengthInVehiclesSum="0" jamLengthInMetersSum="0.00" meanHaltingDuration="0.00" maxHaltingDuration="0.00" haltingDurationSum="0.00" meanIntervalHaltingDuration="0.00" maxIntervalHaltingDuration="0.00" intervalHaltingDurationSum="0.00" startedHalts="0.00" meanVehicleNumber="0.00" maxVehicleNumber="0" />
   <interval begin="1500.00" end="1800.00" id="Detector_1" sampledSeconds="200.54" nVehEntered="5" nVehLeft="5" nVehSeen="5" meanSpeed="0.37" meanTimeLoss="38.85" meanOccupancy="24.73" maxOccupancy="73.98" meanMaxJamLengthInVehicles="0.62" meanMaxJamLengthInMeters="3.08" maxJamLengthInVehicles="2" maxJamLengthInMeters="9.90" jamLengthInVehiclesSum="187" jamLengthInMetersSum="923.11" meanHaltingDuration="94.50" maxHaltingDuration="95.00" haltingDurationSum="189.00" meanIntervalHaltingDuration="94.50" maxIntervalHaltingDuration="95.00" intervalHaltingDurationSum="189.00" startedHalts="2.00" meanVehicleNumber="0.68" maxVehicleNumber="2" />
   <interval begin="1500.00" end="1800.00" id="Detector_6" sampledSeconds="166.07" nVehEntered="53" nVehLeft="54" nVehSeen="54" meanSpeed="4.80" meanTimeLoss="1.85" meanOccupancy="18.73" maxOccupancy="64.98" meanMaxJamLengthInVehicles="0.28" meanMaxJamLengthInMeters="1.27" maxJamLengthInVehicles="2" maxJamLengthInMeters="9.00" jamLengthInVehiclesSum="85" jamLengthInMetersSum="380.46" meanHaltingDuration="29.33" maxHaltingDuration="43.00" haltingDurationSum="88.00" meanIntervalHaltingDuration="29.33" maxIntervalHaltingDuration="43.00" intervalHaltingDurationSum="88.00" startedHalts="3.00" meanVehicleNumber="0.72" maxVehicleNumber="2" />
   <interval begin="1500.00" end="1800.00" id="Detector_2" sampledSeconds="222.31" nVehEntered="97" nVehLeft="98" nVehSeen="98" meanSpeed="6.57" meanTimeLoss="1.03" meanOccupancy="25.22" maxOccupancy="73.98" meanMaxJamLengthInVehicles="0.27" meanMaxJamLengthInMeters="1.21" maxJamLengthInVehicles="2" maxJamLengthInMeters="9.90" jamLengthInVehiclesSum="81" jamLengthInMetersSum="364.46" meanHaltingDuration="21.25" maxHaltingDuration="36.00" haltingDurationSum="85.00" meanIntervalHaltingDuration="21.25" maxIntervalHaltingDuration="36.00" intervalHaltingDurationSum="85.00" startedHalts="4.00" meanVehicleNumber="1.04" maxVehicleNumber="2" />