<?xml version="1.0" encoding="UTF-8"?>

<!-- generated on 2026-04-09T16:35:14.264518+01:00 by Eclipse SUMO sumo v1_26_0+1034-8d7c6592743
This data file and the accompanying materials
are made available under the terms of the Eclipse Public License v2.0
which accompanies this distribution, and is available at
http://www.eclipse.org/legal/epl-v20.html
This file may also be made available under the following Secondary
Licenses when the conditions for such availability set forth in the Eclipse
Public License 2.0 are satisfied: GNU General Public License, version 2
or later which is available at
https://www.gnu.org/licenses/old-licenses/gpl-2.0-standalone.html
SPDX-License-Identifier: EPL-2.0 OR GPL-2.0-or-later
<sumoConfiguration xmlns:xsi="http://www.w3.org/2001/XMLSchema-instance" xsi:noNamespaceSchemaLocation="http://sumo.dlr.de/xsd/sumoConfiguration.xsd">

    <input>
        <net-file value="net.net.xml"/>
        <route-files value="input_routes.rou.xml"/>
        <additional-files value="input_additional.add.xml"/>
    </input>

    <output>
        <write-license value="true"/>
        <vehroute-output value="vehroutes.xml"/>
    </output>

    <time>
        <end value="1440"/>
    </time>

    <processing>
        <default.speeddev value="0"/>
    </processing>

    <report>
        <xml-validation value="never"/>
        <duration-log.disable value="true"/>
        <no-step-log value="true"/>
    </report>

    <mesoscopic>
        <mesosim value="true"/>
    </mesoscopic>

</sumoConfiguration>
-->

<meandata xmlns:xsi="http://www.w3.org/2001/XMLSchema-instance" xsi:noNamespaceSchemaLocation="http://sumo.dlr.de/xsd/meandata_file.xsd">
    <interval begin="0.00" end="360.00" id="expect_300_vehs">
        <edge id="bottleneck" sampledSeconds="712.64" traveltime="2.73" overlapTraveltime="2.87" density="20.10" overlapDensity="20.10" laneDensity="20.10" occupancy="10.05" waitingTime="0.00" timeLoss="0.06" speed="36.11" speedRelative="1.00" departed="0" arrived="0" entered="262" left="260" laneChangedFrom="0" laneChangedTo="0" flow="2612.33"/>
        <edge id="end" sampledSeconds="717.65" traveltime="2.77" overlapTraveltime="2.91" density="19.93" overlapDensity="19.93" laneDensity="19.93" occupancy="9.97" waitingTime="0.00" timeLoss="0.00" speed="36.11" speedRelative="1.00" departed="0" arrived="258" entered="260" left="0" laneChangedFrom="0" laneChangedTo="0" flow="2591.73"/>
        <edge id="jam" sampledSeconds="718.40" traveltime="2.73" overlapTraveltime="2.87" density="20.26" overlapDensity="20.26" laneDensity="10.13" occupancy="5.06" waitingTime="0.00" timeLoss="0.06" speed="36.11" speedRelative="1.00" departed="0" arrived="0" entered="264" left="262" laneChangedFrom="0" laneChangedTo="0" flow="2633.42"/>
        <edge id="middle" sampledSeconds="734.87" traveltime="2.77" overlapTraveltime="2.91" density="20.41" overlapDensity="20.41" laneDensity="10.21" occupancy="5.10" waitingTime="0.00" timeLoss="0.00" speed="36.11" speedRelative="1.00" departed="0" arrived="0" entered="266" left="264" laneChangedFrom="0" laneChangedTo="0" flow="2653.93"/>
        <edge id="start" sampledSeconds="1770.87" traveltime="6.56" overlapTraveltime="6.89" density="49.19" overlapDensity="49.19" laneDensity="24.60" occupancy="12.30" waitingTime="175.00" timeLoss="1023.28" speed="15.24" speedRelative="0.42" departed="273" arrived="0" entered="0" left="267" laneChangedFrom="0" laneChangedTo="0" flow="2699.57"/>
    </interval>
    <interval begin="360.00" end="720.00" id="expect_300_vehs">
        <edge id="bottleneck" sampledSeconds="734.55" traveltime="2.73" overlapTraveltime="2.87" density="20.71" overlapDensity="20.71" laneDensity="20.71" occupancy="10.36" waitingTime="0.00" timeLoss="0.06" speed="36.11" speedRelative="1.00" departed="0" arrived="0" entered="270" left="269" laneChangedFrom="0" laneChangedTo="0" flow="2692.63"/>
        <edge id="end" sampledSeconds="745.56" traveltime="2.77" overlapTraveltime="2.91" density="20.71" overlapDensity="20.71" laneDensity="20.71" occupancy="10.35" waitingTime="0.00" timeLoss="0.00" speed="36.11" speedRelative="1.00" departed="0" arrived="269" entered="269" left="0" laneChangedFrom="0" laneChangedTo="0" flow="2692.51"/>
        <edge id="jam" sampledSeconds="734.58" traveltime="2.73" overlapTraveltime="2.87" density="20.72" overlapDensity="20.72" laneDensity="10.36" occupancy="5.18" waitingTime="0.00" timeLoss="0.06" speed="36.11" speedRelative="1.00" departed="0" arrived="0" entered="270" left="270" laneChangedFrom="0" laneChangedTo="0" flow="2692.74"/>
        <edge id="middle" sampledSeconds="745.65" traveltime="2.77" overlapTraveltime="2.91" density="20.71" overlapDensity="20.71" laneDensity="10.36" occupancy="5.18" waitingTime="0.00" timeLoss="0.00" speed="36.11" speedRelative="1.00" departed="0" arrived="0" entered="270" left="270" laneChangedFrom="0" laneChangedTo="0" flow="2692.85"/>
        <edge id="start" sampledSeconds="2056.62" traveltime="7.61" overlapTraveltime="7.99" density="57.13" overlapDensity="57.13" laneDensity="28.56" occupancy="14.28" waitingTime="150.00" timeLoss="1308.12" speed="13.14" speedRelative="0.36" departed="271" arrived="0" entered="0" left="269" laneChangedFrom="0" laneChangedTo="0" flow="2702.84"/>
    </interval>
    <interval begin="720.00" end="1080.00" id="expect_300_vehs">
        <edge id="bottleneck" sampledSeconds="734.56" traveltime="2.73" overlapTraveltime="2.87" density="20.72" overlapDensity="20.72" laneDensity="20.72" occupancy="10.36" waitingTime="0.00" timeLoss="0.06" speed="36.11" speedRelative="1.00" departed="0" arrived="0" entered="269" left="270" laneChangedFrom="0" laneChangedTo="0" flow="2692.66"/>
        <edge id="end" sampledSeconds="745.65" traveltime="2.77" overlapTraveltime="2.91" density="20.71" overlapDensity="20.71" laneDensity="20.71" occupancy="10.36" waitingTime="0.00" timeLoss="0.00" speed="36.11" speedRelative="1.00" departed="0" arrived="270" entered="270" left="0" laneChangedFrom="0" laneChangedTo="0" flow="2692.85"/>
        <edge id="jam" sampledSeconds="734.53" traveltime="2.73" overlapTraveltime="2.87" density="20.71" overlapDensity="20.71" laneDensity="10.36" occupancy="5.18" waitingTime="0.00" timeLoss="0.06" speed="36.11" speedRelative="1.00" departed="0" arrived="0" entered="269" left="269" laneChangedFrom="0" laneChangedTo="0" flow="2692.54"/>
        <edge id="middle" sampledSeconds="745.56" traveltime="2.77" overlapTraveltime="2.91" density="20.71" overlapDensity="20.71" laneDensity="10.35" occupancy="5.18" waitingTime="0.00" timeLoss="0.00" speed="36.11" speedRelative="1.00" departed="0" arrived="0" entered="269" left="269" laneChangedFrom="0" laneChangedTo="0" flow="2692.51"/>
        <edge id="start" sampledSeconds="2358.73" traveltime="8.75" overlapTraveltime="9.19" density="65.52" overlapDensity="65.52" laneDensity="32.76" occupancy="16.38" waitingTime="101.00" timeLoss="1612.46" speed="11.42" speedRelative="0.32" departed="269" arrived="0" entered="0" left="270" laneChangedFrom="0" laneChangedTo="0" flow="2694.80"/>
    </interval>
    <interval begin="1080.00" end="1440.00" id="expect_300_vehs">
        <edge id="bottleneck" sampledSeconds="734.53" traveltime="2.73" overlapTraveltime="2.87" density="20.71" overlapDensity="20.71" laneDensity="20.71" occupancy="10.36" waitingTime="0.00" timeLoss="0.06" speed="36.11" speedRelative="1.00" departed="0" arrived="0" entered="269" left="269" laneChangedFrom="0" laneChangedTo="0" flow="2692.54"/>
        <edge id="end" sampledSeconds="745.56" traveltime="2.77" overlapTraveltime="2.91" density="20.71" overlapDensity="20.71" laneDensity="20.71" occupancy="10.35" waitingTime="0.00" timeLoss="0.00" speed="36.11" speedRelative="1.00" departed="0" arrived="269" entered="269" left="0" laneChangedFrom="0" laneChangedTo="0" flow="2692.51"/>
        <edge id="jam" sampledSeconds="734.53" traveltime="2.73" overlapTraveltime="2.87" density="20.71" overlapDensity="20.71" laneDensity="10.36" occupancy="5.18" waitingTime="0.00" timeLoss="0.06" speed="36.11" speedRelative="1.00" departed="0" arrived="0" entered="269" left="269" laneChangedFrom="0" laneChangedTo="0" flow="2692.54"/>
        <edge id="middle" sampledSeconds="745.56" traveltime="2.77" overlapTraveltime="2.91" density="20.71" overlapDensity="20.71" laneDensity="10.35" occupancy="5.18" waitingTime="0.00" timeLoss="0.00" speed="36.11" speedRelative="1.00" departed="0" arrived="0" entered="269" left="269" laneChangedFrom="0" laneChangedTo="0" flow="2692.51"/>
        <edge id="start" sampledSeconds="2353.81" traveltime="8.74" overlapTraveltime="9.18" density="65.38" overlapDensity="65.38" laneDensity="32.69" occupancy="16.35" waitingTime="101.00" timeLoss="1608.26" speed="11.44" speedRelative="0.32" departed="269" arrived="0" entered="0" left="269" laneChangedFrom="0" laneChangedTo="0" flow="2692.15"/>
    </interval>
</meandata>
