<?xml version="1.0" encoding="UTF-8"?>

<!-- generated on Wed May 30 09:51:08 2018 by Eclipse SUMO Version b2daee9
This data file and the accompanying materials
are made available under the terms of the Eclipse Public License v2.0
which accompanies this distribution, and is available at
http://www.eclipse.org/legal/epl-v20.html
SPDX-License-Identifier: EPL-2.0
<configuration xmlns:xsi="http://www.w3.org/2001/XMLSchema-instance" xsi:noNamespaceSchemaLocation="https://sumo.dlr.de/xsd/sumoConfiguration.xsd">

    <input>
        <net-file value="net.net.xml"/>
        <route-files value="input_routes.rou.xml"/>
        <additional-files value="input_additional.add.xml"/>
    </input>

    <output>
        <write-license value="true"/>
        <vehroute-output value="vehroutes.xml"/>
    </output>

    <time>
        <end value="1440"/>
    </time>

    <processing>
        <lateral-resolution value="0.8"/>
    </processing>

    <report>
        <xml-validation value="never"/>
        <duration-log.disable value="true"/>
        <no-step-log value="true"/>
    </report>

</configuration>
-->

<meandata xmlns:xsi="http://www.w3.org/2001/XMLSchema-instance" xsi:noNamespaceSchemaLocation="https://sumo.dlr.de/xsd/meandata_file.xsd">
    <interval begin="0.00" end="360.00" id="expect_300_vehs">
        <edge id="bottleneck" sampledSeconds="672.49" traveltime="2.74" overlapTraveltime="2.88" density="18.96" occupancy="9.02" waitingTime="0.00" speed="35.94" departed="0" arrived="0" entered="235" left="232" laneChangedFrom="0" laneChangedTo="0"/>
        <edge id="end" sampledSeconds="674.57" traveltime="2.78" overlapTraveltime="2.91" density="18.74" occupancy="8.93" waitingTime="0.00" speed="36.03" departed="0" arrived="231" entered="232" left="0" laneChangedFrom="0" laneChangedTo="0"/>
        <edge id="jam" sampledSeconds="679.62" traveltime="2.75" overlapTraveltime="2.89" density="19.17" occupancy="4.56" waitingTime="0.00" speed="35.87" departed="0" arrived="0" entered="236" left="235" laneChangedFrom="59" laneChangedTo="59"/>
        <edge id="middle" sampledSeconds="702.65" traveltime="2.82" overlapTraveltime="2.96" density="19.52" occupancy="4.65" waitingTime="0.00" speed="35.44" departed="0" arrived="0" entered="239" left="236" laneChangedFrom="0" laneChangedTo="0"/>
        <edge id="start" sampledSeconds="705.84" traveltime="2.81" overlapTraveltime="2.95" density="19.61" occupancy="4.67" waitingTime="0.00" speed="35.60" departed="240" arrived="0" entered="0" left="239" laneChangedFrom="59" laneChangedTo="59"/>
    </interval>
    <interval begin="360.00" end="720.00" id="expect_300_vehs">
        <edge id="bottleneck" sampledSeconds="691.08" traveltime="2.74" overlapTraveltime="2.88" density="19.49" occupancy="9.27" waitingTime="0.00" speed="35.94" departed="0" arrived="0" entered="240" left="240" laneChangedFrom="0" laneChangedTo="0"/>
        <edge id="end" sampledSeconds="698.86" traveltime="2.78" overlapTraveltime="2.91" density="19.41" occupancy="9.25" waitingTime="0.00" speed="36.03" departed="0" arrived="240" entered="240" left="0" laneChangedFrom="0" laneChangedTo="0"/>
        <edge id="jam" sampledSeconds="692.57" traveltime="2.75" overlapTraveltime="2.89" density="19.53" occupancy="4.65" waitingTime="0.00" speed="35.87" departed="0" arrived="0" entered="240" left="240" laneChangedFrom="60" laneChangedTo="60"/>
        <edge id="middle" sampledSeconds="710.97" traveltime="2.82" overlapTraveltime="2.96" density="19.75" occupancy="4.70" waitingTime="0.00" speed="35.44" departed="0" arrived="0" entered="240" left="240" laneChangedFrom="0" laneChangedTo="0"/>
        <edge id="start" sampledSeconds="707.77" traveltime="2.81" overlapTraveltime="2.95" density="19.66" occupancy="4.68" waitingTime="0.00" speed="35.60" departed="240" arrived="0" entered="0" left="240" laneChangedFrom="60" laneChangedTo="60"/>
    </interval>
    <interval begin="720.00" end="1080.00" id="expect_300_vehs">
        <edge id="bottleneck" sampledSeconds="691.08" traveltime="2.74" overlapTraveltime="2.88" density="19.49" occupancy="9.27" waitingTime="0.00" speed="35.94" departed="0" arrived="0" entered="240" left="240" laneChangedFrom="0" laneChangedTo="0"/>
        <edge id="end" sampledSeconds="698.86" traveltime="2.78" overlapTraveltime="2.91" density="19.41" occupancy="9.25" waitingTime="0.00" speed="36.03" departed="0" arrived="240" entered="240" left="0" laneChangedFrom="0" laneChangedTo="0"/>
        <edge id="jam" sampledSeconds="692.57" traveltime="2.75" overlapTraveltime="2.89" density="19.53" occupancy="4.65" waitingTime="0.00" speed="35.87" departed="0" arrived="0" entered="240" left="240" laneChangedFrom="60" laneChangedTo="60"/>
        <edge id="middle" sampledSeconds="710.97" traveltime="2.82" overlapTraveltime="2.96" density="19.75" occupancy="4.70" waitingTime="0.00" speed="35.44" departed="0" arrived="0" entered="240" left="240" laneChangedFrom="0" laneChangedTo="0"/>
        <edge id="start" sampledSeconds="707.77" traveltime="2.81" overlapTraveltime="2.95" density="19.66" occupancy="4.68" waitingTime="0.00" speed="35.60" departed="240" arrived="0" entered="0" left="240" laneChangedFrom="60" laneChangedTo="60"/>
    </interval>
    <interval begin="1080.00" end="1440.00" id="expect_300_vehs">
        <edge id="bottleneck" sampledSeconds="691.08" traveltime="2.74" overlapTraveltime="2.88" density="19.49" occupancy="9.27" waitingTime="0.00" speed="35.94" departed="0" arrived="0" entered="240" left="240" laneChangedFrom="0" laneChangedTo="0"/>
        <edge id="end" sampledSeconds="698.86" traveltime="2.78" overlapTraveltime="2.91" density="19.41" occupancy="9.25" waitingTime="0.00" speed="36.03" departed="0" arrived="240" entered="240" left="0" laneChangedFrom="0" laneChangedTo="0"/>
        <edge id="jam" sampledSeconds="692.57" traveltime="2.75" overlapTraveltime="2.89" density="19.53" occupancy="4.65" waitingTime="0.00" speed="35.87" departed="0" arrived="0" entered="240" left="240" laneChangedFrom="60" laneChangedTo="60"/>
        <edge id="middle" sampledSeconds="710.97" traveltime="2.82" overlapTraveltime="2.96" density="19.75" occupancy="4.70" waitingTime="0.00" speed="35.44" departed="0" arrived="0" entered="240" left="240" laneChangedFrom="0" laneChangedTo="0"/>
        <edge id="start" sampledSeconds="707.77" traveltime="2.81" overlapTraveltime="2.95" density="19.66" occupancy="4.68" waitingTime="0.00" speed="35.60" departed="240" arrived="0" entered="0" left="240" laneChangedFrom="60" laneChangedTo="60"/>
    </interval>
</meandata>
