<?xml version="1.0" encoding="UTF-8"?>

<!-- generated on 2025-11-02T19:25:04.463670+01:00 by Eclipse SUMO sumo v1_24_0+1713-b6716327859
This data file and the accompanying materials
are made available under the terms of the Eclipse Public License v2.0
which accompanies this distribution, and is available at
http://www.eclipse.org/legal/epl-v20.html
This file may also be made available under the following Secondary
Licenses when the conditions for such availability set forth in the Eclipse
Public License 2.0 are satisfied: GNU General Public License, version 2
or later which is available at
https://www.gnu.org/licenses/old-licenses/gpl-2.0-standalone.html
SPDX-License-Identifier: EPL-2.0 OR GPL-2.0-or-later
<sumoConfiguration xmlns:xsi="http://www.w3.org/2001/XMLSchema-instance" xsi:noNamespaceSchemaLocation="http://sumo.dlr.de/xsd/sumoConfiguration.xsd">

    <input>
        <net-file value="net.net.xml"/>
        <route-files value="input_routes.rou.xml"/>
        <additional-files value="input_additional.add.xml"/>
    </input>

    <output>
        <write-license value="true"/>
        <vehroute-output value="vehroutes.xml"/>
    </output>

    <time>
        <end value="1440"/>
    </time>

    <processing>
        <default.speeddev value="0"/>
    </processing>

    <report>
        <xml-validation value="never"/>
        <duration-log.disable value="true"/>
        <no-step-log value="true"/>
    </report>

</sumoConfiguration>
-->

<meandata xmlns:xsi="http://www.w3.org/2001/XMLSchema-instance" xsi:noNamespaceSchemaLocation="http://sumo.dlr.de/xsd/meandata_file.xsd">
    <interval begin="0.00" end="360.00" id="expect_300_vehs">
        <edge id="bottleneck" sampledSeconds="755.93" traveltime="2.75" overlapTraveltime="2.88" density="20.29" overlapDensity="21.32" laneDensity="20.29" occupancy="10.14" waitingTime="0.00" timeLoss="4.89" speed="35.88" speedRelative="0.99" departed="0" arrived="0" entered="263" left="261" laneChangedFrom="0" laneChangedTo="0"/>
        <edge id="end" sampledSeconds="757.76" traveltime="2.78" overlapTraveltime="2.92" density="20.06" overlapDensity="21.05" laneDensity="20.06" occupancy="10.03" waitingTime="0.00" timeLoss="2.44" speed="35.99" speedRelative="1.00" departed="0" arrived="259" entered="261" left="0" laneChangedFrom="0" laneChangedTo="0"/>
        <edge id="jam" sampledSeconds="764.59" traveltime="2.75" overlapTraveltime="2.89" density="20.53" overlapDensity="21.56" laneDensity="10.26" occupancy="5.13" waitingTime="0.00" timeLoss="7.26" speed="35.77" speedRelative="0.99" departed="0" arrived="0" entered="265" left="263" laneChangedFrom="0" laneChangedTo="0"/>
        <edge id="middle" sampledSeconds="785.35" traveltime="2.81" overlapTraveltime="2.95" density="20.78" overlapDensity="21.82" laneDensity="10.39" occupancy="5.19" waitingTime="0.00" timeLoss="11.36" speed="35.59" speedRelative="0.99" departed="0" arrived="0" entered="268" left="265" laneChangedFrom="89" laneChangedTo="89"/>
        <edge id="start" sampledSeconds="802.17" traveltime="2.85" overlapTraveltime="2.99" density="21.23" overlapDensity="22.28" laneDensity="10.61" occupancy="5.31" waitingTime="0.00" timeLoss="22.10" speed="35.11" speedRelative="0.97" departed="270" arrived="0" entered="0" left="268" laneChangedFrom="90" laneChangedTo="90"/>
    </interval>
    <interval begin="360.00" end="720.00" id="expect_300_vehs">
        <edge id="bottleneck" sampledSeconds="778.95" traveltime="2.75" overlapTraveltime="2.89" density="20.91" overlapDensity="21.97" laneDensity="20.91" occupancy="10.45" waitingTime="0.00" timeLoss="5.07" speed="35.88" speedRelative="0.99" departed="0" arrived="0" entered="270" left="270" laneChangedFrom="0" laneChangedTo="0"/>
        <edge id="end" sampledSeconds="787.21" traveltime="2.78" overlapTraveltime="2.92" density="20.84" overlapDensity="21.87" laneDensity="20.84" occupancy="10.42" waitingTime="0.00" timeLoss="2.55" speed="35.99" speedRelative="1.00" departed="0" arrived="270" entered="270" left="0" laneChangedFrom="0" laneChangedTo="0"/>
        <edge id="jam" sampledSeconds="781.35" traveltime="2.75" overlapTraveltime="2.89" density="20.97" overlapDensity="22.03" laneDensity="10.49" occupancy="5.24" waitingTime="0.00" timeLoss="7.46" speed="35.77" speedRelative="0.99" departed="0" arrived="0" entered="270" left="270" laneChangedFrom="0" laneChangedTo="0"/>
        <edge id="middle" sampledSeconds="796.69" traveltime="2.81" overlapTraveltime="2.95" density="21.08" overlapDensity="22.13" laneDensity="10.54" occupancy="5.27" waitingTime="0.00" timeLoss="11.59" speed="35.58" speedRelative="0.99" departed="0" arrived="0" entered="270" left="270" laneChangedFrom="90" laneChangedTo="90"/>
        <edge id="start" sampledSeconds="807.29" traveltime="2.85" overlapTraveltime="2.99" density="21.36" overlapDensity="22.42" laneDensity="10.68" occupancy="5.34" waitingTime="0.00" timeLoss="22.35" speed="35.11" speedRelative="0.97" departed="270" arrived="0" entered="0" left="270" laneChangedFrom="90" laneChangedTo="90"/>
    </interval>
    <interval begin="720.00" end="1080.00" id="expect_300_vehs">
        <edge id="bottleneck" sampledSeconds="778.95" traveltime="2.75" overlapTraveltime="2.89" density="20.91" overlapDensity="21.97" laneDensity="20.91" occupancy="10.45" waitingTime="0.00" timeLoss="5.07" speed="35.88" speedRelative="0.99" departed="0" arrived="0" entered="270" left="270" laneChangedFrom="0" laneChangedTo="0"/>
        <edge id="end" sampledSeconds="787.21" traveltime="2.78" overlapTraveltime="2.92" density="20.84" overlapDensity="21.87" laneDensity="20.84" occupancy="10.42" waitingTime="0.00" timeLoss="2.55" speed="35.99" speedRelative="1.00" departed="0" arrived="270" entered="270" left="0" laneChangedFrom="0" laneChangedTo="0"/>
        <edge id="jam" sampledSeconds="781.35" traveltime="2.75" overlapTraveltime="2.89" density="20.97" overlapDensity="22.03" laneDensity="10.49" occupancy="5.24" waitingTime="0.00" timeLoss="7.46" speed="35.77" speedRelative="0.99" departed="0" arrived="0" entered="270" left="270" laneChangedFrom="0" laneChangedTo="0"/>
        <edge id="middle" sampledSeconds="796.69" traveltime="2.81" overlapTraveltime="2.95" density="21.08" overlapDensity="22.13" laneDensity="10.54" occupancy="5.27" waitingTime="0.00" timeLoss="11.59" speed="35.58" speedRelative="0.99" departed="0" arrived="0" entered="270" left="270" laneChangedFrom="90" laneChangedTo="90"/>
        <edge id="start" sampledSeconds="807.29" traveltime="2.85" overlapTraveltime="2.99" density="21.36" overlapDensity="22.42" laneDensity="10.68" occupancy="5.34" waitingTime="0.00" timeLoss="22.35" speed="35.11" speedRelative="0.97" departed="270" arrived="0" entered="0" left="270" laneChangedFrom="90" laneChangedTo="90"/>
    </interval>
    <interval begin="1080.00" end="1440.00" id="expect_300_vehs">
        <edge id="bottleneck" sampledSeconds="778.95" traveltime="2.75" overlapTraveltime="2.89" density="20.91" overlapDensity="21.97" laneDensity="20.91" occupancy="10.45" waitingTime="0.00" timeLoss="5.07" speed="35.88" speedRelative="0.99" departed="0" arrived="0" entered="270" left="270" laneChangedFrom="0" laneChangedTo="0"/>
        <edge id="end" sampledSeconds="787.21" traveltime="2.78" overlapTraveltime="2.92" density="20.84" overlapDensity="21.87" laneDensity="20.84" occupancy="10.42" waitingTime="0.00" timeLoss="2.55" speed="35.99" speedRelative="1.00" departed="0" arrived="270" entered="270" left="0" laneChangedFrom="0" laneChangedTo="0"/>
        <edge id="jam" sampledSeconds="781.35" traveltime="2.75" overlapTraveltime="2.89" density="20.97" overlapDensity="22.03" laneDensity="10.49" occupancy="5.24" waitingTime="0.00" timeLoss="7.46" speed="35.77" speedRelative="0.99" departed="0" arrived="0" entered="270" left="270" laneChangedFrom="0" laneChangedTo="0"/>
        <edge id="middle" sampledSeconds="796.69" traveltime="2.81" overlapTraveltime="2.95" density="21.08" overlapDensity="22.13" laneDensity="10.54" occupancy="5.27" waitingTime="0.00" timeLoss="11.59" speed="35.58" speedRelative="0.99" departed="0" arrived="0" entered="270" left="270" laneChangedFrom="90" laneChangedTo="90"/>
        <edge id="start" sampledSeconds="807.29" traveltime="2.85" overlapTraveltime="2.99" density="21.36" overlapDensity="22.42" laneDensity="10.68" occupancy="5.34" waitingTime="0.00" timeLoss="22.35" speed="35.11" speedRelative="0.97" departed="270" arrived="0" entered="0" left="270" laneChangedFrom="90" laneChangedTo="90"/>
    </interval>
</meandata>
