<?xml version="1.0" encoding="UTF-8"?>

<!-- generated on Wed Sep 12 14:00:39 2018 by Eclipse SUMO Version v1_0_0+0139-646ed4b
This data file and the accompanying materials
are made available under the terms of the Eclipse Public License v2.0
which accompanies this distribution, and is available at
http://www.eclipse.org/legal/epl-v20.html
SPDX-License-Identifier: EPL-2.0
<configuration xmlns:xsi="http://www.w3.org/2001/XMLSchema-instance" xsi:noNamespaceSchemaLocation="https://sumo.dlr.de/xsd/sumoConfiguration.xsd">

    <input>
        <net-file value="net.net.xml"/>
        <route-files value="input_routes.rou.xml"/>
        <additional-files value="input_additional.add.xml"/>
    </input>

    <output>
        <write-license value="true"/>
        <vehroute-output value="vehroutes.xml"/>
    </output>

    <time>
        <end value="1440"/>
    </time>

    <processing>
        <default.speeddev value="0"/>
    </processing>

    <report>
        <xml-validation value="never"/>
        <duration-log.disable value="true"/>
        <no-step-log value="true"/>
    </report>

</configuration>
-->

<meandata xmlns:xsi="http://www.w3.org/2001/XMLSchema-instance" xsi:noNamespaceSchemaLocation="https://sumo.dlr.de/xsd/meandata_file.xsd">
    <interval begin="0.00" end="360.00" id="expect_300_vehs">
        <edge id="bottleneck" sampledSeconds="757.45" traveltime="2.75" overlapTraveltime="2.88" density="21.36" occupancy="10.16" waitingTime="0.00" speed="35.88" departed="0" arrived="0" entered="264" left="261" laneChangedFrom="0" laneChangedTo="0"/>
        <edge id="end" sampledSeconds="759.43" traveltime="2.78" overlapTraveltime="2.92" density="21.10" occupancy="10.05" waitingTime="0.00" speed="35.99" departed="0" arrived="259" entered="261" left="0" laneChangedFrom="0" laneChangedTo="0"/>
        <edge id="jam" sampledSeconds="765.77" traveltime="2.75" overlapTraveltime="2.89" density="21.60" occupancy="5.14" waitingTime="0.00" speed="35.77" departed="0" arrived="0" entered="266" left="264" laneChangedFrom="0" laneChangedTo="0"/>
        <edge id="middle" sampledSeconds="787.15" traveltime="2.81" overlapTraveltime="2.95" density="21.87" occupancy="5.20" waitingTime="0.00" speed="35.59" departed="0" arrived="0" entered="268" left="266" laneChangedFrom="89" laneChangedTo="89"/>
        <edge id="start" sampledSeconds="804.23" traveltime="2.85" overlapTraveltime="2.99" density="22.34" occupancy="5.32" waitingTime="0.00" speed="35.12" departed="270" arrived="0" entered="0" left="268" laneChangedFrom="89" laneChangedTo="89"/>
    </interval>
    <interval begin="360.00" end="720.00" id="expect_300_vehs">
        <edge id="bottleneck" sampledSeconds="778.95" traveltime="2.75" overlapTraveltime="2.89" density="21.97" occupancy="10.45" waitingTime="0.00" speed="35.88" departed="0" arrived="0" entered="270" left="270" laneChangedFrom="0" laneChangedTo="0"/>
        <edge id="end" sampledSeconds="787.21" traveltime="2.78" overlapTraveltime="2.92" density="21.87" occupancy="10.42" waitingTime="0.00" speed="35.99" departed="0" arrived="270" entered="270" left="0" laneChangedFrom="0" laneChangedTo="0"/>
        <edge id="jam" sampledSeconds="781.35" traveltime="2.75" overlapTraveltime="2.89" density="22.03" occupancy="5.24" waitingTime="0.00" speed="35.77" departed="0" arrived="0" entered="270" left="270" laneChangedFrom="0" laneChangedTo="0"/>
        <edge id="middle" sampledSeconds="796.69" traveltime="2.81" overlapTraveltime="2.95" density="22.13" occupancy="5.27" waitingTime="0.00" speed="35.58" departed="0" arrived="0" entered="270" left="270" laneChangedFrom="90" laneChangedTo="90"/>
        <edge id="start" sampledSeconds="807.29" traveltime="2.85" overlapTraveltime="2.99" density="22.42" occupancy="5.34" waitingTime="0.00" speed="35.11" departed="270" arrived="0" entered="0" left="270" laneChangedFrom="90" laneChangedTo="90"/>
    </interval>
    <interval begin="720.00" end="1080.00" id="expect_300_vehs">
        <edge id="bottleneck" sampledSeconds="778.95" traveltime="2.75" overlapTraveltime="2.89" density="21.97" occupancy="10.45" waitingTime="0.00" speed="35.88" departed="0" arrived="0" entered="270" left="270" laneChangedFrom="0" laneChangedTo="0"/>
        <edge id="end" sampledSeconds="787.21" traveltime="2.78" overlapTraveltime="2.92" density="21.87" occupancy="10.42" waitingTime="0.00" speed="35.99" departed="0" arrived="270" entered="270" left="0" laneChangedFrom="0" laneChangedTo="0"/>
        <edge id="jam" sampledSeconds="781.35" traveltime="2.75" overlapTraveltime="2.89" density="22.03" occupancy="5.24" waitingTime="0.00" speed="35.77" departed="0" arrived="0" entered="270" left="270" laneChangedFrom="0" laneChangedTo="0"/>
        <edge id="middle" sampledSeconds="796.69" traveltime="2.81" overlapTraveltime="2.95" density="22.13" occupancy="5.27" waitingTime="0.00" speed="35.58" departed="0" arrived="0" entered="270" left="270" laneChangedFrom="90" laneChangedTo="90"/>
        <edge id="start" sampledSeconds="807.29" traveltime="2.85" overlapTraveltime="2.99" density="22.42" occupancy="5.34" waitingTime="0.00" speed="35.11" departed="270" arrived="0" entered="0" left="270" laneChangedFrom="90" laneChangedTo="90"/>
    </interval>
    <interval begin="1080.00" end="1440.00" id="expect_300_vehs">
        <edge id="bottleneck" sampledSeconds="778.95" traveltime="2.75" overlapTraveltime="2.89" density="21.97" occupancy="10.45" waitingTime="0.00" speed="35.88" departed="0" arrived="0" entered="270" left="270" laneChangedFrom="0" laneChangedTo="0"/>
        <edge id="end" sampledSeconds="787.21" traveltime="2.78" overlapTraveltime="2.92" density="21.87" occupancy="10.42" waitingTime="0.00" speed="35.99" departed="0" arrived="270" entered="270" left="0" laneChangedFrom="0" laneChangedTo="0"/>
        <edge id="jam" sampledSeconds="781.35" traveltime="2.75" overlapTraveltime="2.89" density="22.03" occupancy="5.24" waitingTime="0.00" speed="35.77" departed="0" arrived="0" entered="270" left="270" laneChangedFrom="0" laneChangedTo="0"/>
        <edge id="middle" sampledSeconds="796.69" traveltime="2.81" overlapTraveltime="2.95" density="22.13" occupancy="5.27" waitingTime="0.00" speed="35.58" departed="0" arrived="0" entered="270" left="270" laneChangedFrom="90" laneChangedTo="90"/>
        <edge id="start" sampledSeconds="807.29" traveltime="2.85" overlapTraveltime="2.99" density="22.42" occupancy="5.34" waitingTime="0.00" speed="35.11" departed="270" arrived="0" entered="0" left="270" laneChangedFrom="90" laneChangedTo="90"/>
    </interval>
</meandata>
