<?xml version="1.0" encoding="UTF-8"?>

<!-- generated on Mon Mar 30 15:09:26 2020 by Eclipse SUMO Version v1_5_0+1011-3e02c63d25
This data file and the accompanying materials
are made available under the terms of the Eclipse Public License v2.0
which accompanies this distribution, and is available at
http://www.eclipse.org/legal/epl-v20.html
SPDX-License-Identifier: EPL-2.0
<configuration xmlns:xsi="http://www.w3.org/2001/XMLSchema-instance" xsi:noNamespaceSchemaLocation="http://sumo.dlr.de/xsd/sumoConfiguration.xsd">

    <input>
        <net-file value="net.net.xml"/>
        <route-files value="input_routes.rou.xml"/>
        <additional-files value="input_additional.add.xml"/>
    </input>

    <output>
        <write-license value="true"/>
        <vehroute-output value="vehroutes.xml"/>
    </output>

    <time>
        <end value="1440"/>
    </time>

    <processing>
        <default.speeddev value="0"/>
    </processing>

    <report>
        <xml-validation value="never"/>
        <duration-log.disable value="true"/>
        <no-step-log value="true"/>
    </report>

</configuration>
-->

<routes xmlns:xsi="http://www.w3.org/2001/XMLSchema-instance" xsi:noNamespaceSchemaLocation="http://sumo.dlr.de/xsd/routes_file.xsd">
    <vehicle id="high.0" depart="0.00" departLane="0" departPos="0.00" departSpeed="36.11" arrival="14.00">
        <route edges="start middle jam bottleneck end"/>
    </vehicle>

    <vehicle id="high.1" depart="2.00" departLane="1" departPos="0.00" departSpeed="36.11" arrival="16.00">
        <route edges="start middle jam bottleneck end"/>
    </vehicle>

    <vehicle id="high.2" depart="3.00" departLane="1" departPos="0.00" departSpeed="36.11" arrival="18.00">
        <route edges="start middle jam bottleneck end"/>
    </vehicle>

    <vehicle id="high.3" depart="4.00" departLane="0" departPos="0.00" departSpeed="36.11" arrival="19.00">
        <route edges="start middle jam bottleneck end"/>
    </vehicle>

    <vehicle id="high.4" depart="6.00" departLane="1" departPos="0.00" departSpeed="36.11" arrival="20.00">
        <route edges="start middle jam bottleneck end"/>
    </vehicle>

    <vehicle id="high.5" depart="7.00" departLane="1" departPos="0.00" departSpeed="36.11" arrival="22.00">
        <route edges="start middle jam bottleneck end"/>
    </vehicle>

    <vehicle id="high.6" depart="8.00" departLane="0" departPos="0.00" departSpeed="36.11" arrival="23.00">
        <route edges="start middle jam bottleneck end"/>
    </vehicle>

    <vehicle id="high.7" depart="10.00" departLane="1" departPos="0.00" departSpeed="36.11" arrival="24.00">
        <route edges="start middle jam bottleneck end"/>
    </vehicle>

    <vehicle id="high.8" depart="11.00" departLane="1" departPos="0.00" departSpeed="36.11" arrival="26.00">
        <route edges="start middle jam bottleneck end"/>
    </vehicle>

    <vehicle id="high.9" depart="12.00" departLane="0" departPos="0.00" departSpeed="36.11" arrival="27.00">
        <route edges="start middle jam bottleneck end"/>
    </vehicle>

    <vehicle id="high.10" depart="14.00" departLane="1" departPos="0.00" departSpeed="36.11" arrival="28.00">
        <route edges="start middle jam bottleneck end"/>
    </vehicle>

    <vehicle id="high.11" depart="15.00" departLane="1" departPos="0.00" departSpeed="36.11" arrival="30.00">
        <route edges="start middle jam bottleneck end"/>
    </vehicle>

    <vehicle id="high.12" depart="16.00" departLane="0" departPos="0.00" departSpeed="36.11" arrival="31.00">
        <route edges="start middle jam bottleneck end"/>
    </vehicle>

    <vehicle id="high.13" depart="18.00" departLane="1" departPos="0.00" departSpeed="36.11" arrival="32.00">
        <route edges="start middle jam bottleneck end"/>
    </vehicle>

    <vehicle id="high.14" depart="19.00" departLane="1" departPos="0.00" departSpeed="36.11" arrival="34.00">
        <route edges="start middle jam bottleneck end"/>
    </vehicle>

    <vehicle id="high.15" depart="20.00" departLane="0" departPos="0.00" departSpeed="36.11" arrival="35.00">
        <route edges="start middle jam bottleneck end"/>
    </vehicle>

    <vehicle id="high.16" depart="22.00" departLane="1" departPos="0.00" departSpeed="36.11" arrival="36.00">
        <route edges="start middle jam bottleneck end"/>
    </vehicle>

    <vehicle id="high.17" depart="23.00" departLane="1" departPos="0.00" departSpeed="36.11" arrival="38.00">
        <route edges="start middle jam bottleneck end"/>
    </vehicle>

    <vehicle id="high.18" depart="24.00" departLane="0" departPos="0.00" departSpeed="36.11" arrival="39.00">
        <route edges="start middle jam bottleneck end"/>
    </vehicle>

    <vehicle id="high.19" depart="26.00" departLane="1" departPos="0.00" departSpeed="36.11" arrival="40.00">
        <route edges="start middle jam bottleneck end"/>
    </vehicle>

    <vehicle id="high.20" depart="27.00" departLane="1" departPos="0.00" departSpeed="36.11" arrival="42.00">
        <route edges="start middle jam bottleneck end"/>
    </vehicle>

    <vehicle id="high.21" depart="28.00" departLane="0" departPos="0.00" departSpeed="36.11" arrival="43.00">
        <route edges="start middle jam bottleneck end"/>
    </vehicle>

    <vehicle id="high.22" depart="30.00" departLane="1" departPos="0.00" departSpeed="36.11" arrival="44.00">
        <route edges="start middle jam bottleneck end"/>
    </vehicle>

    <vehicle id="high.23" depart="31.00" departLane="1" departPos="0.00" departSpeed="36.11" arrival="46.00">
        <route edges="start middle jam bottleneck end"/>
    </vehicle>

    <vehicle id="high.24" depart="32.00" departLane="0" departPos="0.00" departSpeed="36.11" arrival="47.00">
        <route edges="start middle jam bottleneck end"/>
    </vehicle>

    <vehicle id="high.25" depart="34.00" departLane="1" departPos="0.00" departSpeed="36.11" arrival="48.00">
        <route edges="start middle jam bottleneck end"/>
    </vehicle>

    <vehicle id="high.26" depart="35.00" departLane="1" departPos="0.00" departSpeed="36.11" arrival="50.00">
        <route edges="start middle jam bottleneck end"/>
    </vehicle>

    <vehicle id="high.27" depart="36.00" departLane="0" departPos="0.00" departSpeed="36.11" arrival="51.00">
        <route edges="start middle jam bottleneck end"/>
    </vehicle>

    <vehicle id="high.28" depart="38.00" departLane="1" departPos="0.00" departSpeed="36.11" arrival="52.00">
        <route edges="start middle jam bottleneck end"/>
    </vehicle>

    <vehicle id="high.29" depart="39.00" departLane="1" departPos="0.00" departSpeed="36.11" arrival="54.00">
        <route edges="start middle jam bottleneck end"/>
    </vehicle>

    <vehicle id="high.30" depart="40.00" departLane="0" departPos="0.00" departSpeed="36.11" arrival="55.00">
        <route edges="start middle jam bottleneck end"/>
    </vehicle>

    <vehicle id="high.31" depart="42.00" departLane="1" departPos="0.00" departSpeed="36.11" arrival="56.00">
        <route edges="start middle jam bottleneck end"/>
    </vehicle>

    <vehicle id="high.32" depart="43.00" departLane="1" departPos="0.00" departSpeed="36.11" arrival="58.00">
        <route edges="start middle jam bottleneck end"/>
    </vehicle>

    <vehicle id="high.33" depart="44.00" departLane="0" departPos="0.00" departSpeed="36.11" arrival="59.00">
        <route edges="start middle jam bottleneck end"/>
    </vehicle>

    <vehicle id="high.34" depart="46.00" departLane="1" departPos="0.00" departSpeed="36.11" arrival="60.00">
        <route edges="start middle jam bottleneck end"/>
    </vehicle>

    <vehicle id="high.35" depart="47.00" departLane="1" departPos="0.00" departSpeed="36.11" arrival="62.00">
        <route edges="start middle jam bottleneck end"/>
    </vehicle>

    <vehicle id="high.36" depart="48.00" departLane="0" departPos="0.00" departSpeed="36.11" arrival="63.00">
        <route edges="start middle jam bottleneck end"/>
    </vehicle>

    <vehicle id="high.37" depart="50.00" departLane="1" departPos="0.00" departSpeed="36.11" arrival="64.00">
        <route edges="start middle jam bottleneck end"/>
    </vehicle>

    <vehicle id="high.38" depart="51.00" departLane="1" departPos="0.00" departSpeed="36.11" arrival="66.00">
        <route edges="start middle jam bottleneck end"/>
    </vehicle>

    <vehicle id="high.39" depart="52.00" departLane="0" departPos="0.00" departSpeed="36.11" arrival="67.00">
        <route edges="start middle jam bottleneck end"/>
    </vehicle>

    <vehicle id="high.40" depart="54.00" departLane="1" departPos="0.00" departSpeed="36.11" arrival="68.00">
        <route edges="start middle jam bottleneck end"/>
    </vehicle>

    <vehicle id="high.41" depart="55.00" departLane="1" departPos="0.00" departSpeed="36.11" arrival="70.00">
        <route edges="start middle jam bottleneck end"/>
    </vehicle>

    <vehicle id="high.42" depart="56.00" departLane="0" departPos="0.00" departSpeed="36.11" arrival="71.00">
        <route edges="start middle jam bottleneck end"/>
    </vehicle>

    <vehicle id="high.43" depart="58.00" departLane="1" departPos="0.00" departSpeed="36.11" arrival="72.00">
        <route edges="start middle jam bottleneck end"/>
    </vehicle>

    <vehicle id="high.44" depart="59.00" departLane="1" departPos="0.00" departSpeed="36.11" arrival="74.00">
        <route edges="start middle jam bottleneck end"/>
    </vehicle>

    <vehicle id="high.45" depart="60.00" departLane="0" departPos="0.00" departSpeed="36.11" arrival="75.00">
        <route edges="start middle jam bottleneck end"/>
    </vehicle>

    <vehicle id="high.46" depart="62.00" departLane="1" departPos="0.00" departSpeed="36.11" arrival="76.00">
        <route edges="start middle jam bottleneck end"/>
    </vehicle>

    <vehicle id="high.47" depart="63.00" departLane="1" departPos="0.00" departSpeed="36.11" arrival="78.00">
        <route edges="start middle jam bottleneck end"/>
    </vehicle>

    <vehicle id="high.48" depart="64.00" departLane="0" departPos="0.00" departSpeed="36.11" arrival="79.00">
        <route edges="start middle jam bottleneck end"/>
    </vehicle>

    <vehicle id="high.49" depart="66.00" departLane="1" departPos="0.00" departSpeed="36.11" arrival="80.00">
        <route edges="start middle jam bottleneck end"/>
    </vehicle>

    <vehicle id="high.50" depart="67.00" departLane="1" departPos="0.00" departSpeed="36.11" arrival="82.00">
        <route edges="start middle jam bottleneck end"/>
    </vehicle>

    <vehicle id="high.51" depart="68.00" departLane="0" departPos="0.00" departSpeed="36.11" arrival="83.00">
        <route edges="start middle jam bottleneck end"/>
    </vehicle>

    <vehicle id="high.52" depart="70.00" departLane="1" departPos="0.00" departSpeed="36.11" arrival="84.00">
        <route edges="start middle jam bottleneck end"/>
    </vehicle>

    <vehicle id="high.53" depart="71.00" departLane="1" departPos="0.00" departSpeed="36.11" arrival="86.00">
        <route edges="start middle jam bottleneck end"/>
    </vehicle>

    <vehicle id="high.54" depart="72.00" departLane="0" departPos="0.00" departSpeed="36.11" arrival="87.00">
        <route edges="start middle jam bottleneck end"/>
    </vehicle>

    <vehicle id="high.55" depart="74.00" departLane="1" departPos="0.00" departSpeed="36.11" arrival="88.00">
        <route edges="start middle jam bottleneck end"/>
    </vehicle>

    <vehicle id="high.56" depart="75.00" departLane="1" departPos="0.00" departSpeed="36.11" arrival="90.00">
        <route edges="start middle jam bottleneck end"/>
    </vehicle>

    <vehicle id="high.57" depart="76.00" departLane="0" departPos="0.00" departSpeed="36.11" arrival="91.00">
        <route edges="start middle jam bottleneck end"/>
    </vehicle>

    <vehicle id="high.58" depart="78.00" departLane="1" departPos="0.00" departSpeed="36.11" arrival="92.00">
        <route edges="start middle jam bottleneck end"/>
    </vehicle>

    <vehicle id="high.59" depart="79.00" departLane="1" departPos="0.00" departSpeed="36.11" arrival="94.00">
        <route edges="start middle jam bottleneck end"/>
    </vehicle>

    <vehicle id="high.60" depart="80.00" departLane="0" departPos="0.00" departSpeed="36.11" arrival="95.00">
        <route edges="start middle jam bottleneck end"/>
    </vehicle>

    <vehicle id="high.61" depart="82.00" departLane="1" departPos="0.00" departSpeed="36.11" arrival="96.00">
        <route edges="start middle jam bottleneck end"/>
    </vehicle>

    <vehicle id="high.62" depart="83.00" departLane="1" departPos="0.00" departSpeed="36.11" arrival="98.00">
        <route edges="start middle jam bottleneck end"/>
    </vehicle>

    <vehicle id="high.63" depart="84.00" departLane="0" departPos="0.00" departSpeed="36.11" arrival="99.00">
        <route edges="start middle jam bottleneck end"/>
    </vehicle>

    <vehicle id="high.64" depart="86.00" departLane="1" departPos="0.00" departSpeed="36.11" arrival="100.00">
        <route edges="start middle jam bottleneck end"/>
    </vehicle>

    <vehicle id="high.65" depart="87.00" departLane="1" departPos="0.00" departSpeed="36.11" arrival="102.00">
        <route edges="start middle jam bottleneck end"/>
    </vehicle>

    <vehicle id="high.66" depart="88.00" departLane="0" departPos="0.00" departSpeed="36.11" arrival="103.00">
        <route edges="start middle jam bottleneck end"/>
    </vehicle>

    <vehicle id="high.67" depart="90.00" departLane="1" departPos="0.00" departSpeed="36.11" arrival="104.00">
        <route edges="start middle jam bottleneck end"/>
    </vehicle>

    <vehicle id="high.68" depart="91.00" departLane="1" departPos="0.00" departSpeed="36.11" arrival="106.00">
        <route edges="start middle jam bottleneck end"/>
    </vehicle>

    <vehicle id="high.69" depart="92.00" departLane="0" departPos="0.00" departSpeed="36.11" arrival="107.00">
        <route edges="start middle jam bottleneck end"/>
    </vehicle>

    <vehicle id="high.70" depart="94.00" departLane="1" departPos="0.00" departSpeed="36.11" arrival="108.00">
        <route edges="start middle jam bottleneck end"/>
    </vehicle>

    <vehicle id="high.71" depart="95.00" departLane="1" departPos="0.00" departSpeed="36.11" arrival="110.00">
        <route edges="start middle jam bottleneck end"/>
    </vehicle>

    <vehicle id="high.72" depart="96.00" departLane="0" departPos="0.00" departSpeed="36.11" arrival="111.00">
        <route edges="start middle jam bottleneck end"/>
    </vehicle>

    <vehicle id="high.73" depart="98.00" departLane="1" departPos="0.00" departSpeed="36.11" arrival="112.00">
        <route edges="start middle jam bottleneck end"/>
    </vehicle>

    <vehicle id="high.74" depart="99.00" departLane="1" departPos="0.00" departSpeed="36.11" arrival="114.00">
        <route edges="start middle jam bottleneck end"/>
    </vehicle>

    <vehicle id="high.75" depart="100.00" departLane="0" departPos="0.00" departSpeed="36.11" arrival="115.00">
        <route edges="start middle jam bottleneck end"/>
    </vehicle>

    <vehicle id="high.76" depart="102.00" departLane="1" departPos="0.00" departSpeed="36.11" arrival="116.00">
        <route edges="start middle jam bottleneck end"/>
    </vehicle>

    <vehicle id="high.77" depart="103.00" departLane="1" departPos="0.00" departSpeed="36.11" arrival="118.00">
        <route edges="start middle jam bottleneck end"/>
    </vehicle>

    <vehicle id="high.78" depart="104.00" departLane="0" departPos="0.00" departSpeed="36.11" arrival="119.00">
        <route edges="start middle jam bottleneck end"/>
    </vehicle>

    <vehicle id="high.79" depart="106.00" departLane="1" departPos="0.00" departSpeed="36.11" arrival="120.00">
        <route edges="start middle jam bottleneck end"/>
    </vehicle>

    <vehicle id="high.80" depart="107.00" departLane="1" departPos="0.00" departSpeed="36.11" arrival="122.00">
        <route edges="start middle jam bottleneck end"/>
    </vehicle>

    <vehicle id="high.81" depart="108.00" departLane="0" departPos="0.00" departSpeed="36.11" arrival="123.00">
        <route edges="start middle jam bottleneck end"/>
    </vehicle>

    <vehicle id="high.82" depart="110.00" departLane="1" departPos="0.00" departSpeed="36.11" arrival="124.00">
        <route edges="start middle jam bottleneck end"/>
    </vehicle>

    <vehicle id="high.83" depart="111.00" departLane="1" departPos="0.00" departSpeed="36.11" arrival="126.00">
        <route edges="start middle jam bottleneck end"/>
    </vehicle>

    <vehicle id="high.84" depart="112.00" departLane="0" departPos="0.00" departSpeed="36.11" arrival="127.00">
        <route edges="start middle jam bottleneck end"/>
    </vehicle>

    <vehicle id="high.85" depart="114.00" departLane="1" departPos="0.00" departSpeed="36.11" arrival="128.00">
        <route edges="start middle jam bottleneck end"/>
    </vehicle>

    <vehicle id="high.86" depart="115.00" departLane="1" departPos="0.00" departSpeed="36.11" arrival="130.00">
        <route edges="start middle jam bottleneck end"/>
    </vehicle>

    <vehicle id="high.87" depart="116.00" departLane="0" departPos="0.00" departSpeed="36.11" arrival="131.00">
        <route edges="start middle jam bottleneck end"/>
    </vehicle>

    <vehicle id="high.88" depart="118.00" departLane="1" departPos="0.00" departSpeed="36.11" arrival="132.00">
        <route edges="start middle jam bottleneck end"/>
    </vehicle>

    <vehicle id="high.89" depart="119.00" departLane="1" departPos="0.00" departSpeed="36.11" arrival="134.00">
        <route edges="start middle jam bottleneck end"/>
    </vehicle>

    <vehicle id="high.90" depart="120.00" departLane="0" departPos="0.00" departSpeed="36.11" arrival="135.00">
        <route edges="start middle jam bottleneck end"/>
    </vehicle>

    <vehicle id="high.91" depart="122.00" departLane="1" departPos="0.00" departSpeed="36.11" arrival="136.00">
        <route edges="start middle jam bottleneck end"/>
    </vehicle>

    <vehicle id="high.92" depart="123.00" departLane="1" departPos="0.00" departSpeed="36.11" arrival="138.00">
        <route edges="start middle jam bottleneck end"/>
    </vehicle>

    <vehicle id="high.93" depart="124.00" departLane="0" departPos="0.00" departSpeed="36.11" arrival="139.00">
        <route edges="start middle jam bottleneck end"/>
    </vehicle>

    <vehicle id="high.94" depart="126.00" departLane="1" departPos="0.00" departSpeed="36.11" arrival="140.00">
        <route edges="start middle jam bottleneck end"/>
    </vehicle>

    <vehicle id="high.95" depart="127.00" departLane="1" departPos="0.00" departSpeed="36.11" arrival="142.00">
        <route edges="start middle jam bottleneck end"/>
    </vehicle>

    <vehicle id="high.96" depart="128.00" departLane="0" departPos="0.00" departSpeed="36.11" arrival="143.00">
        <route edges="start middle jam bottleneck end"/>
    </vehicle>

    <vehicle id="high.97" depart="130.00" departLane="1" departPos="0.00" departSpeed="36.11" arrival="144.00">
        <route edges="start middle jam bottleneck end"/>
    </vehicle>

    <vehicle id="high.98" depart="131.00" departLane="1" departPos="0.00" departSpeed="36.11" arrival="146.00">
        <route edges="start middle jam bottleneck end"/>
    </vehicle>

    <vehicle id="high.99" depart="132.00" departLane="0" departPos="0.00" departSpeed="36.11" arrival="147.00">
        <route edges="start middle jam bottleneck end"/>
    </vehicle>

    <vehicle id="high.100" depart="134.00" departLane="1" departPos="0.00" departSpeed="36.11" arrival="148.00">
        <route edges="start middle jam bottleneck end"/>
    </vehicle>

    <vehicle id="high.101" depart="135.00" departLane="1" departPos="0.00" departSpeed="36.11" arrival="150.00">
        <route edges="start middle jam bottleneck end"/>
    </vehicle>

    <vehicle id="high.102" depart="136.00" departLane="0" departPos="0.00" departSpeed="36.11" arrival="151.00">
        <route edges="start middle jam bottleneck end"/>
    </vehicle>

    <vehicle id="high.103" depart="138.00" departLane="1" departPos="0.00" departSpeed="36.11" arrival="152.00">
        <route edges="start middle jam bottleneck end"/>
    </vehicle>

    <vehicle id="high.104" depart="139.00" departLane="1" departPos="0.00" departSpeed="36.11" arrival="154.00">
        <route edges="start middle jam bottleneck end"/>
    </vehicle>

    <vehicle id="high.105" depart="140.00" departLane="0" departPos="0.00" departSpeed="36.11" arrival="155.00">
        <route edges="start middle jam bottleneck end"/>
    </vehicle>

    <vehicle id="high.106" depart="142.00" departLane="1" departPos="0.00" departSpeed="36.11" arrival="156.00">
        <route edges="start middle jam bottleneck end"/>
    </vehicle>

    <vehicle id="high.107" depart="143.00" departLane="1" departPos="0.00" departSpeed="36.11" arrival="158.00">
        <route edges="start middle jam bottleneck end"/>
    </vehicle>

    <vehicle id="high.108" depart="144.00" departLane="0" departPos="0.00" departSpeed="36.11" arrival="159.00">
        <route edges="start middle jam bottleneck end"/>
    </vehicle>

    <vehicle id="high.109" depart="146.00" departLane="1" departPos="0.00" departSpeed="36.11" arrival="160.00">
        <route edges="start middle jam bottleneck end"/>
    </vehicle>

    <vehicle id="high.110" depart="147.00" departLane="1" departPos="0.00" departSpeed="36.11" arrival="162.00">
        <route edges="start middle jam bottleneck end"/>
    </vehicle>

    <vehicle id="high.111" depart="148.00" departLane="0" departPos="0.00" departSpeed="36.11" arrival="163.00">
        <route edges="start middle jam bottleneck end"/>
    </vehicle>

    <vehicle id="high.112" depart="150.00" departLane="1" departPos="0.00" departSpeed="36.11" arrival="164.00">
        <route edges="start middle jam bottleneck end"/>
    </vehicle>

    <vehicle id="high.113" depart="151.00" departLane="1" departPos="0.00" departSpeed="36.11" arrival="166.00">
        <route edges="start middle jam bottleneck end"/>
    </vehicle>

    <vehicle id="high.114" depart="152.00" departLane="0" departPos="0.00" departSpeed="36.11" arrival="167.00">
        <route edges="start middle jam bottleneck end"/>
    </vehicle>

    <vehicle id="high.115" depart="154.00" departLane="1" departPos="0.00" departSpeed="36.11" arrival="168.00">
        <route edges="start middle jam bottleneck end"/>
    </vehicle>

    <vehicle id="high.116" depart="155.00" departLane="1" departPos="0.00" departSpeed="36.11" arrival="170.00">
        <route edges="start middle jam bottleneck end"/>
    </vehicle>

    <vehicle id="high.117" depart="156.00" departLane="0" departPos="0.00" departSpeed="36.11" arrival="171.00">
        <route edges="start middle jam bottleneck end"/>
    </vehicle>

    <vehicle id="high.118" depart="158.00" departLane="1" departPos="0.00" departSpeed="36.11" arrival="172.00">
        <route edges="start middle jam bottleneck end"/>
    </vehicle>

    <vehicle id="high.119" depart="159.00" departLane="1" departPos="0.00" departSpeed="36.11" arrival="174.00">
        <route edges="start middle jam bottleneck end"/>
    </vehicle>

    <vehicle id="high.120" depart="160.00" departLane="0" departPos="0.00" departSpeed="36.11" arrival="175.00">
        <route edges="start middle jam bottleneck end"/>
    </vehicle>

    <vehicle id="high.121" depart="162.00" departLane="1" departPos="0.00" departSpeed="36.11" arrival="176.00">
        <route edges="start middle jam bottleneck end"/>
    </vehicle>

    <vehicle id="high.122" depart="163.00" departLane="1" departPos="0.00" departSpeed="36.11" arrival="178.00">
        <route edges="start middle jam bottleneck end"/>
    </vehicle>

    <vehicle id="high.123" depart="164.00" departLane="0" departPos="0.00" departSpeed="36.11" arrival="179.00">
        <route edges="start middle jam bottleneck end"/>
    </vehicle>

    <vehicle id="high.124" depart="166.00" departLane="1" departPos="0.00" departSpeed="36.11" arrival="180.00">
        <route edges="start middle jam bottleneck end"/>
    </vehicle>

    <vehicle id="high.125" depart="167.00" departLane="1" departPos="0.00" departSpeed="36.11" arrival="182.00">
        <route edges="start middle jam bottleneck end"/>
    </vehicle>

    <vehicle id="high.126" depart="168.00" departLane="0" departPos="0.00" departSpeed="36.11" arrival="183.00">
        <route edges="start middle jam bottleneck end"/>
    </vehicle>

    <vehicle id="high.127" depart="170.00" departLane="1" departPos="0.00" departSpeed="36.11" arrival="184.00">
        <route edges="start middle jam bottleneck end"/>
    </vehicle>

    <vehicle id="high.128" depart="171.00" departLane="1" departPos="0.00" departSpeed="36.11" arrival="186.00">
        <route edges="start middle jam bottleneck end"/>
    </vehicle>

    <vehicle id="high.129" depart="172.00" departLane="0" departPos="0.00" departSpeed="36.11" arrival="187.00">
        <route edges="start middle jam bottleneck end"/>
    </vehicle>

    <vehicle id="high.130" depart="174.00" departLane="1" departPos="0.00" departSpeed="36.11" arrival="188.00">
        <route edges="start middle jam bottleneck end"/>
    </vehicle>

    <vehicle id="high.131" depart="175.00" departLane="1" departPos="0.00" departSpeed="36.11" arrival="190.00">
        <route edges="start middle jam bottleneck end"/>
    </vehicle>

    <vehicle id="high.132" depart="176.00" departLane="0" departPos="0.00" departSpeed="36.11" arrival="191.00">
        <route edges="start middle jam bottleneck end"/>
    </vehicle>

    <vehicle id="high.133" depart="178.00" departLane="1" departPos="0.00" departSpeed="36.11" arrival="192.00">
        <route edges="start middle jam bottleneck end"/>
    </vehicle>

    <vehicle id="high.134" depart="179.00" departLane="1" departPos="0.00" departSpeed="36.11" arrival="194.00">
        <route edges="start middle jam bottleneck end"/>
    </vehicle>

    <vehicle id="high.135" depart="180.00" departLane="0" departPos="0.00" departSpeed="36.11" arrival="195.00">
        <route edges="start middle jam bottleneck end"/>
    </vehicle>

    <vehicle id="high.136" depart="182.00" departLane="1" departPos="0.00" departSpeed="36.11" arrival="196.00">
        <route edges="start middle jam bottleneck end"/>
    </vehicle>

    <vehicle id="high.137" depart="183.00" departLane="1" departPos="0.00" departSpeed="36.11" arrival="198.00">
        <route edges="start middle jam bottleneck end"/>
    </vehicle>

    <vehicle id="high.138" depart="184.00" departLane="0" departPos="0.00" departSpeed="36.11" arrival="199.00">
        <route edges="start middle jam bottleneck end"/>
    </vehicle>

    <vehicle id="high.139" depart="186.00" departLane="1" departPos="0.00" departSpeed="36.11" arrival="200.00">
        <route edges="start middle jam bottleneck end"/>
    </vehicle>

    <vehicle id="high.140" depart="187.00" departLane="1" departPos="0.00" departSpeed="36.11" arrival="202.00">
        <route edges="start middle jam bottleneck end"/>
    </vehicle>

    <vehicle id="high.141" depart="188.00" departLane="0" departPos="0.00" departSpeed="36.11" arrival="203.00">
        <route edges="start middle jam bottleneck end"/>
    </vehicle>

    <vehicle id="high.142" depart="190.00" departLane="1" departPos="0.00" departSpeed="36.11" arrival="204.00">
        <route edges="start middle jam bottleneck end"/>
    </vehicle>

    <vehicle id="high.143" depart="191.00" departLane="1" departPos="0.00" departSpeed="36.11" arrival="206.00">
        <route edges="start middle jam bottleneck end"/>
    </vehicle>

    <vehicle id="high.144" depart="192.00" departLane="0" departPos="0.00" departSpeed="36.11" arrival="207.00">
        <route edges="start middle jam bottleneck end"/>
    </vehicle>

    <vehicle id="high.145" depart="194.00" departLane="1" departPos="0.00" departSpeed="36.11" arrival="208.00">
        <route edges="start middle jam bottleneck end"/>
    </vehicle>

    <vehicle id="high.146" depart="195.00" departLane="1" departPos="0.00" departSpeed="36.11" arrival="210.00">
        <route edges="start middle jam bottleneck end"/>
    </vehicle>

    <vehicle id="high.147" depart="196.00" departLane="0" departPos="0.00" departSpeed="36.11" arrival="211.00">
        <route edges="start middle jam bottleneck end"/>
    </vehicle>

    <vehicle id="high.148" depart="198.00" departLane="1" departPos="0.00" departSpeed="36.11" arrival="212.00">
        <route edges="start middle jam bottleneck end"/>
    </vehicle>

    <vehicle id="high.149" depart="199.00" departLane="1" departPos="0.00" departSpeed="36.11" arrival="214.00">
        <route edges="start middle jam bottleneck end"/>
    </vehicle>

    <vehicle id="high.150" depart="200.00" departLane="0" departPos="0.00" departSpeed="36.11" arrival="215.00">
        <route edges="start middle jam bottleneck end"/>
    </vehicle>

    <vehicle id="high.151" depart="202.00" departLane="1" departPos="0.00" departSpeed="36.11" arrival="216.00">
        <route edges="start middle jam bottleneck end"/>
    </vehicle>

    <vehicle id="high.152" depart="203.00" departLane="1" departPos="0.00" departSpeed="36.11" arrival="218.00">
        <route edges="start middle jam bottleneck end"/>
    </vehicle>

    <vehicle id="high.153" depart="204.00" departLane="0" departPos="0.00" departSpeed="36.11" arrival="219.00">
        <route edges="start middle jam bottleneck end"/>
    </vehicle>

    <vehicle id="high.154" depart="206.00" departLane="1" departPos="0.00" departSpeed="36.11" arrival="220.00">
        <route edges="start middle jam bottleneck end"/>
    </vehicle>

    <vehicle id="high.155" depart="207.00" departLane="1" departPos="0.00" departSpeed="36.11" arrival="222.00">
        <route edges="start middle jam bottleneck end"/>