<?xml version="1.0" encoding="UTF-8"?>

<!-- generated on 2024-12-05 08:44:13 by Eclipse SUMO sumo Version v1_21_0+1188-de3782bea46
<sumoConfiguration xmlns:xsi="http://www.w3.org/2001/XMLSchema-instance" xsi:noNamespaceSchemaLocation="http://sumo.dlr.de/xsd/sumoConfiguration.xsd">

    <input>
        <net-file value="input_net.net.xml"/>
        <route-files value="input_routes.rou.xml"/>
    </input>

    <output>
        <vehroute-output value="vr.xml"/>
        <vehroute-output.sorted value="true"/>
        <vehroute-output.intended-depart value="false"/>
        <statistic-output value="statistics.xml"/>
    </output>

    <routing>
        <device.rerouting.period value="60"/>
    </routing>

    <report>
        <duration-log.statistics value="true"/>
        <no-step-log value="true"/>
    </report>

</sumoConfiguration>
-->

<statistics xmlns:xsi="http://www.w3.org/2001/XMLSchema-instance" xsi:noNamespaceSchemaLocation="http://sumo.dlr.de/xsd/statistic_file.xsd">
    <performance clockBegin="1733384653.56" clockEnd="1733384654.08" clockDuration="0.52" traciDuration="0.00" realTimeFactor="2859.34" vehicleUpdatesPerSecond="458472.06" personUpdatesPerSecond="0.00" begin="0.00" end="1484.00" duration="1484.00"/>
    <vehicles loaded="832" inserted="832" running="0" waiting="0"/>
    <teleports total="0" jam="0" yield="0" wrongLane="0"/>
    <safety collisions="0" emergencyStops="0" emergencyBraking="0"/>
    <persons loaded="0" running="0" jammed="0"/>
    <personTeleports total="0" abortWait="0" wrongDest="0"/>
    <vehicleTripStatistics count="832" routeLength="1174.72" speed="4.39" duration="285.99" waitingTime="130.62" timeLoss="198.39" departDelay="4.88" departDelayWaiting="-1.00" totalTravelTime="237947.00" totalDepartDelay="4064.00"/>
    <pedestrianStatistics number="0" routeLength="0.00" duration="0.00" timeLoss="0.00"/>
    <rideStatistics number="0"/>
    <transportStatistics number="0"/>
</statistics>
