<?xml version="1.0" encoding="UTF-8"?>

<!-- generated on 2026-05-28T08:52:16.238676+01:00 by Eclipse SUMO sumo v1_27_0+0048-a3478af8069
<sumoConfiguration xmlns:xsi="http://www.w3.org/2001/XMLSchema-instance" xsi:noNamespaceSchemaLocation="http://sumo.dlr.de/xsd/sumoConfiguration.xsd">

    <input>
        <net-file value="input_net.net.xml"/>
        <route-files value="input_routes.rou.xml"/>
    </input>

    <output>
        <vehroute-output value="vr.xml"/>
        <vehroute-output.sorted value="true"/>
        <vehroute-output.intended-depart value="false"/>
        <statistic-output value="statistics.xml"/>
    </output>

    <processing>
        <default.departspeed value="0"/>
        <default.departlane value="first"/>
    </processing>

    <routing>
        <device.rerouting.period value="60"/>
    </routing>

    <report>
        <duration-log.statistics value="true"/>
        <no-step-log value="true"/>
    </report>

</sumoConfiguration>
-->

<statistics xmlns:xsi="http://www.w3.org/2001/XMLSchema-instance" xsi:noNamespaceSchemaLocation="http://sumo.dlr.de/xsd/statistic_file.xsd">
    <performance clockBegin="1779951136.24" clockEnd="1779951136.77" clockDuration="0.53" traciDuration="0.00" realTimeFactor="2783.83" vehicleUpdatesPerSecond="453733.08" personUpdatesPerSecond="0.00" begin="0.00" end="1481.00" duration="1481.00"/>
    <vehicles loaded="832" inserted="832" running="0" waiting="0"/>
    <teleports total="0" jam="0" yield="0" wrongLane="0"/>
    <safety collisions="0" emergencyStops="0" emergencyBraking="0"/>
    <persons loaded="0" running="0" jammed="0"/>
    <personTeleports total="0" abortWait="0" wrongDest="0"/>
    <vehicleTripStatistics count="832" routeLength="1173.34" speed="4.35" duration="290.13" waitingTime="132.27" timeLoss="202.65" departDelay="7.06" departDelayWaiting="-1.00" totalTravelTime="241386.00" totalDepartDelay="5872.00"/>
    <pedestrianStatistics number="0" routeLength="0.00" duration="0.00" timeLoss="0.00"/>
    <rideStatistics number="0"/>
    <transportStatistics number="0"/>
</statistics>
