<?xml version="1.0" encoding="UTF-8"?>

<!-- generated on 2022-01-10 14:59:17 by Eclipse SUMO sumo Version v1_11_0+0988-8b51211
This data file and the accompanying materials
are made available under the terms of the Eclipse Public License v2.0
which accompanies this distribution, and is available at
http://www.eclipse.org/legal/epl-v20.html
SPDX-License-Identifier: EPL-2.0
<configuration xmlns:xsi="http://www.w3.org/2001/XMLSchema-instance" xsi:noNamespaceSchemaLocation="http://sumo.dlr.de/xsd/sumoConfiguration.xsd">

    <input>
        <net-file value="net2.net.xml"/>
        <route-files value="input_routes.rou.xml"/>
        <additional-files value="input_additional.add.xml"/>
    </input>

    <output>
        <write-license value="true"/>
    </output>

    <processing>
        <collision.check-junctions value="true"/>
        <default.speeddev value="0"/>
    </processing>

    <report>
        <verbose value="true"/>
        <xml-validation value="never"/>
        <xml-validation.routes value="never"/>
        <duration-log.statistics value="true"/>
        <no-step-log value="true"/>
    </report>

</configuration>
-->

<meandata xmlns:xsi="http://www.w3.org/2001/XMLSchema-instance" xsi:noNamespaceSchemaLocation="http://sumo.dlr.de/xsd/meandata_file.xsd">
    <interval begin="0.00" end="1829.00" id="cars">
        <edge id=":C_0" sampledSeconds="259.63" traveltime="1.51" overlapTraveltime="2.34" density="15.72" laneDensity="15.72" occupancy="5.05" waitingTime="0.00" timeLoss="147.51" speed="6.00" speedRelative="0.43" departed="0" arrived="0" entered="111" left="111" laneChangedFrom="0" laneChangedTo="0"/>
        <edge id=":C_4" sampledSeconds="1.48" traveltime="1.02" overlapTraveltime="1.48" density="0.09" laneDensity="0.09" occupancy="0.03" waitingTime="0.00" timeLoss="0.47" speed="9.47" speedRelative="0.68" departed="0" arrived="0" entered="1" left="1" laneChangedFrom="0" laneChangedTo="0"/>
        <edge id=":C_5" sampledSeconds="49.19" traveltime="3.30" overlapTraveltime="4.10" density="1.29" laneDensity="0.65" occupancy="0.26" waitingTime="0.00" timeLoss="26.91" speed="6.29" speedRelative="0.45" departed="0" arrived="0" entered="12" left="12" laneChangedFrom="0" laneChangedTo="0"/>
        <edge id=":C_8" sampledSeconds="1117.53" traveltime="79.34" overlapTraveltime="83.74" density="67.66" laneDensity="67.66" occupancy="14.87" waitingTime="1086.00" timeLoss="1104.05" speed="0.17" speedRelative="0.01" departed="0" arrived="0" entered="14" left="14" laneChangedFrom="0" laneChangedTo="0"/>
        <edge id=":C_9" sampledSeconds="110.62" traveltime="17.80" overlapTraveltime="18.44" density="2.91" laneDensity="2.91" occupancy="1.38" waitingTime="79.00" timeLoss="99.48" speed="1.40" speedRelative="0.10" departed="0" arrived="0" entered="6" left="6" laneChangedFrom="0" laneChangedTo="0"/>
        <edge id=":C_11" sampledSeconds="1537.47" traveltime="3.52" overlapTraveltime="4.36" density="40.41" laneDensity="40.41" occupancy="16.28" waitingTime="0.00" timeLoss="881.79" speed="5.92" speedRelative="0.43" departed="0" arrived="0" entered="353" left="353" laneChangedFrom="0" laneChangedTo="0"/>
        <edge id=":C_12" sampledSeconds="90.00" traveltime="1.91" overlapTraveltime="2.31" density="2.68" laneDensity="2.68" occupancy="1.04" waitingTime="0.00" timeLoss="24.49" speed="10.11" speedRelative="0.73" departed="0" arrived="0" entered="39" left="39" laneChangedFrom="0" laneChangedTo="0"/>
        <edge id=":E_0" sampledSeconds="13.17" traveltime="0.44" overlapTraveltime="0.89" density="1.54" laneDensity="1.54" occupancy="0.38" waitingTime="0.00" timeLoss="2.88" speed="10.85" speedRelative="0.78" departed="0" arrived="0" entered="15" left="15" laneChangedFrom="0" laneChangedTo="0"/>
        <edge id=":N_0" sampledSeconds="117.83" traveltime="0.53" overlapTraveltime="1.13" density="13.80" laneDensity="13.80" occupancy="3.33" waitingTime="0.00" timeLoss="45.30" speed="8.55" speedRelative="0.62" departed="0" arrived="0" entered="111" left="111" laneChangedFrom="0" laneChangedTo="0"/>
        <edge id="CE" sampledSeconds="134.52" traveltime="8.53" overlapTraveltime="9.00" density="0.82" laneDensity="0.41" occupancy="0.19" waitingTime="2.00" timeLoss="32.72" speed="10.51" speedRelative="0.76" departed="0" arrived="0" entered="15" left="14" laneChangedFrom="14" laneChangedTo="14"/>
        <edge id="CN" sampledSeconds="4286.48" traveltime="11.52" overlapTraveltime="12.00" density="26.16" laneDensity="13.08" occupancy="6.21" waitingTime="0.00" timeLoss="1853.99" speed="7.88" speedRelative="0.57" departed="0" arrived="249" entered="360" left="111" laneChangedFrom="0" laneChangedTo="0"/>
        <edge id="CW" sampledSeconds="2083.47" traveltime="12.36" overlapTraveltime="12.86" density="12.71" laneDensity="6.36" occupancy="3.05" waitingTime="0.00" timeLoss="979.94" speed="7.36" speedRelative="0.53" departed="0" arrived="162" entered="164" left="0" laneChangedFrom="0" laneChangedTo="0"/>
        <edge id="EC" sampledSeconds="4159.02" traveltime="276.59" overlapTraveltime="279.28" density="25.38" laneDensity="12.69" occupancy="6.33" waitingTime="3984.00" timeLoss="4057.60" speed="0.34" speedRelative="0.02" departed="0" arrived="0" entered="15" left="15" laneChangedFrom="5" laneChangedTo="5" teleported="2"/>
        <edge id="NC" sampledSeconds="1672.87" traveltime="14.23" overlapTraveltime="15.07" density="10.21" laneDensity="5.10" occupancy="2.43" waitingTime="14.00" timeLoss="916.88" speed="6.28" speedRelative="0.45" departed="0" arrived="0" entered="111" left="111" laneChangedFrom="111" laneChangedTo="111"/>
        <edge id="SC" sampledSeconds="22215.46" traveltime="53.35" overlapTraveltime="56.86" density="135.56" laneDensity="67.78" occupancy="32.90" waitingTime="14839.00" timeLoss="19554.67" speed="1.66" speedRelative="0.12" departed="413" arrived="0" entered="0" left="413" laneChangedFrom="16" laneChangedTo="16" teleported="1"/>
    </interval>
    <interval begin="0.00" end="1829.00" id="bikes">
        <edge id=":C_0" sampledSeconds="275.47" traveltime="1.69" overlapTraveltime="1.98" density="16.68" laneDensity="16.68" occupancy="2.26" waitingTime="0.00" timeLoss="9.51" speed="5.36" speedRelative="0.39" departed="0" arrived="0" entered="139" left="139" laneChangedFrom="0" laneChangedTo="0"/>
        <edge id=":C_5" sampledSeconds="12.39" traveltime="3.84" overlapTraveltime="4.13" density="0.33" laneDensity="0.16" occupancy="0.02" waitingTime="0.00" timeLoss="0.30" speed="5.42" speedRelative="0.39" departed="0" arrived="0" entered="3" left="3" laneChangedFrom="0" laneChangedTo="0"/>
        <edge id=":C_8" sampledSeconds="5.65" traveltime="1.65" overlapTraveltime="1.94" density="0.34" laneDensity="0.34" occupancy="0.05" waitingTime="0.00" timeLoss="0.09" speed="5.47" speedRelative="0.39" departed="0" arrived="0" entered="3" left="3" laneChangedFrom="0" laneChangedTo="0"/>
        <edge id=":C_9" sampledSeconds="379.70" traveltime="25.03" overlapTraveltime="25.31" density="9.98" laneDensity="9.98" occupancy="1.57" waitingTime="308.00" timeLoss="319.22" speed="0.88" speedRelative="0.06" departed="0" arrived="0" entered="15" left="15" laneChangedFrom="0" laneChangedTo="0"/>
        <edge id=":C_10" sampledSeconds="9554.53" traveltime="341.00" overlapTraveltime="345.52" density="290.22" laneDensity="290.22" occupancy="46.37" waitingTime="9347.00" timeLoss="9456.98" speed="0.06" speedRelative="0.00" departed="0" arrived="0" entered="28" left="28" laneChangedFrom="0" laneChangedTo="0" teleported="4"/>
        <edge id=":C_11" sampledSeconds="1531.09" traveltime="3.79" overlapTraveltime="4.08" density="40.25" laneDensity="40.25" occupancy="5.97" waitingTime="0.00" timeLoss="19.09" speed="5.49" speedRelative="0.39" departed="0" arrived="0" entered="375" left="375" laneChangedFrom="0" laneChangedTo="0"/>
        <edge id=":C_18" sampledSeconds="95.82" traveltime="3.70" overlapTraveltime="3.99" density="3.10" laneDensity="3.10" occupancy="0.44" waitingTime="0.00" timeLoss="15.81" speed="4.64" speedRelative="0.33" departed="0" arrived="0" entered="24" left="24" laneChangedFrom="0" laneChangedTo="0"/>
        <edge id=":E_0" sampledSeconds="3.39" traveltime="0.84" overlapTraveltime="1.13" density="0.40" laneDensity="0.40" occupancy="0.05" waitingTime="0.00" timeLoss="0.01" speed="5.54" speedRelative="0.40" departed="0" arrived="0" entered="3" left="3" laneChangedFrom="0" laneChangedTo="0"/>
        <edge id=":N_0" sampledSeconds="149.71" traveltime="0.84" overlapTraveltime="1.13" density="17.53" laneDensity="17.53" occupancy="2.13" waitingTime="0.00" timeLoss="0.00" speed="5.56" speedRelative="0.40" departed="0" arrived="0" entered="139" left="139" laneChangedFrom="0" laneChangedTo="0"/>
        <edge id="CE" sampledSeconds="56.92" traveltime="18.68" overlapTraveltime="18.97" density="0.35" laneDensity="0.17" occupancy="0.03" waitingTime="1.00" timeLoss="7.67" speed="4.81" speedRelative="0.35" departed="0" arrived="0" entered="3" left="3" laneChangedFrom="3" laneChangedTo="3"/>
        <edge id="CN" sampledSeconds="6401.97" traveltime="16.13" overlapTraveltime="16.42" density="39.07" laneDensity="19.53" occupancy="3.07" waitingTime="0.00" timeLoss="0.01" speed="5.56" speedRelative="0.40" departed="0" arrived="251" entered="390" left="139" laneChangedFrom="235" laneChangedTo="235"/>
        <edge id="CW" sampledSeconds="2784.79" traveltime="16.13" overlapTraveltime="16.42" density="16.99" laneDensity="8.50" occupancy="1.34" waitingTime="0.00" timeLoss="0.31" speed="5.55" speedRelative="0.40" departed="0" arrived="168" entered="170" left="0" laneChangedFrom="1" laneChangedTo="2"/>
        <edge id="EC" sampledSeconds="1503.43" traveltime="500.81" overlapTraveltime="501.14" density="9.17" laneDensity="4.59" occupancy="0.73" waitingTime="1439.00" timeLoss="1454.19" speed="0.18" speedRelative="0.01" departed="0" arrived="0" entered="3" left="3" laneChangedFrom="5" laneChangedTo="5"/>
        <edge id="NC" sampledSeconds="2482.38" traveltime="17.54" overlapTraveltime="17.86" density="15.15" laneDensity="7.57" occupancy="1.19" waitingTime="107.00" timeLoss="200.56" speed="5.11" speedRelative="0.37" departed="0" arrived="0" entered="139" left="139" laneChangedFrom="139" laneChangedTo="139"/>
        <edge id="SC" sampledSeconds="18292.83" traveltime="43.96" overlapTraveltime="44.28" density="111.62" laneDensity="55.81" occupancy="8.90" waitingTime="10045.00" timeLoss="11510.52" speed="2.06" speedRelative="0.15" departed="421" arrived="0" entered="0" left="421" laneChangedFrom="18" laneChangedTo="18"/>
    </interval>
</meandata>
