<?xml version="1.0" encoding="UTF-8"?>

<!-- generated on 2022-02-09 17:49:16 by Eclipse SUMO sumo Version v1_12_0+0407-89d3a2c
This data file and the accompanying materials
are made available under the terms of the Eclipse Public License v2.0
which accompanies this distribution, and is available at
http://www.eclipse.org/legal/epl-v20.html
This file may also be made available under the following Secondary
Licenses when the conditions for such availability set forth in the Eclipse
Public License 2.0 are satisfied: GNU General Public License, version 2
or later which is available at
https://www.gnu.org/licenses/old-licenses/gpl-2.0-standalone.html
SPDX-License-Identifier: EPL-2.0 OR GPL-2.0-or-later
<configuration xmlns:xsi="http://www.w3.org/2001/XMLSchema-instance" xsi:noNamespaceSchemaLocation="http://sumo.dlr.de/xsd/sumoConfiguration.xsd">

    <input>
        <net-file value="net2.net.xml"/>
        <route-files value="input_routes.rou.xml"/>
        <additional-files value="input_additional.add.xml"/>
    </input>

    <output>
        <write-license value="true"/>
    </output>

    <processing>
        <collision.check-junctions value="true"/>
        <default.speeddev value="0"/>
    </processing>

    <report>
        <verbose value="true"/>
        <xml-validation value="never"/>
        <xml-validation.routes value="never"/>
        <duration-log.statistics value="true"/>
        <no-step-log value="true"/>
    </report>

</configuration>
-->

<meandata xmlns:xsi="http://www.w3.org/2001/XMLSchema-instance" xsi:noNamespaceSchemaLocation="http://sumo.dlr.de/xsd/meandata_file.xsd">
    <interval begin="0.00" end="1781.00" id="cars">
        <edge id=":C_4" sampledSeconds="2.57" traveltime="0.87" overlapTraveltime="1.28" density="0.16" laneDensity="0.16" occupancy="0.05" waitingTime="0.00" timeLoss="0.55" speed="10.93" speedRelative="0.79" departed="0" arrived="0" entered="2" left="2" laneChangedFrom="0" laneChangedTo="0"/>
        <edge id=":C_5" sampledSeconds="49.92" traveltime="2.30" overlapTraveltime="2.77" density="1.35" laneDensity="0.67" occupancy="0.26" waitingTime="0.00" timeLoss="16.49" speed="9.30" speedRelative="0.67" departed="0" arrived="0" entered="18" left="18" laneChangedFrom="0" laneChangedTo="0"/>
        <edge id=":C_8" sampledSeconds="35.22" traveltime="1.22" overlapTraveltime="1.82" density="2.19" laneDensity="2.19" occupancy="0.70" waitingTime="0.00" timeLoss="15.62" speed="7.73" speedRelative="0.56" departed="0" arrived="0" entered="20" left="20" laneChangedFrom="0" laneChangedTo="0"/>
        <edge id=":C_9" sampledSeconds="277.36" traveltime="33.96" overlapTraveltime="34.67" density="7.49" laneDensity="7.49" occupancy="2.15" waitingTime="235.00" timeLoss="262.50" speed="0.74" speedRelative="0.05" departed="0" arrived="0" entered="8" left="8" laneChangedFrom="0" laneChangedTo="0"/>
        <edge id=":C_11" sampledSeconds="1016.89" traveltime="3.45" overlapTraveltime="4.25" density="27.45" laneDensity="27.45" occupancy="11.08" waitingTime="0.00" timeLoss="572.95" speed="6.06" speedRelative="0.44" departed="0" arrived="0" entered="239" left="239" laneChangedFrom="0" laneChangedTo="0"/>
        <edge id=":C_12" sampledSeconds="324.66" traveltime="1.82" overlapTraveltime="2.24" density="9.94" laneDensity="9.94" occupancy="3.87" waitingTime="0.00" timeLoss="81.11" speed="10.42" speedRelative="0.75" departed="0" arrived="0" entered="145" left="145" laneChangedFrom="0" laneChangedTo="0"/>
        <edge id=":E_0" sampledSeconds="27.61" traveltime="0.70" overlapTraveltime="1.43" density="3.32" laneDensity="3.32" occupancy="0.82" waitingTime="0.00" timeLoss="14.15" speed="6.77" speedRelative="0.49" departed="0" arrived="0" entered="20" left="20" laneChangedFrom="0" laneChangedTo="0"/>
        <edge id="CE" sampledSeconds="291.22" traveltime="13.81" overlapTraveltime="14.56" density="1.82" laneDensity="0.91" occupancy="0.44" waitingTime="6.00" timeLoss="155.01" speed="6.50" speedRelative="0.47" departed="0" arrived="0" entered="20" left="20" laneChangedFrom="20" laneChangedTo="20"/>
        <edge id="CN" sampledSeconds="2272.27" traveltime="8.81" overlapTraveltime="9.19" density="14.24" laneDensity="7.12" occupancy="3.34" waitingTime="0.00" timeLoss="588.53" speed="10.29" speedRelative="0.74" departed="0" arrived="249" entered="249" left="0" laneChangedFrom="0" laneChangedTo="0"/>
        <edge id="CW" sampledSeconds="1197.87" traveltime="6.98" overlapTraveltime="7.34" density="7.51" laneDensity="3.75" occupancy="1.78" waitingTime="0.00" timeLoss="86.74" speed="12.88" speedRelative="0.93" departed="0" arrived="163" entered="164" left="0" laneChangedFrom="0" laneChangedTo="0"/>
        <edge id="EC" sampledSeconds="1190.40" traveltime="58.87" overlapTraveltime="59.52" density="7.46" laneDensity="3.73" occupancy="1.84" waitingTime="986.00" timeLoss="1054.19" speed="1.59" speedRelative="0.11" departed="0" arrived="0" entered="20" left="20" laneChangedFrom="5" laneChangedTo="5"/>
        <edge id="SC" sampledSeconds="19467.16" traveltime="48.85" overlapTraveltime="49.83" density="121.99" laneDensity="61.00" occupancy="30.23" waitingTime="12919.00" timeLoss="16806.37" speed="1.90" speedRelative="0.14" departed="413" arrived="0" entered="0" left="413" laneChangedFrom="9" laneChangedTo="9" teleported="1"/>
    </interval>
    <interval begin="0.00" end="1781.00" id="bikes">
        <edge id=":C_5" sampledSeconds="66.13" traveltime="4.44" overlapTraveltime="4.72" density="1.79" laneDensity="0.89" occupancy="0.13" waitingTime="0.00" timeLoss="9.68" speed="4.74" speedRelative="0.34" departed="0" arrived="0" entered="14" left="14" laneChangedFrom="0" laneChangedTo="0"/>
        <edge id=":C_8" sampledSeconds="26.46" traveltime="1.64" overlapTraveltime="1.93" density="1.65" laneDensity="1.65" occupancy="0.23" waitingTime="0.00" timeLoss="0.21" speed="5.51" speedRelative="0.40" departed="0" arrived="0" entered="14" left="14" laneChangedFrom="0" laneChangedTo="0"/>
        <edge id=":C_9" sampledSeconds="331.77" traveltime="21.83" overlapTraveltime="22.12" density="8.96" laneDensity="8.96" occupancy="1.41" waitingTime="262.00" timeLoss="271.29" speed="1.01" speedRelative="0.07" departed="0" arrived="0" entered="15" left="15" laneChangedFrom="0" laneChangedTo="0"/>
        <edge id=":C_10" sampledSeconds="7748.08" traveltime="49.33" overlapTraveltime="49.72" density="241.69" laneDensity="241.69" occupancy="38.41" waitingTime="7078.00" timeLoss="7198.33" speed="0.39" speedRelative="0.03" departed="0" arrived="0" entered="156" left="156" laneChangedFrom="0" laneChangedTo="0" teleported="2"/>
        <edge id=":C_11" sampledSeconds="958.03" traveltime="3.77" overlapTraveltime="4.06" density="25.86" laneDensity="25.86" occupancy="3.84" waitingTime="0.00" timeLoss="6.48" speed="5.52" speedRelative="0.40" departed="0" arrived="0" entered="236" left="236" laneChangedFrom="0" laneChangedTo="0"/>
        <edge id=":C_18" sampledSeconds="531.96" traveltime="3.17" overlapTraveltime="3.45" density="17.65" laneDensity="17.65" occupancy="2.56" waitingTime="0.00" timeLoss="18.59" speed="5.36" speedRelative="0.39" departed="0" arrived="0" entered="154" left="154" laneChangedFrom="0" laneChangedTo="0"/>
        <edge id=":E_0" sampledSeconds="15.81" traveltime="0.84" overlapTraveltime="1.13" density="1.90" laneDensity="1.90" occupancy="0.23" waitingTime="0.00" timeLoss="0.01" speed="5.55" speedRelative="0.40" departed="0" arrived="0" entered="14" left="14" laneChangedFrom="0" laneChangedTo="0"/>
        <edge id="CE" sampledSeconds="252.82" traveltime="17.77" overlapTraveltime="18.06" density="1.58" laneDensity="0.79" occupancy="0.12" waitingTime="1.00" timeLoss="22.99" speed="5.05" speedRelative="0.36" departed="0" arrived="0" entered="14" left="14" laneChangedFrom="14" laneChangedTo="14"/>
        <edge id="CN" sampledSeconds="4119.80" traveltime="16.13" overlapTraveltime="16.42" density="25.82" laneDensity="12.91" occupancy="2.03" waitingTime="0.00" timeLoss="0.00" speed="5.56" speedRelative="0.40" departed="0" arrived="251" entered="251" left="0" laneChangedFrom="234" laneChangedTo="234"/>
        <edge id="CW" sampledSeconds="2781.13" traveltime="16.13" overlapTraveltime="16.42" density="17.43" laneDensity="8.71" occupancy="1.37" waitingTime="0.00" timeLoss="0.00" speed="5.56" speedRelative="0.40" departed="0" arrived="170" entered="170" left="0" laneChangedFrom="0" laneChangedTo="0"/>
        <edge id="EC" sampledSeconds="1761.90" traveltime="125.25" overlapTraveltime="125.85" density="11.04" laneDensity="5.52" occupancy="0.88" waitingTime="1500.00" timeLoss="1532.07" speed="0.72" speedRelative="0.05" departed="0" arrived="0" entered="14" left="14" laneChangedFrom="13" laneChangedTo="13"/>
        <edge id="SC" sampledSeconds="16000.79" traveltime="38.42" overlapTraveltime="38.73" density="100.27" laneDensity="50.13" occupancy="7.99" waitingTime="8192.00" timeLoss="9218.48" speed="2.35" speedRelative="0.17" departed="421" arrived="0" entered="0" left="421" laneChangedFrom="9" laneChangedTo="9"/>
    </interval>
</meandata>
