<?xml version="1.0" encoding="UTF-8"?>

<!-- generated on Tue Mar 31 12:21:34 2020 by Eclipse SUMO Version v1_5_0+1025-83bc0d0af0
This data file and the accompanying materials
are made available under the terms of the Eclipse Public License v2.0
which accompanies this distribution, and is available at
http://www.eclipse.org/legal/epl-v20.html
SPDX-License-Identifier: EPL-2.0
<configuration xmlns:xsi="http://www.w3.org/2001/XMLSchema-instance" xsi:noNamespaceSchemaLocation="http://sumo.dlr.de/xsd/sumoConfiguration.xsd">

    <input>
        <net-file value="net.net.xml"/>
        <additional-files value="input_routes.rou.xml,input_additional.add.xml"/>
    </input>

    <output>
        <write-license value="true"/>
    </output>

    <time>
        <begin value="0"/>
        <end value="150"/>
    </time>

    <processing>
        <default.speeddev value="0"/>
        <pedestrian.model value="nonInteracting"/>
    </processing>

    <report>
        <xml-validation value="never"/>
        <duration-log.disable value="true"/>
        <no-step-log value="true"/>
    </report>

    <mesoscopic>
        <mesosim value="true"/>
    </mesoscopic>

</configuration>
-->

<meandata xmlns:xsi="http://www.w3.org/2001/XMLSchema-instance" xsi:noNamespaceSchemaLocation="http://sumo.dlr.de/xsd/meandata_file.xsd">
    <interval begin="0.00" end="15.00" id="dump_15">
        <edge id="1si" sampledSeconds="23.00" traveltime="43.67" overlapTraveltime="44.20" density="6.13" laneDensity="2.04" occupancy="0.61" waitingTime="0.00" speed="5.72" departed="2" arrived="0" entered="0" left="0" laneChangedFrom="0" laneChangedTo="0"/>
    </interval>
    <interval begin="15.00" end="30.00" id="dump_15">
        <edge id="1si" sampledSeconds="30.00" traveltime="48.12" overlapTraveltime="48.70" density="8.00" laneDensity="2.67" occupancy="0.80" waitingTime="0.00" speed="5.20" departed="0" arrived="0" entered="0" left="0" laneChangedFrom="0" laneChangedTo="0"/>
    </interval>
    <interval begin="30.00" end="45.00" id="dump_15">
        <edge id="1si" sampledSeconds="10.25" traveltime="55.92" overlapTraveltime="56.59" density="2.73" laneDensity="0.91" occupancy="0.27" waitingTime="0.00" speed="4.47" departed="0" arrived="0" entered="0" left="2" laneChangedFrom="0" laneChangedTo="0"/>
        <edge id="4o" sampledSeconds="19.75" traveltime="100.00" overlapTraveltime="100.60" density="2.63" laneDensity="2.63" occupancy="0.79" waitingTime="0.00" speed="5.00" departed="0" arrived="0" entered="2" left="0" laneChangedFrom="0" laneChangedTo="0"/>
    </interval>
    <interval begin="45.00" end="60.00" id="dump_15">
        <edge id="4o" sampledSeconds="30.00" traveltime="100.00" overlapTraveltime="100.60" density="4.00" laneDensity="4.00" occupancy="1.20" waitingTime="0.00" speed="5.00" departed="0" arrived="0" entered="0" left="0" laneChangedFrom="0" laneChangedTo="0"/>
    </interval>
    <interval begin="60.00" end="75.00" id="dump_15">
        <edge id="4o" sampledSeconds="30.00" traveltime="100.00" overlapTraveltime="100.60" density="4.00" laneDensity="4.00" occupancy="1.20" waitingTime="0.00" speed="5.00" departed="0" arrived="0" entered="0" left="0" laneChangedFrom="0" laneChangedTo="0"/>
    </interval>
    <interval begin="75.00" end="90.00" id="dump_15">
        <edge id="4o" sampledSeconds="30.00" traveltime="100.00" overlapTraveltime="100.60" density="4.00" laneDensity="4.00" occupancy="1.20" waitingTime="0.00" speed="5.00" departed="0" arrived="0" entered="0" left="0" laneChangedFrom="0" laneChangedTo="0"/>
    </interval>
    <interval begin="90.00" end="105.00" id="dump_15">
        <edge id="4o" sampledSeconds="30.00" traveltime="100.00" overlapTraveltime="100.60" density="4.00" laneDensity="4.00" occupancy="1.20" waitingTime="0.00" speed="5.00" departed="0" arrived="0" entered="0" left="0" laneChangedFrom="0" laneChangedTo="0"/>
    </interval>
    <interval begin="105.00" end="120.00" id="dump_15">
        <edge id="4o" sampledSeconds="30.00" traveltime="100.00" overlapTraveltime="100.60" density="4.00" laneDensity="4.00" occupancy="1.20" waitingTime="0.00" speed="5.00" departed="0" arrived="0" entered="0" left="0" laneChangedFrom="0" laneChangedTo="0"/>
    </interval>
    <interval begin="120.00" end="135.00" id="dump_15">
        <edge id="4o" sampledSeconds="29.33" traveltime="100.00" overlapTraveltime="100.60" density="3.91" laneDensity="3.91" occupancy="1.17" waitingTime="0.00" speed="5.00" departed="0" arrived="1" entered="0" left="0" laneChangedFrom="0" laneChangedTo="0"/>
    </interval>
    <interval begin="135.00" end="150.00" id="dump_15">
        <edge id="4o" sampledSeconds="0.91" traveltime="100.00" overlapTraveltime="100.60" density="0.12" laneDensity="0.12" occupancy="0.04" waitingTime="0.00" speed="5.00" departed="0" arrived="1" entered="0" left="0" laneChangedFrom="0" laneChangedTo="0"/>
    </interval>
</meandata>
