<?xml version="1.0" encoding="UTF-8"?>

<!-- generated on 05/02/13 14:14:38 by SUMO sumo Version 0.17.0
<?xml version="1.0" encoding="UTF-8"?>

<configuration xmlns:xsi="http://www.w3.org/2001/XMLSchema-instance" xsi:noNamespaceSchemaLocation="http://sumo-sim.org/xsd/sumoConfiguration.xsd">

    <input>
        <net-file value="net.net.xml"/>
        <additional-files value="input_routes.rou.xml,input_additional.add.xml,input_additional2.add.xml"/>
    </input>

    <time>
        <begin value="0"/>
        <end value="150"/>
    </time>

    <report>
        <no-duration-log value="true"/>
        <no-step-log value="true"/>
    </report>

</configuration>
-->

<meandata xmlns:xsi="http://www.w3.org/2001/XMLSchema-instance" xsi:noNamespaceSchemaLocation="http://sumo-sim.org/xsd/meandata_file.xsd">
    <interval begin="0.00" end="15.00" id="dump_15">
        <edge id="4/1to3/1" sampledSeconds="23.00" noise="63.63" traveltime="39.05"/>
    </interval>
    <interval begin="15.00" end="30.00" id="dump_15">
        <edge id="4/1to3/1" sampledSeconds="30.00" noise="64.79" traveltime="39.05"/>
    </interval>
    <interval begin="30.00" end="45.00" id="dump_15">
        <edge id="3/1to2/1" sampledSeconds="24.90" noise="63.99" traveltime="39.05"/>
        <edge id="4/1to3/1" sampledSeconds="5.70" noise="58.46" traveltime="39.05"/>
    </interval>
    <interval begin="45.00" end="60.00" id="dump_15">
        <edge id="3/1to2/1" sampledSeconds="30.00" noise="64.79" traveltime="39.05"/>
    </interval>
    <interval begin="60.00" end="75.00" id="dump_15">
        <edge id="2/1to1/1" sampledSeconds="6.80" noise="58.46" traveltime="39.05"/>
        <edge id="3/1to2/1" sampledSeconds="23.80" noise="63.99" traveltime="39.05"/>
    </interval>
    <interval begin="75.00" end="90.00" id="dump_15">
        <edge id="2/1to1/1" sampledSeconds="30.00" noise="64.79" traveltime="39.05"/>
    </interval>
    <interval begin="90.00" end="105.00" id="dump_15">
        <edge id="2/1to1/1" sampledSeconds="30.00" noise="64.79" traveltime="39.05"/>
    </interval>
    <interval begin="105.00" end="120.00" id="dump_15">
        <edge id="1/1to0/1" sampledSeconds="18.70" noise="62.80" traveltime="39.05"/>
        <edge id="2/1to1/1" sampledSeconds="11.90" noise="61.15" traveltime="39.05"/>
    </interval>
    <interval begin="120.00" end="135.00" id="dump_15">
        <edge id="1/1to0/1" sampledSeconds="30.00" noise="64.79" traveltime="39.05"/>
    </interval>
    <interval begin="135.00" end="150.00" id="dump_15">
        <edge id="1/1to0/1" sampledSeconds="27.50" noise="64.49" traveltime="39.05"/>
    </interval>
</meandata>
