<?xml version="1.0" encoding="UTF-8"?>

<!-- generated on Thu Jan 26 09:25:48 2017 by SUMO Version dev-SVN-r22703
<?xml version="1.0" encoding="UTF-8"?>

<configuration xmlns:xsi="http://www.w3.org/2001/XMLSchema-instance" xsi:noNamespaceSchemaLocation="http://sumo.dlr.de/xsd/sumoConfiguration.xsd">

    <input>
        <net-file value="net.net.xml"/>
        <additional-files value="input_routes.rou.xml"/>
    </input>

    <output>
        <tripinfo-output value="tripinfos.xml"/>
    </output>

    <time>
        <step-length value="0.1"/>
    </time>

    <report>
        <xml-validation value="never"/>
        <no-step-log value="true"/>
    </report>

    <gui_only>
        <gui-settings-file value="settings.xml"/>
    </gui_only>

</configuration>
-->

<tripinfos xmlns:xsi="http://www.w3.org/2001/XMLSchema-instance" xsi:noNamespaceSchemaLocation="http://sumo.dlr.de/xsd/tripinfo_file.xsd">
    <tripinfo id="oncoming1_1" depart="0.00" departLane="gneE1_0" departPos="100.00" departSpeed="0.00" departDelay="0.00" arrival="10.60" arrivalLane="gneE1_0" arrivalPos="200.00" arrivalSpeed="13.78" duration="10.60" routeLength="100.00" waitSteps="0" timeLoss="3.35" rerouteNo="0" devices="tripinfo_oncoming1_1" vType="opposite" speedFactor="1.00" vaporized=""/>
    <tripinfo id="oncoming1" depart="0.00" departLane="-VODUGES_beg_0" departPos="100.00" departSpeed="0.00" departDelay="0.00" arrival="10.70" arrivalLane="-VODUGES_beg_0" arrivalPos="200.00" arrivalSpeed="13.89" duration="10.70" routeLength="100.00" waitSteps="0" timeLoss="3.39" rerouteNo="0" devices="tripinfo_oncoming1" vType="opposite" speedFactor="1.00" vaporized=""/>
    <tripinfo id="oncoming2" depart="0.00" departLane="-VODUGES_beg_0" departPos="0.00" departSpeed="0.00" departDelay="0.00" arrival="17.80" arrivalLane="-VODUGES_beg_0" arrivalPos="200.00" arrivalSpeed="13.79" duration="17.80" routeLength="200.00" waitSteps="0" timeLoss="3.30" rerouteNo="0" devices="tripinfo_oncoming2" vType="opposite" speedFactor="1.00" vaporized=""/>
    <tripinfo id="oncoming2_1" depart="0.00" departLane="gneE1_0" departPos="0.00" departSpeed="0.00" departDelay="0.00" arrival="17.80" arrivalLane="gneE1_0" arrivalPos="200.00" arrivalSpeed="13.84" duration="17.80" routeLength="200.00" waitSteps="0" timeLoss="3.28" rerouteNo="0" devices="tripinfo_oncoming2_1" vType="opposite" speedFactor="1.00" vaporized=""/>
    <tripinfo id="overtaking" depart="1.00" departLane="VODUGES_beg_0" departPos="0.00" departSpeed="0.00" departDelay="0.00" arrival="23.10" arrivalLane="VODUGES_beg_0" arrivalPos="200.00" arrivalSpeed="13.77" duration="22.10" routeLength="200.00" waitSteps="0" timeLoss="7.57" rerouteNo="0" devices="tripinfo_overtaking" vType="DEFAULT_VEHTYPE" speedFactor="1.00" vaporized=""/>
    <tripinfo id="stopped" depart="0.00" departLane="VODUGES_beg_0" departPos="40.00" departSpeed="0.00" departDelay="0.00" arrival="120.20" arrivalLane="VODUGES_beg_0" arrivalPos="200.00" arrivalSpeed="13.88" duration="120.20" routeLength="160.00" waitSteps="0" timeLoss="8.39" rerouteNo="0" devices="tripinfo_stopped" vType="DEFAULT_VEHTYPE" speedFactor="1.00" vaporized=""/>
    <tripinfo id="stopped_1" depart="0.00" departLane="gneE0_0" departPos="40.00" departSpeed="0.00" departDelay="0.00" arrival="120.20" arrivalLane="gneE0_0" arrivalPos="200.00" arrivalSpeed="13.78" duration="120.20" routeLength="160.00" waitSteps="0" timeLoss="8.41" rerouteNo="0" devices="tripinfo_stopped_1" vType="DEFAULT_VEHTYPE" speedFactor="1.00" vaporized=""/>
    <tripinfo id="overtaking_1" depart="1.00" departLane="gneE0_0" departPos="0.00" departSpeed="0.00" departDelay="0.00" arrival="121.70" arrivalLane="gneE0_0" arrivalPos="200.00" arrivalSpeed="13.79" duration="120.70" routeLength="200.00" waitSteps="944" timeLoss="106.11" rerouteNo="0" devices="tripinfo_overtaking_1" vType="DEFAULT_VEHTYPE" speedFactor="1.00" vaporized=""/>
</tripinfos>
