<?xml version="1.0" encoding="UTF-8"?>

<!-- generated on 2025-11-02T19:54:04.409549+01:00 by Eclipse SUMO sumo v1_24_0+1715-28a54f8871d
This data file and the accompanying materials
are made available under the terms of the Eclipse Public License v2.0
which accompanies this distribution, and is available at
http://www.eclipse.org/legal/epl-v20.html
This file may also be made available under the following Secondary
Licenses when the conditions for such availability set forth in the Eclipse
Public License 2.0 are satisfied: GNU General Public License, version 2
or later which is available at
https://www.gnu.org/licenses/old-licenses/gpl-2.0-standalone.html
SPDX-License-Identifier: EPL-2.0 OR GPL-2.0-or-later
<sumoConfiguration xmlns:xsi="http://www.w3.org/2001/XMLSchema-instance" xsi:noNamespaceSchemaLocation="http://sumo.dlr.de/xsd/sumoConfiguration.xsd">

    <input>
        <net-file value="three_split.net.xml"/>
        <route-files value="input_routes.rou.xml"/>
        <additional-files value="input_additional.add.xml"/>
    </input>

    <output>
        <write-license value="true"/>
        <vehroute-output value="vehroutes.xml"/>
    </output>

    <processing>
        <default.speeddev value="0"/>
    </processing>

    <report>
        <xml-validation value="never"/>
        <duration-log.disable value="true"/>
        <no-step-log value="true"/>
    </report>

</sumoConfiguration>
-->

<meandata xmlns:xsi="http://www.w3.org/2001/XMLSchema-instance" xsi:noNamespaceSchemaLocation="http://sumo.dlr.de/xsd/meandata_file.xsd">
    <interval begin="0.00" end="100.00" id="dump25">
        <edge id="beg" sampledSeconds="138.84" traveltime="23.20" overlapTraveltime="23.38" density="2.76" overlapDensity="2.78" laneDensity="2.76" occupancy="1.38" waitingTime="0.00" timeLoss="30.95" speed="21.60" speedRelative="0.78" departed="51" arrived="0" entered="0" left="51" laneChangedFrom="0" laneChangedTo="0" vaporized="45" flow="214.28"/>
        <edge id="beg2left" sampledSeconds="0.00" departed="0" arrived="0" entered="0" left="0" laneChangedFrom="0" laneChangedTo="0"/>
        <edge id="beg2right" sampledSeconds="0.00" departed="0" arrived="0" entered="0" left="0" laneChangedFrom="0" laneChangedTo="0"/>
        <edge id="end" sampledSeconds="108.99" traveltime="17.99" overlapTraveltime="18.17" density="2.16" overlapDensity="2.18" laneDensity="2.16" occupancy="1.08" waitingTime="0.00" timeLoss="0.00" speed="27.80" speedRelative="1.00" departed="0" arrived="0" entered="6" left="6" laneChangedFrom="0" laneChangedTo="0" flow="216.00"/>
        <edge id="left" sampledSeconds="0.00" departed="0" arrived="0" entered="0" left="0" laneChangedFrom="0" laneChangedTo="0"/>
        <edge id="left2end" sampledSeconds="0.00" departed="0" arrived="0" entered="0" left="0" laneChangedFrom="0" laneChangedTo="0"/>
        <edge id="middle" sampledSeconds="216.91" traveltime="35.97" overlapTraveltime="36.15" density="2.16" overlapDensity="2.17" laneDensity="2.16" occupancy="1.08" waitingTime="0.00" timeLoss="0.00" speed="27.80" speedRelative="1.00" departed="0" arrived="0" entered="6" left="6" laneChangedFrom="0" laneChangedTo="0" flow="216.00"/>
        <edge id="rend" sampledSeconds="86.66" traveltime="17.99" overlapTraveltime="18.17" density="1.73" overlapDensity="1.73" laneDensity="1.73" occupancy="0.86" waitingTime="0.00" timeLoss="0.00" speed="27.80" speedRelative="1.00" departed="0" arrived="2" entered="6" left="0" laneChangedFrom="0" laneChangedTo="0" flow="172.74"/>
        <edge id="right" sampledSeconds="0.00" departed="0" arrived="0" entered="0" left="0" laneChangedFrom="0" laneChangedTo="0"/>
        <edge id="right2end" sampledSeconds="0.00" departed="0" arrived="0" entered="0" left="0" laneChangedFrom="0" laneChangedTo="0"/>
    </interval>
</meandata>
