<?xml version="1.0" encoding="UTF-8"?>

<!-- generated on 2024-09-13 10:33:36 by Eclipse SUMO sumo Version v1_20_0+1983-f94e16fca46
This data file and the accompanying materials
are made available under the terms of the Eclipse Public License v2.0
which accompanies this distribution, and is available at
http://www.eclipse.org/legal/epl-v20.html
This file may also be made available under the following Secondary
Licenses when the conditions for such availability set forth in the Eclipse
Public License 2.0 are satisfied: GNU General Public License, version 2
or later which is available at
https://www.gnu.org/licenses/old-licenses/gpl-2.0-standalone.html
SPDX-License-Identifier: EPL-2.0 OR GPL-2.0-or-later
<sumoConfiguration xmlns:xsi="http://www.w3.org/2001/XMLSchema-instance" xsi:noNamespaceSchemaLocation="http://sumo.dlr.de/xsd/sumoConfiguration.xsd">

    <input>
        <net-file value="three_split.net.xml"/>
        <route-files value="input_routes.rou.xml"/>
        <additional-files value="input_additional.add.xml"/>
    </input>

    <output>
        <write-license value="true"/>
        <tripinfo-output value="tripinfos.xml"/>
        <vehroute-output value="vehroutes.xml"/>
    </output>

    <time>
        <begin value="0"/>
    </time>

    <processing>
        <default.speeddev value="0"/>
    </processing>

    <report>
        <xml-validation value="never"/>
        <duration-log.disable value="true"/>
        <no-step-log value="true"/>
    </report>

    <mesoscopic>
        <mesosim value="true"/>
    </mesoscopic>

</sumoConfiguration>
-->

<routes xmlns:xsi="http://www.w3.org/2001/XMLSchema-instance" xsi:noNamespaceSchemaLocation="http://sumo.dlr.de/xsd/routes_file.xsd">
    <vehicle id="v.2" type="t0" depart="20.00" arrival="123.00">
        <routeDistribution>
            <route replacedOnEdge="beg" reason="rerouter" replacedAtTime="20.00" probability="0" edges="beg middle end rend"/>
            <route edges="beg middle end rend"/>
        </routeDistribution>
        <stop edge="beg" duration="3.00"/>
        <stop edge="middle" duration="5.00"/>
    </vehicle>

    <vehicle id="v.5" type="t0" depart="50.00" arrival="153.00">
        <routeDistribution>
            <route replacedOnEdge="beg" reason="rerouter" replacedAtTime="50.00" probability="0" edges="beg middle end rend"/>
            <route edges="beg middle end rend"/>
        </routeDistribution>
        <stop edge="beg" duration="3.00"/>
        <stop edge="middle" duration="5.00"/>
    </vehicle>

    <vehicle id="v.7" type="t0" depart="70.00" arrival="173.00">
        <routeDistribution>
            <route replacedOnEdge="beg" reason="rerouter" replacedAtTime="70.00" probability="0" edges="beg middle end rend"/>
            <route edges="beg middle end rend"/>
        </routeDistribution>
        <stop edge="beg" duration="3.00"/>
        <stop edge="middle" duration="5.00"/>
    </vehicle>

    <vehicle id="v.0" type="t0" depart="0.00" arrival="201.00">
        <routeDistribution>
            <route replacedOnEdge="beg" reason="rerouter" replacedAtTime="0.00" probability="0" edges="beg middle end rend"/>
            <route edges="beg beg2right right right2end end rend"/>
        </routeDistribution>
        <stop edge="beg" duration="3.00"/>
        <stop edge="right" until="100.00" parking="1"/>
    </vehicle>

    <vehicle id="v.1" type="t0" depart="10.00" arrival="211.00">
        <routeDistribution>
            <route replacedOnEdge="beg" reason="rerouter" replacedAtTime="10.00" probability="0" edges="beg middle end rend"/>
            <route edges="beg beg2right right right2end end rend"/>
        </routeDistribution>
        <stop edge="beg" duration="3.00"/>
        <stop edge="right" until="110.00" parking="1"/>
    </vehicle>

    <vehicle id="v.3" type="t0" depart="30.00" arrival="232.00">
        <routeDistribution>
            <route replacedOnEdge="beg" reason="rerouter" replacedAtTime="30.00" probability="0" edges="beg middle end rend"/>
            <route edges="beg beg2left left left2end end rend"/>
        </routeDistribution>
        <stop edge="beg" duration="3.00"/>
        <stop edge="left" until="130.00"/>
    </vehicle>

    <vehicle id="v.4" type="t0" depart="40.00" arrival="242.00">
        <routeDistribution>
            <route replacedOnEdge="beg" reason="rerouter" replacedAtTime="40.00" probability="0" edges="beg middle end rend"/>
            <route edges="beg beg2left left left2end end rend"/>
        </routeDistribution>
        <stop edge="beg" duration="3.00"/>
        <stop edge="left" until="140.00"/>
    </vehicle>

    <vehicle id="v.6" type="t0" depart="60.00" arrival="261.00">
        <routeDistribution>
            <route replacedOnEdge="beg" reason="rerouter" replacedAtTime="60.00" probability="0" edges="beg middle end rend"/>
            <route edges="beg beg2right right right2end end rend"/>
        </routeDistribution>
        <stop edge="beg" duration="3.00"/>
        <stop edge="right" until="160.00" parking="1"/>
    </vehicle>

    <vehicle id="v.8" type="t0" depart="80.00" arrival="282.00">
        <routeDistribution>
            <route replacedOnEdge="beg" reason="rerouter" replacedAtTime="80.00" probability="0" edges="beg middle end rend"/>
            <route edges="beg beg2left left left2end end rend"/>
        </routeDistribution>
        <stop edge="beg" duration="3.00"/>
        <stop edge="left" until="180.00"/>
    </vehicle>

    <vehicle id="v.9" type="t0" depart="90.00" arrival="291.00">
        <routeDistribution>
            <route replacedOnEdge="beg" reason="rerouter" replacedAtTime="90.00" probability="0" edges="beg middle end rend"/>
            <route edges="beg beg2right right right2end end rend"/>
        </routeDistribution>
        <stop edge="beg" duration="3.00"/>
        <stop edge="right" until="190.00" parking="1"/>
    </vehicle>

</routes>
