<?xml version="1.0" encoding="UTF-8"?>

<!-- generated on Tue Jul  4 15:29:21 2017 by SUMO Version dev-SVN-r25036
<?xml version="1.0" encoding="UTF-8"?>

<configuration xmlns:xsi="http://www.w3.org/2001/XMLSchema-instance" xsi:noNamespaceSchemaLocation="http://sumo.dlr.de/xsd/sumoConfiguration.xsd">

    <input>
        <net-file value="net.net.xml"/>
        <route-files value="input_routes.rou.xml"/>
    </input>

    <output>
        <vehroute-output value="vehroutes.xml"/>
        <save-state.period value="4"/>
        <save-state.suffix value=".xml"/>
    </output>

    <report>
        <verbose value="true"/>
        <xml-validation value="never"/>
        <duration-log.disable value="true"/>
        <no-step-log value="true"/>
    </report>

    <mesoscopic>
        <mesosim value="true"/>
    </mesoscopic>

</configuration>
-->

<snapshot xmlns:xsi="http://www.w3.org/2001/XMLSchema-instance" xsi:noNamespaceSchemaLocation="http://sumo.dlr.de/xsd/state_file.xsd" version="dev-SVN-r25036" time="0.00">
    <route id="r0" state="1" edges="beg middle end"/>
    <delay number="0" begin="2" end="0" depart="0.00" time="0.00"/>
    <vType id="DEFAULT_PEDTYPE" vClass="pedestrian"/>
    <vType id="DEFAULT_VEHTYPE"/>
    <vType id="type0" sigma="0"/>
    <vType id="type1" sigma="0"/>
    <vType id="type2" sigma="0">
        <param key="has.rerouting.device" value="false"/>
    </vType>
    <vTypeDistribution id="testDist" vTypes="type0 type1" probabilities="1.00 1.00"/>
    <vehicle id="v0" type="type1" depart="0.00" line="line1" route="r0" state="9223372036854775807 0 -1 0 -9223372036854775808 -9223372036854775808 9223372036854775807">
        <stop lane="middle_0" endPos="100.00" duration="0.00"/>
        <param key="has.rerouting.device" value="false"/>
        <device id="vehroute_v0" state="-1.00 -1.00 0"/>
    </vehicle>
    <vehicle id="v1" type="type2" depart="0.00" route="r0" state="9223372036854775807 0 -1 0 -9223372036854775808 -9223372036854775808 9223372036854775807">
        <device id="vehroute_v1" state="-1.00 -1.00 0"/>
    </vehicle>
    <segment>
        <vehicles time="-1" value=""/>
    </segment>
    <segment>
        <vehicles time="-1" value=""/>
    </segment>
    <segment>
        <vehicles time="-1" value=""/>
    </segment>
    <segment>
        <vehicles time="-1" value=""/>
    </segment>
</snapshot>
