<?xml version="1.0"?>

<!-- generated on Fri Dec  2 20:47:12 2011 by SUMO sumo Version dev-SVN-r11571
<?xml version="1.0" encoding="UTF-8"?>

<configuration xmlns:xsi="http://www.w3.org/2001/XMLSchema-instance" xsi:noNamespaceSchemaLocation="http://sumo.sf.net/xsd/sumoConfiguration.xsd">

    <input>
        <net-file value="net.net.xml"/>
        <route-files value="input_routes.rou.xml"/>
    </input>

    <output>
        <vehroute-output value="vehroutes.xml"/>
    </output>

    <processing>
        <max-depart-delay value="30"/>
    </processing>

    <report>
        <no-duration-log value="true"/>
        <no-step-log value="true"/>
    </report>

</configuration>
-->

<routes>
    <vehicle id="veh0" type="Car" depart="1.00" arrival="59.00">
        <route edges="1to2 out"/>
    </vehicle>

    <vehicle id="veh1" type="Car" depart="10.00" arrival="61.00">
        <route edges="1to2 out"/>
    </vehicle>

</routes>
