<?xml version="1.0" encoding="UTF-8"?>

<!-- generated on Tue Mar  3 08:46:38 2020 by Eclipse SUMO Version v1_5_0+0337-8d59749
This data file and the accompanying materials
are made available under the terms of the Eclipse Public License v2.0
which accompanies this distribution, and is available at
http://www.eclipse.org/legal/epl-v20.html
SPDX-License-Identifier: EPL-2.0
<configuration xmlns:xsi="http://www.w3.org/2001/XMLSchema-instance" xsi:noNamespaceSchemaLocation="http://sumo.dlr.de/xsd/sumoConfiguration.xsd">

    <input>
        <net-file value="three_split.net.xml"/>
        <additional-files value="input_routes.rou.xml,input_additional2.add.xml"/>
    </input>

    <output>
        <write-license value="true"/>
        <tripinfo-output value="tripinfos.xml"/>
    </output>

    <time>
        <begin value="0"/>
    </time>

    <processing>
        <default.speeddev value="0"/>
        <pedestrian.model value="nonInteracting"/>
    </processing>

    <report>
        <xml-validation value="never"/>
        <duration-log.disable value="true"/>
        <no-step-log value="true"/>
    </report>

    <mesoscopic>
        <mesosim value="true"/>
    </mesoscopic>

</configuration>
-->

<tripinfos xmlns:xsi="http://www.w3.org/2001/XMLSchema-instance" xsi:noNamespaceSchemaLocation="http://sumo.dlr.de/xsd/tripinfo_file.xsd">
    <tripinfo id="0" depart="0.00" departLane="" departPos="0.00" departSpeed="27.80" departDelay="0.00" arrival="18.00" arrivalLane="" arrivalPos="0.00" arrivalSpeed="27.80" duration="18.00" routeLength="500.00" waitingTime="0.00" waitingCount="0" stopTime="0.00" timeLoss="0.00" rerouteNo="0" devices="tripinfo_0" vType="DEFAULT_VEHTYPE" speedFactor="1.00" vaporized="vaporizer"/>
    <tripinfo id="1" depart="20.00" departLane="" departPos="0.00" departSpeed="27.80" departDelay="0.00" arrival="38.00" arrivalLane="" arrivalPos="0.00" arrivalSpeed="27.80" duration="18.00" routeLength="500.00" waitingTime="0.00" waitingCount="0" stopTime="0.00" timeLoss="0.00" rerouteNo="0" devices="tripinfo_1" vType="DEFAULT_VEHTYPE" speedFactor="1.00" vaporized="vaporizer"/>
    <tripinfo id="2" depart="40.00" departLane="" departPos="0.00" departSpeed="27.80" departDelay="0.00" arrival="58.00" arrivalLane="" arrivalPos="0.00" arrivalSpeed="27.80" duration="18.00" routeLength="500.00" waitingTime="0.00" waitingCount="0" stopTime="0.00" timeLoss="0.00" rerouteNo="0" devices="tripinfo_2" vType="DEFAULT_VEHTYPE" speedFactor="1.00" vaporized="vaporizer"/>
    <tripinfo id="3" depart="60.00" departLane="" departPos="0.00" departSpeed="27.80" departDelay="0.00" arrival="78.00" arrivalLane="" arrivalPos="0.00" arrivalSpeed="27.80" duration="18.00" routeLength="500.00" waitingTime="0.00" waitingCount="0" stopTime="0.00" timeLoss="0.00" rerouteNo="0" devices="tripinfo_3" vType="DEFAULT_VEHTYPE" speedFactor="1.00" vaporized="vaporizer"/>
    <tripinfo id="4" depart="80.00" departLane="" departPos="0.00" departSpeed="27.80" departDelay="0.00" arrival="98.00" arrivalLane="" arrivalPos="0.00" arrivalSpeed="27.80" duration="18.00" routeLength="500.00" waitingTime="0.00" waitingCount="0" stopTime="0.00" timeLoss="0.00" rerouteNo="0" devices="tripinfo_4" vType="DEFAULT_VEHTYPE" speedFactor="1.00" vaporized="vaporizer"/>
    <tripinfo id="5" depart="100.00" departLane="" departPos="0.00" departSpeed="27.80" departDelay="0.00" arrival="118.00" arrivalLane="" arrivalPos="0.00" arrivalSpeed="27.80" duration="18.00" routeLength="500.00" waitingTime="0.00" waitingCount="0" stopTime="0.00" timeLoss="0.00" rerouteNo="0" devices="tripinfo_5" vType="DEFAULT_VEHTYPE" speedFactor="1.00" vaporized="vaporizer"/>
    <tripinfo id="6" depart="120.00" departLane="" departPos="0.00" departSpeed="27.80" departDelay="0.00" arrival="138.00" arrivalLane="" arrivalPos="0.00" arrivalSpeed="27.80" duration="18.00" routeLength="500.00" waitingTime="0.00" waitingCount="0" stopTime="0.00" timeLoss="0.00" rerouteNo="0" devices="tripinfo_6" vType="DEFAULT_VEHTYPE" speedFactor="1.00" vaporized="vaporizer"/>
    <tripinfo id="7" depart="140.00" departLane="" departPos="0.00" departSpeed="27.80" departDelay="0.00" arrival="158.00" arrivalLane="" arrivalPos="0.00" arrivalSpeed="27.80" duration="18.00" routeLength="500.00" waitingTime="0.00" waitingCount="0" stopTime="0.00" timeLoss="0.00" rerouteNo="0" devices="tripinfo_7" vType="DEFAULT_VEHTYPE" speedFactor="1.00" vaporized="vaporizer"/>
    <tripinfo id="8" depart="160.00" departLane="" departPos="0.00" departSpeed="27.80" departDelay="0.00" arrival="178.00" arrivalLane="" arrivalPos="0.00" arrivalSpeed="27.80" duration="18.00" routeLength="500.00" waitingTime="0.00" waitingCount="0" stopTime="0.00" timeLoss="0.00" rerouteNo="0" devices="tripinfo_8" vType="DEFAULT_VEHTYPE" speedFactor="1.00" vaporized="vaporizer"/>
    <tripinfo id="9" depart="180.00" departLane="" departPos="0.00" departSpeed="27.80" departDelay="0.00" arrival="198.00" arrivalLane="" arrivalPos="0.00" arrivalSpeed="27.80" duration="18.00" routeLength="500.00" waitingTime="0.00" waitingCount="0" stopTime="0.00" timeLoss="0.00" rerouteNo="0" devices="tripinfo_9" vType="DEFAULT_VEHTYPE" speedFactor="1.00" vaporized="vaporizer"/>
</tripinfos>
