<?xml version="1.0" encoding="UTF-8"?>

<!-- generated on 2021-11-09 15:59:33 by Eclipse SUMO sumo Version v1_10_0+2057-d99ec6e
This data file and the accompanying materials
are made available under the terms of the Eclipse Public License v2.0
which accompanies this distribution, and is available at
http://www.eclipse.org/legal/epl-v20.html
SPDX-License-Identifier: EPL-2.0
<configuration xmlns:xsi="http://www.w3.org/2001/XMLSchema-instance" xsi:noNamespaceSchemaLocation="http://sumo.dlr.de/xsd/sumoConfiguration.xsd">

    <input>
        <net-file value="net.net.xml"/>
        <route-files value="input_routes.rou.xml"/>
    </input>

    <output>
        <write-license value="true"/>
        <tripinfo-output value="tripinfos.xml"/>
    </output>

    <processing>
        <collision.check-junctions value="true"/>
        <default.speeddev value="0"/>
    </processing>

    <report>
        <verbose value="true"/>
        <xml-validation value="never"/>
        <xml-validation.routes value="never"/>
        <duration-log.disable value="true"/>
        <duration-log.statistics value="true"/>
        <no-step-log value="true"/>
    </report>

</configuration>
-->

<tripinfos xmlns:xsi="http://www.w3.org/2001/XMLSchema-instance" xsi:noNamespaceSchemaLocation="http://sumo.dlr.de/xsd/tripinfo_file.xsd">
    <tripinfo id="flow_1.0" depart="1.00" departLane="-E2_0" departPos="5.10" departSpeed="0.00" departDelay="0.00" arrival="25.00" arrivalLane="-E0_0" arrivalPos="100.00" arrivalSpeed="12.68" duration="24.00" routeLength="296.36" waitingTime="0.00" waitingCount="0" stopTime="0.00" timeLoss="6.92" rerouteNo="0" devices="tripinfo_flow_1.0" vType="DEFAULT_VEHTYPE" speedFactor="1.00" vaporized=""/>
    <tripinfo id="flow_0.0" depart="2.00" departLane="E0_0" departPos="5.10" departSpeed="0.00" departDelay="0.00" arrival="27.00" arrivalLane="E2_0" arrivalPos="100.00" arrivalSpeed="12.92" duration="25.00" routeLength="294.90" waitingTime="0.00" waitingCount="0" stopTime="0.00" timeLoss="3.62" rerouteNo="0" devices="tripinfo_flow_0.0" vType="DEFAULT_VEHTYPE" speedFactor="1.00" vaporized=""/>
    <tripinfo id="flow_1.1" depart="5.00" departLane="-E2_0" departPos="5.10" departSpeed="0.00" departDelay="0.00" arrival="33.00" arrivalLane="-E0_0" arrivalPos="100.00" arrivalSpeed="12.89" duration="28.00" routeLength="296.36" waitingTime="0.00" waitingCount="0" stopTime="0.00" timeLoss="6.07" rerouteNo="0" devices="tripinfo_flow_1.1" vType="DEFAULT_VEHTYPE" speedFactor="1.00" vaporized=""/>
    <tripinfo id="flow_1.3" depart="11.00" departLane="-E2_0" departPos="5.10" departSpeed="0.00" departDelay="1.00" arrival="42.00" arrivalLane="-E0_0" arrivalPos="100.00" arrivalSpeed="12.97" duration="31.00" routeLength="296.36" waitingTime="6.00" waitingCount="1" stopTime="0.00" timeLoss="15.39" rerouteNo="0" devices="tripinfo_flow_1.3" vType="DEFAULT_VEHTYPE" speedFactor="1.00" vaporized=""/>
    <tripinfo id="flow_0.1" depart="17.00" departLane="E0_0" departPos="5.10" departSpeed="0.00" departDelay="0.00" arrival="43.00" arrivalLane="E2_0" arrivalPos="100.00" arrivalSpeed="12.91" duration="26.00" routeLength="294.90" waitingTime="0.00" waitingCount="0" stopTime="0.00" timeLoss="4.32" rerouteNo="0" devices="tripinfo_flow_0.1" vType="DEFAULT_VEHTYPE" speedFactor="1.00" vaporized=""/>
    <tripinfo id="flow_1.2" depart="8.00" departLane="-E2_0" departPos="5.10" departSpeed="0.00" departDelay="0.00" arrival="47.00" arrivalLane="-E0_0" arrivalPos="100.00" arrivalSpeed="13.66" duration="39.00" routeLength="296.36" waitingTime="7.00" waitingCount="1" stopTime="0.00" timeLoss="17.31" rerouteNo="0" devices="tripinfo_flow_1.2" vType="DEFAULT_VEHTYPE" speedFactor="1.00" vaporized=""/>
    <tripinfo id="flow_0.2" depart="33.00" departLane="E0_0" departPos="5.10" departSpeed="0.00" departDelay="2.00" arrival="59.00" arrivalLane="E2_0" arrivalPos="100.00" arrivalSpeed="12.83" duration="26.00" routeLength="294.90" waitingTime="0.00" waitingCount="0" stopTime="0.00" timeLoss="4.10" rerouteNo="0" devices="tripinfo_flow_0.2" vType="DEFAULT_VEHTYPE" speedFactor="1.00" vaporized=""/>
    <tripinfo id="flow_1.4" depart="15.00" departLane="-E2_0" departPos="5.10" departSpeed="0.00" departDelay="0.00" arrival="61.00" arrivalLane="-E0_0" arrivalPos="100.00" arrivalSpeed="13.57" duration="46.00" routeLength="296.36" waitingTime="17.00" waitingCount="2" stopTime="0.00" timeLoss="30.66" rerouteNo="0" devices="tripinfo_flow_1.4" vType="DEFAULT_VEHTYPE" speedFactor="1.00" vaporized=""/>
    <tripinfo id="flow_0.3" depart="36.00" departLane="E0_0" departPos="5.10" departSpeed="0.00" departDelay="3.00" arrival="61.00" arrivalLane="E2_0" arrivalPos="100.00" arrivalSpeed="12.93" duration="25.00" routeLength="294.90" waitingTime="0.00" waitingCount="0" stopTime="0.00" timeLoss="3.61" rerouteNo="0" devices="tripinfo_flow_0.3" vType="DEFAULT_VEHTYPE" speedFactor="1.00" vaporized=""/>
    <tripinfo id="flow_1.5" depart="24.00" departLane="-E2_0" departPos="5.10" departSpeed="0.00" departDelay="0.00" arrival="64.00" arrivalLane="-E0_0" arrivalPos="100.00" arrivalSpeed="13.56" duration="40.00" routeLength="296.36" waitingTime="14.00" waitingCount="2" stopTime="0.00" timeLoss="24.19" rerouteNo="0" devices="tripinfo_flow_1.5" vType="DEFAULT_VEHTYPE" speedFactor="1.00" vaporized=""/>
    <tripinfo id="flow_0.4" depart="39.00" departLane="E0_0" departPos="5.10" departSpeed="0.00" departDelay="1.00" arrival="65.00" arrivalLane="E2_0" arrivalPos="100.00" arrivalSpeed="13.69" duration="26.00" routeLength="294.90" waitingTime="0.00" waitingCount="0" stopTime="0.00" timeLoss="3.94" rerouteNo="0" devices="tripinfo_flow_0.4" vType="DEFAULT_VEHTYPE" speedFactor="1.00" vaporized=""/>
    <tripinfo id="flow_1.6" depart="36.00" departLane="-E2_0" departPos="5.10" departSpeed="0.00" departDelay="0.00" arrival="73.00" arrivalLane="-E0_0" arrivalPos="100.00" arrivalSpeed="12.84" duration="37.00" routeLength="296.36" waitingTime="3.00" waitingCount="1" stopTime="0.00" timeLoss="15.03" rerouteNo="0" devices="tripinfo_flow_1.6" vType="DEFAULT_VEHTYPE" speedFactor="1.00" vaporized=""/>
    <tripinfo id="flow_1.7" depart="39.00" departLane="-E2_0" departPos="5.10" departSpeed="0.00" departDelay="1.00" arrival="75.00" arrivalLane="-E0_0" arrivalPos="100.00" arrivalSpeed="13.16" duration="36.00" routeLength="296.36" waitingTime="2.00" waitingCount="1" stopTime="0.00" timeLoss="13.82" rerouteNo="0" devices="tripinfo_flow_1.7" vType="DEFAULT_VEHTYPE" speedFactor="1.00" vaporized=""/>
    <tripinfo id="flow_0.5" depart="61.00" departLane="E0_0" departPos="5.10" departSpeed="0.00" departDelay="1.00" arrival="87.00" arrivalLane="E2_0" arrivalPos="100.00" arrivalSpeed="13.29" duration="26.00" routeLength="294.90" waitingTime="0.00" waitingCount="0" stopTime="0.00" timeLoss="4.04" rerouteNo="0" devices="tripinfo_flow_0.5" vType="DEFAULT_VEHTYPE" speedFactor="1.00" vaporized=""/>
    <tripinfo id="flow_1.8" depart="46.00" departLane="-E2_0" departPos="5.10" departSpeed="0.00" departDelay="0.00" arrival="90.00" arrivalLane="-E0_0" arrivalPos="100.00" arrivalSpeed="13.29" duration="44.00" routeLength="296.36" waitingTime="8.00" waitingCount="1" stopTime="0.00" timeLoss="22.14" rerouteNo="0" devices="tripinfo_flow_1.8" vType="DEFAULT_VEHTYPE" speedFactor="1.00" vaporized=""/>
    <tripinfo id="flow_1.9" depart="78.00" departLane="-E2_0" departPos="5.10" departSpeed="0.00" departDelay="0.00" arrival="100.00" arrivalLane="-E0_0" arrivalPos="100.00" arrivalSpeed="13.08" duration="22.00" routeLength="296.36" waitingTime="0.00" waitingCount="0" stopTime="0.00" timeLoss="5.76" rerouteNo="0" devices="tripinfo_flow_1.9" vType="DEFAULT_VEHTYPE" speedFactor="1.00" vaporized=""/>
    <tripinfo id="flow_0.6" depart="75.00" departLane="E0_0" departPos="5.10" departSpeed="0.00" departDelay="4.00" arrival="101.00" arrivalLane="E2_0" arrivalPos="100.00" arrivalSpeed="13.39" duration="26.00" routeLength="294.90" waitingTime="0.00" waitingCount="0" stopTime="0.00" timeLoss="4.45" rerouteNo="0" devices="tripinfo_flow_0.6" vType="DEFAULT_VEHTYPE" speedFactor="1.00" vaporized=""/>
    <tripinfo id="flow_0.7" depart="78.00" departLane="E0_0" departPos="5.10" departSpeed="0.00" departDelay="2.00" arrival="103.00" arrivalLane="E2_0" arrivalPos="100.00" arrivalSpeed="13.67" duration="25.00" routeLength="294.90" waitingTime="0.00" waitingCount="0" stopTime="0.00" timeLoss="3.62" rerouteNo="0" devices="tripinfo_flow_0.7" vType="DEFAULT_VEHTYPE" speedFactor="1.00" vaporized=""/>
    <tripinfo id="flow_0.8" depart="100.00" departLane="E0_0" departPos="5.10" departSpeed="0.00" departDelay="0.00" arrival="126.00" arrivalLane="E2_0" arrivalPos="100.00" arrivalSpeed="12.98" duration="26.00" routeLength="294.90" waitingTime="0.00" waitingCount="0" stopTime="0.00" timeLoss="4.39" rerouteNo="0" devices="tripinfo_flow_0.8" vType="DEFAULT_VEHTYPE" speedFactor="1.00" vaporized=""/>
    <tripinfo id="flow_0.9" depart="103.00" departLane="E0_0" departPos="5.10" departSpeed="0.00" departDelay="2.00" arrival="129.00" arrivalLane="E2_0" arrivalPos="100.00" arrivalSpeed="13.09" duration="26.00" routeLength="294.90" waitingTime="0.00" waitingCount="0" stopTime="0.00" timeLoss="4.41" rerouteNo="0" devices="tripinfo_flow_0.9" vType="DEFAULT_VEHTYPE" speedFactor="1.00" vaporized=""/>
    <tripinfo id="flow_0.10" depart="106.00" departLane="E0_0" departPos="5.10" departSpeed="0.00" departDelay="2.00" arrival="132.00" arrivalLane="E2_0" arrivalPos="100.00" arrivalSpeed="12.75" duration="26.00" routeLength="294.90" waitingTime="0.00" waitingCount="0" stopTime="0.00" timeLoss="4.38" rerouteNo="0" devices="tripinfo_flow_0.10" vType="DEFAULT_VEHTYPE" speedFactor="1.00" vaporized=""/>
    <tripinfo id="flow_0.11" depart="109.00" departLane="E0_0" departPos="5.10" departSpeed="0.00" departDelay="4.00" arrival="135.00" arrivalLane="E2_0" arrivalPos="100.00" arrivalSpeed="13.04" duration="26.00" routeLength="294.90" waitingTime="0.00" waitingCount="0" stopTime="0.00" timeLoss="4.16" rerouteNo="0" devices="tripinfo_flow_0.11" vType="DEFAULT_VEHTYPE" speedFactor="1.00" vaporized=""/>
    <tripinfo id="flow_0.12" depart="112.00" departLane="E0_0" departPos="5.10" departSpeed="0.00" departDelay="2.00" arrival="138.00" arrivalLane="E2_0" arrivalPos="100.00" arrivalSpeed="13.31" duration="26.00" routeLength="294.90" waitingTime="0.00" waitingCount="0" stopTime="0.00" timeLoss="4.08" rerouteNo="0" devices="tripinfo_flow_0.12" vType="DEFAULT_VEHTYPE" speedFactor="1.00" vaporized=""/>
    <tripinfo id="flow_0.13" depart="121.00" departLane="E0_0" departPos="5.10" departSpeed="0.00" departDelay="0.00" arrival="146.00" arrivalLane="E2_0" arrivalPos="100.00" arrivalSpeed="12.99" duration="25.00" routeLength="294.90" waitingTime="0.00" waitingCount="0" stopTime="0.00" timeLoss="3.60" rerouteNo="0" devices="tripinfo_flow_0.13" vType="DEFAULT_VEHTYPE" speedFactor="1.00" vaporized=""/>
    <tripinfo id="flow_0.14" depart="124.00" departLane="E0_0" departPos="5.10" departSpeed="0.00" departDelay="2.00" arrival="150.00" arrivalLane="E2_0" arrivalPos="100.00" arrivalSpeed="13.67" duration="26.00" routeLength="294.90" waitingTime="0.00" waitingCount="0" stopTime="0.00" timeLoss="4.08" rerouteNo="0" devices="tripinfo_flow_0.14" vType="DEFAULT_VEHTYPE" speedFactor="1.00" vaporized=""/>
    <tripinfo id="flow_1.11" depart="120.00" departLane="-E2_0" departPos="5.10" departSpeed="0.00" departDelay="0.00" arrival="156.00" arrivalLane="-E0_0" arrivalPos="100.00" arrivalSpeed="13.56" duration="36.00" routeLength="296.36" waitingTime="15.00" waitingCount="1" stopTime="0.00" timeLoss="24.28" rerouteNo="0" devices="tripinfo_flow_1.11" vType="DEFAULT_VEHTYPE" speedFactor="1.00" vaporized=""/>
    <tripinfo id="flow_1.10" depart="92.00" departLane="-E2_0" departPos="5.10" departSpeed="0.00" departDelay="0.00" arrival="159.00" arrivalLane="-E0_0" arrivalPos="100.00" arrivalSpeed="12.77" duration="67.00" routeLength="296.36" waitingTime="43.00" waitingCount="1" stopTime="0.00" timeLoss="50.52" rerouteNo="0" devices="tripinfo_flow_1.10" vType="DEFAULT_VEHTYPE" speedFactor="1.00" vaporized=""/>
    <tripinfo id="flow_0.15" depart="135.00" departLane="E0_0" departPos="5.10" departSpeed="0.00" departDelay="0.00" arrival="161.00" arrivalLane="E2_0" arrivalPos="100.00" arrivalSpeed="13.26" duration="26.00" routeLength="294.90" waitingTime="0.00" waitingCount="0" stopTime="0.00" timeLoss="4.01" rerouteNo="0" devices="tripinfo_flow_0.15" vType="DEFAULT_VEHTYPE" speedFactor="1.00" vaporized=""/>
    <tripinfo id="flow_0.16" depart="151.00" departLane="E0_0" departPos="5.10" departSpeed="0.00" departDelay="0.00" arrival="177.00" arrivalLane="E2_0" arrivalPos="100.00" arrivalSpeed="12.98" duration="26.00" routeLength="294.90" waitingTime="0.00" waitingCount="0" stopTime="0.00" timeLoss="4.37" rerouteNo="0" devices="tripinfo_flow_0.16" vType="DEFAULT_VEHTYPE" speedFactor="1.00" vaporized=""/>
    <tripinfo id="flow_0.17" depart="156.00" departLane="E0_0" departPos="5.10" departSpeed="0.00" departDelay="1.00" arrival="181.00" arrivalLane="E2_0" arrivalPos="100.00" arrivalSpeed="12.99" duration="25.00" routeLength="294.90" waitingTime="0.00" waitingCount="0" stopTime="0.00" timeLoss="3.60" rerouteNo="0" devices="tripinfo_flow_0.17" vType="DEFAULT_VEHTYPE" speedFactor="1.00" vaporized=""/>
    <tripinfo id="flow_0.18" depart="159.00" departLane="E0_0" departPos="5.10" departSpeed="0.00" departDelay="2.00" arrival="184.00" arrivalLane="E2_0" arrivalPos="100.00" arrivalSpeed="12.79" duration="25.00" routeLength="294.90" waitingTime="0.00" waitingCount="0" stopTime="0.00" timeLoss="3.64" rerouteNo="0" devices="tripinfo_flow_0.18" vType="DEFAULT_VEHTYPE" speedFactor="1.00" vaporized=""/>
    <tripinfo id="flow_1.12" depart="123.00" departLane="-E2_0" departPos="5.10" departSpeed="0.00" departDelay="1.00" arrival="191.00" arrivalLane="-E0_0" arrivalPos="100.00" arrivalSpeed="13.30" duration="68.00" routeLength="296.36" waitingTime="38.00" waitingCount="2" stopTime="0.00" timeLoss="51.41" rerouteNo="0" devices="tripinfo_flow_1.12" vType="DEFAULT_VEHTYPE" speedFactor="1.00" vaporized=""/>
    <tripinfo id="flow_0.19" depart="167.00" departLane="E0_0" departPos="5.10" departSpeed="0.00" departDelay="0.00" arrival="193.00" arrivalLane="E2_0" arrivalPos="100.00" arrivalSpeed="13.09" duration="26.00" routeLength="294.90" waitingTime="0.00" waitingCount="0" stopTime="0.00" timeLoss="3.98" rerouteNo="0" devices="tripinfo_flow_0.19" vType="DEFAULT_VEHTYPE" speedFactor="1.00" vaporized=""/>
    <tripinfo id="flow_0.20" depart="180.00" departLane="E0_0" departPos="5.10" departSpeed="0.00" departDelay="0.00" arrival="205.00" arrivalLane="E2_0" arrivalPos="100.00" arrivalSpeed="13.37" duration="25.00" routeLength="294.90" waitingTime="0.00" waitingCount="0" stopTime="0.00" timeLoss="3.59" rerouteNo="0" devices="tripinfo_flow_0.20" vType="DEFAULT_VEHTYPE" speedFactor="1.00" vaporized=""/>
    <tripinfo id="flow_0.21" depart="184.00" departLane="E0_0" departPos="5.10" departSpeed="0.00" departDelay="0.00" arrival="210.00" arrivalLane="E2_0" arrivalPos="100.00" arrivalSpeed="12.85" duration="26.00" routeLength="294.90" waitingTime="0.00" waitingCount="0" stopTime="0.00" timeLoss="4.02" rerouteNo="0" devices="tripinfo_flow_0.21" vType="DEFAULT_VEHTYPE" speedFactor="1.00" vaporized=""/>
    <tripinfo id="flow_1.13" depart="126.00" departLane="-E2_0" departPos="5.10" departSpeed="0.00" departDelay="1.00" arrival="212.00" arrivalLane="-E0_0" arrivalPos="100.00" arrivalSpeed="13.56" duration="86.00" routeLength="296.36" waitingTime="52.00" waitingCount="3" stopTime="0.00" timeLoss="70.72" rerouteNo="0" devices="tripinfo_flow_1.13" vType="DEFAULT_VEHTYPE" speedFactor="1.00" vaporized=""/>
    <tripinfo id="flow_0.22" depart="187.00" departLane="E0_0" departPos="5.10" departSpeed="0.00" departDelay="1.00" arrival="212.00" arrivalLane="E2_0" arrivalPos="100.00" arrivalSpeed="13.84" duration="25.00" routeLength="294.90" waitingTime="0.00" waitingCount="0" stopTime="0.00" timeLoss="3.64" rerouteNo="0" devices="tripinfo_flow_0.22" vType="DEFAULT_VEHTYPE" speedFactor="1.00" vaporized=""/>
    <tripinfo id="flow_1.14" depart="138.00" departLane="-E2_0" departPos="5.10" departSpeed="0.00" departDelay="1.00" arrival="215.00" arrivalLane="-E0_0" arrivalPos="100.00" arrivalSpeed="13.18" duration="77.00" routeLength="296.36" waitingTime="41.00" waitingCount="3" stopTime="0.00" timeLoss="60.97" rerouteNo="0" devices="tripinfo_flow_1.14" vType="DEFAULT_VEHTYPE" speedFactor="1.00" vaporized=""/>
    <tripinfo id="flow_0.23" depart="191.00" departLane="E0_0" departPos="5.10" departSpeed="0.00" departDelay="4.00" arrival="217.00" arrivalLane="E2_0" arrivalPos="100.00" arrivalSpeed="13.00" duration="26.00" routeLength="294.90" waitingTime="0.00" waitingCount="0" stopTime="0.00" timeLoss="3.90" rerouteNo="0" devices="tripinfo_flow_0.23" vType="DEFAULT_VEHTYPE" speedFactor="1.00" vaporized=""/>
    <tripinfo id="flow_1.15" depart="141.00" departLane="-E2_0" departPos="5.10" departSpeed="0.00" departDelay="1.00" arrival="224.00" arrivalLane="-E0_0" arrivalPos="100.00" arrivalSpeed="13.44" duration="83.00" routeLength="296.36" waitingTime="37.00" waitingCount="2" stopTime="0.00" timeLoss="61.10" rerouteNo="0" devices="tripinfo_flow_1.15" vType="DEFAULT_VEHTYPE" speedFactor="1.00" vaporized=""/>
    <tripinfo id="flow_1.16" depart="154.00" departLane="-E2_0" departPos="5.10" departSpeed="0.00" departDelay="0.00" arrival="226.00" arrivalLane="-E0_0" arrivalPos="100.00" arrivalSpeed="13.56" duration="72.00" routeLength="296.36" waitingTime="33.00" waitingCount="2" stopTime="0.00" timeLoss="49.93" rerouteNo="0" devices="tripinfo_flow_1.16" vType="DEFAULT_VEHTYPE" speedFactor="1.00" vaporized=""/>
    <tripinfo id="flow_0.24" depart="212.00" departLane="E0_0" departPos="5.10" departSpeed="0.00" departDelay="1.00" arrival="237.00" arrivalLane="E2_0" arrivalPos="100.00" arrivalSpeed="13.66" duration="25.00" routeLength="294.90" waitingTime="0.00" waitingCount="0" stopTime="0.00" timeLoss="3.39" rerouteNo="0" devices="tripinfo_flow_0.24" vType="DEFAULT_VEHTYPE" speedFactor="1.00" vaporized=""/>
    <tripinfo id="flow_1.17" depart="158.00" departLane="-E2_0" departPos="5.10" departSpeed="0.00" departDelay="0.00" arrival="241.00" arrivalLane="-E0_0" arrivalPos="100.00" arrivalSpeed="13.10" duration="83.00" routeLength="296.36" waitingTime="36.00" waitingCount="3" stopTime="0.00" timeLoss="61.63" rerouteNo="0" devices="tripinfo_flow_1.17" vType="DEFAULT_VEHTYPE" speedFactor="1.00" vaporized=""/>
    <tripinfo id="flow_1.18" depart="161.00" departLane="-E2_0" departPos="5.10" departSpeed="0.00" departDelay="2.00" arrival="243.00" arrivalLane="-E0_0" arrivalPos="100.00" arrivalSpeed="13.15" duration="82.00" routeLength="296.36" waitingTime="33.00" waitingCount="3" stopTime="0.00" timeLoss="60.60" rerouteNo="0" devices="tripinfo_flow_1.18" vType="DEFAULT_VEHTYPE" speedFactor="1.00" vaporized=""/>
    <tripinfo id="flow_1.19" depart="168.00" departLane="-E2_0" departPos="5.10" departSpeed="0.00" departDelay="0.00" arrival="245.00" arrivalLane="-E0_0" arrivalPos="100.00" arrivalSpeed="13.20" duration="77.00" routeLength="296.36" waitingTime="29.00" waitingCount="3" stopTime="0.00" timeLoss="55.50" rerouteNo="0" devices="tripinfo_flow_1.19" vType="DEFAULT_VEHTYPE" speedFactor="1.00" vaporized=""/>
    <tripinfo id="flow_1.20" depart="171.00" departLane="-E2_0" departPos="5.10" departSpeed="0.00" departDelay="0.00" arrival="248.00" arrivalLane="-E0_0" arrivalPos="100.00" arrivalSpeed="13.07" duration="77.00" routeLength="296.36" waitingTime="23.00" waitingCount="3" stopTime="0.00" timeLoss="55.23" rerouteNo="0" devices="tripinfo_flow_1.20" vType="DEFAULT_VEHTYPE" speedFactor="1.00" vaporized=""/>
    <tripinfo id="flow_0.25" depart="232.00" departLane="E0_0" departPos="5.10" departSpeed="0.00" departDelay="0.00" arrival="258.00" arrivalLane="E2_0" arrivalPos="100.00" arrivalSpeed="13.77" duration="26.00" routeLength="294.90" waitingTime="0.00" waitingCount="0" stopTime="0.00" timeLoss="3.90" rerouteNo="0" devices="tripinfo_flow_0.25" vType="DEFAULT_VEHTYPE" speedFactor="1.00" vaporized=""/>
    <tripinfo id="flow_0.26" depart="236.00" departLane="E0_0" departPos="5.10" departSpeed="0.00" departDelay="0.00" arrival="262.00" arrivalLane="E2_0" arrivalPos="100.00" arrivalSpeed="12.67" duration="26.00" routeLength="294.90" waitingTime="0.00" waitingCount="0" stopTime="0.00" timeLoss="4.02" rerouteNo="0" devices="tripinfo_flow_0.26" vType="DEFAULT_VEHTYPE" speedFactor="1.00" vaporized=""/>
    <tripinfo id="flow_0.27" depart="241.00" departLane="E0_0" departPos="5.10" departSpeed="0.00" departDelay="1.00" arrival="267.00" arrivalLane="E2_0" arrivalPos="100.00" arrivalSpeed="12.88" duration="26.00" routeLength="294.90" waitingTime="0.00" waitingCount="0" stopTime="0.00" timeLoss="3.85" rerouteNo="0" devices="tripinfo_flow_0.27" vType="DEFAULT_VEHTYPE" speedFactor="1.00" vaporized=""/>
    <tripinfo id="flow_1.22" depart="201.00" departLane="-E2_0" departPos="5.10" departSpeed="0.00" departDelay="0.00" arrival="268.00" arrivalLane="-E0_0" arrivalPos="100.00" arrivalSpeed="13.45" duration="67.00" routeLength="296.36" waitingTime="28.00" waitingCount="3" stopTime="0.00" timeLoss="54.83" rerouteNo="0" devices="tripinfo_flow_1.22" vType="DEFAULT_VEHTYPE" speedFactor="1.00" vaporized=""/>
    <tripinfo id="flow_1.21" depart="197.00" departLane="-E2_0" departPos="5.10" departSpeed="0.00" departDelay="0.00" arrival="271.00" arrivalLane="-E0_0" arrivalPos="100.00" arrivalSpeed="13.00" duration="74.00" routeLength="296.36" waitingTime="32.00" waitingCount="3" stopTime="0.00" timeLoss="57.47" rerouteNo="0" devices="tripinfo_flow_1.21" vType="DEFAULT_VEHTYPE" speedFactor="1.00" vaporized=""/>
    <tripinfo id="flow_0.28" depart="248.00" departLane="E0_0" departPos="5.10" departSpeed="0.00" departDelay="1.00" arrival="273.00" arrivalLane="E2_0" arrivalPos="100.00" arrivalSpeed="13.18" duration="25.00" routeLength="294.90" waitingTime="0.00" waitingCount="0" stopTime="0.00" timeLoss="3.58" rerouteNo="0" devices="tripinfo_flow_0.28" vType="DEFAULT_VEHTYPE" speedFactor="1.00" vaporized=""/>
    <tripinfo id="flow_1.23" depart="223.00" departLane="-E2_0" departPos="5.10" departSpeed="0.00" departDelay="0.00" arrival="281.00" arrivalLane="-E0_0" arrivalPos="100.00" arrivalSpeed="12.82" duration="58.00" routeLength="296.36" waitingTime="22.00" waitingCount="1" stopTime="0.00" timeLoss="36.44" rerouteNo="0" devices="tripinfo_flow_1.23" vType="DEFAULT_VEHTYPE" speedFactor="1.00" vaporized=""/>
    <tripinfo id="flow_1.24" depart="247.00" departLane="-E2_0" departPos="5.10" departSpeed="0.00" departDelay="0.00" arrival="283.00" arrivalLane="-E0_0" arrivalPos="100.00" arrivalSpeed="13.75" duration="36.00" routeLength="296.36" waitingTime="2.00" waitingCount="1" stopTime="0.00" timeLoss="14.35" rerouteNo="0" devices="tripinfo_flow_1.24" vType="DEFAULT_VEHTYPE" speedFactor="1.00" vaporized=""/>
    <tripinfo id="flow_1.25" depart="255.00" departLane="-E2_0" departPos="5.10" departSpeed="0.00" departDelay="0.00" arrival="286.00" arrivalLane="-E0_0" arrivalPos="100.00" arrivalSpeed="12.97" duration="31.00" routeLength="296.36" waitingTime="0.00" waitingCount="0" stopTime="0.00" timeLoss="9.22" rerouteNo="0" devices="tripinfo_flow_1.25" vType="DEFAULT_VEHTYPE" speedFactor="1.00" vaporized=""/>
    <tripinfo id="flow_0.29" depart="271.00" departLane="E0_0" departPos="5.10" departSpeed="0.00" departDelay="2.00" arrival="297.00" arrivalLane="E2_0" arrivalPos="100.00" arrivalSpeed="12.95" duration="26.00" routeLength="294.90" waitingTime="0.00" waitingCount="0" stopTime="0.00" timeLoss="3.86" rerouteNo="0" devices="tripinfo_flow_0.29" vType="DEFAULT_VEHTYPE" speedFactor="1.00" vaporized=""/>
    <tripinfo id="flow_0.30" depart="281.00" departLane="E0_0" departPos="5.10" departSpeed="0.00" departDelay="1.00" arrival="307.00" arrivalLane="E2_0" arrivalPos="100.00" arrivalSpeed="13.74" duration="26.00" routeLength="294.90" waitingTime="0.00" waitingCount="0" stopTime="0.00" timeLoss="3.93" rerouteNo="0" devices="tripinfo_flow_0.30" vType="DEFAULT_VEHTYPE" speedFactor="1.00" vaporized=""/>
    <tripinfo id="flow_1.26" depart="284.00" departLane="-E2_0" departPos="5.10" departSpeed="0.00" departDelay="0.00" arrival="312.00" arrivalLane="-E0_0" arrivalPos="100.00" arrivalSpeed="12.68" duration="28.00" routeLength="296.36" waitingTime="0.00" waitingCount="0" stopTime="0.00" timeLoss="6.22" rerouteNo="0" devices="tripinfo_flow_1.26" vType="DEFAULT_VEHTYPE" speedFactor="1.00" vaporized=""/>
    <tripinfo id="flow_0.31" depart="296.00" departLane="E0_0" departPos="5.10" departSpeed="0.00" departDelay="0.00" arrival="321.00" arrivalLane="E2_0" arrivalPos="100.00" arrivalSpeed="13.67" duration="25.00" routeLength="294.90" waitingTime="0.00" waitingCount="0" stopTime="0.00" timeLoss="3.68" rerouteNo="0" devices="tripinfo_flow_0.31" vType="DEFAULT_VEHTYPE" speedFactor="1.00" vaporized=""/>
    <tripinfo id="flow_0.32" depart="299.00" departLane="E0_0" departPos="5.10" departSpeed="0.00" departDelay="2.00" arrival="325.00" arrivalLane="E2_0" arrivalPos="100.00" arrivalSpeed="13.07" duration="26.00" routeLength="294.90" waitingTime="0.00" waitingCount="0" stopTime="0.00" timeLoss="4.22" rerouteNo="0" devices="tripinfo_flow_0.32" vType="DEFAULT_VEHTYPE" speedFactor="1.00" vaporized=""/>
    <tripinfo id="flow_1.28" depart="301.00" departLane="-E2_0" departPos="5.10" departSpeed="0.00" departDelay="1.00" arrival="327.00" arrivalLane="-E0_0" arrivalPos="100.00" arrivalSpeed="12.98" duration="26.00" routeLength="296.36" waitingTime="4.00" waitingCount="1" stopTime="0.00" timeLoss="14.13" rerouteNo="0" devices="tripinfo_flow_1.28" vType="DEFAULT_VEHTYPE" speedFactor="1.00" vaporized=""/>
    <tripinfo id="flow_0.33" depart="302.00" departLane="E0_0" departPos="5.10" departSpeed="0.00" departDelay="1.00" arrival="328.00" arrivalLane="E2_0" arrivalPos="100.00" arrivalSpeed="13.51" duration="26.00" routeLength="294.90" waitingTime="0.00" waitingCount="0" stopTime="0.00" timeLoss="4.04" rerouteNo="0" devices="tripinfo_flow_0.33" vType="DEFAULT_VEHTYPE" speedFactor="1.00" vaporized=""/>
    <tripinfo id="flow_1.27" depart="298.00" departLane="-E2_0" departPos="5.10" departSpeed="0.00" departDelay="0.00" arrival="330.00" arrivalLane="-E0_0" arrivalPos="100.00" arrivalSpeed="13.84" duration="32.00" routeLength="296.36" waitingTime="6.00" waitingCount="1" stopTime="0.00" timeLoss="15.31" rerouteNo="0" devices="tripinfo_flow_1.27" vType="DEFAULT_VEHTYPE" speedFactor="1.00" vaporized=""/>
    <tripinfo id="flow_0.34" depart="306.00" departLane="E0_0" departPos="5.10" departSpeed="0.00" departDelay="0.00" arrival="332.00" arrivalLane="E2_0" arrivalPos="100.00" arrivalSpeed="13.41" duration="26.00" routeLength="294.90" waitingTime="0.00" waitingCount="0" stopTime="0.00" timeLoss="4.26" rerouteNo="0" devices="tripinfo_flow_0.34" vType="DEFAULT_VEHTYPE" speedFactor="1.00" vaporized=""/>
    <tripinfo id="flow_0.35" depart="322.00" departLane="E0_0" departPos="5.10" departSpeed="0.00" departDelay="0.00" arrival="348.00" arrivalLane="E2_0" arrivalPos="100.00" arrivalSpeed="13.42" duration="26.00" routeLength="294.90" waitingTime="0.00" waitingCount="0" stopTime="0.00" timeLoss="3.83" rerouteNo="0" devices="tripinfo_flow_0.35" vType="DEFAULT_VEHTYPE" speedFactor="1.00" vaporized=""/>
    <tripinfo id="flow_1.30" depart="332.00" departLane="-E2_0" departPos="5.10" departSpeed="0.00" departDelay="2.00" arrival="352.00" arrivalLane="-E0_0" arrivalPos="100.00" arrivalSpeed="13.13" duration="20.00" routeLength="296.36" waitingTime="0.00" waitingCount="0" stopTime="0.00" timeLoss="4.32" rerouteNo="0" devices="tripinfo_flow_1.30" vType="DEFAULT_VEHTYPE" speedFactor="1.00" vaporized=""/>
    <tripinfo id="flow_0.36" depart="327.00" departLane="E0_0" departPos="5.10" departSpeed="0.00" departDelay="0.00" arrival="353.00" arrivalLane="E2_0" arrivalPos="100.00" arrivalSpeed="13.40" duration="26.00" routeLength="294.90" waitingTime="0.00" waitingCount="0" stopTime="0.00" timeLoss="4.01" rerouteNo="0" devices="tripinfo_flow_0.36" vType="DEFAULT_VEHTYPE" speedFactor="1.00" vaporized=""/>
    <tripinfo id="flow_1.29" depart="328.00" departLane="-E2_0" departPos="5.10" departSpeed="0.00" departDelay="2.00" arrival="356.00" arrivalLane="-E0_0" arrivalPos="100.00" arrivalSpeed="12.90" duration="28.00" routeLength="296.36" waitingTime="0.00" waitingCount="0" stopTime="0.00" timeLoss="6.09" rerouteNo="0" devices="tripinfo_flow_1.29" vType="DEFAULT_VEHTYPE" speedFactor="1.00" vaporized=""/>
    <tripinfo id="flow_1.31" depart="336.00" departLane="-E2_0" departPos="5.10" departSpeed="0.00" departDelay="0.00" arrival="364.00" arrivalLane="-E0_0" arrivalPos="100.00" arrivalSpeed="13.61" duration="28.00" routeLength="296.36" waitingTime="0.00" waitingCount="0" stopTime="0.00" timeLoss="5.96" rerouteNo="0" devices="tripinfo_flow_1.31" vType="DEFAULT_VEHTYPE" speedFactor="1.00" vaporized=""/>
    <tripinfo id="flow_1.32" depart="339.00" departLane="-E2_0" departPos="5.10" departSpeed="0.00" departDelay="0.00" arrival="366.00" arrivalLane="-E0_0" arrivalPos="100.00" arrivalSpeed="13.48" duration="27.00" routeLength="296.36" waitingTime="0.00" waitingCount="0" stopTime="0.00" timeLoss="5.57" rerouteNo="0" devices="tripinfo_flow_1.32" vType="DEFAULT_VEHTYPE" speedFactor="1.00" vaporized=""/>
    <tripinfo id="flow_0.37" depart="359.00" departLane="E0_0" departPos="5.10" departSpeed="0.00" departDelay="0.00" arrival="385.00" arrivalLane="E2_0" arrivalPos="100.00" arrivalSpeed="13.44" duration="26.00" routeLength="294.90" waitingTime="0.00" waitingCount="0" stopTime="0.00" timeLoss="4.24" rerouteNo="0" devices="tripinfo_flow_0.37" vType="DEFAULT_VEHTYPE" speedFactor="1.00" vaporized=""/>