<?xml version="1.0" encoding="UTF-8"?>

<!-- generated on 2023-03-01 13:05:05 by Eclipse SUMO sumo Version v1_16_0+0850-438bb8b
This data file and the accompanying materials
are made available under the terms of the Eclipse Public License v2.0
which accompanies this distribution, and is available at
http://www.eclipse.org/legal/epl-v20.html
This file may also be made available under the following Secondary
Licenses when the conditions for such availability set forth in the Eclipse
Public License 2.0 are satisfied: GNU General Public License, version 2
or later which is available at
https://www.gnu.org/licenses/old-licenses/gpl-2.0-standalone.html
SPDX-License-Identifier: EPL-2.0 OR GPL-2.0-or-later
<configuration xmlns:xsi="http://www.w3.org/2001/XMLSchema-instance" xsi:noNamespaceSchemaLocation="http://sumo.dlr.de/xsd/sumoConfiguration.xsd">

    <input>
        <net-file value="net.net.xml"/>
        <route-files value="input_routes.rou.xml"/>
        <additional-files value="input_additional.add.xml"/>
    </input>

    <output>
        <write-license value="true"/>
    </output>

    <processing>
        <default.speeddev value="0"/>
    </processing>

    <report>
        <xml-validation value="never"/>
        <duration-log.statistics value="true"/>
        <no-step-log value="true"/>
    </report>

</configuration>
-->

<meandata xmlns:xsi="http://www.w3.org/2001/XMLSchema-instance" xsi:noNamespaceSchemaLocation="http://sumo.dlr.de/xsd/meandata_file.xsd">
    <interval begin="0.00" end="600.00" id="ed">
        <edge id=":gneJ1_0" sampledSeconds="219.02" traveltime="0.85" overlapTraveltime="1.22" density="32.59" laneDensity="32.59" occupancy="11.27" waitingTime="0.00" timeLoss="10.26" speed="13.24" speedRelative="0.95" departed="0" arrived="0" entered="179" left="179" laneChangedFrom="0" laneChangedTo="0"/>
        <edge id=":gneJ1_3" sampledSeconds="220.48" traveltime="1.83" overlapTraveltime="2.56" density="31.33" laneDensity="31.33" occupancy="11.08" waitingTime="0.00" timeLoss="76.29" speed="6.53" speedRelative="0.89" departed="0" arrived="0" entered="86" left="86" laneChangedFrom="0" laneChangedTo="0"/>
        <edge id=":gneJ1_4" sampledSeconds="68.24" traveltime="0.87" overlapTraveltime="1.24" density="9.90" laneDensity="4.95" occupancy="1.72" waitingTime="0.00" timeLoss="2.95" speed="13.29" speedRelative="0.96" departed="0" arrived="0" entered="55" left="55" laneChangedFrom="0" laneChangedTo="0"/>
        <edge id=":gneJ2_0" sampledSeconds="6.88" traveltime="1.57" overlapTraveltime="2.29" density="1.27" laneDensity="1.27" occupancy="0.42" waitingTime="0.00" timeLoss="2.45" speed="6.12" speedRelative="0.94" departed="0" arrived="0" entered="3" left="3" laneChangedFrom="0" laneChangedTo="0"/>
        <edge id=":gneJ2_1" sampledSeconds="280.22" traveltime="1.11" overlapTraveltime="1.49" density="32.43" laneDensity="32.43" occupancy="12.03" waitingTime="0.00" timeLoss="17.64" speed="13.02" speedRelative="0.94" departed="0" arrived="0" entered="188" left="188" laneChangedFrom="0" laneChangedTo="0"/>
        <edge id=":gneJ2_5" sampledSeconds="39.01" traveltime="1.12" overlapTraveltime="1.50" density="4.38" laneDensity="4.38" occupancy="1.64" waitingTime="0.00" timeLoss="1.89" speed="13.22" speedRelative="0.95" departed="0" arrived="0" entered="26" left="26" laneChangedFrom="0" laneChangedTo="0"/>
        <edge id=":gneJ2_6" sampledSeconds="561.71" traveltime="68.78" overlapTraveltime="74.56" density="133.33" laneDensity="133.33" occupancy="77.24" waitingTime="519.00" timeLoss="551.47" speed="0.15" speedRelative="0.02" departed="0" arrived="0" entered="8" left="7" laneChangedFrom="0" laneChangedTo="0"/>
        <edge id=":gneJ2_10" sampledSeconds="22.95" traveltime="2.47" overlapTraveltime="3.28" density="4.63" laneDensity="4.63" occupancy="1.30" waitingTime="0.00" timeLoss="14.20" speed="4.05" speedRelative="0.51" departed="0" arrived="0" entered="7" left="7" laneChangedFrom="0" laneChangedTo="0"/>
        <edge id=":gneJ3_0" sampledSeconds="236.13" traveltime="0.86" overlapTraveltime="1.24" density="35.14" laneDensity="35.14" occupancy="12.14" waitingTime="0.00" timeLoss="14.41" speed="13.04" speedRelative="0.94" departed="0" arrived="0" entered="191" left="190" laneChangedFrom="0" laneChangedTo="0"/>
        <edge id=":gneJ3_2" sampledSeconds="16.26" traveltime="1.57" overlapTraveltime="2.32" density="3.00" laneDensity="3.00" occupancy="0.98" waitingTime="0.00" timeLoss="5.68" speed="6.04" speedRelative="0.93" departed="0" arrived="0" entered="7" left="7" laneChangedFrom="0" laneChangedTo="0"/>
        <edge id=":gneJ3_3" sampledSeconds="11.13" traveltime="3.00" overlapTraveltime="3.71" density="1.58" laneDensity="1.58" occupancy="0.49" waitingTime="0.00" timeLoss="5.76" speed="4.51" speedRelative="0.61" departed="0" arrived="0" entered="3" left="3" laneChangedFrom="0" laneChangedTo="0"/>
        <edge id=":gneJ3_4" sampledSeconds="31.78" traveltime="0.85" overlapTraveltime="1.22" density="4.73" laneDensity="4.73" occupancy="1.63" waitingTime="0.00" timeLoss="1.46" speed="13.25" speedRelative="0.95" departed="0" arrived="0" entered="26" left="26" laneChangedFrom="0" laneChangedTo="0"/>
        <edge id=":gneJ5_1" sampledSeconds="17.13" traveltime="1.34" overlapTraveltime="1.84" density="2.55" laneDensity="2.55" occupancy="0.86" waitingTime="0.00" timeLoss="6.25" speed="8.83" speedRelative="0.64" departed="0" arrived="0" entered="10" left="9" laneChangedFrom="0" laneChangedTo="0"/>
        <edge id="-a" sampledSeconds="1309.23" traveltime="7.02" overlapTraveltime="7.40" density="23.51" laneDensity="23.51" occupancy="11.23" waitingTime="0.00" timeLoss="63.77" speed="13.21" speedRelative="0.95" departed="0" arrived="178" entered="179" left="0" laneChangedFrom="0" laneChangedTo="0"/>
        <edge id="-b" sampledSeconds="4080.14" traveltime="21.83" overlapTraveltime="22.21" density="23.55" laneDensity="23.55" occupancy="11.57" waitingTime="0.00" timeLoss="193.88" speed="13.23" speedRelative="0.95" departed="0" arrived="0" entered="188" left="179" laneChangedFrom="0" laneChangedTo="0"/>
        <edge id="-c" sampledSeconds="1387.74" traveltime="6.83" overlapTraveltime="7.22" density="26.05" laneDensity="26.05" occupancy="12.32" waitingTime="0.00" timeLoss="88.50" speed="12.98" speedRelative="0.93" departed="0" arrived="0" entered="193" left="191" laneChangedFrom="0" laneChangedTo="0"/>
        <edge id="-d" sampledSeconds="1921.27" traveltime="10.19" overlapTraveltime="10.57" density="34.51" laneDensity="34.51" occupancy="16.92" waitingTime="0.00" timeLoss="641.71" speed="9.25" speedRelative="0.67" departed="194" arrived="0" entered="0" left="191" laneChangedFrom="0" laneChangedTo="0"/>
        <edge id="a" sampledSeconds="2291.50" traveltime="15.85" overlapTraveltime="16.46" density="41.15" laneDensity="41.15" occupancy="20.19" waitingTime="625.00" timeLoss="1272.98" speed="5.94" speedRelative="0.43" departed="153" arrived="0" entered="0" left="141" laneChangedFrom="0" laneChangedTo="0"/>
        <edge id="b" sampledSeconds="12635.20" traveltime="256.97" overlapTraveltime="258.86" density="72.92" laneDensity="36.46" occupancy="18.19" waitingTime="10061.00" timeLoss="11600.05" speed="1.13" speedRelative="0.08" departed="0" arrived="0" entered="55" left="34" laneChangedFrom="0" laneChangedTo="0"/>
        <edge id="c" sampledSeconds="184.16" traveltime="6.71" overlapTraveltime="7.08" density="3.46" laneDensity="3.46" occupancy="1.64" waitingTime="0.00" timeLoss="8.59" speed="13.24" speedRelative="0.95" departed="0" arrived="0" entered="26" left="26" laneChangedFrom="0" laneChangedTo="0"/>
        <edge id="d" sampledSeconds="249.79" traveltime="7.22" overlapTraveltime="7.60" density="4.49" laneDensity="4.49" occupancy="2.13" waitingTime="0.00" timeLoss="18.39" speed="12.87" speedRelative="0.93" departed="0" arrived="33" entered="33" left="0" laneChangedFrom="0" laneChangedTo="0"/>
        <edge id="e" sampledSeconds="18885.11" traveltime="390.17" overlapTraveltime="393.03" density="53.46" laneDensity="53.46" occupancy="26.68" waitingTime="14181.00" timeLoss="16825.91" speed="1.51" speedRelative="0.11" departed="0" arrived="0" entered="86" left="10" laneChangedFrom="0" laneChangedTo="0"/>
        <edge id="g" sampledSeconds="95.45" traveltime="8.88" overlapTraveltime="9.54" density="1.79" laneDensity="1.79" occupancy="0.83" waitingTime="0.00" timeLoss="27.92" speed="9.83" speedRelative="0.71" departed="0" arrived="0" entered="10" left="10" laneChangedFrom="0" laneChangedTo="0"/>
        <edge id="h" sampledSeconds="68.58" traveltime="7.29" overlapTraveltime="7.67" density="1.23" laneDensity="1.23" occupancy="0.58" waitingTime="0.00" timeLoss="5.60" speed="12.75" speedRelative="0.92" departed="0" arrived="9" entered="9" left="0" laneChangedFrom="0" laneChangedTo="0"/>
    </interval>
    <interval begin="600.00" end="1200.00" id="ed">
        <edge id=":gneJ1_0" sampledSeconds="236.46" traveltime="0.85" overlapTraveltime="1.23" density="35.19" laneDensity="35.19" occupancy="12.16" waitingTime="0.00" timeLoss="11.36" speed="13.22" speedRelative="0.95" departed="0" arrived="0" entered="193" left="193" laneChangedFrom="0" laneChangedTo="0"/>
        <edge id=":gneJ1_3" sampledSeconds="5.64" traveltime="2.72" overlapTraveltime="5.64" density="0.80" laneDensity="0.80" occupancy="0.20" waitingTime="0.00" timeLoss="3.70" speed="2.97" speedRelative="0.41" departed="0" arrived="0" entered="1" left="1" laneChangedFrom="0" laneChangedTo="0"/>
        <edge id=":gneJ1_4" sampledSeconds="74.42" traveltime="0.90" overlapTraveltime="1.28" density="10.80" laneDensity="5.40" occupancy="1.88" waitingTime="0.00" timeLoss="5.57" speed="12.85" speedRelative="0.93" departed="0" arrived="0" entered="58" left="58" laneChangedFrom="0" laneChangedTo="0"/>
        <edge id=":gneJ2_0" sampledSeconds="13.33" traveltime="1.50" overlapTraveltime="2.22" density="2.46" laneDensity="2.46" occupancy="0.81" waitingTime="0.00" timeLoss="4.51" speed="6.32" speedRelative="0.97" departed="0" arrived="0" entered="6" left="6" laneChangedFrom="0" laneChangedTo="0"/>
        <edge id=":gneJ2_1" sampledSeconds="290.96" traveltime="1.14" overlapTraveltime="1.52" density="33.68" laneDensity="33.68" occupancy="12.48" waitingTime="0.00" timeLoss="24.01" speed="12.74" speedRelative="0.92" departed="0" arrived="0" entered="192" left="191" laneChangedFrom="0" laneChangedTo="0"/>
        <edge id=":gneJ2_4" sampledSeconds="65.75" traveltime="1.52" overlapTraveltime="2.27" density="12.14" laneDensity="12.14" occupancy="4.00" waitingTime="0.00" timeLoss="22.95" speed="6.19" speedRelative="0.95" departed="0" arrived="0" entered="29" left="29" laneChangedFrom="0" laneChangedTo="0"/>
        <edge id=":gneJ2_5" sampledSeconds="48.31" traveltime="1.27" overlapTraveltime="1.67" density="5.43" laneDensity="5.43" occupancy="2.02" waitingTime="0.00" timeLoss="6.91" speed="11.90" speedRelative="0.86" departed="0" arrived="0" entered="29" left="29" laneChangedFrom="0" laneChangedTo="0"/>
        <edge id=":gneJ2_6" sampledSeconds="597.93" traveltime="97.96" overlapTraveltime="99.65" density="133.33" laneDensity="133.33" occupancy="82.75" waitingTime="568.00" timeLoss="589.73" speed="0.11" speedRelative="0.01" departed="0" arrived="0" entered="6" left="6" laneChangedFrom="0" laneChangedTo="0"/>
        <edge id=":gneJ2_10" sampledSeconds="18.48" traveltime="2.31" overlapTraveltime="3.08" density="3.73" laneDensity="3.73" occupancy="1.05" waitingTime="0.00" timeLoss="10.84" speed="4.31" speedRelative="0.54" departed="0" arrived="0" entered="6" left="6" laneChangedFrom="0" laneChangedTo="0"/>
        <edge id=":gneJ3_0" sampledSeconds="240.48" traveltime="0.87" overlapTraveltime="1.25" density="35.79" laneDensity="35.79" occupancy="12.38" waitingTime="0.00" timeLoss="16.79" speed="12.92" speedRelative="0.93" departed="0" arrived="0" entered="191" left="192" laneChangedFrom="0" laneChangedTo="0"/>
        <edge id=":gneJ3_2" sampledSeconds="14.60" traveltime="1.68" overlapTraveltime="2.43" density="2.69" laneDensity="2.69" occupancy="0.85" waitingTime="0.00" timeLoss="5.34" speed="5.77" speedRelative="0.89" departed="0" arrived="0" entered="6" left="6" laneChangedFrom="0" laneChangedTo="0"/>
        <edge id=":gneJ3_3" sampledSeconds="22.23" traveltime="3.03" overlapTraveltime="3.71" density="3.16" laneDensity="3.16" occupancy="0.97" waitingTime="0.00" timeLoss="11.96" speed="4.52" speedRelative="0.62" departed="0" arrived="0" entered="6" left="6" laneChangedFrom="0" laneChangedTo="0"/>
        <edge id=":gneJ3_4" sampledSeconds="35.45" traveltime="0.85" overlapTraveltime="1.22" density="5.28" laneDensity="5.28" occupancy="1.82" waitingTime="0.00" timeLoss="1.63" speed="13.25" speedRelative="0.95" departed="0" arrived="0" entered="29" left="29" laneChangedFrom="0" laneChangedTo="0"/>
        <edge id=":gneJ5_0" sampledSeconds="65.89" traveltime="1.54" overlapTraveltime="2.27" density="12.16" laneDensity="12.16" occupancy="4.02" waitingTime="0.00" timeLoss="24.05" speed="6.17" speedRelative="0.95" departed="0" arrived="0" entered="29" left="29" laneChangedFrom="0" laneChangedTo="0"/>
        <edge id=":gneJ5_1" sampledSeconds="32.01" traveltime="1.96" overlapTraveltime="2.53" density="4.76" laneDensity="4.76" occupancy="1.57" waitingTime="0.00" timeLoss="17.24" speed="6.41" speedRelative="0.46" departed="0" arrived="0" entered="12" left="13" laneChangedFrom="0" laneChangedTo="0"/>
        <edge id="-a" sampledSeconds="1401.82" traveltime="7.01" overlapTraveltime="7.39" density="25.18" laneDensity="25.18" occupancy="12.01" waitingTime="0.00" timeLoss="66.66" speed="13.23" speedRelative="0.95" departed="0" arrived="191" entered="193" left="0" laneChangedFrom="0" laneChangedTo="0"/>
        <edge id="-b" sampledSeconds="4263.19" traveltime="21.84" overlapTraveltime="22.22" density="24.60" laneDensity="24.60" occupancy="12.09" waitingTime="0.00" timeLoss="204.58" speed="13.22" speedRelative="0.95" departed="0" arrived="0" entered="191" left="193" laneChangedFrom="0" laneChangedTo="0"/>
        <edge id="-c" sampledSeconds="1444.46" traveltime="6.90" overlapTraveltime="7.32" density="27.11" laneDensity="27.11" occupancy="12.81" waitingTime="0.00" timeLoss="108.10" speed="12.82" speedRelative="0.92" departed="0" arrived="0" entered="198" left="198" laneChangedFrom="0" laneChangedTo="0"/>
        <edge id="-d" sampledSeconds="1924.93" traveltime="10.23" overlapTraveltime="10.61" density="34.57" laneDensity="34.57" occupancy="16.95" waitingTime="0.00" timeLoss="647.11" speed="9.22" speedRelative="0.66" departed="191" arrived="0" entered="0" left="191" laneChangedFrom="0" laneChangedTo="0"/>
        <edge id="a" sampledSeconds="1289.10" traveltime="25.36" overlapTraveltime="25.60" density="23.15" laneDensity="23.15" occupancy="11.47" waitingTime="726.00" timeLoss="934.22" speed="3.82" speedRelative="0.27" departed="47" arrived="0" entered="0" left="59" laneChangedFrom="0" laneChangedTo="0"/>
        <edge id="b" sampledSeconds="12042.59" traveltime="196.25" overlapTraveltime="196.88" density="69.50" laneDensity="34.75" occupancy="17.32" waitingTime="9671.00" timeLoss="10730.65" speed="1.49" speedRelative="0.11" departed="0" arrived="0" entered="58" left="64" laneChangedFrom="0" laneChangedTo="0"/>
        <edge id="c" sampledSeconds="206.31" traveltime="6.73" overlapTraveltime="7.11" density="3.87" laneDensity="3.87" occupancy="1.83" waitingTime="0.00" timeLoss="10.47" speed="13.19" speedRelative="0.95" departed="0" arrived="0" entered="29" left="29" laneChangedFrom="0" laneChangedTo="0"/>
        <edge id="d" sampledSeconds="263.65" traveltime="7.19" overlapTraveltime="7.57" density="4.74" laneDensity="4.74" occupancy="2.25" waitingTime="0.00" timeLoss="18.38" speed="12.92" speedRelative="0.93" departed="0" arrived="35" entered="35" left="0" laneChangedFrom="0" laneChangedTo="0"/>
        <edge id="e" sampledSeconds="42663.74" traveltime="3805.30" overlapTraveltime="3804.56" density="120.76" laneDensity="120.76" occupancy="60.37" waitingTime="34097.00" timeLoss="42178.73" speed="0.16" speedRelative="0.01" departed="0" arrived="0" entered="1" left="12" laneChangedFrom="0" laneChangedTo="0"/>
        <edge id="f" sampledSeconds="710.22" traveltime="23.63" overlapTraveltime="24.49" density="4.05" laneDensity="4.05" occupancy="1.96" waitingTime="0.00" timeLoss="76.13" speed="12.13" speedRelative="0.87" departed="0" arrived="0" entered="29" left="29" laneChangedFrom="0" laneChangedTo="0"/>
        <edge id="g" sampledSeconds="244.92" traveltime="19.30" overlapTraveltime="20.41" density="4.60" laneDensity="4.60" occupancy="2.20" waitingTime="117.00" timeLoss="163.88" speed="4.60" speedRelative="0.33" departed="0" arrived="0" entered="12" left="12" laneChangedFrom="0" laneChangedTo="0"/>
        <edge id="h" sampledSeconds="342.19" traveltime="7.84" overlapTraveltime="8.23" density="6.15" laneDensity="6.15" occupancy="2.89" waitingTime="0.00" timeLoss="49.47" speed="11.88" speedRelative="0.86" departed="0" arrived="42" entered="42" left="0" laneChangedFrom="0" laneChangedTo="0"/>
    </interval>
    <interval begin="1200.00" end="1482.00" id="ed">
        <edge id=":gneJ1_0" sampledSeconds="34.33" traveltime="0.85" overlapTraveltime="1.23" density="10.87" laneDensity="10.87" occupancy="3.76" waitingTime="0.00" timeLoss="1.68" speed="13.21" speedRelative="0.95" departed="0" arrived="0" entered="28" left="28" laneChangedFrom="0" laneChangedTo="0"/>
        <edge id=":gneJ2_0" sampledSeconds="75.36" traveltime="1.53" overlapTraveltime="2.28" density="29.59" laneDensity="29.59" occupancy="9.79" waitingTime="0.00" timeLoss="26.75" speed="6.14" speedRelative="0.94" departed="0" arrived="0" entered="33" left="33" laneChangedFrom="0" laneChangedTo="0"/>
        <edge id=":gneJ2_1" sampledSeconds="35.30" traveltime="1.29" overlapTraveltime="1.69" density="8.69" laneDensity="8.69" occupancy="3.20" waitingTime="0.00" timeLoss="6.15" speed="11.47" speedRelative="0.83" departed="0" arrived="0" entered="20" left="21" laneChangedFrom="0" laneChangedTo="0"/>
        <edge id=":gneJ2_6" sampledSeconds="253.26" traveltime="15.77" overlapTraveltime="16.37" density="133.33" laneDensity="133.33" occupancy="70.79" waitingTime="212.00" timeLoss="232.82" speed="0.67" speedRelative="0.08" departed="0" arrived="0" entered="15" left="16" laneChangedFrom="0" laneChangedTo="0"/>
        <edge id=":gneJ2_10" sampledSeconds="35.44" traveltime="1.53" overlapTraveltime="2.21" density="15.21" laneDensity="15.21" occupancy="4.57" waitingTime="0.00" timeLoss="16.31" speed="5.99" speedRelative="0.75" departed="0" arrived="0" entered="16" left="16" laneChangedFrom="0" laneChangedTo="0"/>
        <edge id=":gneJ3_0" sampledSeconds="23.09" traveltime="0.89" overlapTraveltime="1.28" density="7.31" laneDensity="7.31" occupancy="2.52" waitingTime="0.00" timeLoss="1.98" speed="12.70" speedRelative="0.91" departed="0" arrived="0" entered="18" left="18" laneChangedFrom="0" laneChangedTo="0"/>
        <edge id=":gneJ3_2" sampledSeconds="73.84" traveltime="1.56" overlapTraveltime="2.31" density="29.00" laneDensity="29.00" occupancy="9.50" waitingTime="0.00" timeLoss="26.31" speed="6.08" speedRelative="0.93" departed="0" arrived="0" entered="32" left="32" laneChangedFrom="0" laneChangedTo="0"/>
        <edge id=":gneJ3_3" sampledSeconds="84.35" traveltime="1.84" overlapTraveltime="2.56" density="25.50" laneDensity="25.50" occupancy="8.96" waitingTime="0.00" timeLoss="25.38" speed="6.55" speedRelative="0.89" departed="0" arrived="0" entered="33" left="33" laneChangedFrom="0" laneChangedTo="0"/>
        <edge id=":gneJ5_1" sampledSeconds="91.94" traveltime="1.37" overlapTraveltime="1.88" density="29.11" laneDensity="29.11" occupancy="10.00" waitingTime="0.00" timeLoss="34.79" speed="8.63" speedRelative="0.62" departed="0" arrived="0" entered="49" left="49" laneChangedFrom="0" laneChangedTo="0"/>
        <edge id="-a" sampledSeconds="219.66" traveltime="7.01" overlapTraveltime="7.39" density="8.39" laneDensity="8.39" occupancy="4.00" waitingTime="0.00" timeLoss="10.33" speed="13.24" speedRelative="0.95" departed="0" arrived="31" entered="28" left="0" laneChangedFrom="0" laneChangedTo="0"/>
        <edge id="-b" sampledSeconds="542.88" traveltime="21.88" overlapTraveltime="22.26" density="6.67" laneDensity="6.67" occupancy="3.27" waitingTime="0.00" timeLoss="26.99" speed="13.20" speedRelative="0.95" departed="0" arrived="0" entered="21" left="28" laneChangedFrom="0" laneChangedTo="0"/>
        <edge id="-c" sampledSeconds="444.40" traveltime="7.76" overlapTraveltime="8.47" density="17.75" laneDensity="17.75" occupancy="8.19" waitingTime="0.00" timeLoss="71.77" speed="11.08" speedRelative="0.80" departed="0" arrived="0" entered="51" left="53" laneChangedFrom="0" laneChangedTo="0"/>
        <edge id="-d" sampledSeconds="165.97" traveltime="10.04" overlapTraveltime="10.42" density="6.34" laneDensity="6.34" occupancy="3.10" waitingTime="0.00" timeLoss="53.81" speed="9.39" speedRelative="0.68" departed="15" arrived="0" entered="0" left="18" laneChangedFrom="0" laneChangedTo="0"/>
        <edge id="b" sampledSeconds="3323.65" traveltime="1174.66" overlapTraveltime="1100.04" density="40.81" laneDensity="20.41" occupancy="10.17" waitingTime="2849.00" timeLoss="3253.54" speed="0.27" speedRelative="0.02" departed="0" arrived="0" entered="0" left="15" laneChangedFrom="0" laneChangedTo="0"/>
        <edge id="d" sampledSeconds="266.96" traveltime="8.02" overlapTraveltime="8.40" density="10.20" laneDensity="10.20" occupancy="4.77" waitingTime="0.00" timeLoss="43.25" speed="11.64" speedRelative="0.84" departed="0" arrived="32" entered="32" left="0" laneChangedFrom="0" laneChangedTo="0"/>
        <edge id="e" sampledSeconds="8763.74" traveltime="317.62" overlapTraveltime="315.96" density="52.78" laneDensity="52.78" occupancy="26.31" waitingTime="4934.00" timeLoss="7543.99" speed="1.88" speedRelative="0.14" departed="0" arrived="0" entered="0" left="65" laneChangedFrom="0" laneChangedTo="0"/>
        <edge id="g" sampledSeconds="476.79" traveltime="9.05" overlapTraveltime="9.73" density="19.04" laneDensity="19.04" occupancy="8.82" waitingTime="0.00" timeLoss="145.89" speed="9.64" speedRelative="0.69" departed="0" arrived="0" entered="49" left="49" laneChangedFrom="0" laneChangedTo="0"/>
        <edge id="h" sampledSeconds="370.34" traveltime="7.30" overlapTraveltime="7.69" density="14.15" laneDensity="14.15" occupancy="6.72" waitingTime="0.00" timeLoss="31.05" speed="12.73" speedRelative="0.92" departed="0" arrived="49" entered="49" left="0" laneChangedFrom="0" laneChangedTo="0"/>
    </interval>
</meandata>
