<?xml version="1.0" encoding="UTF-8"?>

<!-- generated on Thu Nov 16 01:31:41 2017 by SUMO Version v0_31_0+1153-8ed35c9
This data file and the accompanying materials
are made available under the terms of the Eclipse Public License v2.0
which accompanies this distribution, and is available at
http://www.eclipse.org/legal/epl-v20.html
SPDX-License-Identifier: EPL-2.0
<configuration xmlns:xsi="http://www.w3.org/2001/XMLSchema-instance" xsi:noNamespaceSchemaLocation="http://sumo.dlr.de/xsd/sumoConfiguration.xsd">

    <input>
        <net-file value="net.net.xml"/>
        <route-files value="input_routes.rou.xml"/>
    </input>

    <output>
        <fcd-output value="fcd.xml"/>
        <tripinfo-output value="tripinfos.xml"/>
    </output>

    <processing>
        <lateral-resolution value="0.8"/>
    </processing>

    <report>
        <xml-validation value="never"/>
        <no-step-log value="true"/>
    </report>

</configuration>
-->

<fcd-export xmlns:xsi="http://www.w3.org/2001/XMLSchema-instance" xsi:noNamespaceSchemaLocation="http://sumo.dlr.de/xsd/fcd_file.xsd">
    <timestep time="0.00">
        <vehicle id="bike" x="20.00" y="-2.93" angle="90.00" type="bike" speed="0.00" pos="20.00" lane="beg_0" slope="0.00"/>
        <vehicle id="car" x="0.00" y="-0.95" angle="90.00" type="car" speed="0.00" pos="0.00" lane="beg_0" slope="0.00"/>
    </timestep>
    <timestep time="1.00">
        <vehicle id="bike" x="20.67" y="-2.93" angle="90.00" type="bike" speed="0.67" pos="20.67" lane="beg_0" slope="0.00"/>
        <vehicle id="car" x="1.67" y="-0.95" angle="90.00" type="car" speed="1.67" pos="1.67" lane="beg_0" slope="0.00"/>
    </timestep>
    <timestep time="2.00">
        <vehicle id="bike" x="22.50" y="-2.93" angle="90.00" type="bike" speed="1.84" pos="22.50" lane="beg_0" slope="0.00"/>
        <vehicle id="car" x="5.31" y="-0.95" angle="90.00" type="car" speed="3.63" pos="5.31" lane="beg_0" slope="0.00"/>
    </timestep>
    <timestep time="3.00">
        <vehicle id="bike" x="25.19" y="-2.93" angle="90.00" type="bike" speed="2.68" pos="25.19" lane="beg_0" slope="0.00"/>
        <vehicle id="car" x="11.49" y="-0.95" angle="90.00" type="car" speed="6.18" pos="11.49" lane="beg_0" slope="0.00"/>
        <vehicle id="car2" x="0.00" y="-2.35" angle="90.00" type="car2" speed="0.00" pos="0.00" lane="beg_0" slope="0.00"/>
    </timestep>
    <timestep time="4.00">
        <vehicle id="bike" x="28.63" y="-2.93" angle="90.00" type="bike" speed="3.44" pos="28.63" lane="beg_0" slope="0.00"/>
        <vehicle id="car" x="19.94" y="-0.95" angle="90.00" type="car" speed="8.46" pos="19.94" lane="beg_0" slope="0.00"/>
        <vehicle id="car2" x="1.89" y="-2.25" angle="89.17" type="car2" speed="1.89" pos="1.89" lane="beg_0" slope="0.00"/>
    </timestep>
    <timestep time="5.00">
        <vehicle id="bike" x="32.82" y="-2.93" angle="90.00" type="bike" speed="4.19" pos="32.82" lane="beg_0" slope="0.00"/>
        <vehicle id="car" x="30.99" y="-0.95" angle="90.00" type="car" speed="11.05" pos="30.99" lane="beg_0" slope="0.00"/>
        <vehicle id="car2" x="5.51" y="-2.15" angle="89.34" type="car2" speed="3.62" pos="5.51" lane="beg_0" slope="0.00"/>
    </timestep>
    <timestep time="6.00">
        <vehicle id="bike" x="37.93" y="-2.93" angle="90.00" type="bike" speed="5.11" pos="37.93" lane="beg_0" slope="0.00"/>
        <vehicle id="car" x="44.05" y="-0.95" angle="90.00" type="car" speed="13.06" pos="44.05" lane="beg_0" slope="0.00"/>
        <vehicle id="car2" x="10.99" y="-2.05" angle="89.45" type="car2" speed="5.48" pos="10.99" lane="beg_0" slope="0.00"/>
    </timestep>
    <timestep time="7.00">
        <vehicle id="bike" x="43.45" y="-2.93" angle="90.00" type="bike" speed="5.52" pos="43.45" lane="beg_0" slope="0.00"/>
        <vehicle id="car" x="57.60" y="-0.95" angle="90.00" type="car" speed="13.55" pos="57.60" lane="beg_0" slope="0.00"/>
        <vehicle id="car2" x="17.93" y="-1.95" angle="89.52" type="car2" speed="6.94" pos="17.93" lane="beg_0" slope="0.00"/>
    </timestep>
    <timestep time="8.00">
        <vehicle id="bike" x="48.59" y="-2.93" angle="90.00" type="bike" speed="5.15" pos="48.59" lane="beg_0" slope="0.00"/>
        <vehicle id="car" x="71.07" y="-0.95" angle="90.00" type="car" speed="13.47" pos="71.07" lane="beg_0" slope="0.00"/>
        <vehicle id="car2" x="27.41" y="-1.85" angle="89.60" type="car2" speed="9.48" pos="27.41" lane="beg_0" slope="0.00"/>
    </timestep>
    <timestep time="9.00">
        <vehicle id="bike" x="53.96" y="-2.93" angle="90.00" type="bike" speed="5.37" pos="53.96" lane="beg_0" slope="0.00"/>
        <vehicle id="car" x="84.29" y="-0.95" angle="90.00" type="car" speed="13.22" pos="84.29" lane="beg_0" slope="0.00"/>
        <vehicle id="car2" x="37.00" y="-1.75" angle="89.61" type="car2" speed="9.59" pos="37.00" lane="beg_0" slope="0.00"/>
    </timestep>
    <timestep time="10.00">
        <vehicle id="bike" x="59.03" y="-2.93" angle="90.00" type="bike" speed="5.06" pos="59.03" lane="beg_0" slope="0.00"/>
        <vehicle id="car" x="96.96" y="-0.95" angle="90.00" type="car" speed="12.67" pos="96.96" lane="beg_0" slope="0.00"/>
        <vehicle id="car2" x="44.92" y="-1.65" angle="89.56" type="car2" speed="7.93" pos="44.92" lane="beg_0" slope="0.00"/>
    </timestep>
    <timestep time="11.00">
        <vehicle id="bike" x="64.25" y="-2.93" angle="90.00" type="bike" speed="5.23" pos="64.25" lane="beg_0" slope="0.00"/>
        <vehicle id="car" x="110.34" y="-0.95" angle="90.00" type="car" speed="13.37" pos="110.34" lane="beg_0" slope="0.00"/>
        <vehicle id="car2" x="52.15" y="-1.55" angle="89.53" type="car2" speed="7.22" pos="52.15" lane="beg_0" slope="0.00"/>
    </timestep>
    <timestep time="12.00">
        <vehicle id="bike" x="69.63" y="-2.93" angle="90.00" type="bike" speed="5.37" pos="69.63" lane="beg_0" slope="0.00"/>
        <vehicle id="car" x="124.18" y="-0.95" angle="90.00" type="car" speed="13.85" pos="124.18" lane="beg_0" slope="0.00"/>
        <vehicle id="car2" x="60.98" y="-1.55" angle="90.00" type="car2" speed="8.83" pos="60.98" lane="beg_0" slope="0.00"/>
    </timestep>
    <timestep time="13.00">
        <vehicle id="bike" x="74.61" y="-2.93" angle="90.00" type="bike" speed="4.98" pos="74.61" lane="beg_0" slope="0.00"/>
        <vehicle id="car" x="137.87" y="-0.95" angle="90.00" type="car" speed="13.68" pos="137.87" lane="beg_0" slope="0.00"/>
        <vehicle id="car2" x="72.37" y="-1.45" angle="89.65" type="car2" speed="11.39" pos="72.37" lane="beg_0" slope="0.00"/>
    </timestep>
    <timestep time="14.00">
        <vehicle id="bike" x="79.97" y="-2.93" angle="90.00" type="bike" speed="5.36" pos="79.97" lane="beg_0" slope="0.00"/>
        <vehicle id="car" x="150.87" y="-0.95" angle="90.00" type="car" speed="13.00" pos="150.87" lane="beg_0" slope="0.00"/>
        <vehicle id="car2" x="86.09" y="-1.45" angle="90.00" type="car2" speed="13.72" pos="86.09" lane="beg_0" slope="0.00"/>
    </timestep>
    <timestep time="15.00">
        <vehicle id="bike" x="84.94" y="-2.93" angle="90.00" type="bike" speed="4.98" pos="84.94" lane="beg_0" slope="0.00"/>
        <vehicle id="car" x="164.59" y="-0.95" angle="90.00" type="car" speed="13.73" pos="164.59" lane="beg_0" slope="0.00"/>
        <vehicle id="car2" x="99.44" y="-1.45" angle="90.00" type="car2" speed="13.36" pos="99.44" lane="beg_0" slope="0.00"/>
    </timestep>
    <timestep time="16.00">
        <vehicle id="bike" x="90.40" y="-2.93" angle="90.00" type="bike" speed="5.45" pos="90.40" lane="beg_0" slope="0.00"/>
        <vehicle id="car" x="178.14" y="-0.95" angle="90.00" type="car" speed="13.55" pos="178.14" lane="beg_0" slope="0.00"/>
        <vehicle id="car2" x="113.04" y="-1.45" angle="90.00" type="car2" speed="13.60" pos="113.04" lane="beg_0" slope="0.00"/>
    </timestep>
    <timestep time="17.00">
        <vehicle id="bike" x="95.47" y="-2.93" angle="90.00" type="bike" speed="5.07" pos="95.47" lane="beg_0" slope="0.00"/>
        <vehicle id="car" x="191.29" y="-0.95" angle="90.00" type="car" speed="13.15" pos="191.29" lane="beg_0" slope="0.00"/>
        <vehicle id="car2" x="126.62" y="-1.45" angle="90.00" type="car2" speed="13.58" pos="126.62" lane="beg_0" slope="0.00"/>
    </timestep>
    <timestep time="18.00">
        <vehicle id="bike" x="100.59" y="-2.93" angle="90.00" type="bike" speed="5.13" pos="100.59" lane="beg_0" slope="0.00"/>
        <vehicle id="car" x="205.06" y="-0.95" angle="90.00" type="car" speed="13.77" pos="205.06" lane="beg_0" slope="0.00"/>
        <vehicle id="car2" x="139.64" y="-1.55" angle="90.32" type="car2" speed="13.02" pos="139.64" lane="beg_0" slope="0.00"/>
    </timestep>
    <timestep time="19.00">
        <vehicle id="bike" x="105.59" y="-2.93" angle="90.00" type="bike" speed="4.99" pos="105.59" lane="beg_0" slope="0.00"/>
        <vehicle id="car" x="218.18" y="-0.95" angle="90.00" type="car" speed="13.11" pos="218.18" lane="beg_0" slope="0.00"/>
        <vehicle id="car2" x="152.63" y="-1.65" angle="90.32" type="car2" speed="12.99" pos="152.63" lane="beg_0" slope="0.00"/>
    </timestep>
    <timestep time="20.00">
        <vehicle id="bike" x="110.85" y="-2.93" angle="90.00" type="bike" speed="5.26" pos="110.85" lane="beg_0" slope="0.00"/>
        <vehicle id="car" x="230.82" y="-0.95" angle="90.00" type="car" speed="12.64" pos="230.82" lane="beg_0" slope="0.00"/>
        <vehicle id="car2" x="166.12" y="-1.75" angle="90.31" type="car2" speed="13.49" pos="166.12" lane="beg_0" slope="0.00"/>
    </timestep>
    <timestep time="21.00">
        <vehicle id="bike" x="115.83" y="-2.93" angle="90.00" type="bike" speed="4.98" pos="115.83" lane="beg_0" slope="0.00"/>
        <vehicle id="car" x="243.96" y="-0.95" angle="90.00" type="car" speed="13.14" pos="243.96" lane="beg_0" slope="0.00"/>
        <vehicle id="car2" x="179.79" y="-1.85" angle="90.31" type="car2" speed="13.67" pos="179.79" lane="beg_0" slope="0.00"/>
    </timestep>
    <timestep time="22.00">
        <vehicle id="bike" x="121.30" y="-2.93" angle="90.00" type="bike" speed="5.46" pos="121.30" lane="beg_0" slope="0.00"/>
        <vehicle id="car" x="257.61" y="-0.95" angle="90.00" type="car" speed="13.65" pos="257.61" lane="beg_0" slope="0.00"/>
        <vehicle id="car2" x="192.85" y="-1.95" angle="90.32" type="car2" speed="13.06" pos="192.85" lane="beg_0" slope="0.00"/>
    </timestep>
    <timestep time="23.00">
        <vehicle id="bike" x="126.52" y="-2.93" angle="90.00" type="bike" speed="5.23" pos="126.52" lane="beg_0" slope="0.00"/>
        <vehicle id="car" x="271.46" y="-0.95" angle="90.00" type="car" speed="13.85" pos="271.46" lane="beg_0" slope="0.00"/>
        <vehicle id="car2" x="206.38" y="-2.05" angle="90.31" type="car2" speed="13.53" pos="206.38" lane="beg_0" slope="0.00"/>
    </timestep>
    <timestep time="24.00">
        <vehicle id="bike" x="131.97" y="-2.93" angle="90.00" type="bike" speed="5.45" pos="131.97" lane="beg_0" slope="0.00"/>
        <vehicle id="car" x="284.14" y="-0.95" angle="90.00" type="car" speed="12.68" pos="284.14" lane="beg_0" slope="0.00"/>
        <vehicle id="car2" x="220.18" y="-2.15" angle="90.30" type="car2" speed="13.80" pos="220.18" lane="beg_0" slope="0.00"/>
    </timestep>
    <timestep time="25.00">
        <vehicle id="bike" x="137.32" y="-2.93" angle="90.00" type="bike" speed="5.35" pos="137.32" lane="beg_0" slope="0.00"/>
        <vehicle id="car" x="296.74" y="-0.95" angle="90.00" type="car" speed="12.60" pos="296.74" lane="beg_0" slope="0.00"/>
        <vehicle id="car2" x="233.66" y="-2.25" angle="90.31" type="car2" speed="13.48" pos="233.66" lane="beg_0" slope="0.00"/>
    </timestep>
    <timestep time="26.00">
        <vehicle id="bike" x="142.75" y="-2.93" angle="90.00" type="bike" speed="5.43" pos="142.75" lane="beg_0" slope="0.00"/>
        <vehicle id="car" x="310.52" y="-0.95" angle="90.00" type="car" speed="13.78" pos="310.52" lane="beg_0" slope="0.00"/>
        <vehicle id="car2" x="246.81" y="-2.35" angle="90.31" type="car2" speed="13.15" pos="246.81" lane="beg_0" slope="0.00"/>
    </timestep>
    <timestep time="27.00">
        <vehicle id="bike" x="148.26" y="-2.93" angle="90.00" type="bike" speed="5.51" pos="148.26" lane="beg_0" slope="0.00"/>
        <vehicle id="car" x="324.18" y="-0.95" angle="90.00" type="car" speed="13.66" pos="324.18" lane="beg_0" slope="0.00"/>
        <vehicle id="car2" x="260.64" y="-2.35" angle="90.00" type="car2" speed="13.83" pos="260.64" lane="beg_0" slope="0.00"/>
    </timestep>
    <timestep time="28.00">
        <vehicle id="bike" x="153.64" y="-2.93" angle="90.00" type="bike" speed="5.38" pos="153.64" lane="beg_0" slope="0.00"/>
        <vehicle id="car" x="337.13" y="-0.95" angle="90.00" type="car" speed="12.95" pos="337.13" lane="beg_0" slope="0.00"/>
        <vehicle id="car2" x="274.08" y="-2.35" angle="90.00" type="car2" speed="13.43" pos="274.08" lane="beg_0" slope="0.00"/>
    </timestep>
    <timestep time="29.00">
        <vehicle id="bike" x="158.95" y="-2.93" angle="90.00" type="bike" speed="5.30" pos="158.95" lane="beg_0" slope="0.00"/>
        <vehicle id="car" x="350.74" y="-0.95" angle="90.00" type="car" speed="13.61" pos="350.74" lane="beg_0" slope="0.00"/>
        <vehicle id="car2" x="287.08" y="-2.35" angle="90.00" type="car2" speed="13.01" pos="287.08" lane="beg_0" slope="0.00"/>
    </timestep>
    <timestep time="30.00">
        <vehicle id="bike" x="164.19" y="-2.93" angle="90.00" type="bike" speed="5.25" pos="164.19" lane="beg_0" slope="0.00"/>
        <vehicle id="car" x="363.83" y="-0.95" angle="90.00" type="car" speed="13.09" pos="363.83" lane="beg_0" slope="0.00"/>
        <vehicle id="car2" x="300.47" y="-2.35" angle="90.00" type="car2" speed="13.38" pos="300.47" lane="beg_0" slope="0.00"/>
    </timestep>
    <timestep time="31.00">
        <vehicle id="bike" x="169.50" y="-2.93" angle="90.00" type="bike" speed="5.31" pos="169.50" lane="beg_0" slope="0.00"/>
        <vehicle id="car" x="376.65" y="-0.95" angle="90.00" type="car" speed="12.82" pos="376.65" lane="beg_0" slope="0.00"/>
        <vehicle id="car2" x="313.60" y="-2.35" angle="90.00" type="car2" speed="13.13" pos="313.60" lane="beg_0" slope="0.00"/>
    </timestep>
    <timestep time="32.00">
        <vehicle id="bike" x="175.04" y="-2.93" angle="90.00" type="bike" speed="5.54" pos="175.04" lane="beg_0" slope="0.00"/>
        <vehicle id="car" x="390.07" y="-0.95" angle="90.00" type="car" speed="13.42" pos="390.07" lane="beg_0" slope="0.00"/>
        <vehicle id="car2" x="326.22" y="-2.35" angle="90.00" type="car2" speed="12.62" pos="326.22" lane="beg_0" slope="0.00"/>
    </timestep>
    <timestep time="33.00">
        <vehicle id="bike" x="180.07" y="-2.93" angle="90.00" type="bike" speed="5.03" pos="180.07" lane="beg_0" slope="0.00"/>
        <vehicle id="car" x="403.56" y="-0.95" angle="90.00" type="car" speed="13.50" pos="403.56" lane="beg_0" slope="0.00"/>
        <vehicle id="car2" x="339.97" y="-2.35" angle="90.00" type="car2" speed="13.75" pos="339.97" lane="beg_0" slope="0.00"/>
    </timestep>
    <timestep time="34.00">
        <vehicle id="bike" x="185.33" y="-2.93" angle="90.00" type="bike" speed="5.26" pos="185.33" lane="beg_0" slope="0.00"/>
        <vehicle id="car" x="416.64" y="-0.95" angle="90.00" type="car" speed="13.08" pos="416.64" lane="beg_0" slope="0.00"/>
        <vehicle id="car2" x="352.66" y="-2.35" angle="90.00" type="car2" speed="12.69" pos="352.66" lane="beg_0" slope="0.00"/>
    </timestep>
    <timestep time="35.00">
        <vehicle id="bike" x="190.61" y="-2.93" angle="90.00" type="bike" speed="5.28" pos="190.61" lane="beg_0" slope="0.00"/>
        <vehicle id="car" x="429.98" y="-0.95" angle="90.00" type="car" speed="13.34" pos="429.98" lane="beg_0" slope="0.00"/>
        <vehicle id="car2" x="365.62" y="-2.35" angle="90.00" type="car2" speed="12.97" pos="365.62" lane="beg_0" slope="0.00"/>
    </timestep>
    <timestep time="36.00">
        <vehicle id="bike" x="195.58" y="-2.93" angle="90.00" type="bike" speed="4.97" pos="195.58" lane="beg_0" slope="0.00"/>
        <vehicle id="car" x="442.73" y="-0.95" angle="90.00" type="car" speed="12.75" pos="442.73" lane="beg_0" slope="0.00"/>
        <vehicle id="car2" x="378.77" y="-2.35" angle="90.00" type="car2" speed="13.14" pos="378.77" lane="beg_0" slope="0.00"/>
    </timestep>
    <timestep time="37.00">
        <vehicle id="bike" x="200.93" y="-2.93" angle="90.00" type="bike" speed="5.35" pos="200.93" lane="beg_0" slope="0.00"/>
        <vehicle id="car" x="456.24" y="-0.95" angle="90.00" type="car" speed="13.50" pos="456.24" lane="beg_0" slope="0.00"/>
        <vehicle id="car2" x="392.12" y="-2.35" angle="90.00" type="car2" speed="13.36" pos="392.12" lane="beg_0" slope="0.00"/>
    </timestep>
    <timestep time="38.00">
        <vehicle id="bike" x="206.21" y="-2.93" angle="90.00" type="bike" speed="5.28" pos="206.21" lane="beg_0" slope="0.00"/>
        <vehicle id="car" x="469.22" y="-0.95" angle="90.00" type="car" speed="12.98" pos="469.22" lane="beg_0" slope="0.00"/>
        <vehicle id="car2" x="405.88" y="-2.35" angle="90.00" type="car2" speed="13.76" pos="405.88" lane="beg_0" slope="0.00"/>
    </timestep>
    <timestep time="39.00">
        <vehicle id="bike" x="211.60" y="-2.93" angle="90.00" type="bike" speed="5.39" pos="211.60" lane="beg_0" slope="0.00"/>
        <vehicle id="car" x="482.25" y="-0.95" angle="90.00" type="car" speed="13.03" pos="482.25" lane="beg_0" slope="0.00"/>
        <vehicle id="car2" x="418.76" y="-2.35" angle="90.00" type="car2" speed="12.87" pos="418.76" lane="beg_0" slope="0.00"/>
    </timestep>
    <timestep time="40.00">
        <vehicle id="bike" x="216.72" y="-2.93" angle="90.00" type="bike" speed="5.13" pos="216.72" lane="beg_0" slope="0.00"/>
        <vehicle id="car" x="495.21" y="-0.95" angle="90.00" type="car" speed="12.96" pos="495.21" lane="beg_0" slope="0.00"/>
        <vehicle id="car2" x="432.49" y="-2.35" angle="90.00" type="car2" speed="13.73" pos="432.49" lane="beg_0" slope="0.00"/>
    </timestep>
    <timestep time="41.00">
        <vehicle id="bike" x="222.06" y="-2.93" angle="90.00" type="bike" speed="5.33" pos="222.06" lane="beg_0" slope="0.00"/>
        <vehicle id="car2" x="445.23" y="-2.35" angle="90.00" type="car2" speed="12.74" pos="445.23" lane="beg_0" slope="0.00"/>
    </timestep>
    <timestep time="42.00">
        <vehicle id="bike" x="227.59" y="-2.93" angle="90.00" type="bike" speed="5.53" pos="227.59" lane="beg_0" slope="0.00"/>
        <vehicle id="car2" x="458.50" y="-2.35" angle="90.00" type="car2" speed="13.27" pos="458.50" lane="beg_0" slope="0.00"/>
    </timestep>
    <timestep time="43.00">
        <vehicle id="bike" x="232.74" y="-2.93" angle="90.00" type="bike" speed="5.15" pos="232.74" lane="beg_0" slope="0.00"/>
        <vehicle id="car2" x="471.88" y="-2.35" angle="90.00" type="car2" speed="13.38" pos="471.88" lane="beg_0" slope="0.00"/>
    </timestep>
    <timestep time="44.00">
        <vehicle id="bike" x="237.79" y="-2.93" angle="90.00" type="bike" speed="5.05" pos="237.79" lane="beg_0" slope="0.00"/>
        <vehicle id="car2" x="484.50" y="-2.35" angle="90.00" type="car2" speed="12.62" pos="484.50" lane="beg_0" slope="0.00"/>
    </timestep>
    <timestep time="45.00">
        <vehicle id="bike" x="242.80" y="-2.93" angle="90.00" type="bike" speed="5.01" pos="242.80" lane="beg_0" slope="0.00"/>
        <vehicle id="car2" x="498.19" y="-2.35" angle="90.00" type="car2" speed="13.69" pos="498.19" lane="beg_0" slope="0.00"/>
    </timestep>
    <timestep time="46.00">
        <vehicle id="bike" x="247.96" y="-2.93" angle="90.00" type="bike" speed="5.16" pos="247.96" lane="beg_0" slope="0.00"/>
    </timestep>
    <timestep time="47.00">
        <vehicle id="bike" x="253.25" y="-2.93" angle="90.00" type="bike" speed="5.30" pos="253.25" lane="beg_0" slope="0.00"/>
    </timestep>
    <timestep time="48.00">
        <vehicle id="bike" x="258.46" y="-2.93" angle="90.00" type="bike" speed="5.20" pos="258.46" lane="beg_0" slope="0.00"/>
    </timestep>
    <timestep time="49.00">
        <vehicle id="bike" x="263.84" y="-2.93" angle="90.00" type="bike" speed="5.39" pos="263.84" lane="beg_0" slope="0.00"/>
    </timestep>
    <timestep time="50.00">
        <vehicle id="bike" x="269.17" y="-2.93" angle="90.00" type="bike" speed="5.33" pos="269.17" lane="beg_0" slope="0.00"/>
    </timestep>
    <timestep time="51.00">
        <vehicle id="bike" x="274.32" y="-2.93" angle="90.00" type="bike" speed="5.15" pos="274.32" lane="beg_0" slope="0.00"/>
    </timestep>
    <timestep time="52.00">
        <vehicle id="bike" x="279.52" y="-2.93" angle="90.00" type="bike" speed="5.20" pos="279.52" lane="beg_0" slope="0.00"/>
    </timestep>
    <timestep time="53.00">
        <vehicle id="bike" x="284.73" y="-2.93" angle="90.00" type="bike" speed="5.21" pos="284.73" lane="beg_0" slope="0.00"/>
    </timestep>
    <timestep time="54.00">
        <vehicle id="bike" x="290.22" y="-2.93" angle="90.00" type="bike" speed="5.49" pos="290.22" lane="beg_0" slope="0.00"/>
    </timestep>
    <timestep time="55.00">
        <vehicle id="bike" x="295.27" y="-2.93" angle="90.00" type="bike" speed="5.04" pos="295.27" lane="beg_0" slope="0.00"/>
    </timestep>
    <timestep time="56.00">
        <vehicle id="bike" x="300.44" y="-2.93" angle="90.00" type="bike" speed="5.17" pos="300.44" lane="beg_0" slope="0.00"/>
    </timestep>
    <timestep time="57.00">
        <vehicle id="bike" x="305.50" y="-2.93" angle="90.00" type="bike" speed="5.06" pos="305.50" lane="beg_0" slope="0.00"/>
    </timestep>
    <timestep time="58.00">
        <vehicle id="bike" x="310.49" y="-2.93" angle="90.00" type="bike" speed="4.99" pos="310.49" lane="beg_0" slope="0.00"/>
    </timestep>
    <timestep time="59.00">
        <vehicle id="bike" x="315.71" y="-2.93" angle="90.00" type="bike" speed="5.23" pos="315.71" lane="beg_0" slope="0.00"/>
    </timestep>
    <timestep time="60.00">
        <vehicle id="bike" x="321.26" y="-2.93" angle="90.00" type="bike" speed="5.55" pos="321.26" lane="beg_0" slope="0.00"/>
    </timestep>
    <timestep time="61.00">
        <vehicle id="bike" x="326.23" y="-2.93" angle="90.00" type="bike" speed="4.97" pos="326.23" lane="beg_0" slope="0.00"/>
    </timestep>
    <timestep time="62.00">
        <vehicle id="bike" x="331.25" y="-2.93" angle="90.00" type="bike" speed="5.02" pos="331.25" lane="beg_0" slope="0.00"/>
    </timestep>
    <timestep time="63.00">
        <vehicle id="bike" x="336.52" y="-2.93" angle="90.00" type="bike" speed="5.27" pos="336.52" lane="beg_0" slope="0.00"/>
    </timestep>
    <timestep time="64.00">
        <vehicle id="bike" x="341.53" y="-2.93" angle="90.00" type="bike" speed="5.01" pos="341.53" lane="beg_0" slope="0.00"/>
    </timestep>
    <timestep time="65.00">
        <vehicle id="bike" x="346.99" y="-2.93" angle="90.00" type="bike" speed="5.46" pos="346.99" lane="beg_0" slope="0.00"/>
    </timestep>
    <timestep time="66.00">
        <vehicle id="bike" x="352.33" y="-2.93" angle="90.00" type="bike" speed="5.35" pos="352.33" lane="beg_0" slope="0.00"/>
    </timestep>
    <timestep time="67.00">
        <vehicle id="bike" x="357.41" y="-2.93" angle="90.00" type="bike" speed="5.08" pos="357.41" lane="beg_0" slope="0.00"/>
    </timestep>
    <timestep time="68.00">
        <vehicle id="bike" x="362.68" y="-2.93" angle="90.00" type="bike" speed="5.27" pos="362.68" lane="beg_0" slope="0.00"/>
    </timestep>
    <timestep time="69.00">
        <vehicle id="bike" x="368.04" y="-2.93" angle="90.00" type="bike" speed="5.35" pos="368.04" lane="beg_0" slope="0.00"/>
    </timestep>
    <timestep time="70.00">
        <vehicle id="bike" x="373.59" y="-2.93" angle="90.00" type="bike" speed="5.56" pos="373.59" lane="beg_0" slope="0.00"/>
    </timestep>
    <timestep time="71.00">
        <vehicle id="bike" x="378.75" y="-2.93" angle="90.00" type="bike" speed="5.16" pos="378.75" lane="beg_0" slope="0.00"/>
    </timestep>
    <timestep time="72.00">
        <vehicle id="bike" x="383.76" y="-2.93" angle="90.00" type="bike" speed="5.00" pos="383.76" lane="beg_0" slope="0.00"/>
    </timestep>
    <timestep time="73.00">
        <vehicle id="bike" x="389.31" y="-2.93" angle="90.00" type="bike" speed="5.55" pos="389.31" lane="beg_0" slope="0.00"/>
    </timestep>
    <timestep time="74.00">
        <vehicle id="bike" x="394.57" y="-2.93" angle="90.00" type="bike" speed="5.26" pos="394.57" lane="beg_0" slope="0.00"/>
    </timestep>
    <timestep time="75.00">
        <vehicle id="bike" x="399.58" y="-2.93" angle="90.00" type="bike" speed="5.01" pos="399.58" lane="beg_0" slope="0.00"/>
    </timestep>
    <timestep time="76.00">
        <vehicle id="bike" x="404.89" y="-2.93" angle="90.00" type="bike" speed="5.31" pos="404.89" lane="beg_0" slope="0.00"/>
    </timestep>
    <timestep time="77.00">
        <vehicle id="bike" x="410.37" y="-2.93" angle="90.00" type="bike" speed="5.49" pos="410.37" lane="beg_0" slope="0.00"/>
    </timestep>
    <timestep time="78.00">
        <vehicle id="bike" x="415.42" y="-2.93" angle="90.00" type="bike" speed="5.04" pos="415.42" lane="beg_0" slope="0.00"/>
    </timestep>
    <timestep time="79.00">
        <vehicle id="bike" x="420.48" y="-2.93" angle="90.00" type="bike" speed="5.06" pos="420.48" lane="beg_0" slope="0.00"/>
    </timestep>
    <timestep time="80.00">
        <vehicle id="bike" x="425.80" y="-2.93" angle="90.00" type="bike" speed="5.32" pos="425.80" lane="beg_0" slope="0.00"/>
    </timestep>
    <timestep time="81.00">
        <vehicle id="bike" x="430.76" y="-2.93" angle="90.00" type="bike" speed="4.96" pos="430.76" lane="beg_0" slope="0.00"/>
    </timestep>
    <timestep time="82.00">
        <vehicle id="bike" x="436.02" y="-2.93" angle="90.00" type="bike" speed="5.26" pos="436.02" lane="beg_0" slope="0.00"/>
    </timestep>
    <timestep time="83.00">
        <vehicle id="bike" x="441.02" y="-2.93" angle="90.00" type="bike" speed="4.99" pos="441.02" lane="beg_0" slope="0.00"/>
    </timestep>
    <timestep time="84.00">
        <vehicle id="bike" x="446.10" y="-2.93" angle="90.00" type="bike" speed="5.09" pos="446.10" lane="beg_0" slope="0.00"/>
    </timestep>
    <timestep time="85.00">
        <vehicle id="bike" x="451.38" y="-2.93" angle="90.00" type="bike" speed="5.28" pos="451.38" lane="beg_0" slope="0.00"/>
    </timestep>
    <timestep time="86.00">
        <vehicle id="bike" x="456.43" y="-2.93" angle="90.00" type="bike" speed="5.05" pos="456.43" lane="beg_0" slope="0.00"/>
    </timestep>
    <timestep time="87.00">
        <vehicle id="bike" x="461.78" y="-2.93" angle="90.00" type="bike" speed="5.36" pos="461.78" lane="beg_0" slope="0.00"/>
    </timestep>
    <timestep time="88.00">
        <vehicle id="bike" x="467.22" y="-2.93" angle="90.00" type="bike" speed="5.43" pos="467.22" lane="beg_0" slope="0.00"/>
    </timestep>
    <timestep time="89.00">
        <vehicle id="bike" x="472.68" y="-2.93" angle="90.00" type="bike" speed="5.46" pos="472.68" lane="beg_0" slope="0.00"/>
    </timestep>
    <timestep time="90.00">
        <vehicle id="bike" x="477.97" y="-2.93" angle="90.00" type="bike" speed="5.29" pos="477.97" lane="beg_0" slope="0.00"/>
    </timestep>
    <timestep time="91.00">
        <vehicle id="bike" x="483.33" y="-2.93" angle="90.00" type="bike" speed="5.36" pos="483.33" lane="beg_0" slope="0.00"/>
    </timestep>
    <timestep time="92.00">
        <vehicle id="bike" x="488.45" y="-2.93" angle="90.00" type="bike" speed="5.12" pos="488.45" lane="beg_0" slope="0.00"/>
    </timestep>
    <timestep time="93.00">
        <vehicle id="bike" x="493.74" y="-2.93" angle="90.00" type="bike" speed="5.29" pos="493.74" lane="beg_0" slope="0.00"/>
    </timestep>
    <timestep time="94.00">
        <vehicle id="bike" x="499.07" y="-2.93" angle="90.00" type="bike" speed="5.34" pos="499.07" lane="beg_0" slope="0.00"/>
    </timestep>
    <timestep time="95.00"/>
</fcd-export>
