<?xml version="1.0" encoding="UTF-8"?>

<!-- generated on 2022-10-02 14:41:38 by Eclipse SUMO sumo Version v1_14_1+1395-77a6b2a
This data file and the accompanying materials
are made available under the terms of the Eclipse Public License v2.0
which accompanies this distribution, and is available at
http://www.eclipse.org/legal/epl-v20.html
This file may also be made available under the following Secondary
Licenses when the conditions for such availability set forth in the Eclipse
Public License 2.0 are satisfied: GNU General Public License, version 2
or later which is available at
https://www.gnu.org/licenses/old-licenses/gpl-2.0-standalone.html
SPDX-License-Identifier: EPL-2.0 OR GPL-2.0-or-later
<configuration xmlns:xsi="http://www.w3.org/2001/XMLSchema-instance" xsi:noNamespaceSchemaLocation="http://sumo.dlr.de/xsd/sumoConfiguration.xsd">

    <input>
        <net-file value="net.net.xml"/>
        <route-files value="input_routes.rou.xml"/>
        <additional-files value="input_additional.add.xml,input_additional2.add.xml"/>
    </input>

    <output>
        <write-license value="true"/>
        <tripinfo-output.write-unfinished value="true"/>
    </output>

    <time>
        <begin value="0"/>
        <end value="300"/>
        <step-length value="0.1"/>
    </time>

    <processing>
        <default.speeddev value="0"/>
    </processing>

    <report>
        <xml-validation value="never"/>
        <duration-log.statistics value="true"/>
        <no-step-log value="true"/>
    </report>

</configuration>
-->

<meandata xmlns:xsi="http://www.w3.org/2001/XMLSchema-instance" xsi:noNamespaceSchemaLocation="http://sumo.dlr.de/xsd/meandata_file.xsd">
    <interval begin="0.00" end="6.00" id="dump_6">
        <edge id="1/1to2/1" sampledSeconds="14.19" traveltime="32.22" overlapTraveltime="29.77" density="24.59" laneDensity="24.59" occupancy="11.18" waitingTime="0.00" timeLoss="11.73" speed="3.40" speedRelative="0.17" departed="6" arrived="0" entered="0" left="3" laneChangedFrom="0" laneChangedTo="0"/>
        <edge id="2/1to3/1" sampledSeconds="7.13" traveltime="9.90" overlapTraveltime="10.41" density="12.36" laneDensity="12.36" occupancy="5.21" waitingTime="0.00" timeLoss="3.60" speed="9.71" speedRelative="0.50" departed="0" arrived="0" entered="3" left="0" laneChangedFrom="0" laneChangedTo="0"/>
    </interval>
    <interval begin="6.00" end="12.00" id="dump_6">
        <edge id="1/1to2/1" sampledSeconds="28.70" traveltime="16.77" overlapTraveltime="16.59" density="49.77" laneDensity="49.77" occupancy="24.17" waitingTime="0.00" timeLoss="19.78" speed="6.09" speedRelative="0.31" departed="6" arrived="0" entered="0" left="4" laneChangedFrom="0" laneChangedTo="0"/>
        <edge id="2/1to3/1" sampledSeconds="24.00" traveltime="5.95" overlapTraveltime="6.22" density="41.61" laneDensity="41.61" occupancy="19.77" waitingTime="0.00" timeLoss="4.09" speed="16.26" speedRelative="0.83" departed="0" arrived="0" entered="4" left="3" laneChangedFrom="0" laneChangedTo="0"/>
        <edge id="3/1to4/1" sampledSeconds="4.63" traveltime="4.91" overlapTraveltime="5.16" density="8.03" laneDensity="8.03" occupancy="3.71" waitingTime="0.00" timeLoss="0.00" speed="19.60" speedRelative="1.00" departed="0" arrived="0" entered="3" left="0" laneChangedFrom="0" laneChangedTo="0"/>
    </interval>
    <interval begin="12.00" end="18.00" id="dump_6">
        <edge id="1/1to2/1" sampledSeconds="38.84" traveltime="12.10" overlapTraveltime="12.35" density="67.34" laneDensity="67.34" occupancy="32.30" waitingTime="0.00" timeLoss="22.62" speed="8.19" speedRelative="0.42" departed="5" arrived="0" entered="0" left="4" laneChangedFrom="0" laneChangedTo="0"/>
        <edge id="2/1to3/1" sampledSeconds="25.02" traveltime="5.53" overlapTraveltime="5.79" density="43.37" laneDensity="43.37" occupancy="20.67" waitingTime="0.00" timeLoss="2.72" speed="17.47" speedRelative="0.89" departed="0" arrived="0" entered="4" left="4" laneChangedFrom="0" laneChangedTo="0"/>
        <edge id="3/1to4/1" sampledSeconds="21.41" traveltime="4.92" overlapTraveltime="5.17" density="37.12" laneDensity="37.12" occupancy="17.75" waitingTime="0.00" timeLoss="0.06" speed="19.54" speedRelative="1.00" departed="0" arrived="0" entered="4" left="3" laneChangedFrom="0" laneChangedTo="0"/>
        <edge id="4/1to5/1" sampledSeconds="7.45" traveltime="4.90" overlapTraveltime="5.16" density="12.92" laneDensity="12.92" occupancy="6.13" waitingTime="0.00" timeLoss="0.00" speed="19.60" speedRelative="1.00" departed="0" arrived="0" entered="3" left="0" laneChangedFrom="0" laneChangedTo="0"/>
    </interval>
    <interval begin="18.00" end="24.00" id="dump_6">
        <edge id="1/1to2/1" sampledSeconds="33.80" traveltime="8.97" overlapTraveltime="9.26" density="58.60" laneDensity="58.60" occupancy="26.10" waitingTime="0.00" timeLoss="14.96" speed="10.93" speedRelative="0.56" departed="3" arrived="0" entered="0" left="4" laneChangedFrom="0" laneChangedTo="0"/>
        <edge id="2/1to3/1" sampledSeconds="24.33" traveltime="5.30" overlapTraveltime="5.56" density="42.19" laneDensity="42.19" occupancy="20.12" waitingTime="0.00" timeLoss="1.77" speed="18.17" speedRelative="0.93" departed="0" arrived="0" entered="4" left="4" laneChangedFrom="0" laneChangedTo="0"/>
        <edge id="3/1to4/1" sampledSeconds="22.90" traveltime="4.94" overlapTraveltime="5.20" density="39.70" laneDensity="39.70" occupancy="18.85" waitingTime="0.00" timeLoss="0.16" speed="19.46" speedRelative="0.99" departed="0" arrived="0" entered="4" left="5" laneChangedFrom="0" laneChangedTo="0"/>
        <edge id="4/1to5/1" sampledSeconds="21.89" traveltime="4.90" overlapTraveltime="5.16" density="37.96" laneDensity="37.96" occupancy="18.01" waitingTime="0.00" timeLoss="0.00" speed="19.60" speedRelative="1.00" departed="0" arrived="0" entered="5" left="4" laneChangedFrom="0" laneChangedTo="0"/>
        <edge id="5/1to6/1" sampledSeconds="10.84" traveltime="4.90" overlapTraveltime="5.16" density="18.80" laneDensity="18.80" occupancy="8.96" waitingTime="0.00" timeLoss="0.00" speed="19.60" speedRelative="1.00" departed="0" arrived="0" entered="4" left="0" laneChangedFrom="0" laneChangedTo="0"/>
    </interval>
    <interval begin="24.00" end="30.00" id="dump_6">
        <edge id="1/1to2/1" sampledSeconds="25.03" traveltime="8.67" overlapTraveltime="8.88" density="43.40" laneDensity="43.40" occupancy="18.73" waitingTime="0.00" timeLoss="10.48" speed="11.39" speedRelative="0.58" departed="3" arrived="0" entered="0" left="4" laneChangedFrom="0" laneChangedTo="0"/>
        <edge id="2/1to3/1" sampledSeconds="22.08" traveltime="5.14" overlapTraveltime="5.40" density="38.28" laneDensity="38.28" occupancy="18.10" waitingTime="0.00" timeLoss="0.97" speed="18.74" speedRelative="0.96" departed="0" arrived="0" entered="4" left="5" laneChangedFrom="0" laneChangedTo="0"/>
        <edge id="3/1to4/1" sampledSeconds="22.80" traveltime="4.93" overlapTraveltime="5.19" density="39.52" laneDensity="39.52" occupancy="18.76" waitingTime="0.00" timeLoss="0.12" speed="19.50" speedRelative="0.99" departed="0" arrived="0" entered="5" left="4" laneChangedFrom="0" laneChangedTo="0"/>
        <edge id="4/1to5/1" sampledSeconds="22.87" traveltime="4.90" overlapTraveltime="5.16" density="39.65" laneDensity="39.65" occupancy="18.91" waitingTime="0.00" timeLoss="0.00" speed="19.60" speedRelative="1.00" departed="0" arrived="0" entered="4" left="4" laneChangedFrom="0" laneChangedTo="0"/>
        <edge id="5/1to6/1" sampledSeconds="22.24" traveltime="4.90" overlapTraveltime="5.16" density="38.56" laneDensity="38.56" occupancy="18.28" waitingTime="0.00" timeLoss="0.00" speed="19.60" speedRelative="1.00" departed="0" arrived="0" entered="4" left="5" laneChangedFrom="0" laneChangedTo="0"/>
        <edge id="6/1to7/1" sampledSeconds="14.10" traveltime="4.90" overlapTraveltime="5.16" density="24.45" laneDensity="24.45" occupancy="11.59" waitingTime="0.00" timeLoss="0.00" speed="19.60" speedRelative="1.00" departed="0" arrived="0" entered="5" left="1" laneChangedFrom="0" laneChangedTo="0"/>
        <edge id="7/1to8/1" sampledSeconds="0.72" traveltime="4.90" overlapTraveltime="5.16" density="1.25" laneDensity="1.25" occupancy="0.51" waitingTime="0.00" timeLoss="0.00" speed="19.60" speedRelative="1.00" departed="0" arrived="0" entered="1" left="0" laneChangedFrom="0" laneChangedTo="0"/>
    </interval>
    <interval begin="30.00" end="36.00" id="dump_6">
        <edge id="1/1to2/1" sampledSeconds="23.85" traveltime="8.89" overlapTraveltime="9.21" density="41.34" laneDensity="41.34" occupancy="17.69" waitingTime="0.00" timeLoss="10.49" speed="10.98" speedRelative="0.56" departed="2" arrived="0" entered="0" left="2" laneChangedFrom="0" laneChangedTo="0"/>
        <edge id="2/1to3/1" sampledSeconds="14.65" traveltime="5.04" overlapTraveltime="5.29" density="25.40" laneDensity="25.40" occupancy="12.13" waitingTime="0.00" timeLoss="0.37" speed="19.11" speedRelative="0.97" departed="0" arrived="0" entered="2" left="3" laneChangedFrom="0" laneChangedTo="0"/>
        <edge id="3/1to4/1" sampledSeconds="20.70" traveltime="4.92" overlapTraveltime="5.17" density="35.90" laneDensity="35.90" occupancy="17.17" waitingTime="0.00" timeLoss="0.06" speed="19.55" speedRelative="1.00" departed="0" arrived="0" entered="3" left="5" laneChangedFrom="0" laneChangedTo="0"/>
        <edge id="4/1to5/1" sampledSeconds="22.74" traveltime="4.90" overlapTraveltime="5.16" density="39.42" laneDensity="39.42" occupancy="18.72" waitingTime="0.00" timeLoss="0.00" speed="19.60" speedRelative="1.00" departed="0" arrived="0" entered="4" left="5" laneChangedFrom="0" laneChangedTo="0"/>
        <edge id="5/1to6/1" sampledSeconds="22.61" traveltime="4.90" overlapTraveltime="5.16" density="39.20" laneDensity="39.20" occupancy="18.61" waitingTime="0.00" timeLoss="0.00" speed="19.60" speedRelative="1.00" departed="0" arrived="0" entered="5" left="4" laneChangedFrom="0" laneChangedTo="0"/>
        <edge id="6/1to7/1" sampledSeconds="22.45" traveltime="4.90" overlapTraveltime="5.16" density="38.93" laneDensity="38.93" occupancy="18.55" waitingTime="0.00" timeLoss="0.00" speed="19.60" speedRelative="1.00" departed="0" arrived="0" entered="4" left="4" laneChangedFrom="0" laneChangedTo="0"/>
        <edge id="7/1to8/1" sampledSeconds="16.99" traveltime="4.90" overlapTraveltime="5.16" density="29.46" laneDensity="29.46" occupancy="14.06" waitingTime="0.00" timeLoss="0.00" speed="19.60" speedRelative="1.00" departed="0" arrived="0" entered="4" left="2" laneChangedFrom="0" laneChangedTo="0"/>
        <edge id="8/1to9/1" sampledSeconds="1.91" traveltime="4.90" overlapTraveltime="5.16" density="3.31" laneDensity="3.31" occupancy="1.43" waitingTime="0.00" timeLoss="0.00" speed="19.60" speedRelative="1.00" departed="0" arrived="0" entered="2" left="0" laneChangedFrom="0" laneChangedTo="0"/>
    </interval>
    <interval begin="36.00" end="42.00" id="dump_6">
        <edge id="1/1to2/1" sampledSeconds="23.84" traveltime="8.94" overlapTraveltime="9.18" density="41.33" laneDensity="41.33" occupancy="17.81" waitingTime="0.00" timeLoss="10.44" speed="11.01" speedRelative="0.56" departed="3" arrived="0" entered="0" left="3" laneChangedFrom="0" laneChangedTo="0"/>
        <edge id="2/1to3/1" sampledSeconds="14.12" traveltime="5.04" overlapTraveltime="5.30" density="24.48" laneDensity="24.48" occupancy="11.55" waitingTime="0.00" timeLoss="0.37" speed="19.08" speedRelative="0.97" departed="0" arrived="0" entered="3" left="3" laneChangedFrom="0" laneChangedTo="0"/>
        <edge id="3/1to4/1" sampledSeconds="13.76" traveltime="4.92" overlapTraveltime="5.17" density="23.86" laneDensity="23.86" occupancy="11.27" waitingTime="0.00" timeLoss="0.04" speed="19.54" speedRelative="1.00" departed="0" arrived="0" entered="3" left="2" laneChangedFrom="0" laneChangedTo="0"/>
        <edge id="4/1to5/1" sampledSeconds="19.16" traveltime="4.90" overlapTraveltime="5.16" density="33.22" laneDensity="33.22" occupancy="15.83" waitingTime="0.00" timeLoss="0.00" speed="19.60" speedRelative="1.00" departed="0" arrived="0" entered="3" left="4" laneChangedFrom="0" laneChangedTo="0"/>
        <edge id="5/1to6/1" sampledSeconds="22.92" traveltime="4.90" overlapTraveltime="5.16" density="39.73" laneDensity="39.73" occupancy="18.98" waitingTime="0.00" timeLoss="0.00" speed="19.60" speedRelative="1.00" departed="0" arrived="0" entered="4" left="5" laneChangedFrom="0" laneChangedTo="0"/>
        <edge id="6/1to7/1" sampledSeconds="22.77" traveltime="4.90" overlapTraveltime="5.16" density="39.48" laneDensity="39.48" occupancy="18.75" waitingTime="0.00" timeLoss="0.00" speed="19.60" speedRelative="1.00" departed="0" arrived="0" entered="4" left="5" laneChangedFrom="0" laneChangedTo="0"/>
        <edge id="7/1to8/1" sampledSeconds="22.32" traveltime="4.90" overlapTraveltime="5.16" density="38.69" laneDensity="38.69" occupancy="18.35" waitingTime="0.00" timeLoss="0.00" speed="19.60" speedRelative="1.00" departed="0" arrived="0" entered="5" left="4" laneChangedFrom="0" laneChangedTo="0"/>
        <edge id="8/1to9/1" sampledSeconds="19.24" traveltime="4.90" overlapTraveltime="5.16" density="33.35" laneDensity="33.35" occupancy="16.01" waitingTime="0.00" timeLoss="0.00" speed="19.60" speedRelative="1.00" departed="0" arrived="0" entered="4" left="2" laneChangedFrom="0" laneChangedTo="0"/>
        <edge id="9/1to10/1" sampledSeconds="3.79" traveltime="4.90" overlapTraveltime="5.16" density="6.57" laneDensity="6.57" occupancy="3.06" waitingTime="0.00" timeLoss="0.00" speed="19.60" speedRelative="1.00" departed="0" arrived="0" entered="2" left="0" laneChangedFrom="0" laneChangedTo="0"/>
    </interval>
    <interval begin="42.00" end="48.00" id="dump_6">
        <edge id="1/1to2/1" sampledSeconds="24.00" traveltime="8.72" overlapTraveltime="9.00" density="41.62" laneDensity="41.62" occupancy="18.02" waitingTime="0.00" timeLoss="10.24" speed="11.24" speedRelative="0.57" departed="2" arrived="0" entered="0" left="3" laneChangedFrom="0" laneChangedTo="0"/>
        <edge id="10/1to1/1" sampledSeconds="6.37" traveltime="5.03" overlapTraveltime="5.29" density="11.04" laneDensity="11.04" occupancy="5.19" waitingTime="0.00" timeLoss="0.16" speed="19.10" speedRelative="0.97" departed="0" arrived="0" entered="3" left="0" laneChangedFrom="0" laneChangedTo="0"/>
        <edge id="2/1to3/1" sampledSeconds="13.43" traveltime="5.04" overlapTraveltime="5.30" density="23.28" laneDensity="23.28" occupancy="11.17" waitingTime="0.00" timeLoss="0.35" speed="19.09" speedRelative="0.97" departed="0" arrived="0" entered="3" left="2" laneChangedFrom="0" laneChangedTo="0"/>
        <edge id="3/1to4/1" sampledSeconds="13.46" traveltime="4.92" overlapTraveltime="5.18" density="23.34" laneDensity="23.34" occupancy="11.11" waitingTime="0.00" timeLoss="0.04" speed="19.54" speedRelative="1.00" departed="0" arrived="0" entered="2" left="3" laneChangedFrom="0" laneChangedTo="0"/>
        <edge id="4/1to5/1" sampledSeconds="13.82" traveltime="4.91" overlapTraveltime="5.16" density="23.96" laneDensity="23.96" occupancy="11.31" waitingTime="0.00" timeLoss="0.01" speed="19.59" speedRelative="1.00" departed="0" arrived="0" entered="3" left="3" laneChangedFrom="0" laneChangedTo="0"/>
        <edge id="5/1to6/1" sampledSeconds="17.98" traveltime="4.90" overlapTraveltime="5.16" density="31.17" laneDensity="31.17" occupancy="14.70" waitingTime="0.00" timeLoss="0.00" speed="19.60" speedRelative="1.00" departed="0" arrived="0" entered="3" left="4" laneChangedFrom="0" laneChangedTo="0"/>
        <edge id="6/1to7/1" sampledSeconds="22.58" traveltime="4.90" overlapTraveltime="5.16" density="39.16" laneDensity="39.16" occupancy="18.58" waitingTime="0.00" timeLoss="0.00" speed="19.60" speedRelative="1.00" departed="0" arrived="0" entered="5" left="4" laneChangedFrom="0" laneChangedTo="0"/>
        <edge id="7/1to8/1" sampledSeconds="22.92" traveltime="4.90" overlapTraveltime="5.16" density="39.73" laneDensity="39.73" occupancy="18.98" waitingTime="0.00" timeLoss="0.00" speed="19.60" speedRelative="1.00" departed="0" arrived="0" entered="4" left="4" laneChangedFrom="0" laneChangedTo="0"/>
        <edge id="8/1to9/1" sampledSeconds="22.56" traveltime="4.90" overlapTraveltime="5.16" density="39.11" laneDensity="39.11" occupancy="18.56" waitingTime="0.00" timeLoss="0.00" speed="19.60" speedRelative="1.00" departed="0" arrived="0" entered="4" left="5" laneChangedFrom="0" laneChangedTo="0"/>
        <edge id="9/1to10/1" sampledSeconds="20.70" traveltime="4.90" overlapTraveltime="5.16" density="35.88" laneDensity="35.88" occupancy="17.07" waitingTime="0.00" timeLoss="0.00" speed="19.60" speedRelative="1.00" departed="0" arrived="0" entered="5" left="3" laneChangedFrom="0" laneChangedTo="0"/>
    </interval>
    <interval begin="48.00" end="54.00" id="dump_6">
        <edge id="1/1to2/1" sampledSeconds="19.54" traveltime="6.54" overlapTraveltime="6.82" density="33.88" laneDensity="33.88" occupancy="16.15" waitingTime="0.00" timeLoss="4.76" speed="14.83" speedRelative="0.76" departed="0" arrived="0" entered="3" left="2" laneChangedFrom="0" laneChangedTo="0"/>
        <edge id="10/1to1/1" sampledSeconds="24.54" traveltime="6.01" overlapTraveltime="6.37" density="42.54" laneDensity="42.54" occupancy="20.31" waitingTime="0.00" timeLoss="4.68" speed="15.86" speedRelative="0.81" departed="0" arrived="0" entered="4" left="3" laneChangedFrom="0" laneChangedTo="0"/>
        <edge id="2/1to3/1" sampledSeconds="14.25" traveltime="5.05" overlapTraveltime="5.30" density="24.70" laneDensity="24.70" occupancy="11.67" waitingTime="0.00" timeLoss="0.38" speed="19.07" speedRelative="0.97" departed="0" arrived="0" entered="2" left="3" laneChangedFrom="0" laneChangedTo="0"/>
        <edge id="3/1to4/1" sampledSeconds="13.75" traveltime="4.92" overlapTraveltime="5.18" density="23.84" laneDensity="23.84" occupancy="11.26" waitingTime="0.00" timeLoss="0.04" speed="19.54" speedRelative="1.00" departed="0" arrived="0" entered="3" left="3" laneChangedFrom="0" laneChangedTo="0"/>
        <edge id="4/1to5/1" sampledSeconds="13.47" traveltime="4.91" overlapTraveltime="5.16" density="23.35" laneDensity="23.35" occupancy="11.12" waitingTime="0.00" timeLoss="0.01" speed="19.59" speedRelative="1.00" departed="0" arrived="0" entered="3" left="3" laneChangedFrom="0" laneChangedTo="0"/>
        <edge id="5/1to6/1" sampledSeconds="13.20" traveltime="4.90" overlapTraveltime="5.16" density="22.89" laneDensity="22.89" occupancy="11.00" waitingTime="0.00" timeLoss="0.00" speed="19.60" speedRelative="1.00" departed="0" arrived="0" entered="2" left="2" laneChangedFrom="0" laneChangedTo="0"/>
        <edge id="6/1to7/1" sampledSeconds="16.56" traveltime="4.90" overlapTraveltime="5.16" density="28.71" laneDensity="28.71" occupancy="13.69" waitingTime="0.00" timeLoss="0.00" speed="19.60" speedRelative="1.00" departed="0" arrived="0" entered="2" left="4" laneChangedFrom="0" laneChangedTo="0"/>
        <edge id="7/1to8/1" sampledSeconds="22.44" traveltime="4.90" overlapTraveltime="5.16" density="38.91" laneDensity="38.91" occupancy="18.46" waitingTime="0.00" timeLoss="0.00" speed="19.60" speedRelative="1.00" departed="0" arrived="0" entered="4" left="5" laneChangedFrom="0" laneChangedTo="0"/>
        <edge id="8/1to9/1" sampledSeconds="22.73" traveltime="4.91" overlapTraveltime="5.16" density="39.41" laneDensity="39.41" occupancy="18.71" waitingTime="0.00" timeLoss="0.00" speed="19.60" speedRelative="1.00" departed="0" arrived="0" entered="5" left="4" laneChangedFrom="0" laneChangedTo="0"/>
        <edge id="9/1to10/1" sampledSeconds="22.98" traveltime="4.98" overlapTraveltime="5.25" density="39.84" laneDensity="39.84" occupancy="19.00" waitingTime="0.00" timeLoss="0.39" speed="19.26" speedRelative="0.98" departed="0" arrived="0" entered="4" left="4" laneChangedFrom="0" laneChangedTo="0"/>
    </interval>
    <interval begin="54.00" end="60.00" id="dump_6">
        <edge id="1/1to2/1" sampledSeconds="24.25" traveltime="5.49" overlapTraveltime="5.76" density="42.05" laneDensity="42.05" occupancy="20.02" waitingTime="0.00" timeLoss="2.51" speed="17.57" speedRelative="0.90" departed="0" arrived="0" entered="4" left="4" laneChangedFrom="0" laneChangedTo="0"/>
        <edge id="10/1to1/1" sampledSeconds="26.58" traveltime="6.17" overlapTraveltime="6.48" density="46.08" laneDensity="46.08" occupancy="21.97" waitingTime="0.00" timeLoss="5.43" speed="15.60" speedRelative="0.80" departed="0" arrived="0" entered="4" left="4" laneChangedFrom="0" laneChangedTo="0"/>
        <edge id="2/1to3/1" sampledSeconds="17.12" traveltime="5.01" overlapTraveltime="5.27" density="29.69" laneDensity="29.69" occupancy="14.12" waitingTime="0.00" timeLoss="0.35" speed="19.20" speedRelative="0.98" departed="0" arrived="0" entered="4" left="3" laneChangedFrom="0" laneChangedTo="0"/>
        <edge id="3/1to4/1" sampledSeconds="13.31" traveltime="4.92" overlapTraveltime="5.18" density="23.07" laneDensity="23.07" occupancy="11.09" waitingTime="0.00" timeLoss="0.04" speed="19.54" speedRelative="1.00" departed="0" arrived="0" entered="2" left="2" laneChangedFrom="0" laneChangedTo="0"/>
        <edge id="4/1to5/1" sampledSeconds="13.38" traveltime="4.91" overlapTraveltime="5.16" density="23.20" laneDensity="23.20" occupancy="11.05" waitingTime="0.00" timeLoss="0.01" speed="19.59" speedRelative="1.00" departed="0" arrived="0" entered="2" left="2" laneChangedFrom="0" laneChangedTo="0"/>
        <edge id="5/1to6/1" sampledSeconds="13.70" traveltime="4.90" overlapTraveltime="5.16" density="23.76" laneDensity="23.76" occupancy="11.22" waitingTime="0.00" timeLoss="0.00" speed="19.60" speedRelative="1.00" departed="0" arrived="0" entered="3" left="3" laneChangedFrom="0" laneChangedTo="0"/>
        <edge id="6/1to7/1" sampledSeconds="13.77" traveltime="4.90" overlapTraveltime="5.16" density="23.88" laneDensity="23.88" occupancy="11.28" waitingTime="0.00" timeLoss="0.00" speed="19.60" speedRelative="1.00" departed="0" arrived="0" entered="3" left="3" laneChangedFrom="0" laneChangedTo="0"/>
        <edge id="7/1to8/1" sampledSeconds="15.29" traveltime="4.90" overlapTraveltime="5.16" density="26.51" laneDensity="26.51" occupancy="12.59" waitingTime="0.00" timeLoss="0.00" speed="19.60" speedRelative="1.00" departed="0" arrived="0" entered="3" left="3" laneChangedFrom="0" laneChangedTo="0"/>
        <edge id="8/1to9/1" sampledSeconds="21.89" traveltime="4.95" overlapTraveltime="5.22" density="37.96" laneDensity="37.96" occupancy="18.19" waitingTime="0.00" timeLoss="0.24" speed="19.38" speedRelative="0.99" departed="0" arrived="0" entered="3" left="5" laneChangedFrom="0" laneChangedTo="0"/>
        <edge id="9/1to10/1" sampledSeconds="24.07" traveltime="5.37" overlapTraveltime="5.67" density="41.73" laneDensity="41.73" occupancy="19.89" waitingTime="0.00" timeLoss="2.16" speed="17.84" speedRelative="0.91" departed="0" arrived="0" entered="4" left="5" laneChangedFrom="0" laneChangedTo="0"/>
    </interval>
    <interval begin="60.00" end="66.00" id="dump_6">
        <edge id="1/1to2/1" sampledSeconds="24.05" traveltime="5.23" overlapTraveltime="5.49" density="41.70" laneDensity="41.70" occupancy="19.87" waitingTime="0.00" timeLoss="1.44" speed="18.42" speedRelative="0.94" departed="0" arrived="0" entered="4" left="5" laneChangedFrom="0" laneChangedTo="0"/>
        <edge id="10/1to1/1" sampledSeconds="25.95" traveltime="5.84" overlapTraveltime="6.13" density="44.98" laneDensity="44.98" occupancy="21.41" waitingTime="0.00" timeLoss="4.12" speed="16.49" speedRelative="0.84" departed="0" arrived="0" entered="5" left="4" laneChangedFrom="0" laneChangedTo="0"/>
        <edge id="2/1to3/1" sampledSeconds="22.46" traveltime="4.95" overlapTraveltime="5.21" density="38.94" laneDensity="38.94" occupancy="18.50" waitingTime="0.00" timeLoss="0.21" speed="19.42" speedRelative="0.99" departed="0" arrived="0" entered="4" left="4" laneChangedFrom="0" laneChangedTo="0"/>
        <edge id="3/1to4/1" sampledSeconds="18.21" traveltime="4.91" overlapTraveltime="5.17" density="31.58" laneDensity="31.58" occupancy="14.90" waitingTime="0.00" timeLoss="0.02" speed="19.58" speedRelative="1.00" departed="0" arrived="0" entered="5" left="3" laneChangedFrom="0" laneChangedTo="0"/>
        <edge id="4/1to5/1" sampledSeconds="13.85" traveltime="4.91" overlapTraveltime="5.16" density="24.01" laneDensity="24.01" occupancy="11.34" waitingTime="0.00" timeLoss="0.01" speed="19.59" speedRelative="1.00" departed="0" arrived="0" entered="3" left="3" laneChangedFrom="0" laneChangedTo="0"/>
        <edge id="5/1to6/1" sampledSeconds="13.58" traveltime="4.90" overlapTraveltime="5.16" density="23.54" laneDensity="23.54" occupancy="11.21" waitingTime="0.00" timeLoss="0.00" speed="19.60" speedRelative="1.00" departed="0" arrived="0" entered="3" left="3" laneChangedFrom="0" laneChangedTo="0"/>
        <edge id="6/1to7/1" sampledSeconds="13.13" traveltime="4.90" overlapTraveltime="5.16" density="22.77" laneDensity="22.77" occupancy="10.94" waitingTime="0.00" timeLoss="0.00" speed="19.60" speedRelative="1.00" departed="0" arrived="0" entered="2" left="2" laneChangedFrom="0" laneChangedTo="0"/>
        <edge id="7/1to8/1" sampledSeconds="13.44" traveltime="4.90" overlapTraveltime="5.16" density="23.31" laneDensity="23.31" occupancy="11.10" waitingTime="0.00" timeLoss="0.00" speed="19.60" speedRelative="1.00" departed="0" arrived="0" entered="2" left="3" laneChangedFrom="0" laneChangedTo="0"/>
        <edge id="8/1to9/1" sampledSeconds="15.01" traveltime="4.97" overlapTraveltime="5.24" density="26.02" laneDensity="26.02" occupancy="12.21" waitingTime="0.00" timeLoss="0.23" speed="19.30" speedRelative="0.98" departed="0" arrived="0" entered="3" left="3" laneChangedFrom="0" laneChangedTo="0"/>
        <edge id="9/1to10/1" sampledSeconds="23.92" traveltime="5.63" overlapTraveltime="5.94" density="41.48" laneDensity="41.48" occupancy="19.65" waitingTime="0.00" timeLoss="3.16" speed="17.01" speedRelative="0.87" departed="0" arrived="0" entered="4" left="4" laneChangedFrom="0" laneChangedTo="0"/>
    </interval>
    <interval begin="66.00" end="72.00" id="dump_6">
        <edge id="1/1to2/1" sampledSeconds="23.57" traveltime="5.12" overlapTraveltime="5.38" density="40.86" laneDensity="40.86" occupancy="19.30" waitingTime="0.00" timeLoss="0.95" speed="18.81" speedRelative="0.96" departed="0" arrived="0" entered="5" left="4" laneChangedFrom="0" laneChangedTo="0"/>
        <edge id="10/1to1/1" sampledSeconds="24.26" traveltime="5.54" overlapTraveltime="5.81" density="42.05" laneDensity="42.05" occupancy="19.96" waitingTime="0.00" timeLoss="2.73" speed="17.39" speedRelative="0.89" departed="0" arrived="0" entered="3" left="5" laneChangedFrom="0" laneChangedTo="0"/>
        <edge id="2/1to3/1" sampledSeconds="23.02" traveltime="4.94" overlapTraveltime="5.19" density="39.91" laneDensity="39.91" occupancy="18.95" waitingTime="0.00" timeLoss="0.16" speed="19.47" speedRelative="0.99" departed="0" arrived="0" entered="5" left="4" laneChangedFrom="0" laneChangedTo="0"/>
        <edge id="3/1to4/1" sampledSeconds="22.73" traveltime="4.90" overlapTraveltime="5.16" density="39.41" laneDensity="39.41" occupancy="18.82" waitingTime="0.00" timeLoss="0.00" speed="19.60" speedRelative="1.00" departed="0" arrived="0" entered="4" left="5" laneChangedFrom="0" laneChangedTo="0"/>
        <edge id="4/1to5/1" sampledSeconds="19.27" traveltime="4.91" overlapTraveltime="5.16" density="33.41" laneDensity="33.41" occupancy="15.93" waitingTime="0.00" timeLoss="0.00" speed="19.60" speedRelative="1.00" departed="0" arrived="0" entered="4" left="3" laneChangedFrom="0" laneChangedTo="0"/>
        <edge id="5/1to6/1" sampledSeconds="13.74" traveltime="4.90" overlapTraveltime="5.16" density="23.82" laneDensity="23.82" occupancy="11.26" waitingTime="0.00" timeLoss="0.00" speed="19.60" speedRelative="1.00" departed="0" arrived="0" entered="3" left="2" laneChangedFrom="0" laneChangedTo="0"/>
        <edge id="6/1to7/1" sampledSeconds="13.77" traveltime="4.90" overlapTraveltime="5.16" density="23.88" laneDensity="23.88" occupancy="11.28" waitingTime="0.00" timeLoss="0.00" speed="19.60" speedRelative="1.00" departed="0" arrived="0" entered="3" left="3" laneChangedFrom="0" laneChangedTo="0"/>
        <edge id="7/1to8/1" sampledSeconds="13.70" traveltime="4.90" overlapTraveltime="5.16" density="23.76" laneDensity="23.76" occupancy="11.21" waitingTime="0.00" timeLoss="0.00" speed="19.60" speedRelative="1.00" departed="0" arrived="0" entered="3" left="3" laneChangedFrom="0" laneChangedTo="0"/>
        <edge id="8/1to9/1" sampledSeconds="13.51" traveltime="4.90" overlapTraveltime="5.16" density="23.43" laneDensity="23.43" occupancy="11.15" waitingTime="0.00" timeLoss="0.00" speed="19.60" speedRelative="1.00" departed="0" arrived="0" entered="3" left="3" laneChangedFrom="0" laneChangedTo="0"/>
        <edge id="9/1to10/1" sampledSeconds="16.07" traveltime="5.24" overlapTraveltime="5.54" density="27.86" laneDensity="27.86" occupancy="13.28" waitingTime="0.00" timeLoss="1.10" speed="18.26" speedRelative="0.93" departed="0" arrived="0" entered="2" left="3" laneChangedFrom="0" laneChangedTo="0"/>
    </interval>
    <interval begin="72.00" end="78.00" id="dump_6">
        <edge id="1/1to2/1" sampledSeconds="22.54" traveltime="5.03" overlapTraveltime="5.29" density="39.08" laneDensity="39.08" occupancy="18.64" waitingTime="0.00" timeLoss="0.54" speed="19.13" speedRelative="0.98" departed="0" arrived="0" entered="4" left="4" laneChangedFrom="0" laneChangedTo="0"/>
        <edge id="10/1to1/1" sampledSeconds="17.12" traveltime="5.05" overlapTraveltime="5.31" density="29.69" laneDensity="29.69" occupancy="14.05" waitingTime="0.00" timeLoss="0.50" speed="19.03" speedRelative="0.97" departed="0" arrived="0" entered="3" left="4" laneChangedFrom="0" laneChangedTo="0"/>