<?xml version="1.0" encoding="UTF-8"?>

<!-- generated on 2024-11-13 08:22:30 by Eclipse SUMO sumo Version v1_21_0+0731-b53b2227a47
This data file and the accompanying materials
are made available under the terms of the Eclipse Public License v2.0
which accompanies this distribution, and is available at
http://www.eclipse.org/legal/epl-v20.html
This file may also be made available under the following Secondary
Licenses when the conditions for such availability set forth in the Eclipse
Public License 2.0 are satisfied: GNU General Public License, version 2
or later which is available at
https://www.gnu.org/licenses/old-licenses/gpl-2.0-standalone.html
SPDX-License-Identifier: EPL-2.0 OR GPL-2.0-or-later
<sumoConfiguration xmlns:xsi="http://www.w3.org/2001/XMLSchema-instance" xsi:noNamespaceSchemaLocation="http://sumo.dlr.de/xsd/sumoConfiguration.xsd">

    <input>
        <net-file value="net.net.xml"/>
        <route-files value="input_routes.rou.xml"/>
        <additional-files value="input_additional.add.xml,input_additional2.add.xml"/>
    </input>

    <output>
        <write-license value="true"/>
        <tripinfo-output.write-unfinished value="true"/>
    </output>

    <time>
        <begin value="0"/>
        <end value="300"/>
        <step-length value="0.1"/>
    </time>

    <processing>
        <default.speeddev value="0"/>
    </processing>

    <report>
        <xml-validation value="never"/>
        <duration-log.statistics value="true"/>
        <no-step-log value="true"/>
    </report>

</sumoConfiguration>
-->

<meandata xmlns:xsi="http://www.w3.org/2001/XMLSchema-instance" xsi:noNamespaceSchemaLocation="http://sumo.dlr.de/xsd/meandata_file.xsd">
    <interval begin="0.00" end="6.00" id="dump_6">
        <edge id="1/1to2/1" sampledSeconds="14.79" traveltime="45.75" overlapTraveltime="40.77" density="25.64" laneDensity="25.64" occupancy="11.93" waitingTime="0.00" timeLoss="12.92" speed="2.48" speedRelative="0.13" departed="6" arrived="0" entered="0" left="3" laneChangedFrom="0" laneChangedTo="0"/>
        <edge id="2/1to3/1" sampledSeconds="6.31" traveltime="10.04" overlapTraveltime="10.56" density="10.94" laneDensity="10.94" occupancy="4.73" waitingTime="0.00" timeLoss="3.23" speed="9.58" speedRelative="0.49" departed="0" arrived="0" entered="2" left="0" laneChangedFrom="0" laneChangedTo="0"/>
    </interval>
    <interval begin="6.00" end="12.00" id="dump_6">
        <edge id="1/1to2/1" sampledSeconds="34.71" traveltime="34.12" overlapTraveltime="32.78" density="60.19" laneDensity="60.19" occupancy="29.36" waitingTime="0.60" timeLoss="29.25" speed="3.09" speedRelative="0.16" departed="6" arrived="0" entered="0" left="2" laneChangedFrom="0" laneChangedTo="0"/>
        <edge id="2/1to3/1" sampledSeconds="18.64" traveltime="6.53" overlapTraveltime="6.81" density="32.32" laneDensity="32.32" occupancy="15.22" waitingTime="0.00" timeLoss="4.52" speed="14.85" speedRelative="0.76" departed="0" arrived="0" entered="3" left="2" laneChangedFrom="0" laneChangedTo="0"/>
        <edge id="3/1to4/1" sampledSeconds="3.91" traveltime="4.96" overlapTraveltime="5.22" density="6.77" laneDensity="6.77" occupancy="3.16" waitingTime="0.00" timeLoss="0.04" speed="19.39" speedRelative="0.99" departed="0" arrived="0" entered="2" left="0" laneChangedFrom="0" laneChangedTo="0"/>
    </interval>
    <interval begin="12.00" end="18.00" id="dump_6">
        <edge id="1/1to2/1" sampledSeconds="47.52" traveltime="24.02" overlapTraveltime="23.95" density="82.39" laneDensity="82.39" occupancy="40.01" waitingTime="0.30" timeLoss="37.28" speed="4.22" speedRelative="0.22" departed="4" arrived="0" entered="0" left="3" laneChangedFrom="0" laneChangedTo="0"/>
        <edge id="2/1to3/1" sampledSeconds="19.29" traveltime="5.89" overlapTraveltime="6.16" density="33.45" laneDensity="33.45" occupancy="15.89" waitingTime="0.00" timeLoss="3.13" speed="16.42" speedRelative="0.84" departed="0" arrived="0" entered="3" left="3" laneChangedFrom="0" laneChangedTo="0"/>
        <edge id="3/1to4/1" sampledSeconds="15.17" traveltime="5.01" overlapTraveltime="5.26" density="26.29" laneDensity="26.29" occupancy="12.58" waitingTime="0.00" timeLoss="0.30" speed="19.21" speedRelative="0.98" departed="0" arrived="0" entered="3" left="2" laneChangedFrom="0" laneChangedTo="0"/>
        <edge id="4/1to5/1" sampledSeconds="5.67" traveltime="4.91" overlapTraveltime="5.17" density="9.83" laneDensity="9.83" occupancy="4.70" waitingTime="0.00" timeLoss="0.01" speed="19.57" speedRelative="1.00" departed="0" arrived="0" entered="2" left="0" laneChangedFrom="0" laneChangedTo="0"/>
    </interval>
    <interval begin="18.00" end="24.00" id="dump_6">
        <edge id="1/1to2/1" sampledSeconds="41.32" traveltime="15.89" overlapTraveltime="16.18" density="71.64" laneDensity="71.64" occupancy="32.22" waitingTime="0.00" timeLoss="28.15" speed="6.25" speedRelative="0.32" departed="1" arrived="0" entered="0" left="3" laneChangedFrom="0" laneChangedTo="0"/>
        <edge id="2/1to3/1" sampledSeconds="18.22" traveltime="5.89" overlapTraveltime="6.16" density="31.59" laneDensity="31.59" occupancy="14.97" waitingTime="0.00" timeLoss="2.96" speed="16.42" speedRelative="0.84" departed="0" arrived="0" entered="3" left="3" laneChangedFrom="0" laneChangedTo="0"/>
        <edge id="3/1to4/1" sampledSeconds="16.54" traveltime="5.00" overlapTraveltime="5.25" density="28.67" laneDensity="28.67" occupancy="13.65" waitingTime="0.00" timeLoss="0.29" speed="19.25" speedRelative="0.98" departed="0" arrived="0" entered="3" left="4" laneChangedFrom="0" laneChangedTo="0"/>
        <edge id="4/1to5/1" sampledSeconds="15.34" traveltime="4.91" overlapTraveltime="5.17" density="26.60" laneDensity="26.60" occupancy="12.63" waitingTime="0.00" timeLoss="0.03" speed="19.56" speedRelative="1.00" departed="0" arrived="0" entered="3" left="3" laneChangedFrom="0" laneChangedTo="0"/>
        <edge id="5/1to6/1" sampledSeconds="8.12" traveltime="4.91" overlapTraveltime="5.16" density="14.08" laneDensity="14.08" occupancy="6.71" waitingTime="0.00" timeLoss="0.00" speed="19.60" speedRelative="1.00" departed="0" arrived="0" entered="3" left="0" laneChangedFrom="0" laneChangedTo="0"/>
    </interval>
    <interval begin="24.00" end="30.00" id="dump_6">
        <edge id="1/1to2/1" sampledSeconds="34.60" traveltime="12.71" overlapTraveltime="12.99" density="59.98" laneDensity="59.98" occupancy="27.19" waitingTime="0.00" timeLoss="20.86" speed="7.78" speedRelative="0.40" departed="2" arrived="0" entered="0" left="3" laneChangedFrom="0" laneChangedTo="0"/>
        <edge id="2/1to3/1" sampledSeconds="18.08" traveltime="5.62" overlapTraveltime="5.88" density="31.35" laneDensity="31.35" occupancy="14.91" waitingTime="0.00" timeLoss="2.22" speed="17.20" speedRelative="0.88" departed="0" arrived="0" entered="3" left="3" laneChangedFrom="0" laneChangedTo="0"/>
        <edge id="3/1to4/1" sampledSeconds="15.56" traveltime="4.97" overlapTraveltime="5.23" density="26.98" laneDensity="26.98" occupancy="12.81" waitingTime="0.00" timeLoss="0.20" speed="19.35" speedRelative="0.99" departed="0" arrived="0" entered="3" left="3" laneChangedFrom="0" laneChangedTo="0"/>
        <edge id="4/1to5/1" sampledSeconds="16.04" traveltime="4.90" overlapTraveltime="5.16" density="27.80" laneDensity="27.80" occupancy="13.24" waitingTime="0.00" timeLoss="0.00" speed="19.60" speedRelative="1.00" departed="0" arrived="0" entered="3" left="3" laneChangedFrom="0" laneChangedTo="0"/>
        <edge id="5/1to6/1" sampledSeconds="15.57" traveltime="4.91" overlapTraveltime="5.16" density="27.00" laneDensity="27.00" occupancy="12.83" waitingTime="0.00" timeLoss="0.00" speed="19.60" speedRelative="1.00" departed="0" arrived="0" entered="3" left="3" laneChangedFrom="0" laneChangedTo="0"/>
        <edge id="6/1to7/1" sampledSeconds="10.32" traveltime="4.90" overlapTraveltime="5.16" density="17.89" laneDensity="17.89" occupancy="8.50" waitingTime="0.00" timeLoss="0.00" speed="19.60" speedRelative="1.00" departed="0" arrived="0" entered="3" left="1" laneChangedFrom="0" laneChangedTo="0"/>
        <edge id="7/1to8/1" sampledSeconds="0.72" traveltime="4.90" overlapTraveltime="5.16" density="1.25" laneDensity="1.25" occupancy="0.51" waitingTime="0.00" timeLoss="0.00" speed="19.60" speedRelative="1.00" departed="0" arrived="0" entered="1" left="0" laneChangedFrom="0" laneChangedTo="0"/>
    </interval>
    <interval begin="30.00" end="36.00" id="dump_6">
        <edge id="1/1to2/1" sampledSeconds="32.25" traveltime="11.47" overlapTraveltime="11.80" density="55.92" laneDensity="55.92" occupancy="24.91" waitingTime="0.00" timeLoss="18.15" speed="8.57" speedRelative="0.44" departed="3" arrived="0" entered="0" left="3" laneChangedFrom="0" laneChangedTo="0"/>
        <edge id="2/1to3/1" sampledSeconds="16.30" traveltime="5.53" overlapTraveltime="5.79" density="28.27" laneDensity="28.27" occupancy="13.34" waitingTime="0.00" timeLoss="1.79" speed="17.45" speedRelative="0.89" departed="0" arrived="0" entered="3" left="3" laneChangedFrom="0" laneChangedTo="0"/>
        <edge id="3/1to4/1" sampledSeconds="16.47" traveltime="4.96" overlapTraveltime="5.21" density="28.55" laneDensity="28.55" occupancy="13.50" waitingTime="0.00" timeLoss="0.17" speed="19.40" speedRelative="0.99" departed="0" arrived="0" entered="3" left="3" laneChangedFrom="0" laneChangedTo="0"/>
        <edge id="4/1to5/1" sampledSeconds="15.49" traveltime="4.90" overlapTraveltime="5.16" density="26.85" laneDensity="26.85" occupancy="12.67" waitingTime="0.00" timeLoss="0.00" speed="19.60" speedRelative="1.00" departed="0" arrived="0" entered="4" left="3" laneChangedFrom="0" laneChangedTo="0"/>
        <edge id="5/1to6/1" sampledSeconds="16.07" traveltime="4.90" overlapTraveltime="5.16" density="27.87" laneDensity="27.87" occupancy="13.27" waitingTime="0.00" timeLoss="0.00" speed="19.60" speedRelative="1.00" departed="0" arrived="0" entered="3" left="4" laneChangedFrom="0" laneChangedTo="0"/>
        <edge id="6/1to7/1" sampledSeconds="15.81" traveltime="4.90" overlapTraveltime="5.16" density="27.41" laneDensity="27.41" occupancy="13.04" waitingTime="0.00" timeLoss="0.00" speed="19.60" speedRelative="1.00" departed="0" arrived="0" entered="3" left="3" laneChangedFrom="0" laneChangedTo="0"/>
        <edge id="7/1to8/1" sampledSeconds="11.95" traveltime="4.90" overlapTraveltime="5.16" density="20.73" laneDensity="20.73" occupancy="9.92" waitingTime="0.00" timeLoss="0.00" speed="19.60" speedRelative="1.00" departed="0" arrived="0" entered="3" left="1" laneChangedFrom="0" laneChangedTo="0"/>
        <edge id="8/1to9/1" sampledSeconds="1.66" traveltime="4.90" overlapTraveltime="5.16" density="2.88" laneDensity="2.88" occupancy="1.33" waitingTime="0.00" timeLoss="0.00" speed="19.60" speedRelative="1.00" departed="0" arrived="0" entered="1" left="0" laneChangedFrom="0" laneChangedTo="0"/>
    </interval>
    <interval begin="36.00" end="42.00" id="dump_6">
        <edge id="1/1to2/1" sampledSeconds="30.85" traveltime="10.96" overlapTraveltime="11.29" density="53.49" laneDensity="53.49" occupancy="23.75" waitingTime="0.00" timeLoss="16.76" speed="8.96" speedRelative="0.46" departed="3" arrived="0" entered="0" left="3" laneChangedFrom="0" laneChangedTo="0"/>
        <edge id="2/1to3/1" sampledSeconds="16.46" traveltime="5.59" overlapTraveltime="5.84" density="28.54" laneDensity="28.54" occupancy="13.51" waitingTime="0.00" timeLoss="1.92" speed="17.31" speedRelative="0.88" departed="0" arrived="0" entered="3" left="3" laneChangedFrom="0" laneChangedTo="0"/>
        <edge id="3/1to4/1" sampledSeconds="14.49" traveltime="4.90" overlapTraveltime="5.16" density="25.13" laneDensity="25.13" occupancy="11.93" waitingTime="0.00" timeLoss="0.00" speed="19.60" speedRelative="1.00" departed="0" arrived="0" entered="3" left="3" laneChangedFrom="0" laneChangedTo="0"/>
        <edge id="4/1to5/1" sampledSeconds="16.09" traveltime="4.90" overlapTraveltime="5.16" density="27.89" laneDensity="27.89" occupancy="13.32" waitingTime="0.00" timeLoss="0.00" speed="19.60" speedRelative="1.00" departed="0" arrived="0" entered="3" left="3" laneChangedFrom="0" laneChangedTo="0"/>
        <edge id="5/1to6/1" sampledSeconds="15.56" traveltime="4.90" overlapTraveltime="5.16" density="26.97" laneDensity="26.97" occupancy="12.82" waitingTime="0.00" timeLoss="0.00" speed="19.60" speedRelative="1.00" departed="0" arrived="0" entered="3" left="2" laneChangedFrom="0" laneChangedTo="0"/>
        <edge id="6/1to7/1" sampledSeconds="15.76" traveltime="4.90" overlapTraveltime="5.16" density="27.33" laneDensity="27.33" occupancy="13.00" waitingTime="0.00" timeLoss="0.00" speed="19.60" speedRelative="1.00" departed="0" arrived="0" entered="3" left="3" laneChangedFrom="0" laneChangedTo="0"/>
        <edge id="7/1to8/1" sampledSeconds="16.12" traveltime="4.90" overlapTraveltime="5.16" density="27.95" laneDensity="27.95" occupancy="13.31" waitingTime="0.00" timeLoss="0.00" speed="19.60" speedRelative="1.00" departed="0" arrived="0" entered="3" left="3" laneChangedFrom="0" laneChangedTo="0"/>
        <edge id="8/1to9/1" sampledSeconds="13.48" traveltime="4.90" overlapTraveltime="5.16" density="23.37" laneDensity="23.37" occupancy="11.13" waitingTime="0.00" timeLoss="0.00" speed="19.60" speedRelative="1.00" departed="0" arrived="0" entered="3" left="2" laneChangedFrom="0" laneChangedTo="0"/>
        <edge id="9/1to10/1" sampledSeconds="3.05" traveltime="4.90" overlapTraveltime="5.16" density="5.30" laneDensity="5.30" occupancy="2.43" waitingTime="0.00" timeLoss="0.00" speed="19.60" speedRelative="1.00" departed="0" arrived="0" entered="2" left="0" laneChangedFrom="0" laneChangedTo="0"/>
    </interval>
    <interval begin="42.00" end="48.00" id="dump_6">
        <edge id="1/1to2/1" sampledSeconds="28.18" traveltime="10.03" overlapTraveltime="10.41" density="48.86" laneDensity="48.86" occupancy="22.25" waitingTime="0.00" timeLoss="14.22" speed="9.71" speedRelative="0.50" departed="1" arrived="0" entered="0" left="3" laneChangedFrom="0" laneChangedTo="0"/>
        <edge id="10/1to1/1" sampledSeconds="4.93" traveltime="4.90" overlapTraveltime="5.16" density="8.55" laneDensity="8.55" occupancy="4.06" waitingTime="0.00" timeLoss="0.00" speed="19.60" speedRelative="1.00" departed="0" arrived="0" entered="2" left="0" laneChangedFrom="0" laneChangedTo="0"/>
        <edge id="2/1to3/1" sampledSeconds="16.47" traveltime="5.54" overlapTraveltime="5.79" density="28.56" laneDensity="28.56" occupancy="13.63" waitingTime="0.00" timeLoss="1.80" speed="17.45" speedRelative="0.89" departed="0" arrived="0" entered="2" left="3" laneChangedFrom="0" laneChangedTo="0"/>
        <edge id="3/1to4/1" sampledSeconds="14.39" traveltime="4.91" overlapTraveltime="5.16" density="24.96" laneDensity="24.96" occupancy="11.90" waitingTime="0.00" timeLoss="0.01" speed="19.59" speedRelative="1.00" departed="0" arrived="0" entered="3" left="2" laneChangedFrom="0" laneChangedTo="0"/>
        <edge id="4/1to5/1" sampledSeconds="14.46" traveltime="4.90" overlapTraveltime="5.16" density="25.06" laneDensity="25.06" occupancy="11.92" waitingTime="0.00" timeLoss="0.00" speed="19.60" speedRelative="1.00" departed="0" arrived="0" entered="2" left="3" laneChangedFrom="0" laneChangedTo="0"/>
        <edge id="5/1to6/1" sampledSeconds="15.93" traveltime="4.90" overlapTraveltime="5.16" density="27.62" laneDensity="27.62" occupancy="13.04" waitingTime="0.00" timeLoss="0.00" speed="19.60" speedRelative="1.00" departed="0" arrived="0" entered="3" left="4" laneChangedFrom="0" laneChangedTo="0"/>
        <edge id="6/1to7/1" sampledSeconds="15.86" traveltime="4.90" overlapTraveltime="5.16" density="27.49" laneDensity="27.49" occupancy="12.97" waitingTime="0.00" timeLoss="0.00" speed="19.60" speedRelative="1.00" departed="0" arrived="0" entered="4" left="3" laneChangedFrom="0" laneChangedTo="0"/>
        <edge id="7/1to8/1" sampledSeconds="15.72" traveltime="4.90" overlapTraveltime="5.16" density="27.25" laneDensity="27.25" occupancy="12.96" waitingTime="0.00" timeLoss="0.00" speed="19.60" speedRelative="1.00" departed="0" arrived="0" entered="3" left="3" laneChangedFrom="0" laneChangedTo="0"/>
        <edge id="8/1to9/1" sampledSeconds="16.04" traveltime="4.90" overlapTraveltime="5.16" density="27.82" laneDensity="27.82" occupancy="13.25" waitingTime="0.00" timeLoss="0.00" speed="19.60" speedRelative="1.00" departed="0" arrived="0" entered="3" left="3" laneChangedFrom="0" laneChangedTo="0"/>
        <edge id="9/1to10/1" sampledSeconds="14.49" traveltime="4.90" overlapTraveltime="5.16" density="25.13" laneDensity="25.13" occupancy="12.01" waitingTime="0.00" timeLoss="0.00" speed="19.60" speedRelative="1.00" departed="0" arrived="0" entered="3" left="2" laneChangedFrom="0" laneChangedTo="0"/>
    </interval>
    <interval begin="48.00" end="54.00" id="dump_6">
        <edge id="1/1to2/1" sampledSeconds="20.19" traveltime="6.74" overlapTraveltime="7.08" density="35.00" laneDensity="35.00" occupancy="16.73" waitingTime="0.00" timeLoss="5.47" speed="14.29" speedRelative="0.73" departed="0" arrived="0" entered="3" left="2" laneChangedFrom="0" laneChangedTo="0"/>
        <edge id="10/1to1/1" sampledSeconds="15.35" traveltime="4.91" overlapTraveltime="5.17" density="26.62" laneDensity="26.62" occupancy="12.64" waitingTime="0.00" timeLoss="0.04" speed="19.55" speedRelative="1.00" departed="0" arrived="0" entered="3" left="3" laneChangedFrom="0" laneChangedTo="0"/>
        <edge id="2/1to3/1" sampledSeconds="16.71" traveltime="5.49" overlapTraveltime="5.74" density="28.96" laneDensity="28.96" occupancy="13.72" waitingTime="0.00" timeLoss="1.69" speed="17.61" speedRelative="0.90" departed="0" arrived="0" entered="3" left="3" laneChangedFrom="0" laneChangedTo="0"/>
        <edge id="3/1to4/1" sampledSeconds="14.48" traveltime="4.90" overlapTraveltime="5.16" density="25.10" laneDensity="25.10" occupancy="11.90" waitingTime="0.00" timeLoss="0.00" speed="19.60" speedRelative="1.00" departed="0" arrived="0" entered="3" left="3" laneChangedFrom="0" laneChangedTo="0"/>
        <edge id="4/1to5/1" sampledSeconds="14.80" traveltime="4.90" overlapTraveltime="5.16" density="25.66" laneDensity="25.66" occupancy="12.17" waitingTime="0.00" timeLoss="0.00" speed="19.60" speedRelative="1.00" departed="0" arrived="0" entered="3" left="3" laneChangedFrom="0" laneChangedTo="0"/>
        <edge id="5/1to6/1" sampledSeconds="14.26" traveltime="4.90" overlapTraveltime="5.16" density="24.73" laneDensity="24.73" occupancy="11.81" waitingTime="0.00" timeLoss="0.00" speed="19.60" speedRelative="1.00" departed="0" arrived="0" entered="3" left="2" laneChangedFrom="0" laneChangedTo="0"/>
        <edge id="6/1to7/1" sampledSeconds="15.38" traveltime="4.90" overlapTraveltime="5.16" density="26.67" laneDensity="26.67" occupancy="12.78" waitingTime="0.00" timeLoss="0.00" speed="19.60" speedRelative="1.00" departed="0" arrived="0" entered="2" left="3" laneChangedFrom="0" laneChangedTo="0"/>
        <edge id="7/1to8/1" sampledSeconds="16.05" traveltime="4.90" overlapTraveltime="5.16" density="27.83" laneDensity="27.83" occupancy="13.25" waitingTime="0.00" timeLoss="0.00" speed="19.60" speedRelative="1.00" departed="0" arrived="0" entered="3" left="3" laneChangedFrom="0" laneChangedTo="0"/>
        <edge id="8/1to9/1" sampledSeconds="15.47" traveltime="4.90" overlapTraveltime="5.16" density="26.82" laneDensity="26.82" occupancy="12.75" waitingTime="0.00" timeLoss="0.00" speed="19.60" speedRelative="1.00" departed="0" arrived="0" entered="3" left="3" laneChangedFrom="0" laneChangedTo="0"/>
        <edge id="9/1to10/1" sampledSeconds="16.29" traveltime="4.90" overlapTraveltime="5.16" density="28.25" laneDensity="28.25" occupancy="13.46" waitingTime="0.00" timeLoss="0.00" speed="19.60" speedRelative="1.00" departed="0" arrived="0" entered="3" left="3" laneChangedFrom="0" laneChangedTo="0"/>
    </interval>
    <interval begin="54.00" end="60.00" id="dump_6">
        <edge id="1/1to2/1" sampledSeconds="18.21" traveltime="5.26" overlapTraveltime="5.59" density="31.57" laneDensity="31.57" occupancy="14.91" waitingTime="0.00" timeLoss="1.39" speed="18.11" speedRelative="0.92" departed="0" arrived="0" entered="3" left="4" laneChangedFrom="0" laneChangedTo="0"/>
        <edge id="10/1to1/1" sampledSeconds="16.04" traveltime="4.90" overlapTraveltime="5.16" density="27.81" laneDensity="27.81" occupancy="13.24" waitingTime="0.00" timeLoss="0.00" speed="19.60" speedRelative="1.00" departed="0" arrived="0" entered="3" left="3" laneChangedFrom="0" laneChangedTo="0"/>
        <edge id="2/1to3/1" sampledSeconds="19.47" traveltime="5.51" overlapTraveltime="5.77" density="33.76" laneDensity="33.76" occupancy="16.04" waitingTime="0.00" timeLoss="2.06" speed="17.53" speedRelative="0.89" departed="0" arrived="0" entered="4" left="3" laneChangedFrom="0" laneChangedTo="0"/>
        <edge id="3/1to4/1" sampledSeconds="14.87" traveltime="4.90" overlapTraveltime="5.16" density="25.78" laneDensity="25.78" occupancy="12.27" waitingTime="0.00" timeLoss="0.00" speed="19.60" speedRelative="1.00" departed="0" arrived="0" entered="3" left="3" laneChangedFrom="0" laneChangedTo="0"/>
        <edge id="4/1to5/1" sampledSeconds="14.81" traveltime="4.90" overlapTraveltime="5.16" density="25.68" laneDensity="25.68" occupancy="12.18" waitingTime="0.00" timeLoss="0.00" speed="19.60" speedRelative="1.00" departed="0" arrived="0" entered="3" left="3" laneChangedFrom="0" laneChangedTo="0"/>
        <edge id="5/1to6/1" sampledSeconds="14.46" traveltime="4.90" overlapTraveltime="5.16" density="25.08" laneDensity="25.08" occupancy="11.88" waitingTime="0.00" timeLoss="0.00" speed="19.60" speedRelative="1.00" departed="0" arrived="0" entered="3" left="3" laneChangedFrom="0" laneChangedTo="0"/>
        <edge id="6/1to7/1" sampledSeconds="14.59" traveltime="4.90" overlapTraveltime="5.16" density="25.30" laneDensity="25.30" occupancy="11.98" waitingTime="0.00" timeLoss="0.00" speed="19.60" speedRelative="1.00" departed="0" arrived="0" entered="3" left="3" laneChangedFrom="0" laneChangedTo="0"/>
        <edge id="7/1to8/1" sampledSeconds="15.15" traveltime="4.90" overlapTraveltime="5.16" density="26.27" laneDensity="26.27" occupancy="12.44" waitingTime="0.00" timeLoss="0.00" speed="19.60" speedRelative="1.00" departed="0" arrived="0" entered="3" left="4" laneChangedFrom="0" laneChangedTo="0"/>
        <edge id="8/1to9/1" sampledSeconds="16.15" traveltime="4.90" overlapTraveltime="5.16" density="28.00" laneDensity="28.00" occupancy="13.33" waitingTime="0.00" timeLoss="0.00" speed="19.60" speedRelative="1.00" departed="0" arrived="0" entered="3" left="3" laneChangedFrom="0" laneChangedTo="0"/>
        <edge id="9/1to10/1" sampledSeconds="15.38" traveltime="4.90" overlapTraveltime="5.16" density="26.66" laneDensity="26.66" occupancy="12.67" waitingTime="0.00" timeLoss="0.00" speed="19.60" speedRelative="1.00" departed="0" arrived="0" entered="3" left="3" laneChangedFrom="0" laneChangedTo="0"/>
    </interval>
    <interval begin="60.00" end="66.00" id="dump_6">
        <edge id="1/1to2/1" sampledSeconds="16.16" traveltime="4.92" overlapTraveltime="5.17" density="28.01" laneDensity="28.01" occupancy="13.34" waitingTime="0.00" timeLoss="0.05" speed="19.54" speedRelative="1.00" departed="0" arrived="0" entered="3" left="3" laneChangedFrom="0" laneChangedTo="0"/>
        <edge id="10/1to1/1" sampledSeconds="15.34" traveltime="4.90" overlapTraveltime="5.16" density="26.59" laneDensity="26.59" occupancy="12.63" waitingTime="0.00" timeLoss="0.00" speed="19.60" speedRelative="1.00" departed="0" arrived="0" entered="3" left="3" laneChangedFrom="0" laneChangedTo="0"/>
        <edge id="2/1to3/1" sampledSeconds="19.70" traveltime="5.23" overlapTraveltime="5.50" density="34.16" laneDensity="34.16" occupancy="16.37" waitingTime="0.00" timeLoss="1.21" speed="18.40" speedRelative="0.94" departed="0" arrived="0" entered="3" left="3" laneChangedFrom="0" laneChangedTo="0"/>
        <edge id="3/1to4/1" sampledSeconds="17.81" traveltime="4.97" overlapTraveltime="5.23" density="30.88" laneDensity="30.88" occupancy="14.70" waitingTime="0.00" timeLoss="0.24" speed="19.34" speedRelative="0.99" departed="0" arrived="0" entered="3" left="3" laneChangedFrom="0" laneChangedTo="0"/>
        <edge id="4/1to5/1" sampledSeconds="15.01" traveltime="4.90" overlapTraveltime="5.16" density="26.03" laneDensity="26.03" occupancy="12.44" waitingTime="0.00" timeLoss="0.00" speed="19.60" speedRelative="1.00" departed="0" arrived="0" entered="3" left="3" laneChangedFrom="0" laneChangedTo="0"/>
        <edge id="5/1to6/1" sampledSeconds="14.56" traveltime="4.90" overlapTraveltime="5.16" density="25.24" laneDensity="25.24" occupancy="12.07" waitingTime="0.00" timeLoss="0.00" speed="19.60" speedRelative="1.00" departed="0" arrived="0" entered="2" left="3" laneChangedFrom="0" laneChangedTo="0"/>
        <edge id="6/1to7/1" sampledSeconds="14.81" traveltime="4.90" overlapTraveltime="5.16" density="25.68" laneDensity="25.68" occupancy="12.18" waitingTime="0.00" timeLoss="0.00" speed="19.60" speedRelative="1.00" departed="0" arrived="0" entered="3" left="3" laneChangedFrom="0" laneChangedTo="0"/>
        <edge id="7/1to8/1" sampledSeconds="14.24" traveltime="4.90" overlapTraveltime="5.16" density="24.69" laneDensity="24.69" occupancy="11.71" waitingTime="0.00" timeLoss="0.00" speed="19.60" speedRelative="1.00" departed="0" arrived="0" entered="3" left="2" laneChangedFrom="0" laneChangedTo="0"/>
        <edge id="8/1to9/1" sampledSeconds="14.92" traveltime="4.90" overlapTraveltime="5.16" density="25.86" laneDensity="25.86" occupancy="12.27" waitingTime="0.00" timeLoss="0.00" speed="19.60" speedRelative="1.00" departed="0" arrived="0" entered="3" left="3" laneChangedFrom="0" laneChangedTo="0"/>
        <edge id="9/1to10/1" sampledSeconds="16.38" traveltime="4.90" overlapTraveltime="5.16" density="28.41" laneDensity="28.41" occupancy="13.54" waitingTime="0.00" timeLoss="0.00" speed="19.60" speedRelative="1.00" departed="0" arrived="0" entered="3" left="3" laneChangedFrom="0" laneChangedTo="0"/>
    </interval>
    <interval begin="66.00" end="72.00" id="dump_6">
        <edge id="1/1to2/1" sampledSeconds="15.56" traveltime="4.90" overlapTraveltime="5.16" density="26.97" laneDensity="26.97" occupancy="12.82" waitingTime="0.00" timeLoss="0.00" speed="19.60" speedRelative="1.00" departed="0" arrived="0" entered="3" left="3" laneChangedFrom="0" laneChangedTo="0"/>
        <edge id="10/1to1/1" sampledSeconds="16.17" traveltime="4.90" overlapTraveltime="5.16" density="28.03" laneDensity="28.03" occupancy="13.35" waitingTime="0.00" timeLoss="0.00" speed="19.60" speedRelative="1.00" departed="0" arrived="0" entered="3" left="3" laneChangedFrom="0" laneChangedTo="0"/>
        <edge id="2/1to3/1" sampledSeconds="16.25" traveltime="4.92" overlapTraveltime="5.18" density="28.17" laneDensity="28.17" occupancy="13.30" waitingTime="0.00" timeLoss="0.07" speed="19.52" speedRelative="1.00" departed="0" arrived="0" entered="3" left="4" laneChangedFrom="0" laneChangedTo="0"/>
        <edge id="3/1to4/1" sampledSeconds="19.54" traveltime="4.98" overlapTraveltime="5.24" density="33.88" laneDensity="33.88" occupancy="16.04" waitingTime="0.00" timeLoss="0.29" speed="19.31" speedRelative="0.98" departed="0" arrived="0" entered="4" left="4" laneChangedFrom="0" laneChangedTo="0"/>
        <edge id="4/1to5/1" sampledSeconds="17.94" traveltime="4.91" overlapTraveltime="5.16" density="31.11" laneDensity="31.11" occupancy="14.69" waitingTime="0.00" timeLoss="0.00" speed="19.60" speedRelative="1.00" departed="0" arrived="0" entered="4" left="3" laneChangedFrom="0" laneChangedTo="0"/>
        <edge id="5/1to6/1" sampledSeconds="15.35" traveltime="4.90" overlapTraveltime="5.16" density="26.61" laneDensity="26.61" occupancy="12.54" waitingTime="0.00" timeLoss="0.00" speed="19.60" speedRelative="1.00" departed="0" arrived="0" entered="4" left="3" laneChangedFrom="0" laneChangedTo="0"/>
        <edge id="6/1to7/1" sampledSeconds="14.78" traveltime="4.90" overlapTraveltime="5.16" density="25.63" laneDensity="25.63" occupancy="12.21" waitingTime="0.00" timeLoss="0.00" speed="19.60" speedRelative="1.00" departed="0" arrived="0" entered="3" left="3" laneChangedFrom="0" laneChangedTo="0"/>
        <edge id="7/1to8/1" sampledSeconds="14.48" traveltime="4.90" overlapTraveltime="5.16" density="25.10" laneDensity="25.10" occupancy="11.98" waitingTime="0.00" timeLoss="0.00" speed="19.60" speedRelative="1.00" departed="0" arrived="0" entered="3" left="3" laneChangedFrom="0" laneChangedTo="0"/>
        <edge id="8/1to9/1" sampledSeconds="14.71" traveltime="4.90" overlapTraveltime="5.16" density="25.51" laneDensity="25.51" occupancy="12.09" waitingTime="0.00" timeLoss="0.00" speed="19.60" speedRelative="1.00" departed="0" arrived="0" entered="3" left="3" laneChangedFrom="0" laneChangedTo="0"/>
        <edge id="9/1to10/1" sampledSeconds="14.44" traveltime="4.90" overlapTraveltime="5.16" density="25.04" laneDensity="25.04" occupancy="11.86" waitingTime="0.00" timeLoss="0.00" speed="19.60" speedRelative="1.00" departed="0" arrived="0" entered="3" left="3" laneChangedFrom="0" laneChangedTo="0"/>
    </interval>
    <interval begin="72.00" end="78.00" id="dump_6">
        <edge id="1/1to2/1" sampledSeconds="16.09" traveltime="4.90" overlapTraveltime="5.16" density="27.89" laneDensity="27.89" occupancy="13.28" waitingTime="0.00" timeLoss="0.00" speed="19.60" speedRelative="1.00" departed="0" arrived="0" entered="3" left="4" laneChangedFrom="0" laneChangedTo="0"/>
        <edge id="10/1to1/1" sampledSeconds="14.52" traveltime="4.90" overlapTraveltime="5.16" density="25.18" laneDensity="25.18" occupancy="11.93" waitingTime="0.00" timeLoss="0.00" speed="19.60" speedRelative="1.00" departed="0" arrived="0" entered="3" left="3" laneChangedFrom="0" laneChangedTo="0"/>