<?xml version="1.0" encoding="UTF-8"?>

<!-- generated on 2021-11-08 09:18:35 by Eclipse SUMO GUI Version v1_10_0+2011-f8e834c
<configuration xmlns:xsi="http://www.w3.org/2001/XMLSchema-instance" xsi:noNamespaceSchemaLocation="http://sumo.dlr.de/xsd/sumoConfiguration.xsd">

    <input>
        <net-file value="input_net.net.xml"/>
        <route-files value="input_routes.rou.xml"/>
    </input>

    <output>
        <fcd-output value="fcd.xml"/>
    </output>

    <report>
        <no-step-log value="true"/>
    </report>

    <traci_server>
        <remote-port value="34423"/>
    </traci_server>

</configuration>
-->

<fcd-export xmlns:xsi="http://www.w3.org/2001/XMLSchema-instance" xsi:noNamespaceSchemaLocation="http://sumo.dlr.de/xsd/fcd_file.xsd">
    <timestep time="0.00">
        <vehicle id="v0" x="5.10" y="-8.00" angle="90.00" type="DEFAULT_VEHTYPE" speed="0.00" pos="5.10" lane="gneE0_0" slope="0.00"/>
    </timestep>
    <timestep time="1.00">
        <vehicle id="v0" x="7.44" y="-8.00" angle="90.00" type="DEFAULT_VEHTYPE" speed="2.34" pos="7.44" lane="gneE0_0" slope="0.00"/>
    </timestep>
    <timestep time="2.00">
        <vehicle id="v0" x="11.22" y="-8.00" angle="90.00" type="DEFAULT_VEHTYPE" speed="3.78" pos="11.22" lane="gneE0_0" slope="0.00"/>
    </timestep>
    <timestep time="3.00">
        <vehicle id="v0" x="17.45" y="-4.80" angle="90.00" type="DEFAULT_VEHTYPE" speed="6.23" pos="17.45" lane="gneE0_1" slope="0.00"/>
    </timestep>
    <timestep time="4.00">
        <vehicle id="v0" x="25.72" y="-4.80" angle="90.00" type="DEFAULT_VEHTYPE" speed="8.26" pos="25.72" lane="gneE0_1" slope="0.00"/>
    </timestep>
    <timestep time="5.00">
        <vehicle id="v0" x="35.93" y="-4.80" angle="90.00" type="DEFAULT_VEHTYPE" speed="10.22" pos="35.93" lane="gneE0_1" slope="0.00"/>
    </timestep>
    <timestep time="6.00">
        <vehicle id="v0" x="48.71" y="-8.00" angle="90.00" type="DEFAULT_VEHTYPE" speed="12.78" pos="48.71" lane="gneE0_0" slope="0.00"/>
    </timestep>
    <timestep time="7.00">
        <vehicle id="v0" x="62.69" y="-8.00" angle="90.00" type="DEFAULT_VEHTYPE" speed="13.98" pos="62.69" lane="gneE0_0" slope="0.00"/>
    </timestep>
    <timestep time="8.00">
        <vehicle id="v0" x="77.12" y="-8.00" angle="90.00" type="DEFAULT_VEHTYPE" speed="14.43" pos="77.12" lane="gneE0_0" slope="0.00"/>
    </timestep>
    <timestep time="9.00">
        <vehicle id="v0" x="91.34" y="-8.00" angle="90.00" type="DEFAULT_VEHTYPE" speed="14.22" pos="91.34" lane="gneE0_0" slope="0.00"/>
    </timestep>
    <timestep time="10.00">
        <vehicle id="v0" x="104.90" y="-4.80" angle="90.00" type="DEFAULT_VEHTYPE" speed="13.56" pos="104.90" lane="gneE0_1" slope="0.00"/>
    </timestep>
    <timestep time="11.00">
        <vehicle id="v0" x="118.75" y="-1.60" angle="90.00" type="DEFAULT_VEHTYPE" speed="13.85" pos="118.75" lane="gneE0_2" slope="0.00"/>
    </timestep>
    <timestep time="12.00">
        <vehicle id="v0" x="132.31" y="-4.80" angle="90.00" type="DEFAULT_VEHTYPE" speed="13.56" pos="132.31" lane="gneE0_1" slope="0.00"/>
    </timestep>
    <timestep time="13.00">
        <vehicle id="v0" x="145.85" y="-8.00" angle="90.00" type="DEFAULT_VEHTYPE" speed="13.55" pos="145.85" lane="gneE0_0" slope="0.00"/>
    </timestep>
</fcd-export>
