<?xml version="1.0" encoding="UTF-8"?>

<!-- generated on 2022-03-31 10:26:14 by Eclipse SUMO sumo Version v1_12_0+1808-7caee96
<configuration xmlns:xsi="http://www.w3.org/2001/XMLSchema-instance" xsi:noNamespaceSchemaLocation="http://sumo.dlr.de/xsd/sumoConfiguration.xsd">

    <input>
        <net-file value="net.net.xml"/>
        <load-state value="state.xml"/>
    </input>

    <output>
        <fcd-output value="fcd2.xml"/>
    </output>

    <processing>
        <default.speeddev value="0"/>
        <pedestrian.model value="nonInteracting"/>
    </processing>

    <report>
        <verbose value="true"/>
        <duration-log.disable value="true"/>
        <no-step-log value="true"/>
    </report>

    <mesoscopic>
        <mesosim value="true"/>
    </mesoscopic>

</configuration>
-->

<fcd-export xmlns:xsi="http://www.w3.org/2001/XMLSchema-instance" xsi:noNamespaceSchemaLocation="http://sumo.dlr.de/xsd/fcd_file.xsd">
    <timestep time="15.00">
        <vehicle id="v0" x="200.00" y="-1.65" angle="90.00" type="t0" speed="13.89" pos="0.00" edge="end" slope="0.00"/>
    </timestep>
    <timestep time="16.00">
        <vehicle id="v0" x="200.00" y="-1.65" angle="90.00" type="t0" speed="13.89" pos="0.00" edge="end" slope="0.00"/>
    </timestep>
    <timestep time="17.00">
        <vehicle id="v0" x="200.00" y="-1.65" angle="90.00" type="t0" speed="13.89" pos="0.00" edge="end" slope="0.00"/>
    </timestep>
    <timestep time="18.00">
        <vehicle id="v0" x="200.00" y="-1.65" angle="90.00" type="t0" speed="13.89" pos="0.00" edge="end" slope="0.00"/>
    </timestep>
    <timestep time="19.00">
        <vehicle id="v0" x="200.00" y="-1.65" angle="90.00" type="t0" speed="13.89" pos="0.00" edge="end" slope="0.00"/>
    </timestep>
    <timestep time="20.00">
        <vehicle id="v0" x="200.00" y="-1.65" angle="90.00" type="t0" speed="13.89" pos="0.00" edge="end" slope="0.00"/>
    </timestep>
    <timestep time="21.00">
        <vehicle id="v0" x="200.00" y="-1.65" angle="90.00" type="t0" speed="13.89" pos="0.00" edge="end" slope="0.00"/>
    </timestep>
    <timestep time="22.00"/>
</fcd-export>
