<?xml version="1.0" encoding="UTF-8"?>

<!-- generated on Tue Jun 19 16:24:22 2018 by Eclipse SUMO Version eba7cf7
This data file and the accompanying materials
are made available under the terms of the Eclipse Public License v2.0
which accompanies this distribution, and is available at
http://www.eclipse.org/legal/epl-v20.html
SPDX-License-Identifier: EPL-2.0
<configuration xmlns:xsi="http://www.w3.org/2001/XMLSchema-instance" xsi:noNamespaceSchemaLocation="http://sumo.dlr.de/xsd/sumoConfiguration.xsd">

    <input>
        <net-file value="three_split.net.xml"/>
        <additional-files value="input_routes.rou.xml"/>
    </input>

    <output>
        <write-license value="true"/>
        <vehroute-output value="vehroutes.xml"/>
    </output>

    <time>
        <begin value="0"/>
    </time>

    <routing>
        <device.rerouting.probability value="0.5"/>
    </routing>

    <report>
        <xml-validation value="never"/>
        <duration-log.disable value="true"/>
        <no-step-log value="true"/>
    </report>

</configuration>
-->

<routes xmlns:xsi="http://www.w3.org/2001/XMLSchema-instance" xsi:noNamespaceSchemaLocation="http://sumo.dlr.de/xsd/routes_file.xsd">
    <vehicle id="2" depart="40.00" arrival="135.00">
        <routeDistribution>
            <route replacedOnEdge="" reason="device.rerouting" replacedAtTime="40.00" probability="0" edges="beg beg2right right right2end end rend"/>
            <route edges="beg middle end rend"/>
        </routeDistribution>
    </vehicle>

    <vehicle id="3" depart="60.00" arrival="155.00">
        <routeDistribution>
            <route replacedOnEdge="" reason="device.rerouting" replacedAtTime="60.00" probability="0" edges="beg beg2right right right2end end rend"/>
            <route edges="beg middle end rend"/>
        </routeDistribution>
    </vehicle>

    <vehicle id="5" depart="100.00" arrival="195.00">
        <routeDistribution>
            <route replacedOnEdge="" reason="device.rerouting" replacedAtTime="100.00" probability="0" edges="beg beg2right right right2end end rend"/>
            <route edges="beg middle end rend"/>
        </routeDistribution>
    </vehicle>

    <vehicle id="0" depart="0.00" arrival="207.00">
        <route edges="beg beg2right right right2end end rend"/>
    </vehicle>

    <vehicle id="1" depart="20.00" arrival="227.00">
        <route edges="beg beg2right right right2end end rend"/>
    </vehicle>

    <vehicle id="7" depart="140.00" arrival="235.00">
        <routeDistribution>
            <route replacedOnEdge="" reason="device.rerouting" replacedAtTime="140.00" probability="0" edges="beg beg2right right right2end end rend"/>
            <route edges="beg middle end rend"/>
        </routeDistribution>
    </vehicle>

    <vehicle id="4" depart="80.00" arrival="287.00">
        <route edges="beg beg2right right right2end end rend"/>
    </vehicle>

    <vehicle id="6" depart="120.00" arrival="327.00">
        <route edges="beg beg2right right right2end end rend"/>
    </vehicle>

    <vehicle id="8" depart="160.00" arrival="367.00">
        <route edges="beg beg2right right right2end end rend"/>
    </vehicle>

    <vehicle id="9" depart="180.00" arrival="387.00">
        <route edges="beg beg2right right right2end end rend"/>
    </vehicle>

</routes>
