<?xml version="1.0" encoding="UTF-8"?>

<!-- generated on Sat Aug 12 22:26:35 2017 by SUMO Version dev-SVN-r24506
<?xml version="1.0" encoding="UTF-8"?>

<configuration xmlns:xsi="http://www.w3.org/2001/XMLSchema-instance" xsi:noNamespaceSchemaLocation="http://sumo.dlr.de/xsd/sumoConfiguration.xsd">

    <input>
        <net-file value="net3.net.xml"/>
        <route-files value="input_routes.rou.xml"/>
        <additional-files value="input_additional2.add.xml"/>
    </input>

    <output>
        <tripinfo-output value="tripinfos.xml"/>
    </output>

    <processing>
        <collision.check-junctions value="true"/>
        <pedestrian.model value="striping"/>
        <pedestrian.striping.dawdling value="0"/>
    </processing>

    <report>
        <xml-validation value="never"/>
        <no-step-log value="true"/>
    </report>

</configuration>
-->

<tripinfos xmlns:xsi="http://www.w3.org/2001/XMLSchema-instance" xsi:noNamespaceSchemaLocation="http://sumo.dlr.de/xsd/tripinfo_file.xsd">
    <tripinfo id="v0" depart="18.00" departLane="SC_1" departPos="60.00" departSpeed="0.00" departDelay="0.00" arrival="32.00" arrivalLane="CN_1" arrivalPos="90.45" arrivalSpeed="13.89" duration="14.00" routeLength="140.00" waitSteps="0" timeLoss="3.66" rerouteNo="0" devices="tripinfo_v0" vType="t1" speedFactor="1.00" vaporized=""/>
    <personinfo id="blocker" depart="18.00">
        <walk arrival="38.00"/>
    </personinfo>
    <personinfo id="blocker2" depart="18.00">
        <walk arrival="39.00"/>
    </personinfo>
    <personinfo id="p0" depart="10.00">
        <walk arrival="95.00"/>
    </personinfo>
</tripinfos>
