<?xml version="1.0" encoding="UTF-8"?>

<!-- generated on Fri Jan  6 08:51:55 2017 by SUMO Version dev-SVN-r22480
<?xml version="1.0" encoding="UTF-8"?>

<configuration xmlns:xsi="http://www.w3.org/2001/XMLSchema-instance" xsi:noNamespaceSchemaLocation="http://sumo.dlr.de/xsd/sumoConfiguration.xsd">

    <input>
        <net-file value="net.net.xml"/>
        <route-files value="input_routes.rou.xml"/>
        <additional-files value="input_additional.add.xml"/>
    </input>

    <report>
        <xml-validation value="never"/>
        <duration-log.disable value="true"/>
        <no-step-log value="true"/>
    </report>

    <mesoscopic>
        <mesosim value="true"/>
        <meso-junction-control value="true"/>
    </mesoscopic>

</configuration>
-->

<detector xmlns:xsi="http://www.w3.org/2001/XMLSchema-instance" xsi:noNamespaceSchemaLocation="http://sumo.dlr.de/xsd/det_e1meso_file.xsd">
    <interval begin="0.00" end="180.00" id="TLS0_actuated_additional_InductLoopOn_4si_0" sampledSeconds="0.00" departed="0" arrived="0" entered="0" left="0"/>
    <interval begin="0.00" end="180.00" id="TLS0_actuated_additional_InductLoopOn_4si_1" sampledSeconds="0.00" departed="0" arrived="0" entered="0" left="0"/>
    <interval begin="0.00" end="180.00" id="TLS0_actuated_additional_InductLoopOn_4si_2" sampledSeconds="0.00" departed="0" arrived="0" entered="0" left="0"/>
    <interval begin="0.00" end="180.00" id="TLS0_actuated_additional_InductLoopOn_2si_0" sampledSeconds="0.00" departed="0" arrived="0" entered="0" left="0"/>
    <interval begin="0.00" end="180.00" id="TLS0_actuated_additional_InductLoopOn_2si_1" sampledSeconds="0.00" departed="0" arrived="0" entered="0" left="0"/>
    <interval begin="0.00" end="180.00" id="TLS0_actuated_additional_InductLoopOn_2si_2" sampledSeconds="0.00" departed="0" arrived="0" entered="0" left="0"/>
    <interval begin="0.00" end="180.00" id="TLS0_actuated_additional_InductLoopOn_3si_0" sampledSeconds="379.31" density="25.29" occupancy="4.21" waitingTime="0.00" speed="4.10" departed="0" arrived="0" entered="20" left="16"/>
    <interval begin="0.00" end="180.00" id="TLS0_actuated_additional_InductLoopOn_3si_1" sampledSeconds="379.31" density="25.29" occupancy="4.21" waitingTime="0.00" speed="4.10" departed="0" arrived="0" entered="20" left="16"/>
    <interval begin="0.00" end="180.00" id="TLS0_actuated_additional_InductLoopOn_3si_2" sampledSeconds="379.31" density="25.29" occupancy="4.21" waitingTime="0.00" speed="4.10" departed="0" arrived="0" entered="20" left="16"/>
    <interval begin="0.00" end="180.00" id="TLS0_actuated_additional_InductLoopOn_1si_0" sampledSeconds="1467.26" density="97.82" occupancy="16.30" waitingTime="0.00" speed="1.81" departed="0" arrived="0" entered="35" left="22"/>
    <interval begin="0.00" end="180.00" id="TLS0_actuated_additional_InductLoopOn_1si_1" sampledSeconds="1467.26" density="97.82" occupancy="16.30" waitingTime="0.00" speed="1.81" departed="0" arrived="0" entered="35" left="22"/>
    <interval begin="0.00" end="180.00" id="TLS0_actuated_additional_InductLoopOn_1si_2" sampledSeconds="1467.26" density="97.82" occupancy="16.30" waitingTime="0.00" speed="1.81" departed="0" arrived="0" entered="35" left="22"/>
    <interval begin="180.00" end="360.00" id="TLS0_actuated_additional_InductLoopOn_4si_0" sampledSeconds="0.00" departed="0" arrived="0" entered="0" left="0"/>
    <interval begin="180.00" end="360.00" id="TLS0_actuated_additional_InductLoopOn_4si_1" sampledSeconds="0.00" departed="0" arrived="0" entered="0" left="0"/>
    <interval begin="180.00" end="360.00" id="TLS0_actuated_additional_InductLoopOn_4si_2" sampledSeconds="0.00" departed="0" arrived="0" entered="0" left="0"/>
    <interval begin="180.00" end="360.00" id="TLS0_actuated_additional_InductLoopOn_2si_0" sampledSeconds="0.00" departed="0" arrived="0" entered="0" left="0"/>
    <interval begin="180.00" end="360.00" id="TLS0_actuated_additional_InductLoopOn_2si_1" sampledSeconds="0.00" departed="0" arrived="0" entered="0" left="0"/>
    <interval begin="180.00" end="360.00" id="TLS0_actuated_additional_InductLoopOn_2si_2" sampledSeconds="0.00" departed="0" arrived="0" entered="0" left="0"/>
    <interval begin="180.00" end="360.00" id="TLS0_actuated_additional_InductLoopOn_3si_0" sampledSeconds="422.32" density="28.15" occupancy="4.69" waitingTime="0.00" speed="3.60" departed="0" arrived="0" entered="17" left="20"/>
    <interval begin="180.00" end="360.00" id="TLS0_actuated_additional_InductLoopOn_3si_1" sampledSeconds="422.32" density="28.15" occupancy="4.69" waitingTime="0.00" speed="3.60" departed="0" arrived="0" entered="17" left="20"/>
    <interval begin="180.00" end="360.00" id="TLS0_actuated_additional_InductLoopOn_3si_2" sampledSeconds="422.32" density="28.15" occupancy="4.69" waitingTime="0.00" speed="3.60" departed="0" arrived="0" entered="17" left="20"/>
    <interval begin="180.00" end="360.00" id="TLS0_actuated_additional_InductLoopOn_1si_0" sampledSeconds="4098.74" density="273.25" occupancy="45.54" waitingTime="0.00" speed="0.66" departed="0" arrived="0" entered="36" left="16"/>
    <interval begin="180.00" end="360.00" id="TLS0_actuated_additional_InductLoopOn_1si_1" sampledSeconds="4098.74" density="273.25" occupancy="45.54" waitingTime="0.00" speed="0.66" departed="0" arrived="0" entered="36" left="16"/>
    <interval begin="180.00" end="360.00" id="TLS0_actuated_additional_InductLoopOn_1si_2" sampledSeconds="4098.74" density="273.25" occupancy="45.54" waitingTime="0.00" speed="0.66" departed="0" arrived="0" entered="36" left="16"/>
    <interval begin="360.00" end="540.00" id="TLS0_actuated_additional_InductLoopOn_4si_0" sampledSeconds="0.00" departed="0" arrived="0" entered="0" left="0"/>
    <interval begin="360.00" end="540.00" id="TLS0_actuated_additional_InductLoopOn_4si_1" sampledSeconds="0.00" departed="0" arrived="0" entered="0" left="0"/>
    <interval begin="360.00" end="540.00" id="TLS0_actuated_additional_InductLoopOn_4si_2" sampledSeconds="0.00" departed="0" arrived="0" entered="0" left="0"/>
    <interval begin="360.00" end="540.00" id="TLS0_actuated_additional_InductLoopOn_2si_0" sampledSeconds="0.00" departed="0" arrived="0" entered="0" left="0"/>
    <interval begin="360.00" end="540.00" id="TLS0_actuated_additional_InductLoopOn_2si_1" sampledSeconds="0.00" departed="0" arrived="0" entered="0" left="0"/>
    <interval begin="360.00" end="540.00" id="TLS0_actuated_additional_InductLoopOn_2si_2" sampledSeconds="0.00" departed="0" arrived="0" entered="0" left="0"/>
    <interval begin="360.00" end="540.00" id="TLS0_actuated_additional_InductLoopOn_3si_0" sampledSeconds="159.46" density="10.63" occupancy="1.77" waitingTime="0.00" speed="3.71" departed="0" arrived="0" entered="7" left="8"/>
    <interval begin="360.00" end="540.00" id="TLS0_actuated_additional_InductLoopOn_3si_1" sampledSeconds="159.46" density="10.63" occupancy="1.77" waitingTime="0.00" speed="3.71" departed="0" arrived="0" entered="7" left="8"/>
    <interval begin="360.00" end="540.00" id="TLS0_actuated_additional_InductLoopOn_3si_2" sampledSeconds="159.46" density="10.63" occupancy="1.77" waitingTime="0.00" speed="3.71" departed="0" arrived="0" entered="7" left="8"/>
    <interval begin="360.00" end="540.00" id="TLS0_actuated_additional_InductLoopOn_1si_0" sampledSeconds="5899.31" density="393.29" occupancy="65.55" waitingTime="0.00" speed="0.31" departed="0" arrived="0" entered="18" left="20"/>
    <interval begin="360.00" end="540.00" id="TLS0_actuated_additional_InductLoopOn_1si_1" sampledSeconds="5899.31" density="393.29" occupancy="65.55" waitingTime="0.00" speed="0.31" departed="0" arrived="0" entered="18" left="20"/>
    <interval begin="360.00" end="540.00" id="TLS0_actuated_additional_InductLoopOn_1si_2" sampledSeconds="5899.31" density="393.29" occupancy="65.55" waitingTime="0.00" speed="0.31" departed="0" arrived="0" entered="18" left="20"/>
    <interval begin="540.00" end="720.00" id="TLS0_actuated_additional_InductLoopOn_4si_0" sampledSeconds="0.00" departed="0" arrived="0" entered="0" left="0"/>
    <interval begin="540.00" end="720.00" id="TLS0_actuated_additional_InductLoopOn_4si_1" sampledSeconds="0.00" departed="0" arrived="0" entered="0" left="0"/>
    <interval begin="540.00" end="720.00" id="TLS0_actuated_additional_InductLoopOn_4si_2" sampledSeconds="0.00" departed="0" arrived="0" entered="0" left="0"/>
    <interval begin="540.00" end="720.00" id="TLS0_actuated_additional_InductLoopOn_2si_0" sampledSeconds="0.00" departed="0" arrived="0" entered="0" left="0"/>
    <interval begin="540.00" end="720.00" id="TLS0_actuated_additional_InductLoopOn_2si_1" sampledSeconds="0.00" departed="0" arrived="0" entered="0" left="0"/>
    <interval begin="540.00" end="720.00" id="TLS0_actuated_additional_InductLoopOn_2si_2" sampledSeconds="0.00" departed="0" arrived="0" entered="0" left="0"/>
    <interval begin="540.00" end="720.00" id="TLS0_actuated_additional_InductLoopOn_3si_0" sampledSeconds="0.00" departed="0" arrived="0" entered="0" left="0"/>
    <interval begin="540.00" end="720.00" id="TLS0_actuated_additional_InductLoopOn_3si_1" sampledSeconds="0.00" departed="0" arrived="0" entered="0" left="0"/>
    <interval begin="540.00" end="720.00" id="TLS0_actuated_additional_InductLoopOn_3si_2" sampledSeconds="0.00" departed="0" arrived="0" entered="0" left="0"/>
    <interval begin="540.00" end="720.00" id="TLS0_actuated_additional_InductLoopOn_1si_0" sampledSeconds="3802.39" density="253.49" occupancy="42.25" waitingTime="0.00" speed="0.06" departed="0" arrived="0" entered="0" left="20"/>
    <interval begin="540.00" end="720.00" id="TLS0_actuated_additional_InductLoopOn_1si_1" sampledSeconds="3802.39" density="253.49" occupancy="42.25" waitingTime="0.00" speed="0.06" departed="0" arrived="0" entered="0" left="20"/>
    <interval begin="540.00" end="720.00" id="TLS0_actuated_additional_InductLoopOn_1si_2" sampledSeconds="3802.39" density="253.49" occupancy="42.25" waitingTime="0.00" speed="0.06" departed="0" arrived="0" entered="0" left="20"/>
    <interval begin="720.00" end="863.00" id="TLS0_actuated_additional_InductLoopOn_4si_0" sampledSeconds="0.00" departed="0" arrived="0" entered="0" left="0"/>
    <interval begin="720.00" end="863.00" id="TLS0_actuated_additional_InductLoopOn_4si_1" sampledSeconds="0.00" departed="0" arrived="0" entered="0" left="0"/>
    <interval begin="720.00" end="863.00" id="TLS0_actuated_additional_InductLoopOn_4si_2" sampledSeconds="0.00" departed="0" arrived="0" entered="0" left="0"/>
    <interval begin="720.00" end="863.00" id="TLS0_actuated_additional_InductLoopOn_2si_0" sampledSeconds="0.00" departed="0" arrived="0" entered="0" left="0"/>
    <interval begin="720.00" end="863.00" id="TLS0_actuated_additional_InductLoopOn_2si_1" sampledSeconds="0.00" departed="0" arrived="0" entered="0" left="0"/>
    <interval begin="720.00" end="863.00" id="TLS0_actuated_additional_InductLoopOn_2si_2" sampledSeconds="0.00" departed="0" arrived="0" entered="0" left="0"/>
    <interval begin="720.00" end="863.00" id="TLS0_actuated_additional_InductLoopOn_3si_0" sampledSeconds="0.00" departed="0" arrived="0" entered="0" left="0"/>
    <interval begin="720.00" end="863.00" id="TLS0_actuated_additional_InductLoopOn_3si_1" sampledSeconds="0.00" departed="0" arrived="0" entered="0" left="0"/>
    <interval begin="720.00" end="863.00" id="TLS0_actuated_additional_InductLoopOn_3si_2" sampledSeconds="0.00" departed="0" arrived="0" entered="0" left="0"/>
    <interval begin="720.00" end="863.00" id="TLS0_actuated_additional_InductLoopOn_1si_0" sampledSeconds="541.77" density="45.46" occupancy="7.58" waitingTime="0.00" speed="0.01" departed="0" arrived="0" entered="0" left="11"/>
    <interval begin="720.00" end="863.00" id="TLS0_actuated_additional_InductLoopOn_1si_1" sampledSeconds="541.77" density="45.46" occupancy="7.58" waitingTime="0.00" speed="0.01" departed="0" arrived="0" entered="0" left="11"/>
    <interval begin="720.00" end="863.00" id="TLS0_actuated_additional_InductLoopOn_1si_2" sampledSeconds="541.77" density="45.46" occupancy="7.58" waitingTime="0.00" speed="0.01" departed="0" arrived="0" entered="0" left="11"/>
</detector>
