<?xml version="1.0" encoding="UTF-8"?>

<!-- generated on Wed Sep 12 14:00:45 2018 by Eclipse SUMO Version v1_0_0+0139-646ed4b
This data file and the accompanying materials
are made available under the terms of the Eclipse Public License v2.0
which accompanies this distribution, and is available at
http://www.eclipse.org/legal/epl-v20.html
SPDX-License-Identifier: EPL-2.0
<configuration xmlns:xsi="http://www.w3.org/2001/XMLSchema-instance" xsi:noNamespaceSchemaLocation="http://sumo.dlr.de/xsd/sumoConfiguration.xsd">

    <input>
        <net-file value="motorway.net.xml"/>
        <route-files value="input_routes.rou.xml"/>
        <additional-files value="input_additional.add.xml"/>
    </input>

    <output>
        <write-license value="true"/>
    </output>

    <processing>
        <default.speeddev value="0"/>
    </processing>

    <report>
        <verbose value="true"/>
        <xml-validation value="never"/>
        <duration-log.statistics value="true"/>
        <no-step-log value="true"/>
    </report>

</configuration>
-->

<meandata xmlns:xsi="http://www.w3.org/2001/XMLSchema-instance" xsi:noNamespaceSchemaLocation="http://sumo.dlr.de/xsd/meandata_file.xsd">
    <interval begin="0.00" end="1025.00" id="laneData">
        <edge id="beg">
            <lane id="beg_0" sampledSeconds="0.00" departed="0" arrived="0" entered="0" left="0" laneChangedFrom="0" laneChangedTo="0"/>
            <lane id="beg_1" sampledSeconds="0.00" departed="0" arrived="0" entered="0" left="0" laneChangedFrom="0" laneChangedTo="0"/>
            <lane id="beg_2" sampledSeconds="0.00" departed="0" arrived="0" entered="0" left="0" laneChangedFrom="0" laneChangedTo="0"/>
        </edge>
        <edge id="beg2">
            <lane id="beg2_0" sampledSeconds="2068.97" traveltime="93.52" overlapTraveltime="94.08" density="0.67" occupancy="0.33" waitingTime="0.00" speed="31.91" departed="358" arrived="0" entered="0" left="250" laneChangedFrom="109" laneChangedTo="1"/>
            <lane id="beg2_1" sampledSeconds="2240.99" traveltime="87.77" overlapTraveltime="87.99" density="0.73" occupancy="0.36" waitingTime="0.00" speed="34.12" departed="337" arrived="0" entered="0" left="445" laneChangedFrom="1" laneChangedTo="109"/>
        </edge>
        <edge id="end">
            <lane id="end_0" sampledSeconds="3535.49" traveltime="8.15" overlapTraveltime="8.32" density="17.51" occupancy="8.50" waitingTime="0.00" speed="24.28" departed="0" arrived="426" entered="427" left="0" laneChangedFrom="1" laneChangedTo="0"/>
            <lane id="end_1" sampledSeconds="3038.69" traveltime="6.04" overlapTraveltime="6.19" density="15.05" occupancy="7.35" waitingTime="0.00" speed="32.65" departed="0" arrived="492" entered="491" left="0" laneChangedFrom="0" laneChangedTo="1"/>
        </edge>
        <edge id="end2">
            <lane id="end2_0" sampledSeconds="0.00" departed="0" arrived="0" entered="0" left="0" laneChangedFrom="0" laneChangedTo="0"/>
        </edge>
        <edge id="end3">
            <lane id="end3_0" sampledSeconds="0.00" departed="0" arrived="0" entered="0" left="0" laneChangedFrom="0" laneChangedTo="0"/>
        </edge>
        <edge id="merge">
            <lane id="merge_0" sampledSeconds="1130.71" traveltime="9.64" overlapTraveltime="10.14" density="11.37" occupancy="5.58" waitingTime="325.00" speed="10.06" departed="0" arrived="0" entered="223" left="0" laneChangedFrom="223" laneChangedTo="0"/>
            <lane id="merge_1" sampledSeconds="1849.20" traveltime="5.08" overlapTraveltime="5.49" density="18.60" occupancy="8.79" waitingTime="11.00" speed="18.57" departed="0" arrived="0" entered="250" left="428" laneChangedFrom="45" laneChangedTo="223"/>
            <lane id="merge_2" sampledSeconds="1494.46" traveltime="3.02" overlapTraveltime="3.18" density="15.03" occupancy="7.15" waitingTime="0.00" speed="32.07" departed="0" arrived="0" entered="445" left="490" laneChangedFrom="0" laneChangedTo="45"/>
        </edge>
        <edge id="offRamp">
            <lane id="offRamp_0" sampledSeconds="0.00" departed="0" arrived="0" entered="0" left="0" laneChangedFrom="0" laneChangedTo="0"/>
        </edge>
        <edge id="onRamp">
            <lane id="onRamp_0" sampledSeconds="2056.71" traveltime="9.19" overlapTraveltime="9.38" density="6.64" occupancy="3.29" waitingTime="0.00" speed="32.75" departed="223" arrived="0" entered="0" left="223" laneChangedFrom="0" laneChangedTo="0"/>
        </edge>
    </interval>
</meandata>
