<?xml version="1.0" encoding="UTF-8"?>

<!-- generated on 07/18/18 16:20:38 by Eclipse SUMO Version 1e67d2b1c5
This data file and the accompanying materials
are made available under the terms of the Eclipse Public License v2.0
which accompanies this distribution, and is available at
http://www.eclipse.org/legal/epl-v20.html
SPDX-License-Identifier: EPL-2.0
<configuration xmlns:xsi="http://www.w3.org/2001/XMLSchema-instance" xsi:noNamespaceSchemaLocation="http://sumo.dlr.de/xsd/sumoConfiguration.xsd">

    <input>
        <net-file value="motorway.net.xml"/>
        <route-files value="input_routes.rou.xml"/>
        <additional-files value="input_additional.add.xml"/>
    </input>

    <output>
        <write-license value="true"/>
    </output>

    <report>
        <verbose value="true"/>
        <xml-validation value="never"/>
        <duration-log.statistics value="true"/>
        <no-step-log value="true"/>
    </report>

</configuration>
-->

<meandata xmlns:xsi="http://www.w3.org/2001/XMLSchema-instance" xsi:noNamespaceSchemaLocation="http://sumo.dlr.de/xsd/meandata_file.xsd">
    <interval begin="0.00" end="1021.00" id="laneData">
        <edge id="beg">
            <lane id="beg_0" sampledSeconds="0.00" departed="0" arrived="0" entered="0" left="0" laneChangedFrom="0" laneChangedTo="0"/>
            <lane id="beg_1" sampledSeconds="0.00" departed="0" arrived="0" entered="0" left="0" laneChangedFrom="0" laneChangedTo="0"/>
            <lane id="beg_2" sampledSeconds="0.00" departed="0" arrived="0" entered="0" left="0" laneChangedFrom="0" laneChangedTo="0"/>
        </edge>
        <edge id="beg2">
            <lane id="beg2_0" sampledSeconds="2084.97" traveltime="95.47" overlapTraveltime="96.36" density="0.68" occupancy="0.34" waitingTime="0.00" speed="31.16" departed="358" arrived="0" entered="0" left="244" laneChangedFrom="115" laneChangedTo="1"/>
            <lane id="beg2_1" sampledSeconds="2308.72" traveltime="89.15" overlapTraveltime="89.42" density="0.75" occupancy="0.37" waitingTime="0.00" speed="33.57" departed="337" arrived="0" entered="0" left="451" laneChangedFrom="1" laneChangedTo="115"/>
        </edge>
        <edge id="end">
            <lane id="end_0" sampledSeconds="3563.04" traveltime="8.35" overlapTraveltime="8.52" density="17.71" occupancy="8.60" waitingTime="0.00" speed="23.71" departed="0" arrived="419" entered="420" left="0" laneChangedFrom="1" laneChangedTo="0"/>
            <lane id="end_1" sampledSeconds="3157.37" traveltime="6.19" overlapTraveltime="6.34" density="15.70" occupancy="7.66" waitingTime="0.00" speed="31.87" departed="0" arrived="499" entered="498" left="0" laneChangedFrom="0" laneChangedTo="1"/>
        </edge>
        <edge id="end2">
            <lane id="end2_0" sampledSeconds="0.00" departed="0" arrived="0" entered="0" left="0" laneChangedFrom="0" laneChangedTo="0"/>
        </edge>
        <edge id="end3">
            <lane id="end3_0" sampledSeconds="0.00" departed="0" arrived="0" entered="0" left="0" laneChangedFrom="0" laneChangedTo="0"/>
        </edge>
        <edge id="merge">
            <lane id="merge_0" sampledSeconds="1261.73" traveltime="10.46" overlapTraveltime="11.00" density="12.74" occupancy="6.26" waitingTime="273.00" speed="9.28" departed="0" arrived="0" entered="223" left="0" laneChangedFrom="223" laneChangedTo="0"/>
            <lane id="merge_1" sampledSeconds="2264.94" traveltime="6.49" overlapTraveltime="6.91" density="22.87" occupancy="10.89" waitingTime="47.00" speed="14.76" departed="0" arrived="0" entered="243" left="421" laneChangedFrom="45" laneChangedTo="223"/>
            <lane id="merge_2" sampledSeconds="1573.82" traveltime="3.14" overlapTraveltime="3.31" density="15.89" occupancy="7.56" waitingTime="0.00" speed="30.81" departed="0" arrived="0" entered="452" left="497" laneChangedFrom="0" laneChangedTo="45"/>
        </edge>
        <edge id="offRamp">
            <lane id="offRamp_0" sampledSeconds="0.00" departed="0" arrived="0" entered="0" left="0" laneChangedFrom="0" laneChangedTo="0"/>
        </edge>
        <edge id="onRamp">
            <lane id="onRamp_0" sampledSeconds="2077.68" traveltime="9.28" overlapTraveltime="9.47" density="6.73" occupancy="3.33" waitingTime="0.00" speed="32.42" departed="223" arrived="0" entered="0" left="223" laneChangedFrom="0" laneChangedTo="0"/>
        </edge>
    </interval>
</meandata>
