<?xml version="1.0" encoding="UTF-8"?>

<!-- generated on Tue Mar 31 09:34:29 2020 by Eclipse SUMO Version v1_5_0+1023-63f9a82342
This data file and the accompanying materials
are made available under the terms of the Eclipse Public License v2.0
which accompanies this distribution, and is available at
http://www.eclipse.org/legal/epl-v20.html
SPDX-License-Identifier: EPL-2.0
<configuration xmlns:xsi="http://www.w3.org/2001/XMLSchema-instance" xsi:noNamespaceSchemaLocation="http://sumo.dlr.de/xsd/sumoConfiguration.xsd">

    <input>
        <net-file value="motorway.net.xml"/>
        <route-files value="input_routes.rou.xml"/>
        <additional-files value="input_additional.add.xml"/>
    </input>

    <output>
        <write-license value="true"/>
    </output>

    <processing>
        <default.speeddev value="0"/>
    </processing>

    <report>
        <verbose value="true"/>
        <xml-validation value="never"/>
        <duration-log.statistics value="true"/>
        <no-step-log value="true"/>
    </report>

</configuration>
-->

<meandata xmlns:xsi="http://www.w3.org/2001/XMLSchema-instance" xsi:noNamespaceSchemaLocation="http://sumo.dlr.de/xsd/meandata_file.xsd">
    <interval begin="0.00" end="1024.00" id="laneData">
        <edge id="beg">
            <lane id="beg_0" sampledSeconds="0.00" departed="0" arrived="0" entered="0" left="0" laneChangedFrom="0" laneChangedTo="0"/>
            <lane id="beg_1" sampledSeconds="0.00" departed="0" arrived="0" entered="0" left="0" laneChangedFrom="0" laneChangedTo="0"/>
            <lane id="beg_2" sampledSeconds="0.00" departed="0" arrived="0" entered="0" left="0" laneChangedFrom="0" laneChangedTo="0"/>
        </edge>
        <edge id="beg2">
            <lane id="beg2_0" sampledSeconds="2063.93" traveltime="93.73" overlapTraveltime="94.29" density="0.67" laneDensity="0.67" occupancy="0.33" waitingTime="0.00" speed="31.84" departed="356" arrived="0" entered="0" left="248" laneChangedFrom="110" laneChangedTo="2"/>
            <lane id="beg2_1" sampledSeconds="2270.60" traveltime="88.56" overlapTraveltime="88.80" density="0.74" laneDensity="0.74" occupancy="0.36" waitingTime="0.00" speed="33.81" departed="339" arrived="0" entered="0" left="447" laneChangedFrom="2" laneChangedTo="110"/>
        </edge>
        <edge id="end">
            <lane id="end_0" sampledSeconds="3440.88" traveltime="7.91" overlapTraveltime="8.08" density="17.06" laneDensity="17.06" occupancy="8.29" waitingTime="0.00" speed="25.01" departed="0" arrived="427" entered="427" left="0" laneChangedFrom="0" laneChangedTo="0"/>
            <lane id="end_1" sampledSeconds="3046.83" traveltime="6.07" overlapTraveltime="6.22" density="15.10" laneDensity="15.10" occupancy="7.37" waitingTime="0.00" speed="32.50" departed="0" arrived="491" entered="491" left="0" laneChangedFrom="0" laneChangedTo="0"/>
        </edge>
        <edge id="end2">
            <lane id="end2_0" sampledSeconds="0.00" departed="0" arrived="0" entered="0" left="0" laneChangedFrom="0" laneChangedTo="0"/>
        </edge>
        <edge id="end3">
            <lane id="end3_0" sampledSeconds="0.00" departed="0" arrived="0" entered="0" left="0" laneChangedFrom="0" laneChangedTo="0"/>
        </edge>
        <edge id="merge">
            <lane id="merge_0" sampledSeconds="1200.81" traveltime="10.71" overlapTraveltime="11.26" density="12.09" laneDensity="12.09" occupancy="5.94" waitingTime="339.00" speed="9.06" departed="0" arrived="0" entered="223" left="0" laneChangedFrom="223" laneChangedTo="0"/>
            <lane id="merge_1" sampledSeconds="1911.42" traveltime="5.29" overlapTraveltime="5.65" density="19.24" laneDensity="19.24" occupancy="9.15" waitingTime="34.00" speed="18.05" departed="0" arrived="0" entered="248" left="427" laneChangedFrom="44" laneChangedTo="223"/>
            <lane id="merge_2" sampledSeconds="1532.28" traveltime="3.07" overlapTraveltime="3.24" density="15.43" laneDensity="15.43" occupancy="7.34" waitingTime="0.00" speed="31.50" departed="0" arrived="0" entered="447" left="491" laneChangedFrom="0" laneChangedTo="44"/>
        </edge>
        <edge id="offRamp">
            <lane id="offRamp_0" sampledSeconds="0.00" departed="0" arrived="0" entered="0" left="0" laneChangedFrom="0" laneChangedTo="0"/>
        </edge>
        <edge id="onRamp">
            <lane id="onRamp_0" sampledSeconds="2070.14" traveltime="9.25" overlapTraveltime="9.44" density="6.69" laneDensity="6.69" occupancy="3.31" waitingTime="0.00" speed="32.54" departed="223" arrived="0" entered="0" left="223" laneChangedFrom="0" laneChangedTo="0"/>
        </edge>
    </interval>
</meandata>
