<?xml version="1.0" encoding="UTF-8"?>

<!-- generated on Sun Nov 18 22:04:33 2018 by Eclipse SUMO Version eeef47f
This data file and the accompanying materials
are made available under the terms of the Eclipse Public License v2.0
which accompanies this distribution, and is available at
http://www.eclipse.org/legal/epl-v20.html
SPDX-License-Identifier: EPL-2.0
<configuration xmlns:xsi="http://www.w3.org/2001/XMLSchema-instance" xsi:noNamespaceSchemaLocation="http://sumo.dlr.de/xsd/sumoConfiguration.xsd">

    <input>
        <net-file value="motorway.net.xml"/>
        <route-files value="input_routes.rou.xml"/>
        <additional-files value="input_additional.add.xml"/>
    </input>

    <output>
        <write-license value="true"/>
    </output>

    <processing>
        <default.speeddev value="0"/>
    </processing>

    <report>
        <verbose value="true"/>
        <xml-validation value="never"/>
        <duration-log.statistics value="true"/>
        <no-step-log value="true"/>
    </report>

</configuration>
-->

<meandata xmlns:xsi="http://www.w3.org/2001/XMLSchema-instance" xsi:noNamespaceSchemaLocation="http://sumo.dlr.de/xsd/meandata_file.xsd">
    <interval begin="0.00" end="1024.00" id="laneData">
        <edge id="beg">
            <lane id="beg_0" sampledSeconds="0.00" departed="0" arrived="0" entered="0" left="0" laneChangedFrom="0" laneChangedTo="0"/>
            <lane id="beg_1" sampledSeconds="0.00" departed="0" arrived="0" entered="0" left="0" laneChangedFrom="0" laneChangedTo="0"/>
            <lane id="beg_2" sampledSeconds="0.00" departed="0" arrived="0" entered="0" left="0" laneChangedFrom="0" laneChangedTo="0"/>
        </edge>
        <edge id="beg2">
            <lane id="beg2_0" sampledSeconds="2049.01" traveltime="93.94" overlapTraveltime="94.56" density="0.67" occupancy="0.33" waitingTime="0.00" speed="31.75" departed="359" arrived="0" entered="0" left="242" laneChangedFrom="118" laneChangedTo="1"/>
            <lane id="beg2_1" sampledSeconds="2309.17" traveltime="89.25" overlapTraveltime="89.53" density="0.75" occupancy="0.37" waitingTime="0.00" speed="33.53" departed="336" arrived="0" entered="0" left="453" laneChangedFrom="1" laneChangedTo="118"/>
        </edge>
        <edge id="end">
            <lane id="end_0" sampledSeconds="3507.78" traveltime="8.26" overlapTraveltime="8.42" density="17.39" occupancy="8.43" waitingTime="0.00" speed="23.98" departed="0" arrived="417" entered="417" left="0" laneChangedFrom="0" laneChangedTo="0"/>
            <lane id="end_1" sampledSeconds="3155.10" traveltime="6.16" overlapTraveltime="6.31" density="15.64" occupancy="7.63" waitingTime="0.00" speed="32.02" departed="0" arrived="501" entered="501" left="0" laneChangedFrom="0" laneChangedTo="0"/>
        </edge>
        <edge id="end2">
            <lane id="end2_0" sampledSeconds="0.00" departed="0" arrived="0" entered="0" left="0" laneChangedFrom="0" laneChangedTo="0"/>
        </edge>
        <edge id="end3">
            <lane id="end3_0" sampledSeconds="0.00" departed="0" arrived="0" entered="0" left="0" laneChangedFrom="0" laneChangedTo="0"/>
        </edge>
        <edge id="merge">
            <lane id="merge_0" sampledSeconds="1394.88" traveltime="11.56" overlapTraveltime="12.16" density="14.04" occupancy="6.91" waitingTime="315.00" speed="8.39" departed="0" arrived="0" entered="223" left="0" laneChangedFrom="223" laneChangedTo="0"/>
            <lane id="merge_1" sampledSeconds="2304.28" traveltime="6.66" overlapTraveltime="7.08" density="23.20" occupancy="11.07" waitingTime="104.00" speed="14.40" departed="0" arrived="0" entered="242" left="417" laneChangedFrom="48" laneChangedTo="223"/>
            <lane id="merge_2" sampledSeconds="1591.62" traveltime="3.16" overlapTraveltime="3.33" density="16.02" occupancy="7.62" waitingTime="0.00" speed="30.63" departed="0" arrived="0" entered="453" left="501" laneChangedFrom="0" laneChangedTo="48"/>
        </edge>
        <edge id="offRamp">
            <lane id="offRamp_0" sampledSeconds="0.00" departed="0" arrived="0" entered="0" left="0" laneChangedFrom="0" laneChangedTo="0"/>
        </edge>
        <edge id="onRamp">
            <lane id="onRamp_0" sampledSeconds="2077.53" traveltime="9.28" overlapTraveltime="9.47" density="6.71" occupancy="3.32" waitingTime="0.00" speed="32.43" departed="223" arrived="0" entered="0" left="223" laneChangedFrom="0" laneChangedTo="0"/>
        </edge>
    </interval>
</meandata>
