<?xml version="1.0" encoding="UTF-8"?>

<!-- generated on 2022-07-05 18:35:10 by Eclipse SUMO sumo Version v1_13_0+1412-1e5cfba
This data file and the accompanying materials
are made available under the terms of the Eclipse Public License v2.0
which accompanies this distribution, and is available at
http://www.eclipse.org/legal/epl-v20.html
This file may also be made available under the following Secondary
Licenses when the conditions for such availability set forth in the Eclipse
Public License 2.0 are satisfied: GNU General Public License, version 2
or later which is available at
https://www.gnu.org/licenses/old-licenses/gpl-2.0-standalone.html
SPDX-License-Identifier: EPL-2.0 OR GPL-2.0-or-later
<configuration xmlns:xsi="http://www.w3.org/2001/XMLSchema-instance" xsi:noNamespaceSchemaLocation="http://sumo.dlr.de/xsd/sumoConfiguration.xsd">

    <input>
        <net-file value="net.net.xml"/>
        <route-files value="input_routes.rou.xml"/>
    </input>

    <output>
        <write-license value="true"/>
        <fcd-output value="fcd.xml"/>
        <tripinfo-output value="tripinfos.xml"/>
        <vehroute-output value="vehroutes.xml"/>
    </output>

    <processing>
        <lateral-resolution value="0.8"/>
        <default.speeddev value="0"/>
    </processing>

    <report>
        <xml-validation value="never"/>
        <no-step-log value="true"/>
    </report>

</configuration>
-->

<fcd-export xmlns:xsi="http://www.w3.org/2001/XMLSchema-instance" xsi:noNamespaceSchemaLocation="http://sumo.dlr.de/xsd/fcd_file.xsd">
    <timestep time="0.00">
        <vehicle id="ego" x="0.00" y="-1.60" angle="90.00" type="DEFAULT_VEHTYPE" speed="0.00" pos="0.00" lane="a_0" slope="0.00"/>
        <vehicle id="oncoming1" x="200.00" y="1.60" angle="270.00" type="DEFAULT_VEHTYPE" speed="13.89" pos="0.00" lane="-a_0" slope="0.00"/>
    </timestep>
    <timestep time="1.00">
        <vehicle id="ego" x="2.60" y="-1.60" angle="90.00" type="DEFAULT_VEHTYPE" speed="2.60" pos="2.60" lane="a_0" slope="0.00"/>
        <vehicle id="oncoming1" x="186.11" y="1.60" angle="270.00" type="DEFAULT_VEHTYPE" speed="13.89" pos="13.89" lane="-a_0" slope="0.00"/>
    </timestep>
    <timestep time="2.00">
        <vehicle id="ego" x="7.80" y="-1.60" angle="90.00" type="DEFAULT_VEHTYPE" speed="5.20" pos="7.80" lane="a_0" slope="0.00"/>
        <vehicle id="oncoming1" x="172.22" y="1.60" angle="270.00" type="DEFAULT_VEHTYPE" speed="13.89" pos="27.78" lane="-a_0" slope="0.00"/>
        <vehicle id="oncoming2" x="200.00" y="1.60" angle="270.00" type="DEFAULT_VEHTYPE" speed="13.89" pos="0.00" lane="-a_0" slope="0.00"/>
    </timestep>
    <timestep time="3.00">
        <vehicle id="ego" x="15.60" y="-1.60" angle="90.00" type="DEFAULT_VEHTYPE" speed="7.80" pos="15.60" lane="a_0" slope="0.00"/>
        <vehicle id="oncoming1" x="158.33" y="1.60" angle="270.00" type="DEFAULT_VEHTYPE" speed="13.89" pos="41.67" lane="-a_0" slope="0.00"/>
        <vehicle id="oncoming2" x="186.11" y="1.60" angle="270.00" type="DEFAULT_VEHTYPE" speed="13.89" pos="13.89" lane="-a_0" slope="0.00"/>
    </timestep>
    <timestep time="4.00">
        <vehicle id="ego" x="26.00" y="-1.60" angle="90.00" type="DEFAULT_VEHTYPE" speed="10.40" pos="26.00" lane="a_0" slope="0.00"/>
        <vehicle id="oncoming1" x="144.44" y="1.60" angle="270.00" type="DEFAULT_VEHTYPE" speed="13.89" pos="55.56" lane="-a_0" slope="0.00"/>
        <vehicle id="oncoming2" x="172.22" y="1.60" angle="270.00" type="DEFAULT_VEHTYPE" speed="13.89" pos="27.78" lane="-a_0" slope="0.00"/>
    </timestep>
    <timestep time="5.00">
        <vehicle id="ego" x="39.00" y="-1.60" angle="90.00" type="DEFAULT_VEHTYPE" speed="13.00" pos="39.00" lane="a_0" slope="0.00"/>
        <vehicle id="oncoming1" x="130.55" y="1.60" angle="270.00" type="DEFAULT_VEHTYPE" speed="13.89" pos="69.45" lane="-a_0" slope="0.00"/>
        <vehicle id="oncoming2" x="158.33" y="1.60" angle="270.00" type="DEFAULT_VEHTYPE" speed="13.89" pos="41.67" lane="-a_0" slope="0.00"/>
    </timestep>
    <timestep time="6.00">
        <vehicle id="ego" x="52.89" y="-1.60" angle="90.00" type="DEFAULT_VEHTYPE" speed="13.89" pos="52.89" lane="a_0" slope="0.00"/>
        <vehicle id="oncoming1" x="116.66" y="1.60" angle="270.00" type="DEFAULT_VEHTYPE" speed="13.89" pos="83.34" lane="-a_0" slope="0.00"/>
        <vehicle id="oncoming2" x="144.44" y="1.60" angle="270.00" type="DEFAULT_VEHTYPE" speed="13.89" pos="55.56" lane="-a_0" slope="0.00"/>
    </timestep>
    <timestep time="7.00">
        <vehicle id="ego" x="66.42" y="-1.60" angle="90.00" type="DEFAULT_VEHTYPE" speed="13.53" pos="66.42" lane="a_0" slope="0.00"/>
        <vehicle id="oncoming1" x="102.77" y="1.60" angle="270.00" type="DEFAULT_VEHTYPE" speed="13.89" pos="97.23" lane="-a_0" slope="0.00"/>
        <vehicle id="oncoming2" x="130.55" y="1.60" angle="270.00" type="DEFAULT_VEHTYPE" speed="13.89" pos="69.45" lane="-a_0" slope="0.00"/>
    </timestep>
    <timestep time="8.00">
        <vehicle id="ego" x="75.45" y="-1.60" angle="90.00" type="DEFAULT_VEHTYPE" speed="9.03" pos="75.45" lane="a_0" slope="0.00"/>
        <vehicle id="oncoming1" x="88.88" y="1.60" angle="270.00" type="DEFAULT_VEHTYPE" speed="13.89" pos="111.12" lane="-a_0" slope="0.00"/>
        <vehicle id="oncoming2" x="116.66" y="1.60" angle="270.00" type="DEFAULT_VEHTYPE" speed="13.89" pos="83.34" lane="-a_0" slope="0.00"/>
    </timestep>
    <timestep time="9.00">
        <vehicle id="ego" x="79.97" y="-1.60" angle="90.00" type="DEFAULT_VEHTYPE" speed="4.53" pos="79.97" lane="a_0" slope="0.00"/>
        <vehicle id="oncoming1" x="74.99" y="1.60" angle="270.00" type="DEFAULT_VEHTYPE" speed="13.89" pos="125.01" lane="-a_0" slope="0.00"/>
        <vehicle id="oncoming2" x="102.77" y="1.60" angle="270.00" type="DEFAULT_VEHTYPE" speed="13.89" pos="97.23" lane="-a_0" slope="0.00"/>
    </timestep>
    <timestep time="10.00">
        <vehicle id="ego" x="80.00" y="-1.60" angle="90.00" type="DEFAULT_VEHTYPE" speed="0.03" pos="80.00" lane="a_0" slope="0.00"/>
        <vehicle id="oncoming1" x="61.10" y="1.60" angle="270.00" type="DEFAULT_VEHTYPE" speed="13.89" pos="138.90" lane="-a_0" slope="0.00"/>
        <vehicle id="oncoming2" x="88.88" y="1.60" angle="270.00" type="DEFAULT_VEHTYPE" speed="13.89" pos="111.12" lane="-a_0" slope="0.00"/>
    </timestep>
    <timestep time="11.00">
        <vehicle id="ego" x="80.00" y="-1.60" angle="90.00" type="DEFAULT_VEHTYPE" speed="0.00" pos="80.00" lane="a_0" slope="0.00"/>
        <vehicle id="oncoming1" x="47.21" y="1.60" angle="270.00" type="DEFAULT_VEHTYPE" speed="13.89" pos="152.79" lane="-a_0" slope="0.00"/>
        <vehicle id="oncoming2" x="74.99" y="1.60" angle="270.00" type="DEFAULT_VEHTYPE" speed="13.89" pos="125.01" lane="-a_0" slope="0.00"/>
    </timestep>
    <timestep time="12.00">
        <vehicle id="ego" x="80.00" y="-0.60" angle="78.69" type="DEFAULT_VEHTYPE" speed="0.00" pos="80.00" lane="a_0" slope="0.00"/>
        <vehicle id="oncoming1" x="33.32" y="1.60" angle="270.00" type="DEFAULT_VEHTYPE" speed="13.89" pos="166.68" lane="-a_0" slope="0.00"/>
        <vehicle id="oncoming2" x="61.10" y="1.60" angle="270.00" type="DEFAULT_VEHTYPE" speed="13.89" pos="138.90" lane="-a_0" slope="0.00"/>
        <vehicle id="oncoming3" x="200.00" y="1.60" angle="270.00" type="DEFAULT_VEHTYPE" speed="13.89" pos="0.00" lane="-a_0" slope="0.00"/>
    </timestep>
    <timestep time="13.00">
        <vehicle id="ego" x="80.00" y="0.40" angle="78.69" type="DEFAULT_VEHTYPE" speed="0.00" pos="120.00" lane="-a_0" slope="0.00"/>
        <vehicle id="oncoming1" x="19.43" y="1.60" angle="270.00" type="DEFAULT_VEHTYPE" speed="13.89" pos="180.57" lane="-a_0" slope="0.00"/>
        <vehicle id="oncoming2" x="47.21" y="1.60" angle="270.00" type="DEFAULT_VEHTYPE" speed="13.89" pos="152.79" lane="-a_0" slope="0.00"/>
        <vehicle id="oncoming3" x="186.11" y="1.60" angle="270.00" type="DEFAULT_VEHTYPE" speed="13.89" pos="13.89" lane="-a_0" slope="0.00"/>
    </timestep>
    <timestep time="14.00">
        <vehicle id="ego" x="80.00" y="2.30" angle="90.00" type="DEFAULT_VEHTYPE" speed="0.00" pos="120.00" lane="-a_0" slope="0.00"/>
        <vehicle id="oncoming1" x="5.54" y="1.60" angle="270.00" type="DEFAULT_VEHTYPE" speed="13.89" pos="194.46" lane="-a_0" slope="0.00"/>
        <vehicle id="oncoming2" x="33.32" y="1.60" angle="270.00" type="DEFAULT_VEHTYPE" speed="13.89" pos="166.68" lane="-a_0" slope="0.00"/>
        <vehicle id="oncoming3" x="172.22" y="1.60" angle="270.00" type="DEFAULT_VEHTYPE" speed="13.89" pos="27.78" lane="-a_0" slope="0.00"/>
    </timestep>
    <timestep time="15.00">
        <vehicle id="ego" x="80.00" y="2.30" angle="90.00" type="DEFAULT_VEHTYPE" speed="0.00" pos="120.00" lane="-a_0" slope="0.00"/>
        <vehicle id="oncoming2" x="19.43" y="1.60" angle="270.00" type="DEFAULT_VEHTYPE" speed="13.89" pos="180.57" lane="-a_0" slope="0.00"/>
        <vehicle id="oncoming3" x="158.33" y="1.60" angle="270.00" type="DEFAULT_VEHTYPE" speed="13.89" pos="41.67" lane="-a_0" slope="0.00"/>
    </timestep>
    <timestep time="16.00">
        <vehicle id="ego" x="80.00" y="2.30" angle="90.00" type="DEFAULT_VEHTYPE" speed="0.00" pos="120.00" lane="-a_0" slope="0.00"/>
        <vehicle id="oncoming2" x="5.54" y="1.60" angle="270.00" type="DEFAULT_VEHTYPE" speed="13.89" pos="194.46" lane="-a_0" slope="0.00"/>
        <vehicle id="oncoming3" x="144.44" y="1.60" angle="270.00" type="DEFAULT_VEHTYPE" speed="13.89" pos="55.56" lane="-a_0" slope="0.00"/>
    </timestep>
    <timestep time="17.00">
        <vehicle id="ego" x="80.00" y="2.30" angle="90.00" type="DEFAULT_VEHTYPE" speed="0.00" pos="120.00" lane="-a_0" slope="0.00"/>
        <vehicle id="oncoming3" x="130.55" y="1.60" angle="270.00" type="DEFAULT_VEHTYPE" speed="13.89" pos="69.45" lane="-a_0" slope="0.00"/>
    </timestep>
    <timestep time="18.00">
        <vehicle id="ego" x="80.00" y="2.30" angle="90.00" type="DEFAULT_VEHTYPE" speed="0.00" pos="120.00" lane="-a_0" slope="0.00"/>
        <vehicle id="oncoming3" x="116.66" y="1.60" angle="270.00" type="DEFAULT_VEHTYPE" speed="13.89" pos="83.34" lane="-a_0" slope="0.00"/>
    </timestep>
    <timestep time="19.00">
        <vehicle id="ego" x="80.00" y="2.30" angle="90.00" type="DEFAULT_VEHTYPE" speed="0.00" pos="120.00" lane="-a_0" slope="0.00"/>
        <vehicle id="oncoming3" x="102.77" y="1.60" angle="270.00" type="DEFAULT_VEHTYPE" speed="13.89" pos="97.23" lane="-a_0" slope="0.00"/>
    </timestep>
    <timestep time="20.00">
        <vehicle id="ego" x="80.00" y="2.30" angle="90.00" type="DEFAULT_VEHTYPE" speed="0.00" pos="120.00" lane="-a_0" slope="0.00"/>
        <vehicle id="oncoming3" x="91.51" y="1.60" angle="270.00" type="DEFAULT_VEHTYPE" speed="11.26" pos="108.49" lane="-a_0" slope="0.00"/>
    </timestep>
    <timestep time="21.00">
        <vehicle id="ego" x="80.00" y="2.30" angle="90.00" type="DEFAULT_VEHTYPE" speed="0.00" pos="120.00" lane="-a_0" slope="0.00"/>
        <vehicle id="oncoming3" x="86.06" y="0.60" angle="264.54" type="DEFAULT_VEHTYPE" speed="5.46" pos="113.94" lane="-a_0" slope="0.00"/>
    </timestep>
    <timestep time="22.00">
        <vehicle id="ego" x="80.00" y="2.30" angle="90.00" type="DEFAULT_VEHTYPE" speed="0.00" pos="120.00" lane="-a_0" slope="0.00"/>
        <vehicle id="oncoming3" x="85.10" y="-0.40" angle="260.47" type="DEFAULT_VEHTYPE" speed="0.96" pos="85.10" lane="a_0" slope="0.00"/>
    </timestep>
    <timestep time="23.00">
        <vehicle id="ego" x="80.00" y="2.30" angle="90.00" type="DEFAULT_VEHTYPE" speed="0.00" pos="120.00" lane="-a_0" slope="0.00"/>
        <vehicle id="oncoming3" x="81.54" y="-0.40" angle="270.00" type="DEFAULT_VEHTYPE" speed="3.56" pos="81.54" lane="a_0" slope="0.00"/>
    </timestep>
    <timestep time="24.00">
        <vehicle id="ego" x="82.60" y="2.30" angle="90.00" type="DEFAULT_VEHTYPE" speed="2.60" pos="117.40" lane="-a_0" slope="0.00"/>
        <vehicle id="oncoming3" x="75.39" y="-0.40" angle="270.00" type="DEFAULT_VEHTYPE" speed="6.16" pos="75.39" lane="a_0" slope="0.00"/>
    </timestep>
    <timestep time="25.00">
        <vehicle id="ego" x="85.98" y="2.30" angle="90.00" type="DEFAULT_VEHTYPE" speed="3.38" pos="114.02" lane="-a_0" slope="0.00"/>
        <vehicle id="oncoming3" x="66.63" y="0.60" angle="274.16" type="DEFAULT_VEHTYPE" speed="8.76" pos="133.37" lane="-a_0" slope="0.00"/>
    </timestep>
    <timestep time="26.00">
        <vehicle id="ego" x="87.15" y="1.30" angle="99.20" type="DEFAULT_VEHTYPE" speed="1.17" pos="112.85" lane="-a_0" slope="0.00"/>
        <vehicle id="oncoming3" x="55.28" y="1.60" angle="273.50" type="DEFAULT_VEHTYPE" speed="11.36" pos="144.72" lane="-a_0" slope="0.00"/>
    </timestep>
    <timestep time="27.00">
        <vehicle id="ego" x="90.92" y="0.30" angle="96.50" type="DEFAULT_VEHTYPE" speed="3.77" pos="109.08" lane="-a_0" slope="0.00"/>
        <vehicle id="oncoming3" x="41.39" y="1.60" angle="270.00" type="DEFAULT_VEHTYPE" speed="13.89" pos="158.61" lane="-a_0" slope="0.00"/>
    </timestep>
    <timestep time="28.00">
        <vehicle id="ego" x="97.30" y="-0.70" angle="95.03" type="DEFAULT_VEHTYPE" speed="6.37" pos="97.30" lane="a_0" slope="0.00"/>
        <vehicle id="oncoming3" x="27.50" y="1.60" angle="270.00" type="DEFAULT_VEHTYPE" speed="13.89" pos="172.50" lane="-a_0" slope="0.00"/>
    </timestep>
    <timestep time="29.00">
        <vehicle id="ego" x="106.27" y="-1.60" angle="93.69" type="DEFAULT_VEHTYPE" speed="8.97" pos="106.27" lane="a_0" slope="0.00"/>
        <vehicle id="oncoming3" x="13.61" y="1.60" angle="270.00" type="DEFAULT_VEHTYPE" speed="13.89" pos="186.39" lane="-a_0" slope="0.00"/>
    </timestep>
    <timestep time="30.00">
        <vehicle id="ego" x="117.84" y="-1.60" angle="90.00" type="DEFAULT_VEHTYPE" speed="11.57" pos="117.84" lane="a_0" slope="0.00"/>
    </timestep>
    <timestep time="31.00">
        <vehicle id="ego" x="131.73" y="-1.60" angle="90.00" type="DEFAULT_VEHTYPE" speed="13.89" pos="131.73" lane="a_0" slope="0.00"/>
    </timestep>
    <timestep time="32.00">
        <vehicle id="ego" x="145.62" y="-1.60" angle="90.00" type="DEFAULT_VEHTYPE" speed="13.89" pos="145.62" lane="a_0" slope="0.00"/>
    </timestep>
    <timestep time="33.00">
        <vehicle id="ego" x="159.51" y="-1.60" angle="90.00" type="DEFAULT_VEHTYPE" speed="13.89" pos="159.51" lane="a_0" slope="0.00"/>
    </timestep>
    <timestep time="34.00">
        <vehicle id="ego" x="173.40" y="-1.60" angle="90.00" type="DEFAULT_VEHTYPE" speed="13.89" pos="173.40" lane="a_0" slope="0.00"/>
    </timestep>
    <timestep time="35.00">
        <vehicle id="ego" x="187.29" y="-1.60" angle="90.00" type="DEFAULT_VEHTYPE" speed="13.89" pos="187.29" lane="a_0" slope="0.00"/>
    </timestep>
    <timestep time="36.00"/>
</fcd-export>
