<?xml version="1.0"?>

<!-- generated on 01/05/11 14:54:20 by SUMO sumo Version dev-SVN-r9525
<?xml version="1.0" encoding="iso-8859-1"?>

<configuration xmlns:xsi="http://www.w3.org/2001/XMLSchema-instance" xsi:noNamespaceSchemaLocation="http://sumo.sf.net/xsd/sumoConfiguration.xsd">

    <input>
        <net-file value="three_split.net.xml"/>
        <additional-files value="input_routes.rou.xml,input_additional.add.xml"/>
    </input>

    <output>
        <vehroute-output value="vehroutes.xml"/>
    </output>

    <report>
        <no-duration-log value="true"/>
        <no-step-log value="true"/>
    </report>

</configuration>
-->

<routes>
    <vehicle id="emitter_4.00_4" depart="10.00" arrival="87.00">
        <route edges="beg middle end rend"/>
    </vehicle>

    <vehicle id="emitter_5.00_5" depart="12.00" arrival="88.00">
        <route edges="beg middle end rend"/>
    </vehicle>

    <vehicle id="emitter_6.00_6" depart="15.00" arrival="90.00">
        <route edges="beg middle end rend"/>
    </vehicle>

    <vehicle id="emitter_8.00_8" depart="20.00" arrival="96.00">
        <route edges="beg middle end rend"/>
    </vehicle>

    <vehicle id="emitter_9.00_9" depart="22.00" arrival="98.00">
        <route edges="beg middle end rend"/>
    </vehicle>

    <vehicle id="emitter_0.00_0" depart="0.00" arrival="187.00">
        <route edges="beg beg2left left left2end end rend"/>
    </vehicle>

    <vehicle id="emitter_1.00_1" depart="2.00" arrival="190.00">
        <route edges="beg beg2left left left2end end rend"/>
    </vehicle>

    <vehicle id="emitter_2.00_2" depart="5.00" arrival="193.00">
        <route edges="beg beg2left left left2end end rend"/>
    </vehicle>

    <vehicle id="emitter_3.00_3" depart="7.00" arrival="196.00">
        <route edges="beg beg2left left left2end end rend"/>
    </vehicle>

    <vehicle id="emitter_7.00_7" depart="17.00" arrival="205.00">
        <route edges="beg beg2left left left2end end rend"/>
    </vehicle>

</routes>
