<?xml version="1.0" encoding="UTF-8"?>

<!-- generated on 05/02/13 14:14:46 by SUMO sumo Version 0.17.0
<?xml version="1.0" encoding="UTF-8"?>

<configuration xmlns:xsi="http://www.w3.org/2001/XMLSchema-instance" xsi:noNamespaceSchemaLocation="http://sumo-sim.org/xsd/sumoConfiguration.xsd">

    <input>
        <net-file value="net.net.xml"/>
        <route-files value="input_routes.rou.xml"/>
        <additional-files value="input_additional.add.xml"/>
    </input>

    <time>
        <begin value="0"/>
        <end value="150"/>
    </time>

    <report>
        <no-duration-log value="true"/>
        <no-step-log value="true"/>
    </report>

</configuration>
-->

<meandata xmlns:xsi="http://www.w3.org/2001/XMLSchema-instance" xsi:noNamespaceSchemaLocation="http://sumo-sim.org/xsd/meandata_file.xsd">
    <interval begin="0.00" end="150.00" id="dump_300">
        <edge id="0/0to0/1">
            <lane id="0/0to0/1_0" sampledSeconds="0.00" noise="0.00" traveltime="39.20"/>
        </edge>
        <edge id="0/0to1/0">
            <lane id="0/0to1/0_0" sampledSeconds="0.00" noise="0.00" traveltime="39.20"/>
        </edge>
        <edge id="0/1to0/0">
            <lane id="0/1to0/0_0" sampledSeconds="0.00" noise="0.00" traveltime="39.20"/>
        </edge>
        <edge id="0/1to0/2">
            <lane id="0/1to0/2_0" sampledSeconds="0.00" noise="0.00" traveltime="39.20"/>
        </edge>
        <edge id="0/1to1/1">
            <lane id="0/1to1/1_0" sampledSeconds="0.00" noise="0.00" traveltime="39.05"/>
        </edge>
        <edge id="0/2to0/1">
            <lane id="0/2to0/1_0" sampledSeconds="0.00" noise="0.00" traveltime="39.20"/>
        </edge>
        <edge id="0/2to1/2">
            <lane id="0/2to1/2_0" sampledSeconds="0.00" noise="0.00" traveltime="39.20"/>
        </edge>
        <edge id="1/0to0/0">
            <lane id="1/0to0/0_0" sampledSeconds="0.00" noise="0.00" traveltime="39.20"/>
        </edge>
        <edge id="1/0to1/1">
            <lane id="1/0to1/1_0" sampledSeconds="0.00" noise="0.00" traveltime="39.05"/>
        </edge>
        <edge id="1/0to2/0">
            <lane id="1/0to2/0_0" sampledSeconds="0.00" noise="0.00" traveltime="39.05"/>
        </edge>
        <edge id="1/1to0/1">
            <lane id="1/1to0/1_0" sampledSeconds="0.00" noise="0.00" traveltime="39.05"/>
        </edge>
        <edge id="1/1to1/0">
            <lane id="1/1to1/0_0" sampledSeconds="0.00" noise="0.00" traveltime="39.05"/>
        </edge>
        <edge id="1/1to1/2">
            <lane id="1/1to1/2_0" sampledSeconds="0.00" noise="0.00" traveltime="39.05"/>
        </edge>
        <edge id="1/1to2/1">
            <lane id="1/1to2/1_0" sampledSeconds="0.00" noise="0.00" traveltime="39.05"/>
        </edge>
        <edge id="1/2to0/2">
            <lane id="1/2to0/2_0" sampledSeconds="0.00" noise="0.00" traveltime="39.20"/>
        </edge>
        <edge id="1/2to1/1">
            <lane id="1/2to1/1_0" sampledSeconds="0.00" noise="0.00" traveltime="39.05"/>
        </edge>
        <edge id="1/2to2/2">
            <lane id="1/2to2/2_0" sampledSeconds="0.00" noise="0.00" traveltime="39.05"/>
        </edge>
        <edge id="2/0to1/0">
            <lane id="2/0to1/0_0" sampledSeconds="0.00" noise="0.00" traveltime="39.05"/>
        </edge>
        <edge id="2/0to2/1">
            <lane id="2/0to2/1_0" sampledSeconds="0.00" noise="0.00" traveltime="39.05"/>
        </edge>
        <edge id="2/0to3/0">
            <lane id="2/0to3/0_0" sampledSeconds="0.00" noise="0.00" traveltime="39.05"/>
        </edge>
        <edge id="2/1to1/1">
            <lane id="2/1to1/1_0" sampledSeconds="0.00" noise="0.00" traveltime="39.05"/>
        </edge>
        <edge id="2/1to2/0">
            <lane id="2/1to2/0_0" sampledSeconds="0.00" noise="0.00" traveltime="39.05"/>
        </edge>
        <edge id="2/1to2/2">
            <lane id="2/1to2/2_0" sampledSeconds="0.00" noise="0.00" traveltime="39.05"/>
        </edge>
        <edge id="2/1to3/1">
            <lane id="2/1to3/1_0" sampledSeconds="0.00" noise="0.00" traveltime="39.05"/>
        </edge>
        <edge id="2/2to1/2">
            <lane id="2/2to1/2_0" sampledSeconds="0.00" noise="0.00" traveltime="39.05"/>
        </edge>
        <edge id="2/2to2/1">
            <lane id="2/2to2/1_0" sampledSeconds="0.00" noise="0.00" traveltime="39.05"/>
        </edge>
        <edge id="2/2to3/2">
            <lane id="2/2to3/2_0" sampledSeconds="0.00" noise="0.00" traveltime="39.05"/>
        </edge>
        <edge id="3/0to2/0">
            <lane id="3/0to2/0_0" sampledSeconds="0.00" noise="0.00" traveltime="39.05"/>
        </edge>
        <edge id="3/0to3/1">
            <lane id="3/0to3/1_0" sampledSeconds="0.00" noise="0.00" traveltime="39.05"/>
        </edge>
        <edge id="3/0to4/0">
            <lane id="3/0to4/0_0" sampledSeconds="0.00" noise="0.00" traveltime="39.20"/>
        </edge>
        <edge id="3/1to2/1">
            <lane id="3/1to2/1_0" sampledSeconds="0.00" noise="0.00" traveltime="39.05"/>
        </edge>
        <edge id="3/1to3/0">
            <lane id="3/1to3/0_0" sampledSeconds="0.00" noise="0.00" traveltime="39.05"/>
        </edge>
        <edge id="3/1to3/2">
            <lane id="3/1to3/2_0" sampledSeconds="0.00" noise="0.00" traveltime="39.05"/>
        </edge>
        <edge id="3/1to4/1">
            <lane id="3/1to4/1_0" sampledSeconds="0.00" noise="0.00" traveltime="39.05"/>
        </edge>
        <edge id="3/2to2/2">
            <lane id="3/2to2/2_0" sampledSeconds="0.00" noise="0.00" traveltime="39.05"/>
        </edge>
        <edge id="3/2to3/1">
            <lane id="3/2to3/1_0" sampledSeconds="0.00" noise="0.00" traveltime="39.05"/>
        </edge>
        <edge id="3/2to4/2">
            <lane id="3/2to4/2_0" sampledSeconds="0.00" noise="0.00" traveltime="39.20"/>
        </edge>
        <edge id="4/0to3/0">
            <lane id="4/0to3/0_0" sampledSeconds="0.00" noise="0.00" traveltime="39.20"/>
        </edge>
        <edge id="4/0to4/1">
            <lane id="4/0to4/1_0" sampledSeconds="0.00" noise="0.00" traveltime="39.20"/>
        </edge>
        <edge id="4/1to3/1">
            <lane id="4/1to3/1_0" sampledSeconds="0.00" noise="0.00" traveltime="39.05"/>
        </edge>
        <edge id="4/1to4/0">
            <lane id="4/1to4/0_0" sampledSeconds="0.00" noise="0.00" traveltime="39.20"/>
        </edge>
        <edge id="4/1to4/2">
            <lane id="4/1to4/2_0" sampledSeconds="0.00" noise="0.00" traveltime="39.20"/>
        </edge>
        <edge id="4/2to3/2">
            <lane id="4/2to3/2_0" sampledSeconds="0.00" noise="0.00" traveltime="39.20"/>
        </edge>
        <edge id="4/2to4/1">
            <lane id="4/2to4/1_0" sampledSeconds="0.00" noise="0.00" traveltime="39.20"/>
        </edge>
    </interval>
</meandata>
