<?xml version="1.0" encoding="UTF-8"?>

<!-- generated on 05/03/18 10:47:47 by Eclipse SUMO Version v0_32_0+1309-3071e173cf
This data file and the accompanying materials
are made available under the terms of the Eclipse Public License v2.0
which accompanies this distribution, and is available at
http://www.eclipse.org/legal/epl-v20.html
SPDX-License-Identifier: EPL-2.0
<configuration xmlns:xsi="http://www.w3.org/2001/XMLSchema-instance" xsi:noNamespaceSchemaLocation="http://sumo.dlr.de/xsd/sumoConfiguration.xsd">

    <input>
        <net-file value="net.net.xml"/>
        <route-files value="input_routes.rou.xml"/>
    </input>

    <output>
        <write-license value="true"/>
        <vehroute-output value="vehroutes.xml"/>
        <vehroute-output.skip-ptlines value="true"/>
    </output>

    <processing>
        <pedestrian.model value="nonInteracting"/>
    </processing>

    <report>
        <xml-validation value="never"/>
        <no-step-log value="true"/>
    </report>

    <mesoscopic>
        <mesosim value="true"/>
    </mesoscopic>

</configuration>
-->

<routes xmlns:xsi="http://www.w3.org/2001/XMLSchema-instance" xsi:noNamespaceSchemaLocation="http://sumo.dlr.de/xsd/routes_file.xsd">
    <vehicle id="p0_0" depart="triggered" arrival="90.00">
        <route edges="beg middle"/>
    </vehicle>

    <vehicle id="p1_0" depart="triggered" arrival="92.00">
        <route edges="beg beg2left left left2end"/>
    </vehicle>

    <person id="p0" depart="0.00" arrival="270.00">
        <ride from="beg" to="middle" lines="p0_0"/>
        <walk edges="end"/>
    </person>

    <person id="p1" depart="0.00" arrival="452.00">
        <ride from="beg" to="left2end" lines="p1_0"/>
        <walk edges="middle"/>
    </person>

</routes>
