<?xml version="1.0" encoding="UTF-8"?>

<!-- generated on 2024-03-07 22:27:52 by Eclipse SUMO sumo Version v1_19_0+1200-d6b735e953a
This data file and the accompanying materials
are made available under the terms of the Eclipse Public License v2.0
which accompanies this distribution, and is available at
http://www.eclipse.org/legal/epl-v20.html
This file may also be made available under the following Secondary
Licenses when the conditions for such availability set forth in the Eclipse
Public License 2.0 are satisfied: GNU General Public License, version 2
or later which is available at
https://www.gnu.org/licenses/old-licenses/gpl-2.0-standalone.html
SPDX-License-Identifier: EPL-2.0 OR GPL-2.0-or-later
<configuration xmlns:xsi="http://www.w3.org/2001/XMLSchema-instance" xsi:noNamespaceSchemaLocation="http://sumo.dlr.de/xsd/sumoConfiguration.xsd">

    <input>
        <net-file value="net.net.xml"/>
        <route-files value="input_routes.rou.xml"/>
    </input>

    <output>
        <write-license value="true"/>
        <fcd-output value="fcd.sumo"/>
        <fcd-output.signals value="true"/>
    </output>

    <time>
        <begin value="0"/>
        <end value="60"/>
    </time>

    <processing>
        <default.speeddev value="0"/>
    </processing>

    <report>
        <xml-validation value="never"/>
        <no-step-log value="true"/>
    </report>

    <mesoscopic>
        <mesosim value="true"/>
        <meso-junction-control value="true"/>
    </mesoscopic>

    <random_number>
        <seed value="23"/>
    </random_number>

</configuration>
-->

<fcd-export xmlns:xsi="http://www.w3.org/2001/XMLSchema-instance" xsi:noNamespaceSchemaLocation="http://sumo.dlr.de/xsd/fcd_file.xsd">
    <timestep time="0.00"/>
    <timestep time="1.00">
        <vehicle id="veh0" x="0.00" y="-1.65" angle="90.00" type="Dawdler" speed="13.90" pos="0.00" edge="1to2" slope="0.00"/>
    </timestep>
    <timestep time="2.00">
        <vehicle id="veh0" x="0.00" y="-1.65" angle="90.00" type="Dawdler" speed="13.90" pos="0.00" edge="1to2" slope="0.00"/>
        <vehicle id="veh1" x="0.00" y="-1.65" angle="90.00" type="Follower" speed="12.72" pos="0.00" edge="1to2" slope="0.00"/>
    </timestep>
    <timestep time="3.00">
        <vehicle id="veh0" x="0.00" y="-1.65" angle="90.00" type="Dawdler" speed="13.90" pos="0.00" edge="1to2" slope="0.00"/>
        <vehicle id="veh1" x="0.00" y="-1.65" angle="90.00" type="Follower" speed="12.72" pos="0.00" edge="1to2" slope="0.00"/>
    </timestep>
    <timestep time="4.00">
        <vehicle id="veh0" x="0.00" y="-1.65" angle="90.00" type="Dawdler" speed="13.90" pos="0.00" edge="1to2" slope="0.00"/>
        <vehicle id="veh1" x="0.00" y="-1.65" angle="90.00" type="Follower" speed="12.72" pos="0.00" edge="1to2" slope="0.00"/>
    </timestep>
    <timestep time="5.00">
        <vehicle id="veh0" x="0.00" y="-1.65" angle="90.00" type="Dawdler" speed="13.90" pos="0.00" edge="1to2" slope="0.00"/>
        <vehicle id="veh1" x="0.00" y="-1.65" angle="90.00" type="Follower" speed="12.72" pos="0.00" edge="1to2" slope="0.00"/>
    </timestep>
    <timestep time="6.00">
        <vehicle id="veh0" x="0.00" y="-1.65" angle="90.00" type="Dawdler" speed="13.90" pos="0.00" edge="1to2" slope="0.00"/>
        <vehicle id="veh1" x="0.00" y="-1.65" angle="90.00" type="Follower" speed="12.72" pos="0.00" edge="1to2" slope="0.00"/>
    </timestep>
    <timestep time="7.00">
        <vehicle id="veh0" x="0.00" y="-1.65" angle="90.00" type="Dawdler" speed="13.90" pos="0.00" edge="1to2" slope="0.00"/>
        <vehicle id="veh1" x="0.00" y="-1.65" angle="90.00" type="Follower" speed="12.72" pos="0.00" edge="1to2" slope="0.00"/>
    </timestep>
    <timestep time="8.00">
        <vehicle id="veh0" x="0.00" y="-1.65" angle="90.00" type="Dawdler" speed="13.90" pos="0.00" edge="1to2" slope="0.00"/>
        <vehicle id="veh1" x="0.00" y="-1.65" angle="90.00" type="Follower" speed="12.72" pos="0.00" edge="1to2" slope="0.00"/>
    </timestep>
    <timestep time="9.00">
        <vehicle id="veh0" x="100.00" y="-1.65" angle="90.00" type="Dawdler" speed="13.90" pos="100.00" edge="1to2" slope="0.00"/>
        <vehicle id="veh1" x="0.00" y="-1.65" angle="90.00" type="Follower" speed="12.72" pos="0.00" edge="1to2" slope="0.00"/>
    </timestep>
    <timestep time="10.00">
        <vehicle id="veh0" x="100.00" y="-1.65" angle="90.00" type="Dawdler" speed="13.90" pos="100.00" edge="1to2" slope="0.00"/>
        <vehicle id="veh1" x="100.00" y="-1.65" angle="90.00" type="Follower" speed="13.90" pos="100.00" edge="1to2" slope="0.00"/>
    </timestep>
    <timestep time="11.00">
        <vehicle id="veh0" x="100.00" y="-1.65" angle="90.00" type="Dawdler" speed="13.90" pos="100.00" edge="1to2" slope="0.00"/>
        <vehicle id="veh1" x="100.00" y="-1.65" angle="90.00" type="Follower" speed="13.90" pos="100.00" edge="1to2" slope="0.00"/>
    </timestep>
    <timestep time="12.00">
        <vehicle id="veh0" x="100.00" y="-1.65" angle="90.00" type="Dawdler" speed="13.90" pos="100.00" edge="1to2" slope="0.00"/>
        <vehicle id="veh1" x="100.00" y="-1.65" angle="90.00" type="Follower" speed="13.90" pos="100.00" edge="1to2" slope="0.00"/>
    </timestep>
    <timestep time="13.00">
        <vehicle id="veh0" x="100.00" y="-1.65" angle="90.00" type="Dawdler" speed="13.90" pos="100.00" edge="1to2" slope="0.00"/>
        <vehicle id="veh1" x="100.00" y="-1.65" angle="90.00" type="Follower" speed="13.90" pos="100.00" edge="1to2" slope="0.00"/>
    </timestep>
    <timestep time="14.00">
        <vehicle id="veh0" x="100.00" y="-1.65" angle="90.00" type="Dawdler" speed="13.90" pos="100.00" edge="1to2" slope="0.00"/>
        <vehicle id="veh1" x="100.00" y="-1.65" angle="90.00" type="Follower" speed="13.90" pos="100.00" edge="1to2" slope="0.00"/>
    </timestep>
    <timestep time="15.00">
        <vehicle id="veh0" x="100.00" y="-1.65" angle="90.00" type="Dawdler" speed="13.90" pos="100.00" edge="1to2" slope="0.00"/>
        <vehicle id="veh1" x="100.00" y="-1.65" angle="90.00" type="Follower" speed="13.90" pos="100.00" edge="1to2" slope="0.00"/>
    </timestep>
    <timestep time="16.00">
        <vehicle id="veh0" x="200.00" y="-1.65" angle="90.00" type="Dawdler" speed="13.90" pos="200.00" edge="1to2" slope="0.00"/>
        <vehicle id="veh1" x="100.00" y="-1.65" angle="90.00" type="Follower" speed="13.90" pos="100.00" edge="1to2" slope="0.00"/>
    </timestep>
    <timestep time="17.00">
        <vehicle id="veh0" x="200.00" y="-1.65" angle="90.00" type="Dawdler" speed="13.90" pos="200.00" edge="1to2" slope="0.00"/>
        <vehicle id="veh1" x="100.00" y="-1.65" angle="90.00" type="Follower" speed="13.90" pos="100.00" edge="1to2" slope="0.00"/>
    </timestep>
    <timestep time="18.00">
        <vehicle id="veh0" x="200.00" y="-1.65" angle="90.00" type="Dawdler" speed="13.90" pos="200.00" edge="1to2" slope="0.00"/>
        <vehicle id="veh1" x="200.00" y="-1.65" angle="90.00" type="Follower" speed="13.90" pos="200.00" edge="1to2" slope="0.00"/>
    </timestep>
    <timestep time="19.00">
        <vehicle id="veh0" x="200.00" y="-1.65" angle="90.00" type="Dawdler" speed="13.90" pos="200.00" edge="1to2" slope="0.00"/>
        <vehicle id="veh1" x="200.00" y="-1.65" angle="90.00" type="Follower" speed="13.90" pos="200.00" edge="1to2" slope="0.00"/>
    </timestep>
    <timestep time="20.00">
        <vehicle id="veh0" x="200.00" y="-1.65" angle="90.00" type="Dawdler" speed="13.90" pos="200.00" edge="1to2" slope="0.00"/>
        <vehicle id="veh1" x="200.00" y="-1.65" angle="90.00" type="Follower" speed="13.90" pos="200.00" edge="1to2" slope="0.00"/>
    </timestep>
    <timestep time="21.00">
        <vehicle id="veh0" x="200.00" y="-1.65" angle="90.00" type="Dawdler" speed="13.90" pos="200.00" edge="1to2" slope="0.00"/>
        <vehicle id="veh1" x="200.00" y="-1.65" angle="90.00" type="Follower" speed="13.90" pos="200.00" edge="1to2" slope="0.00"/>
    </timestep>
    <timestep time="22.00">
        <vehicle id="veh0" x="200.00" y="-1.65" angle="90.00" type="Dawdler" speed="13.90" pos="200.00" edge="1to2" slope="0.00"/>
        <vehicle id="veh1" x="200.00" y="-1.65" angle="90.00" type="Follower" speed="13.90" pos="200.00" edge="1to2" slope="0.00"/>
    </timestep>
    <timestep time="23.00">
        <vehicle id="veh0" x="300.00" y="-1.65" angle="90.00" type="Dawdler" speed="13.90" pos="300.00" edge="1to2" slope="0.00"/>
        <vehicle id="veh1" x="200.00" y="-1.65" angle="90.00" type="Follower" speed="13.90" pos="200.00" edge="1to2" slope="0.00"/>
    </timestep>
    <timestep time="24.00">
        <vehicle id="veh0" x="300.00" y="-1.65" angle="90.00" type="Dawdler" speed="13.90" pos="300.00" edge="1to2" slope="0.00"/>
        <vehicle id="veh1" x="200.00" y="-1.65" angle="90.00" type="Follower" speed="13.90" pos="200.00" edge="1to2" slope="0.00"/>
    </timestep>
    <timestep time="25.00">
        <vehicle id="veh0" x="300.00" y="-1.65" angle="90.00" type="Dawdler" speed="13.90" pos="300.00" edge="1to2" slope="0.00"/>
        <vehicle id="veh1" x="300.00" y="-1.65" angle="90.00" type="Follower" speed="13.90" pos="300.00" edge="1to2" slope="0.00"/>
    </timestep>
    <timestep time="26.00">
        <vehicle id="veh0" x="300.00" y="-1.65" angle="90.00" type="Dawdler" speed="13.90" pos="300.00" edge="1to2" slope="0.00"/>
        <vehicle id="veh1" x="300.00" y="-1.65" angle="90.00" type="Follower" speed="13.90" pos="300.00" edge="1to2" slope="0.00"/>
    </timestep>
    <timestep time="27.00">
        <vehicle id="veh0" x="300.00" y="-1.65" angle="90.00" type="Dawdler" speed="13.90" pos="300.00" edge="1to2" slope="0.00"/>
        <vehicle id="veh1" x="300.00" y="-1.65" angle="90.00" type="Follower" speed="13.90" pos="300.00" edge="1to2" slope="0.00"/>
    </timestep>
    <timestep time="28.00">
        <vehicle id="veh0" x="300.00" y="-1.65" angle="90.00" type="Dawdler" speed="13.90" pos="300.00" edge="1to2" slope="0.00"/>
        <vehicle id="veh1" x="300.00" y="-1.65" angle="90.00" type="Follower" speed="13.90" pos="300.00" edge="1to2" slope="0.00"/>
    </timestep>
    <timestep time="29.00">
        <vehicle id="veh0" x="300.00" y="-1.65" angle="90.00" type="Dawdler" speed="13.90" pos="300.00" edge="1to2" slope="0.00"/>
        <vehicle id="veh1" x="300.00" y="-1.65" angle="90.00" type="Follower" speed="13.90" pos="300.00" edge="1to2" slope="0.00"/>
    </timestep>
    <timestep time="30.00">
        <vehicle id="veh0" x="400.00" y="-1.65" angle="90.00" type="Dawdler" speed="13.90" pos="400.00" edge="1to2" slope="0.00"/>
        <vehicle id="veh1" x="300.00" y="-1.65" angle="90.00" type="Follower" speed="13.90" pos="300.00" edge="1to2" slope="0.00"/>
    </timestep>
    <timestep time="31.00">
        <vehicle id="veh0" x="400.00" y="-1.65" angle="90.00" type="Dawdler" speed="13.90" pos="400.00" edge="1to2" slope="0.00"/>
        <vehicle id="veh1" x="300.00" y="-1.65" angle="90.00" type="Follower" speed="13.90" pos="300.00" edge="1to2" slope="0.00"/>
    </timestep>
    <timestep time="32.00">
        <vehicle id="veh0" x="400.00" y="-1.65" angle="90.00" type="Dawdler" speed="13.90" pos="400.00" edge="1to2" slope="0.00"/>
        <vehicle id="veh1" x="400.00" y="-1.65" angle="90.00" type="Follower" speed="13.90" pos="400.00" edge="1to2" slope="0.00"/>
    </timestep>
    <timestep time="33.00">
        <vehicle id="veh0" x="400.00" y="-1.65" angle="90.00" type="Dawdler" speed="13.90" pos="400.00" edge="1to2" slope="0.00"/>
        <vehicle id="veh1" x="400.00" y="-1.65" angle="90.00" type="Follower" speed="13.90" pos="400.00" edge="1to2" slope="0.00"/>
    </timestep>
    <timestep time="34.00">
        <vehicle id="veh0" x="400.00" y="-1.65" angle="90.00" type="Dawdler" speed="13.90" pos="400.00" edge="1to2" slope="0.00"/>
        <vehicle id="veh1" x="400.00" y="-1.65" angle="90.00" type="Follower" speed="13.90" pos="400.00" edge="1to2" slope="0.00"/>
    </timestep>
    <timestep time="35.00">
        <vehicle id="veh0" x="400.00" y="-1.65" angle="90.00" type="Dawdler" speed="13.90" pos="400.00" edge="1to2" slope="0.00"/>
        <vehicle id="veh1" x="400.00" y="-1.65" angle="90.00" type="Follower" speed="13.90" pos="400.00" edge="1to2" slope="0.00"/>
    </timestep>
    <timestep time="36.00">
        <vehicle id="veh0" x="400.00" y="-1.65" angle="90.00" type="Dawdler" speed="13.90" pos="400.00" edge="1to2" slope="0.00"/>
        <vehicle id="veh1" x="400.00" y="-1.65" angle="90.00" type="Follower" speed="13.90" pos="400.00" edge="1to2" slope="0.00"/>
    </timestep>
    <timestep time="37.00">
        <vehicle id="veh0" x="500.00" y="-1.65" angle="90.00" type="Dawdler" speed="13.89" pos="0.00" edge="out" slope="0.00"/>
        <vehicle id="veh1" x="400.00" y="-1.65" angle="90.00" type="Follower" speed="13.90" pos="400.00" edge="1to2" slope="0.00"/>
    </timestep>
    <timestep time="38.00">
        <vehicle id="veh1" x="400.00" y="-1.65" angle="90.00" type="Follower" speed="13.90" pos="400.00" edge="1to2" slope="0.00"/>
    </timestep>
    <timestep time="39.00"/>
    <timestep time="40.00"/>
    <timestep time="41.00"/>
    <timestep time="42.00"/>
    <timestep time="43.00"/>
    <timestep time="44.00"/>
    <timestep time="45.00"/>
    <timestep time="46.00"/>
    <timestep time="47.00"/>
    <timestep time="48.00"/>
    <timestep time="49.00"/>
    <timestep time="50.00"/>
    <timestep time="51.00"/>
    <timestep time="52.00"/>
    <timestep time="53.00"/>
    <timestep time="54.00"/>
    <timestep time="55.00"/>
    <timestep time="56.00"/>
    <timestep time="57.00"/>
    <timestep time="58.00"/>
    <timestep time="59.00"/>
</fcd-export>
