<?xml version="1.0" encoding="UTF-8"?>

<!-- generated on 2026-04-10T22:02:44.149936+01:00 by Eclipse SUMO sumo v1_26_0+1081-e34c855e2e9
<sumoConfiguration xmlns:xsi="http://www.w3.org/2001/XMLSchema-instance" xsi:noNamespaceSchemaLocation="http://sumo.dlr.de/xsd/sumoConfiguration.xsd">

    <input>
        <net-file value="input_net.net.xml"/>
        <route-files value="input_routes.rou.xml"/>
        <additional-files value="input_additional2.add.xml"/>
    </input>

    <output>
        <netstate-dump value="state.xml"/>
        <tripinfo-output value="tripinfo.xml"/>
    </output>

    <report>
        <duration-log.disable value="true"/>
        <no-step-log value="true"/>
    </report>

    <traci_server>
        <remote-port value="36163"/>
    </traci_server>

</sumoConfiguration>
-->

<netstate xmlns:xsi="http://www.w3.org/2001/XMLSchema-instance" xsi:noNamespaceSchemaLocation="http://sumo.dlr.de/xsd/netstate_file.xsd">
    <timestep time="0.00">
        <edge id="2fi">
            <lane id="2fi_0">
                <vehicle id="horiz" pos="5.10" speed="11.11"/>
            </lane>
        </edge>
    </timestep>
    <timestep time="1.00">
        <edge id="2fi">
            <lane id="2fi_0">
                <vehicle id="horiz" pos="15.71" speed="10.61"/>
            </lane>
        </edge>
    </timestep>
    <timestep time="2.00">
        <edge id="2fi">
            <lane id="2fi_0">
                <vehicle id="horiz" pos="27.49" speed="11.78"/>
            </lane>
        </edge>
    </timestep>
    <timestep time="3.00">
        <edge id="2fi">
            <lane id="2fi_0">
                <vehicle id="horiz" pos="38.84" speed="11.35"/>
            </lane>
        </edge>
    </timestep>
    <timestep time="4.00">
        <edge id="2fi">
            <lane id="2fi_0">
                <vehicle id="horiz" pos="50.44" speed="11.60"/>
            </lane>
        </edge>
    </timestep>
    <timestep time="5.00">
        <edge id="2fi">
            <lane id="2fi_0">
                <vehicle id="horiz" pos="61.65" speed="11.21"/>
            </lane>
        </edge>
    </timestep>
    <timestep time="6.00">
        <edge id="2fi">
            <lane id="2fi_0">
                <vehicle id="horiz" pos="73.25" speed="11.60"/>
            </lane>
        </edge>
    </timestep>
    <timestep time="7.00">
        <edge id="2fi">
            <lane id="2fi_0">
                <vehicle id="horiz" pos="83.90" speed="10.65"/>
            </lane>
        </edge>
    </timestep>
    <timestep time="8.00">
        <edge id="2fi">
            <lane id="2fi_0">
                <vehicle id="horiz" pos="94.43" speed="10.53"/>
            </lane>
        </edge>
    </timestep>
    <timestep time="9.00">
        <edge id="2fi">
            <lane id="2fi_0">
                <vehicle id="horiz" pos="105.59" speed="11.16"/>
            </lane>
        </edge>
    </timestep>
    <timestep time="10.00">
        <edge id="2fi">
            <lane id="2fi_0">
                <vehicle id="horiz" pos="116.11" speed="10.53"/>
            </lane>
        </edge>
    </timestep>
    <timestep time="11.00">
        <edge id="2fi">
            <lane id="2fi_0">
                <vehicle id="horiz" pos="127.72" speed="11.61"/>
            </lane>
        </edge>
    </timestep>
    <timestep time="12.00">
        <edge id="2fi">
            <lane id="2fi_0">
                <vehicle id="horiz" pos="138.86" speed="11.14"/>
            </lane>
        </edge>
    </timestep>
    <timestep time="13.00">
        <edge id="2fi">
            <lane id="2fi_0">
                <vehicle id="horiz" pos="149.99" speed="11.13"/>
            </lane>
        </edge>
    </timestep>
    <timestep time="14.00">
        <edge id="2fi">
            <lane id="2fi_0">
                <vehicle id="horiz" pos="160.93" speed="10.94"/>
            </lane>
        </edge>
    </timestep>
    <timestep time="15.00">
        <edge id="2fi">
            <lane id="2fi_0">
                <vehicle id="horiz" pos="171.78" speed="10.85"/>
            </lane>
        </edge>
    </timestep>
    <timestep time="16.00">
        <edge id="2fi">
            <lane id="2fi_0">
                <vehicle id="horiz" pos="183.52" speed="11.74"/>
            </lane>
        </edge>
    </timestep>
    <timestep time="17.00">
        <edge id="2fi">
            <lane id="2fi_0">
                <vehicle id="horiz" pos="194.97" speed="11.45"/>
            </lane>
        </edge>
    </timestep>
    <timestep time="18.00">
        <edge id="2fi">
            <lane id="2fi_0">
                <vehicle id="horiz" pos="205.90" speed="10.93"/>
            </lane>
        </edge>
    </timestep>
    <timestep time="19.00">
        <edge id="2fi">
            <lane id="2fi_0">
                <vehicle id="horiz" pos="216.87" speed="10.97"/>
            </lane>
        </edge>
    </timestep>
    <timestep time="20.00">
        <edge id="2fi">
            <lane id="2fi_0">
                <vehicle id="horiz" pos="228.30" speed="11.43"/>
            </lane>
        </edge>
    </timestep>
    <timestep time="21.00">
        <edge id="2fi">
            <lane id="2fi_0">
                <vehicle id="horiz" pos="239.78" speed="11.48"/>
            </lane>
        </edge>
    </timestep>
    <timestep time="22.00">
        <edge id="2si">
            <lane id="2si_0"/>
            <lane id="2si_1">
                <vehicle id="horiz" pos="2.04" speed="10.76"/>
            </lane>
            <lane id="2si_2"/>
        </edge>
    </timestep>
    <timestep time="23.00">
        <edge id="2si">
            <lane id="2si_0"/>
            <lane id="2si_1">
                <vehicle id="horiz" pos="14.93" speed="12.88"/>
            </lane>
            <lane id="2si_2"/>
        </edge>
    </timestep>
    <timestep time="24.00">
        <edge id="2si">
            <lane id="2si_0"/>
            <lane id="2si_1">
                <vehicle id="horiz" pos="29.48" speed="14.56"/>
            </lane>
            <lane id="2si_2"/>
        </edge>
    </timestep>
    <timestep time="25.00">
        <edge id="2si">
            <lane id="2si_0"/>
            <lane id="2si_1">
                <vehicle id="horiz" pos="43.43" speed="13.95"/>
            </lane>
            <lane id="2si_2"/>
        </edge>
    </timestep>
    <timestep time="26.00">
        <edge id="2si">
            <lane id="2si_0"/>
            <lane id="2si_1">
                <vehicle id="horiz" pos="57.67" speed="14.23"/>
            </lane>
            <lane id="2si_2"/>
        </edge>
    </timestep>
    <timestep time="27.00">
        <edge id="2si">
            <lane id="2si_0"/>
            <lane id="2si_1">
                <vehicle id="horiz" pos="72.26" speed="14.59"/>
            </lane>
            <lane id="2si_2"/>
        </edge>
    </timestep>
    <timestep time="28.00">
        <edge id="2si">
            <lane id="2si_0"/>
            <lane id="2si_1">
                <vehicle id="horiz" pos="86.89" speed="14.63"/>
            </lane>
            <lane id="2si_2"/>
        </edge>
    </timestep>
    <timestep time="29.00">
        <edge id="2si">
            <lane id="2si_0"/>
            <lane id="2si_1">
                <vehicle id="horiz" pos="100.74" speed="13.85"/>
            </lane>
            <lane id="2si_2"/>
        </edge>
    </timestep>
    <timestep time="30.00">
        <edge id="2si">
            <lane id="2si_0"/>
            <lane id="2si_1">
                <vehicle id="horiz" pos="115.34" speed="14.59"/>
            </lane>
            <lane id="2si_2"/>
        </edge>
    </timestep>
    <timestep time="31.00">
        <edge id="2si">
            <lane id="2si_0"/>
            <lane id="2si_1">
                <vehicle id="horiz" pos="129.32" speed="13.98"/>
            </lane>
            <lane id="2si_2"/>
        </edge>
    </timestep>
    <timestep time="32.00">
        <edge id="2si">
            <lane id="2si_0"/>
            <lane id="2si_1">
                <vehicle id="horiz" pos="143.88" speed="14.56"/>
            </lane>
            <lane id="2si_2"/>
        </edge>
    </timestep>
    <timestep time="33.00">
        <edge id="2si">
            <lane id="2si_0"/>
            <lane id="2si_1">
                <vehicle id="horiz" pos="158.21" speed="14.33"/>
            </lane>
            <lane id="2si_2"/>
        </edge>
    </timestep>
    <timestep time="34.00">
        <edge id="2si">
            <lane id="2si_0"/>
            <lane id="2si_1">
                <vehicle id="horiz" pos="172.66" speed="14.46"/>
            </lane>
            <lane id="2si_2"/>
        </edge>
    </timestep>
    <timestep time="35.00">
        <edge id="2si">
            <lane id="2si_0"/>
            <lane id="2si_1">
                <vehicle id="horiz" pos="186.55" speed="13.89"/>
            </lane>
            <lane id="2si_2"/>
        </edge>
    </timestep>
    <timestep time="36.00">
        <edge id="2si">
            <lane id="2si_0"/>
            <lane id="2si_1">
                <vehicle id="horiz" pos="201.01" speed="14.46"/>
            </lane>
            <lane id="2si_2"/>
        </edge>
    </timestep>
    <timestep time="37.00">
        <edge id="2si">
            <lane id="2si_0"/>
            <lane id="2si_1">
                <vehicle id="horiz" pos="215.20" speed="14.19"/>
            </lane>
            <lane id="2si_2"/>
        </edge>
    </timestep>
    <timestep time="38.00">
        <edge id="2si">
            <lane id="2si_0"/>
            <lane id="2si_1">
                <vehicle id="horiz" pos="225.39" speed="10.18"/>
            </lane>
            <lane id="2si_2"/>
        </edge>
    </timestep>
    <timestep time="39.00">
        <edge id="2si">
            <lane id="2si_0"/>
            <lane id="2si_1">
                <vehicle id="horiz" pos="233.00" speed="7.61"/>
            </lane>
            <lane id="2si_2"/>
        </edge>
    </timestep>
    <timestep time="40.00">
        <edge id="2si">
            <lane id="2si_0"/>
            <lane id="2si_1">
                <vehicle id="horiz" pos="236.11" speed="3.11"/>
            </lane>
            <lane id="2si_2"/>
        </edge>
    </timestep>
    <timestep time="41.00">
        <edge id="2si">
            <lane id="2si_0"/>
            <lane id="2si_1">
                <vehicle id="horiz" pos="236.13" speed="0.02"/>
            </lane>
            <lane id="2si_2"/>
        </edge>
    </timestep>
    <timestep time="42.00">
        <edge id="2si">
            <lane id="2si_0"/>
            <lane id="2si_1">
                <vehicle id="horiz" pos="236.14" speed="0.01"/>
            </lane>
            <lane id="2si_2"/>
        </edge>
    </timestep>
    <timestep time="43.00">
        <edge id="2si">
            <lane id="2si_0"/>
            <lane id="2si_1">
                <vehicle id="horiz" pos="236.15" speed="0.01"/>
            </lane>
            <lane id="2si_2"/>
        </edge>
    </timestep>
    <timestep time="44.00">
        <edge id="2si">
            <lane id="2si_0"/>
            <lane id="2si_1">
                <vehicle id="horiz" pos="236.15" speed="0.00"/>
            </lane>
            <lane id="2si_2"/>
        </edge>
    </timestep>
    <timestep time="45.00">
        <edge id="1o">
            <lane id="1o_0">
                <vehicle id="horiz" pos="1.60" speed="2.60"/>
            </lane>
        </edge>
    </timestep>
    <timestep time="46.00">
        <edge id="1o">
            <lane id="1o_0">
                <vehicle id="horiz" pos="6.79" speed="5.20"/>
            </lane>
        </edge>
    </timestep>
    <timestep time="47.00">
        <edge id="1o">
            <lane id="1o_0">
                <vehicle id="horiz" pos="14.18" speed="7.39"/>
            </lane>
        </edge>
    </timestep>
    <timestep time="48.00">
        <edge id="1o">
            <lane id="1o_0">
                <vehicle id="horiz" pos="23.26" speed="9.07"/>
            </lane>
        </edge>
    </timestep>
    <timestep time="49.00">
        <edge id="1o">
            <lane id="1o_0">
                <vehicle id="horiz" pos="34.07" speed="10.82"/>
            </lane>
        </edge>
    </timestep>
    <timestep time="50.00">
        <edge id="1o">
            <lane id="1o_0">
                <vehicle id="horiz" pos="44.96" speed="10.89"/>
            </lane>
        </edge>
    </timestep>
    <timestep time="51.00">
        <edge id="1o">
            <lane id="1o_0">
                <vehicle id="horiz" pos="55.51" speed="10.55"/>
            </lane>
        </edge>
    </timestep>
    <timestep time="52.00">
        <edge id="1o">
            <lane id="1o_0">
                <vehicle id="horiz" pos="66.90" speed="11.39"/>
            </lane>
        </edge>
    </timestep>
    <timestep time="53.00">
        <edge id="1o">
            <lane id="1o_0">
                <vehicle id="horiz" pos="77.66" speed="10.77"/>
            </lane>
        </edge>
    </timestep>
    <timestep time="54.00">
        <edge id="1o">
            <lane id="1o_0">
                <vehicle id="horiz" pos="89.34" speed="11.68"/>
            </lane>
        </edge>
    </timestep>
    <timestep time="55.00">
        <edge id="1o">
            <lane id="1o_0">
                <vehicle id="horiz" pos="100.24" speed="10.90"/>
            </lane>
        </edge>
    </timestep>
    <timestep time="56.00">
        <edge id="1o">
            <lane id="1o_0">
                <vehicle id="horiz" pos="111.43" speed="11.19"/>
            </lane>
        </edge>
    </timestep>
    <timestep time="57.00">
        <edge id="1o">
            <lane id="1o_0">
                <vehicle id="horiz" pos="122.20" speed="10.77"/>
            </lane>
        </edge>
    </timestep>
    <timestep time="58.00">
        <edge id="1o">
            <lane id="1o_0">
                <vehicle id="horiz" pos="133.60" speed="11.40"/>
            </lane>
        </edge>
    </timestep>
    <timestep time="59.00">
        <edge id="1o">
            <lane id="1o_0">
                <vehicle id="horiz" pos="144.31" speed="10.71"/>
            </lane>
        </edge>
    </timestep>
    <timestep time="60.00">
        <edge id="1o">
            <lane id="1o_0">
                <vehicle id="horiz" pos="155.48" speed="11.17"/>
            </lane>
        </edge>
    </timestep>
    <timestep time="61.00">
        <edge id="1o">
            <lane id="1o_0">
                <vehicle id="horiz" pos="166.37" speed="10.89"/>
            </lane>
        </edge>
    </timestep>
    <timestep time="62.00">
        <edge id="1o">
            <lane id="1o_0">
                <vehicle id="horiz" pos="177.69" speed="11.33"/>
            </lane>
        </edge>
    </timestep>
    <timestep time="63.00">
        <edge id="1o">
            <lane id="1o_0">
                <vehicle id="horiz" pos="188.78" speed="11.09"/>
            </lane>
        </edge>
    </timestep>
    <timestep time="64.00">
        <edge id="1o">
            <lane id="1o_0">
                <vehicle id="horiz" pos="199.50" speed="10.72"/>
            </lane>
        </edge>
    </timestep>
    <timestep time="65.00">
        <edge id="1o">
            <lane id="1o_0">
                <vehicle id="horiz" pos="210.59" speed="11.10"/>
            </lane>
        </edge>
    </timestep>
    <timestep time="66.00">
        <edge id="1o">
            <lane id="1o_0">
                <vehicle id="horiz" pos="222.25" speed="11.66"/>
            </lane>
        </edge>
    </timestep>
    <timestep time="67.00">
        <edge id="1o">
            <lane id="1o_0">
                <vehicle id="horiz" pos="233.12" speed="10.87"/>
            </lane>
        </edge>
    </timestep>
    <timestep time="68.00">
        <edge id="1o">
            <lane id="1o_0">
                <vehicle id="horiz" pos="244.61" speed="11.49"/>
            </lane>
        </edge>
    </timestep>
    <timestep time="69.00">
        <edge id="1o">
            <lane id="1o_0">
                <vehicle id="horiz" pos="255.14" speed="10.54"/>
            </lane>
        </edge>
    </timestep>
    <timestep time="70.00">
        <edge id="1o">
            <lane id="1o_0">
                <vehicle id="horiz" pos="266.68" speed="11.53"/>
            </lane>
        </edge>
    </timestep>
    <timestep time="71.00">
        <edge id="1o">
            <lane id="1o_0">
                <vehicle id="horiz" pos="278.27" speed="11.59"/>
            </lane>
        </edge>
    </timestep>
    <timestep time="72.00">
        <edge id="1o">
            <lane id="1o_0">
                <vehicle id="horiz" pos="289.76" speed="11.49"/>
            </lane>
        </edge>
    </timestep>
    <timestep time="73.00">
        <edge id="1o">
            <lane id="1o_0">
                <vehicle id="horiz" pos="301.33" speed="11.57"/>
            </lane>
        </edge>
    </timestep>
    <timestep time="74.00">
        <edge id="1o">
            <lane id="1o_0">
                <vehicle id="horiz" pos="312.65" speed="11.32"/>
            </lane>
        </edge>
    </timestep>
    <timestep time="75.00">
        <edge id="1o">
            <lane id="1o_0">
                <vehicle id="horiz" pos="323.69" speed="11.04"/>
            </lane>
        </edge>
    </timestep>
    <timestep time="76.00">
        <edge id="1o">
            <lane id="1o_0">
                <vehicle id="horiz" pos="335.31" speed="11.62"/>
            </lane>
        </edge>
    </timestep>
    <timestep time="77.00">
        <edge id="1o">
            <lane id="1o_0">
                <vehicle id="horiz" pos="346.04" speed="10.73"/>
            </lane>
        </edge>
    </timestep>
    <timestep time="78.00">
        <edge id="1o">
            <lane id="1o_0">
                <vehicle id="horiz" pos="357.32" speed="11.28"/>
            </lane>
        </edge>
    </timestep>
    <timestep time="79.00">
        <edge id="1o">
            <lane id="1o_0">
                <vehicle id="horiz" pos="368.01" speed="10.69"/>
            </lane>
        </edge>
    </timestep>
    <timestep time="80.00">
        <edge id="1o">
            <lane id="1o_0">
                <vehicle id="horiz" pos="378.53" speed="10.52"/>
            </lane>
        </edge>
    </timestep>
    <timestep time="81.00">
        <edge id="1o">
            <lane id="1o_0">
                <vehicle id="horiz" pos="389.65" speed="11.12"/>
            </lane>
        </edge>
    </timestep>
    <timestep time="82.00">
        <edge id="1o">
            <lane id="1o_0">
                <vehicle id="horiz" pos="401.32" speed="11.67"/>
            </lane>
        </edge>
    </timestep>
    <timestep time="83.00">
        <edge id="1o">
            <lane id="1o_0">
                <vehicle id="horiz" pos="412.85" speed="11.53"/>
            </lane>
        </edge>
    </timestep>
    <timestep time="84.00">
        <edge id="1o">
            <lane id="1o_0">
                <vehicle id="horiz" pos="423.67" speed="10.82"/>
            </lane>
        </edge>
    </timestep>
    <timestep time="85.00">
        <edge id="1o">
            <lane id="1o_0">
                <vehicle id="horiz" pos="434.34" speed="10.67"/>
            </lane>
        </edge>
    </timestep>
    <timestep time="86.00">
        <edge id="1o">
            <lane id="1o_0">
                <vehicle id="horiz" pos="445.27" speed="10.93"/>
            </lane>
        </edge>
    </timestep>
    <timestep time="87.00">
        <edge id="1o">
            <lane id="1o_0">
                <vehicle id="horiz" pos="455.81" speed="10.54"/>
            </lane>
        </edge>
    </timestep>
    <timestep time="88.00">
        <edge id="1o">
            <lane id="1o_0">
                <vehicle id="horiz" pos="466.67" speed="10.86"/>
            </lane>
        </edge>
    </timestep>
    <timestep time="89.00">
        <edge id="1o">
            <lane id="1o_0">
                <vehicle id="horiz" pos="477.64" speed="10.97"/>
            </lane>
        </edge>
    </timestep>
    <timestep time="90.00">
        <edge id="1fi">
            <lane id="1fi_0">
                <vehicle id="horiz" pos="0.57" speed="11.58"/>
            </lane>
        </edge>
    </timestep>
    <timestep time="91.00">
        <edge id="1fi">
            <lane id="1fi_0">
                <vehicle id="horiz" pos="11.19" speed="10.62"/>
            </lane>
        </edge>
    </timestep>
    <timestep time="92.00">
        <edge id="1fi">
            <lane id="1fi_0">
                <vehicle id="horiz" pos="22.04" speed="10.85"/>
            </lane>
        </edge>
    </timestep>
    <timestep time="93.00">
        <edge id="1fi">
            <lane id="1fi_0">
                <vehicle id="horiz" pos="33.75" speed="11.72"/>
            </lane>
        </edge>
    </timestep>
    <timestep time="94.00">
        <edge id="1fi">
            <lane id="1fi_0">
                <vehicle id="horiz" pos="44.89" speed="11.14"/>
            </lane>
        </edge>
    </timestep>
    <timestep time="95.00">
        <edge id="1fi">
            <lane id="1fi_0">
                <vehicle id="horiz" pos="55.90" speed="11.01"/>
            </lane>
        </edge>
    </timestep>
    <timestep time="96.00">
        <edge id="1fi">
            <lane id="1fi_0">
                <vehicle id="horiz" pos="67.62" speed="11.72"/>
            </lane>
        </edge>
    </timestep>
    <timestep time="97.00">
        <edge id="1fi">
            <lane id="1fi_0">
                <vehicle id="horiz" pos="78.43" speed="10.81"/>
            </lane>
        </edge>
    </timestep>
    <timestep time="98.00">
        <edge id="1fi">
            <lane id="1fi_0">
                <vehicle id="horiz" pos="89.89" speed="11.45"/>
            </lane>
        </edge>
    </timestep>
    <timestep time="99.00">
        <edge id="1fi">
            <lane id="1fi_0">
                <vehicle id="horiz" pos="100.95" speed="11.07"/>
            </lane>
        </edge>
    </timestep>
    <timestep time="100.00">
        <edge id="1fi">
            <lane id="1fi_0">
                <vehicle id="horiz" pos="111.76" speed="10.81"/>
            </lane>
        </edge>
    </timestep>
    <timestep time="101.00">
        <edge id="1fi">
            <lane id="1fi_0">
                <vehicle id="horiz" pos="123.53" speed="11.77"/>
            </lane>
        </edge>
    </timestep>
</netstate>
