<?xml version="1.0" encoding="UTF-8"?>

<!-- generated on Wed Mar 11 22:23:19 2020 by Eclipse SUMO Version v1_5_0+0662-a598ecae47
This data file and the accompanying materials
are made available under the terms of the Eclipse Public License v2.0
which accompanies this distribution, and is available at
http://www.eclipse.org/legal/epl-v20.html
SPDX-License-Identifier: EPL-2.0
<configuration xmlns:xsi="http://www.w3.org/2001/XMLSchema-instance" xsi:noNamespaceSchemaLocation="http://sumo.dlr.de/xsd/sumoConfiguration.xsd">

    <input>
        <net-file value="net.net.xml"/>
        <route-files value="input_routes.rou.xml"/>
    </input>

    <output>
        <write-license value="true"/>
        <fcd-output value="fcd.xml"/>
    </output>

    <processing>
        <default.carfollowmodel value="IDMM"/>
        <default.speeddev value="0"/>
    </processing>

    <report>
        <xml-validation value="never"/>
        <no-step-log value="true"/>
    </report>

</configuration>
-->

<fcd-export xmlns:xsi="http://www.w3.org/2001/XMLSchema-instance" xsi:noNamespaceSchemaLocation="http://sumo.dlr.de/xsd/fcd_file.xsd">
    <timestep time="0.00">
        <vehicle id="first" x="5.10" y="0.00" angle="90.00" type="DEFAULT_VEHTYPE" speed="13.84" pos="5.10" lane="0_0" slope="0.00"/>
    </timestep>
    <timestep time="1.00">
        <vehicle id="first" x="18.92" y="0.00" angle="90.00" type="DEFAULT_VEHTYPE" speed="13.82" pos="18.92" lane="0_0" slope="0.00"/>
        <vehicle id="flow.0" x="5.10" y="0.00" angle="90.00" type="flow" speed="10.69" pos="5.10" lane="0_0" slope="0.00"/>
    </timestep>
    <timestep time="2.00">
        <vehicle id="first" x="32.74" y="0.00" angle="90.00" type="DEFAULT_VEHTYPE" speed="13.81" pos="32.74" lane="0_0" slope="0.00"/>
        <vehicle id="flow.0" x="15.54" y="0.00" angle="90.00" type="flow" speed="10.44" pos="15.54" lane="0_0" slope="0.00"/>
        <vehicle id="flow.1" x="5.10" y="0.00" angle="90.00" type="flow" speed="5.18" pos="5.10" lane="0_0" slope="0.00"/>
    </timestep>
    <timestep time="3.00">
        <vehicle id="first" x="46.54" y="0.00" angle="90.00" type="DEFAULT_VEHTYPE" speed="13.80" pos="46.54" lane="0_0" slope="0.00"/>
        <vehicle id="flow.0" x="26.62" y="0.00" angle="90.00" type="flow" speed="11.07" pos="26.62" lane="0_0" slope="0.00"/>
        <vehicle id="flow.1" x="11.25" y="0.00" angle="90.00" type="flow" speed="6.15" pos="11.25" lane="0_0" slope="0.00"/>
    </timestep>
    <timestep time="4.00">
        <vehicle id="first" x="60.33" y="0.00" angle="90.00" type="DEFAULT_VEHTYPE" speed="13.79" pos="60.33" lane="0_0" slope="0.00"/>
        <vehicle id="flow.0" x="38.26" y="0.00" angle="90.00" type="flow" speed="11.65" pos="38.26" lane="0_0" slope="0.00"/>
        <vehicle id="flow.1" x="19.14" y="0.00" angle="90.00" type="flow" speed="7.88" pos="19.14" lane="0_0" slope="0.00"/>
        <vehicle id="flow.2" x="5.10" y="0.00" angle="90.00" type="flow" speed="7.14" pos="5.10" lane="0_0" slope="0.00"/>
    </timestep>
    <timestep time="5.00">
        <vehicle id="first" x="74.10" y="0.00" angle="90.00" type="DEFAULT_VEHTYPE" speed="13.78" pos="74.10" lane="0_0" slope="0.00"/>
        <vehicle id="flow.0" x="50.34" y="0.00" angle="90.00" type="flow" speed="12.08" pos="50.34" lane="0_0" slope="0.00"/>
        <vehicle id="flow.1" x="28.47" y="0.00" angle="90.00" type="flow" speed="9.34" pos="28.47" lane="0_0" slope="0.00"/>
        <vehicle id="flow.2" x="12.19" y="0.00" angle="90.00" type="flow" speed="7.09" pos="12.19" lane="0_0" slope="0.00"/>
    </timestep>
    <timestep time="6.00">
        <vehicle id="first" x="87.87" y="0.00" angle="90.00" type="DEFAULT_VEHTYPE" speed="13.76" pos="87.87" lane="0_0" slope="0.00"/>
        <vehicle id="flow.0" x="62.73" y="0.00" angle="90.00" type="flow" speed="12.39" pos="62.73" lane="0_0" slope="0.00"/>
        <vehicle id="flow.1" x="38.83" y="0.00" angle="90.00" type="flow" speed="10.36" pos="38.83" lane="0_0" slope="0.00"/>
        <vehicle id="flow.2" x="20.32" y="0.00" angle="90.00" type="flow" speed="8.13" pos="20.32" lane="0_0" slope="0.00"/>
        <vehicle id="flow.3" x="5.10" y="0.00" angle="90.00" type="flow" speed="7.95" pos="5.10" lane="0_0" slope="0.00"/>
    </timestep>
    <timestep time="7.00">
        <vehicle id="first" x="101.61" y="0.00" angle="90.00" type="DEFAULT_VEHTYPE" speed="13.75" pos="101.61" lane="0_0" slope="0.00"/>
        <vehicle id="flow.0" x="75.34" y="0.00" angle="90.00" type="flow" speed="12.61" pos="75.34" lane="0_0" slope="0.00"/>
        <vehicle id="flow.1" x="49.84" y="0.00" angle="90.00" type="flow" speed="11.00" pos="49.84" lane="0_0" slope="0.00"/>
        <vehicle id="flow.2" x="29.54" y="0.00" angle="90.00" type="flow" speed="9.22" pos="29.54" lane="0_0" slope="0.00"/>
        <vehicle id="flow.3" x="12.91" y="0.00" angle="90.00" type="flow" speed="7.81" pos="12.91" lane="0_0" slope="0.00"/>
        <vehicle id="flow.4" x="5.10" y="0.00" angle="90.00" type="flow" speed="0.00" pos="5.10" lane="0_0" slope="0.00"/>
    </timestep>
    <timestep time="8.00">
        <vehicle id="first" x="115.34" y="0.00" angle="90.00" type="DEFAULT_VEHTYPE" speed="13.73" pos="115.34" lane="0_0" slope="0.00"/>
        <vehicle id="flow.0" x="88.12" y="0.00" angle="90.00" type="flow" speed="12.77" pos="88.12" lane="0_0" slope="0.00"/>
        <vehicle id="flow.1" x="61.23" y="0.00" angle="90.00" type="flow" speed="11.40" pos="61.23" lane="0_0" slope="0.00"/>
        <vehicle id="flow.2" x="39.64" y="0.00" angle="90.00" type="flow" speed="10.10" pos="39.64" lane="0_0" slope="0.00"/>
        <vehicle id="flow.3" x="21.42" y="0.00" angle="90.00" type="flow" speed="8.51" pos="21.42" lane="0_0" slope="0.00"/>
        <vehicle id="flow.4" x="5.65" y="0.00" angle="90.00" type="flow" speed="0.55" pos="5.65" lane="0_0" slope="0.00"/>
    </timestep>
    <timestep time="9.00">
        <vehicle id="first" x="129.04" y="0.00" angle="90.00" type="DEFAULT_VEHTYPE" speed="13.70" pos="129.04" lane="0_0" slope="0.00"/>
        <vehicle id="flow.0" x="101.01" y="0.00" angle="90.00" type="flow" speed="12.89" pos="101.01" lane="0_0" slope="0.00"/>
        <vehicle id="flow.1" x="72.88" y="0.00" angle="90.00" type="flow" speed="11.64" pos="72.88" lane="0_0" slope="0.00"/>
        <vehicle id="flow.2" x="50.34" y="0.00" angle="90.00" type="flow" speed="10.71" pos="50.34" lane="0_0" slope="0.00"/>
        <vehicle id="flow.3" x="30.77" y="0.00" angle="90.00" type="flow" speed="9.35" pos="30.77" lane="0_0" slope="0.00"/>
        <vehicle id="flow.4" x="8.64" y="0.00" angle="90.00" type="flow" speed="3.00" pos="8.64" lane="0_0" slope="0.00"/>
    </timestep>
    <timestep time="10.00">
        <vehicle id="first" x="142.72" y="0.00" angle="90.00" type="DEFAULT_VEHTYPE" speed="13.67" pos="142.72" lane="0_0" slope="0.00"/>
        <vehicle id="flow.0" x="113.99" y="0.00" angle="90.00" type="flow" speed="12.98" pos="113.99" lane="0_0" slope="0.00"/>
        <vehicle id="flow.1" x="84.69" y="0.00" angle="90.00" type="flow" speed="11.81" pos="84.69" lane="0_0" slope="0.00"/>
        <vehicle id="flow.2" x="61.45" y="0.00" angle="90.00" type="flow" speed="11.10" pos="61.45" lane="0_0" slope="0.00"/>
        <vehicle id="flow.3" x="40.86" y="0.00" angle="90.00" type="flow" speed="10.09" pos="40.86" lane="0_0" slope="0.00"/>
        <vehicle id="flow.4" x="14.12" y="0.00" angle="90.00" type="flow" speed="5.47" pos="14.12" lane="0_0" slope="0.00"/>
        <vehicle id="flow.5" x="5.10" y="0.00" angle="90.00" type="flow" speed="0.00" pos="5.10" lane="0_0" slope="0.00"/>
    </timestep>
    <timestep time="11.00">
        <vehicle id="first" x="156.35" y="0.00" angle="90.00" type="DEFAULT_VEHTYPE" speed="13.64" pos="156.35" lane="0_0" slope="0.00"/>
        <vehicle id="flow.0" x="127.04" y="0.00" angle="90.00" type="flow" speed="13.05" pos="127.04" lane="0_0" slope="0.00"/>
        <vehicle id="flow.1" x="96.63" y="0.00" angle="90.00" type="flow" speed="11.94" pos="96.63" lane="0_0" slope="0.00"/>
        <vehicle id="flow.2" x="72.81" y="0.00" angle="90.00" type="flow" speed="11.37" pos="72.81" lane="0_0" slope="0.00"/>
        <vehicle id="flow.3" x="51.50" y="0.00" angle="90.00" type="flow" speed="10.64" pos="51.50" lane="0_0" slope="0.00"/>
        <vehicle id="flow.4" x="21.91" y="0.00" angle="90.00" type="flow" speed="7.79" pos="21.91" lane="0_0" slope="0.00"/>
        <vehicle id="flow.5" x="6.53" y="0.00" angle="90.00" type="flow" speed="1.43" pos="6.53" lane="0_0" slope="0.00"/>
    </timestep>
    <timestep time="12.00">
        <vehicle id="first" x="169.94" y="0.00" angle="90.00" type="DEFAULT_VEHTYPE" speed="13.59" pos="169.94" lane="0_0" slope="0.00"/>
        <vehicle id="flow.0" x="140.15" y="0.00" angle="90.00" type="flow" speed="13.11" pos="140.15" lane="0_0" slope="0.00"/>
        <vehicle id="flow.1" x="108.67" y="0.00" angle="90.00" type="flow" speed="12.04" pos="108.67" lane="0_0" slope="0.00"/>
        <vehicle id="flow.2" x="84.36" y="0.00" angle="90.00" type="flow" speed="11.54" pos="84.36" lane="0_0" slope="0.00"/>
        <vehicle id="flow.3" x="62.52" y="0.00" angle="90.00" type="flow" speed="11.02" pos="62.52" lane="0_0" slope="0.00"/>
        <vehicle id="flow.4" x="31.64" y="0.00" angle="90.00" type="flow" speed="9.73" pos="31.64" lane="0_0" slope="0.00"/>
        <vehicle id="flow.5" x="10.33" y="0.00" angle="90.00" type="flow" speed="3.80" pos="10.33" lane="0_0" slope="0.00"/>
    </timestep>
    <timestep time="13.00">
        <vehicle id="first" x="183.47" y="0.00" angle="90.00" type="DEFAULT_VEHTYPE" speed="13.53" pos="183.47" lane="0_0" slope="0.00"/>
        <vehicle id="flow.0" x="153.29" y="0.00" angle="90.00" type="flow" speed="13.14" pos="153.29" lane="0_0" slope="0.00"/>
        <vehicle id="flow.1" x="120.79" y="0.00" angle="90.00" type="flow" speed="12.12" pos="120.79" lane="0_0" slope="0.00"/>
        <vehicle id="flow.2" x="96.03" y="0.00" angle="90.00" type="flow" speed="11.68" pos="96.03" lane="0_0" slope="0.00"/>
        <vehicle id="flow.3" x="73.81" y="0.00" angle="90.00" type="flow" speed="11.28" pos="73.81" lane="0_0" slope="0.00"/>
        <vehicle id="flow.4" x="42.73" y="0.00" angle="90.00" type="flow" speed="11.09" pos="42.73" lane="0_0" slope="0.00"/>
        <vehicle id="flow.5" x="16.50" y="0.00" angle="90.00" type="flow" speed="6.17" pos="16.50" lane="0_0" slope="0.00"/>
        <vehicle id="flow.6" x="5.10" y="0.00" angle="90.00" type="flow" speed="0.00" pos="5.10" lane="0_0" slope="0.00"/>
    </timestep>
    <timestep time="14.00">
        <vehicle id="first" x="196.91" y="0.00" angle="90.00" type="DEFAULT_VEHTYPE" speed="13.44" pos="196.91" lane="0_0" slope="0.00"/>
        <vehicle id="flow.0" x="166.46" y="0.00" angle="90.00" type="flow" speed="13.17" pos="166.46" lane="0_0" slope="0.00"/>
        <vehicle id="flow.1" x="132.97" y="0.00" angle="90.00" type="flow" speed="12.18" pos="132.97" lane="0_0" slope="0.00"/>
        <vehicle id="flow.2" x="107.81" y="0.00" angle="90.00" type="flow" speed="11.78" pos="107.81" lane="0_0" slope="0.00"/>
        <vehicle id="flow.3" x="85.27" y="0.00" angle="90.00" type="flow" speed="11.46" pos="85.27" lane="0_0" slope="0.00"/>
        <vehicle id="flow.4" x="54.58" y="0.00" angle="90.00" type="flow" speed="11.85" pos="54.58" lane="0_0" slope="0.00"/>
        <vehicle id="flow.5" x="24.73" y="0.00" angle="90.00" type="flow" speed="8.23" pos="24.73" lane="0_0" slope="0.00"/>
        <vehicle id="flow.6" x="7.22" y="0.00" angle="90.00" type="flow" speed="2.12" pos="7.22" lane="0_0" slope="0.00"/>
    </timestep>
    <timestep time="15.00">
        <vehicle id="first" x="210.24" y="0.00" angle="90.00" type="DEFAULT_VEHTYPE" speed="13.33" pos="210.24" lane="0_0" slope="0.00"/>
        <vehicle id="flow.0" x="179.64" y="0.00" angle="90.00" type="flow" speed="13.18" pos="179.64" lane="0_0" slope="0.00"/>
        <vehicle id="flow.1" x="145.21" y="0.00" angle="90.00" type="flow" speed="12.24" pos="145.21" lane="0_0" slope="0.00"/>
        <vehicle id="flow.2" x="119.68" y="0.00" angle="90.00" type="flow" speed="11.87" pos="119.68" lane="0_0" slope="0.00"/>
        <vehicle id="flow.3" x="96.87" y="0.00" angle="90.00" type="flow" speed="11.60" pos="96.87" lane="0_0" slope="0.00"/>
        <vehicle id="flow.4" x="66.78" y="0.00" angle="90.00" type="flow" speed="12.20" pos="66.78" lane="0_0" slope="0.00"/>
        <vehicle id="flow.5" x="34.42" y="0.00" angle="90.00" type="flow" speed="9.69" pos="34.42" lane="0_0" slope="0.00"/>
        <vehicle id="flow.6" x="11.75" y="0.00" angle="90.00" type="flow" speed="4.53" pos="11.75" lane="0_0" slope="0.00"/>
    </timestep>
    <timestep time="16.00">
        <vehicle id="first" x="223.41" y="0.00" angle="90.00" type="DEFAULT_VEHTYPE" speed="13.17" pos="223.41" lane="0_0" slope="0.00"/>
        <vehicle id="flow.0" x="192.80" y="0.00" angle="90.00" type="flow" speed="13.17" pos="192.80" lane="0_0" slope="0.00"/>
        <vehicle id="flow.1" x="157.49" y="0.00" angle="90.00" type="flow" speed="12.28" pos="157.49" lane="0_0" slope="0.00"/>
        <vehicle id="flow.2" x="131.62" y="0.00" angle="90.00" type="flow" speed="11.94" pos="131.62" lane="0_0" slope="0.00"/>
        <vehicle id="flow.3" x="108.57" y="0.00" angle="90.00" type="flow" speed="11.70" pos="108.57" lane="0_0" slope="0.00"/>
        <vehicle id="flow.4" x="79.10" y="0.00" angle="90.00" type="flow" speed="12.32" pos="79.10" lane="0_0" slope="0.00"/>
        <vehicle id="flow.5" x="44.90" y="0.00" angle="90.00" type="flow" speed="10.49" pos="44.90" lane="0_0" slope="0.00"/>
        <vehicle id="flow.6" x="18.65" y="0.00" angle="90.00" type="flow" speed="6.89" pos="18.65" lane="0_0" slope="0.00"/>
        <vehicle id="flow.7" x="5.10" y="0.00" angle="90.00" type="flow" speed="6.49" pos="5.10" lane="0_0" slope="0.00"/>
    </timestep>
    <timestep time="17.00">
        <vehicle id="first" x="236.34" y="0.00" angle="90.00" type="DEFAULT_VEHTYPE" speed="12.93" pos="236.34" lane="0_0" slope="0.00"/>
        <vehicle id="flow.0" x="205.94" y="0.00" angle="90.00" type="flow" speed="13.14" pos="205.94" lane="0_0" slope="0.00"/>
        <vehicle id="flow.1" x="169.81" y="0.00" angle="90.00" type="flow" speed="12.32" pos="169.81" lane="0_0" slope="0.00"/>
        <vehicle id="flow.2" x="143.62" y="0.00" angle="90.00" type="flow" speed="12.00" pos="143.62" lane="0_0" slope="0.00"/>
        <vehicle id="flow.3" x="120.35" y="0.00" angle="90.00" type="flow" speed="11.78" pos="120.35" lane="0_0" slope="0.00"/>
        <vehicle id="flow.4" x="91.44" y="0.00" angle="90.00" type="flow" speed="12.34" pos="91.44" lane="0_0" slope="0.00"/>
        <vehicle id="flow.5" x="55.76" y="0.00" angle="90.00" type="flow" speed="10.86" pos="55.76" lane="0_0" slope="0.00"/>
        <vehicle id="flow.6" x="27.62" y="0.00" angle="90.00" type="flow" speed="8.98" pos="27.62" lane="0_0" slope="0.00"/>
        <vehicle id="flow.7" x="11.44" y="0.00" angle="90.00" type="flow" speed="6.34" pos="11.44" lane="0_0" slope="0.00"/>
    </timestep>
    <timestep time="18.00">
        <vehicle id="first" x="248.92" y="0.00" angle="90.00" type="DEFAULT_VEHTYPE" speed="12.58" pos="248.92" lane="0_0" slope="0.00"/>
        <vehicle id="flow.0" x="219.01" y="0.00" angle="90.00" type="flow" speed="13.07" pos="219.01" lane="0_0" slope="0.00"/>
        <vehicle id="flow.1" x="182.16" y="0.00" angle="90.00" type="flow" speed="12.35" pos="182.16" lane="0_0" slope="0.00"/>
        <vehicle id="flow.2" x="155.67" y="0.00" angle="90.00" type="flow" speed="12.06" pos="155.67" lane="0_0" slope="0.00"/>
        <vehicle id="flow.3" x="132.20" y="0.00" angle="90.00" type="flow" speed="11.85" pos="132.20" lane="0_0" slope="0.00"/>
        <vehicle id="flow.4" x="103.77" y="0.00" angle="90.00" type="flow" speed="12.33" pos="103.77" lane="0_0" slope="0.00"/>
        <vehicle id="flow.5" x="66.78" y="0.00" angle="90.00" type="flow" speed="11.02" pos="66.78" lane="0_0" slope="0.00"/>
        <vehicle id="flow.6" x="38.16" y="0.00" angle="90.00" type="flow" speed="10.54" pos="38.16" lane="0_0" slope="0.00"/>
        <vehicle id="flow.7" x="19.01" y="0.00" angle="90.00" type="flow" speed="7.57" pos="19.01" lane="0_0" slope="0.00"/>
        <vehicle id="flow.8" x="5.10" y="0.00" angle="90.00" type="flow" speed="7.04" pos="5.10" lane="0_0" slope="0.00"/>
    </timestep>
    <timestep time="19.00">
        <vehicle id="first" x="260.92" y="0.00" angle="90.00" type="DEFAULT_VEHTYPE" speed="12.01" pos="260.92" lane="0_0" slope="0.00"/>
        <vehicle id="flow.0" x="231.95" y="0.00" angle="90.00" type="flow" speed="12.94" pos="231.95" lane="0_0" slope="0.00"/>
        <vehicle id="flow.1" x="194.54" y="0.00" angle="90.00" type="flow" speed="12.37" pos="194.54" lane="0_0" slope="0.00"/>
        <vehicle id="flow.2" x="167.78" y="0.00" angle="90.00" type="flow" speed="12.10" pos="167.78" lane="0_0" slope="0.00"/>
        <vehicle id="flow.3" x="144.12" y="0.00" angle="90.00" type="flow" speed="11.92" pos="144.12" lane="0_0" slope="0.00"/>
        <vehicle id="flow.4" x="116.08" y="0.00" angle="90.00" type="flow" speed="12.31" pos="116.08" lane="0_0" slope="0.00"/>
        <vehicle id="flow.5" x="77.87" y="0.00" angle="90.00" type="flow" speed="11.10" pos="77.87" lane="0_0" slope="0.00"/>
        <vehicle id="flow.6" x="49.62" y="0.00" angle="90.00" type="flow" speed="11.46" pos="49.62" lane="0_0" slope="0.00"/>
        <vehicle id="flow.7" x="27.89" y="0.00" angle="90.00" type="flow" speed="8.87" pos="27.89" lane="0_0" slope="0.00"/>
        <vehicle id="flow.8" x="11.97" y="0.00" angle="90.00" type="flow" speed="6.87" pos="11.97" lane="0_0" slope="0.00"/>
    </timestep>
    <timestep time="20.00">
        <vehicle id="first" x="271.99" y="0.00" angle="90.00" type="DEFAULT_VEHTYPE" speed="11.07" pos="271.99" lane="0_0" slope="0.00"/>
        <vehicle id="flow.0" x="244.66" y="0.00" angle="90.00" type="flow" speed="12.70" pos="244.66" lane="0_0" slope="0.00"/>
        <vehicle id="flow.1" x="206.92" y="0.00" angle="90.00" type="flow" speed="12.38" pos="206.92" lane="0_0" slope="0.00"/>
        <vehicle id="flow.2" x="179.92" y="0.00" angle="90.00" type="flow" speed="12.14" pos="179.92" lane="0_0" slope="0.00"/>
        <vehicle id="flow.3" x="156.09" y="0.00" angle="90.00" type="flow" speed="11.97" pos="156.09" lane="0_0" slope="0.00"/>
        <vehicle id="flow.4" x="128.37" y="0.00" angle="90.00" type="flow" speed="12.29" pos="128.37" lane="0_0" slope="0.00"/>
        <vehicle id="flow.5" x="89.01" y="0.00" angle="90.00" type="flow" speed="11.14" pos="89.01" lane="0_0" slope="0.00"/>
        <vehicle id="flow.6" x="61.48" y="0.00" angle="90.00" type="flow" speed="11.86" pos="61.48" lane="0_0" slope="0.00"/>
        <vehicle id="flow.7" x="37.76" y="0.00" angle="90.00" type="flow" speed="9.88" pos="37.76" lane="0_0" slope="0.00"/>
        <vehicle id="flow.8" x="19.76" y="0.00" angle="90.00" type="flow" speed="7.78" pos="19.76" lane="0_0" slope="0.00"/>
        <vehicle id="flow.9" x="5.10" y="0.00" angle="90.00" type="flow" speed="7.47" pos="5.10" lane="0_0" slope="0.00"/>
    </timestep>
    <timestep time="21.00">
        <vehicle id="first" x="281.55" y="0.00" angle="90.00" type="DEFAULT_VEHTYPE" speed="9.56" pos="281.55" lane="0_0" slope="0.00"/>
        <vehicle id="flow.0" x="256.90" y="0.00" angle="90.00" type="flow" speed="12.24" pos="256.90" lane="0_0" slope="0.00"/>
        <vehicle id="flow.1" x="219.29" y="0.00" angle="90.00" type="flow" speed="12.37" pos="219.29" lane="0_0" slope="0.00"/>
        <vehicle id="flow.2" x="192.10" y="0.00" angle="90.00" type="flow" speed="12.18" pos="192.10" lane="0_0" slope="0.00"/>
        <vehicle id="flow.3" x="168.11" y="0.00" angle="90.00" type="flow" speed="12.02" pos="168.11" lane="0_0" slope="0.00"/>
        <vehicle id="flow.4" x="140.64" y="0.00" angle="90.00" type="flow" speed="12.27" pos="140.64" lane="0_0" slope="0.00"/>
        <vehicle id="flow.5" x="100.18" y="0.00" angle="90.00" type="flow" speed="11.17" pos="100.18" lane="0_0" slope="0.00"/>
        <vehicle id="flow.6" x="73.45" y="0.00" angle="90.00" type="flow" speed="11.97" pos="73.45" lane="0_0" slope="0.00"/>
        <vehicle id="flow.7" x="48.27" y="0.00" angle="90.00" type="flow" speed="10.50" pos="48.27" lane="0_0" slope="0.00"/>
        <vehicle id="flow.8" x="28.54" y="0.00" angle="90.00" type="flow" speed="8.78" pos="28.54" lane="0_0" slope="0.00"/>
        <vehicle id="flow.9" x="12.33" y="0.00" angle="90.00" type="flow" speed="7.23" pos="12.33" lane="0_0" slope="0.00"/>
    </timestep>
    <timestep time="22.00">
        <vehicle id="first" x="288.91" y="0.00" angle="90.00" type="DEFAULT_VEHTYPE" speed="7.36" pos="288.91" lane="0_0" slope="0.00"/>
        <vehicle id="flow.0" x="268.18" y="0.00" angle="90.00" type="flow" speed="11.29" pos="268.18" lane="0_0" slope="0.00"/>
        <vehicle id="flow.1" x="231.60" y="0.00" angle="90.00" type="flow" speed="12.32" pos="231.60" lane="0_0" slope="0.00"/>
        <vehicle id="flow.2" x="204.30" y="0.00" angle="90.00" type="flow" speed="12.20" pos="204.30" lane="0_0" slope="0.00"/>
        <vehicle id="flow.3" x="180.18" y="0.00" angle="90.00" type="flow" speed="12.06" pos="180.18" lane="0_0" slope="0.00"/>
        <vehicle id="flow.4" x="152.89" y="0.00" angle="90.00" type="flow" speed="12.26" pos="152.89" lane="0_0" slope="0.00"/>
        <vehicle id="flow.5" x="111.36" y="0.00" angle="90.00" type="flow" speed="11.19" pos="111.36" lane="0_0" slope="0.00"/>
        <vehicle id="flow.6" x="85.39" y="0.00" angle="90.00" type="flow" speed="11.94" pos="85.39" lane="0_0" slope="0.00"/>
        <vehicle id="flow.7" x="59.11" y="0.00" angle="90.00" type="flow" speed="10.85" pos="59.11" lane="0_0" slope="0.00"/>
        <vehicle id="flow.8" x="38.13" y="0.00" angle="90.00" type="flow" speed="9.59" pos="38.13" lane="0_0" slope="0.00"/>
        <vehicle id="flow.9" x="20.20" y="0.00" angle="90.00" type="flow" speed="7.87" pos="20.20" lane="0_0" slope="0.00"/>
    </timestep>
    <timestep time="23.00">
        <vehicle id="first" x="293.82" y="0.00" angle="90.00" type="DEFAULT_VEHTYPE" speed="4.91" pos="293.82" lane="0_0" slope="0.00"/>
        <vehicle id="flow.0" x="277.59" y="0.00" angle="90.00" type="flow" speed="9.40" pos="277.59" lane="0_0" slope="0.00"/>
        <vehicle id="flow.1" x="243.77" y="0.00" angle="90.00" type="flow" speed="12.16" pos="243.77" lane="0_0" slope="0.00"/>
        <vehicle id="flow.2" x="216.50" y="0.00" angle="90.00" type="flow" speed="12.21" pos="216.50" lane="0_0" slope="0.00"/>
        <vehicle id="flow.3" x="192.28" y="0.00" angle="90.00" type="flow" speed="12.10" pos="192.28" lane="0_0" slope="0.00"/>
        <vehicle id="flow.4" x="165.14" y="0.00" angle="90.00" type="flow" speed="12.25" pos="165.14" lane="0_0" slope="0.00"/>
        <vehicle id="flow.5" x="122.57" y="0.00" angle="90.00" type="flow" speed="11.21" pos="122.57" lane="0_0" slope="0.00"/>
        <vehicle id="flow.6" x="97.25" y="0.00" angle="90.00" type="flow" speed="11.86" pos="97.25" lane="0_0" slope="0.00"/>
        <vehicle id="flow.7" x="70.14" y="0.00" angle="90.00" type="flow" speed="11.02" pos="70.14" lane="0_0" slope="0.00"/>
        <vehicle id="flow.8" x="48.26" y="0.00" angle="90.00" type="flow" speed="10.13" pos="48.26" lane="0_0" slope="0.00"/>
        <vehicle id="flow.9" x="28.80" y="0.00" angle="90.00" type="flow" speed="8.60" pos="28.80" lane="0_0" slope="0.00"/>
    </timestep>
    <timestep time="24.00">
        <vehicle id="first" x="296.73" y="0.00" angle="90.00" type="DEFAULT_VEHTYPE" speed="2.91" pos="296.73" lane="0_0" slope="0.00"/>
        <vehicle id="flow.0" x="284.16" y="0.00" angle="90.00" type="flow" speed="6.57" pos="284.16" lane="0_0" slope="0.00"/>
        <vehicle id="flow.1" x="255.47" y="0.00" angle="90.00" type="flow" speed="11.70" pos="255.47" lane="0_0" slope="0.00"/>
        <vehicle id="flow.2" x="228.68" y="0.00" angle="90.00" type="flow" speed="12.17" pos="228.68" lane="0_0" slope="0.00"/>
        <vehicle id="flow.3" x="204.40" y="0.00" angle="90.00" type="flow" speed="12.12" pos="204.40" lane="0_0" slope="0.00"/>
        <vehicle id="flow.4" x="177.38" y="0.00" angle="90.00" type="flow" speed="12.24" pos="177.38" lane="0_0" slope="0.00"/>
        <vehicle id="flow.5" x="133.79" y="0.00" angle="90.00" type="flow" speed="11.22" pos="133.79" lane="0_0" slope="0.00"/>
        <vehicle id="flow.6" x="109.02" y="0.00" angle="90.00" type="flow" speed="11.78" pos="109.02" lane="0_0" slope="0.00"/>
        <vehicle id="flow.7" x="81.26" y="0.00" angle="90.00" type="flow" speed="11.12" pos="81.26" lane="0_0" slope="0.00"/>
        <vehicle id="flow.8" x="58.73" y="0.00" angle="90.00" type="flow" speed="10.47" pos="58.73" lane="0_0" slope="0.00"/>
        <vehicle id="flow.9" x="38.01" y="0.00" angle="90.00" type="flow" speed="9.21" pos="38.01" lane="0_0" slope="0.00"/>
    </timestep>
    <timestep time="25.00">
        <vehicle id="first" x="298.33" y="0.00" angle="90.00" type="DEFAULT_VEHTYPE" speed="1.59" pos="298.33" lane="0_0" slope="0.00"/>
        <vehicle id="flow.0" x="288.06" y="0.00" angle="90.00" type="flow" speed="3.91" pos="288.06" lane="0_0" slope="0.00"/>
        <vehicle id="flow.1" x="265.92" y="0.00" angle="90.00" type="flow" speed="10.45" pos="265.92" lane="0_0" slope="0.00"/>
        <vehicle id="flow.2" x="240.70" y="0.00" angle="90.00" type="flow" speed="12.02" pos="240.70" lane="0_0" slope="0.00"/>
        <vehicle id="flow.3" x="216.53" y="0.00" angle="90.00" type="flow" speed="12.13" pos="216.53" lane="0_0" slope="0.00"/>
        <vehicle id="flow.4" x="189.61" y="0.00" angle="90.00" type="flow" speed="12.23" pos="189.61" lane="0_0" slope="0.00"/>
        <vehicle id="flow.5" x="145.03" y="0.00" angle="90.00" type="flow" speed="11.24" pos="145.03" lane="0_0" slope="0.00"/>
        <vehicle id="flow.6" x="120.72" y="0.00" angle="90.00" type="flow" speed="11.69" pos="120.72" lane="0_0" slope="0.00"/>
        <vehicle id="flow.7" x="92.43" y="0.00" angle="90.00" type="flow" speed="11.17" pos="92.43" lane="0_0" slope="0.00"/>
        <vehicle id="flow.8" x="69.41" y="0.00" angle="90.00" type="flow" speed="10.68" pos="69.41" lane="0_0" slope="0.00"/>
        <vehicle id="flow.9" x="47.65" y="0.00" angle="90.00" type="flow" speed="9.64" pos="47.65" lane="0_0" slope="0.00"/>
    </timestep>
    <timestep time="26.00">
        <vehicle id="first" x="299.16" y="0.00" angle="90.00" type="DEFAULT_VEHTYPE" speed="0.83" pos="299.16" lane="0_0" slope="0.00"/>
        <vehicle id="flow.0" x="290.19" y="0.00" angle="90.00" type="flow" speed="2.13" pos="290.19" lane="0_0" slope="0.00"/>
        <vehicle id="flow.1" x="273.91" y="0.00" angle="90.00" type="flow" speed="7.99" pos="273.91" lane="0_0" slope="0.00"/>
        <vehicle id="flow.2" x="252.17" y="0.00" angle="90.00" type="flow" speed="11.48" pos="252.17" lane="0_0" slope="0.00"/>
        <vehicle id="flow.3" x="228.61" y="0.00" angle="90.00" type="flow" speed="12.07" pos="228.61" lane="0_0" slope="0.00"/>
        <vehicle id="flow.4" x="201.84" y="0.00" angle="90.00" type="flow" speed="12.23" pos="201.84" lane="0_0" slope="0.00"/>
        <vehicle id="flow.5" x="156.28" y="0.00" angle="90.00" type="flow" speed="11.25" pos="156.28" lane="0_0" slope="0.00"/>
        <vehicle id="flow.6" x="132.34" y="0.00" angle="90.00" type="flow" speed="11.62" pos="132.34" lane="0_0" slope="0.00"/>
        <vehicle id="flow.7" x="103.63" y="0.00" angle="90.00" type="flow" speed="11.20" pos="103.63" lane="0_0" slope="0.00"/>
        <vehicle id="flow.8" x="80.22" y="0.00" angle="90.00" type="flow" speed="10.81" pos="80.22" lane="0_0" slope="0.00"/>
        <vehicle id="flow.9" x="57.59" y="0.00" angle="90.00" type="flow" speed="9.94" pos="57.59" lane="0_0" slope="0.00"/>
    </timestep>
    <timestep time="27.00">
        <vehicle id="first" x="299.58" y="0.00" angle="90.00" type="DEFAULT_VEHTYPE" speed="0.42" pos="299.58" lane="0_0" slope="0.00"/>
        <vehicle id="flow.0" x="291.31" y="0.00" angle="90.00" type="flow" speed="1.12" pos="291.31" lane="0_0" slope="0.00"/>
        <vehicle id="flow.1" x="278.97" y="0.00" angle="90.00" type="flow" speed="5.06" pos="278.97" lane="0_0" slope="0.00"/>
        <vehicle id="flow.2" x="262.05" y="0.00" angle="90.00" type="flow" speed="9.88" pos="262.05" lane="0_0" slope="0.00"/>
        <vehicle id="flow.3" x="240.42" y="0.00" angle="90.00" type="flow" speed="11.81" pos="240.42" lane="0_0" slope="0.00"/>
        <vehicle id="flow.4" x="214.04" y="0.00" angle="90.00" type="flow" speed="12.20" pos="214.04" lane="0_0" slope="0.00"/>
        <vehicle id="flow.5" x="167.54" y="0.00" angle="90.00" type="flow" speed="11.26" pos="167.54" lane="0_0" slope="0.00"/>
        <vehicle id="flow.6" x="143.91" y="0.00" angle="90.00" type="flow" speed="11.56" pos="143.91" lane="0_0" slope="0.00"/>
        <vehicle id="flow.7" x="114.85" y="0.00" angle="90.00" type="flow" speed="11.22" pos="114.85" lane="0_0" slope="0.00"/>
        <vehicle id="flow.8" x="91.11" y="0.00" angle="90.00" type="flow" speed="10.90" pos="91.11" lane="0_0" slope="0.00"/>
        <vehicle id="flow.9" x="67.72" y="0.00" angle="90.00" type="flow" speed="10.14" pos="67.72" lane="0_0" slope="0.00"/>
    </timestep>
    <timestep time="28.00">
        <vehicle id="first" x="299.80" y="0.00" angle="90.00" type="DEFAULT_VEHTYPE" speed="0.21" pos="299.80" lane="0_0" slope="0.00"/>
        <vehicle id="flow.0" x="291.89" y="0.00" angle="90.00" type="flow" speed="0.58" pos="291.89" lane="0_0" slope="0.00"/>
        <vehicle id="flow.1" x="281.82" y="0.00" angle="90.00" type="flow" speed="2.86" pos="281.82" lane="0_0" slope="0.00"/>
        <vehicle id="flow.2" x="268.94" y="0.00" angle="90.00" type="flow" speed="6.89" pos="268.94" lane="0_0" slope="0.00"/>