<?xml version="1.0" encoding="UTF-8"?>

<!-- generated on 2022-05-18 13:35:37 by Eclipse SUMO sumo Version v1_13_0+0324-c5e9788
This data file and the accompanying materials
are made available under the terms of the Eclipse Public License v2.0
which accompanies this distribution, and is available at
http://www.eclipse.org/legal/epl-v20.html
This file may also be made available under the following Secondary
Licenses when the conditions for such availability set forth in the Eclipse
Public License 2.0 are satisfied: GNU General Public License, version 2
or later which is available at
https://www.gnu.org/licenses/old-licenses/gpl-2.0-standalone.html
SPDX-License-Identifier: EPL-2.0 OR GPL-2.0-or-later
<configuration xmlns:xsi="http://www.w3.org/2001/XMLSchema-instance" xsi:noNamespaceSchemaLocation="http://sumo.dlr.de/xsd/sumoConfiguration.xsd">

    <input>
        <net-file value="net.net.xml"/>
        <route-files value="input_routes.rou.xml"/>
    </input>

    <output>
        <write-license value="true"/>
        <fcd-output value="fcd.xml"/>
    </output>

    <processing>
        <default.carfollowmodel value="IDMM"/>
        <default.speeddev value="0"/>
    </processing>

    <report>
        <xml-validation value="never"/>
        <no-step-log value="true"/>
    </report>

</configuration>
-->

<fcd-export xmlns:xsi="http://www.w3.org/2001/XMLSchema-instance" xsi:noNamespaceSchemaLocation="http://sumo.dlr.de/xsd/fcd_file.xsd">
    <timestep time="0.00">
        <vehicle id="first" x="5.10" y="0.00" angle="90.00" type="DEFAULT_VEHTYPE" speed="13.85" pos="5.10" lane="0_0" slope="0.00"/>
    </timestep>
    <timestep time="1.00">
        <vehicle id="first" x="18.93" y="0.00" angle="90.00" type="DEFAULT_VEHTYPE" speed="13.83" pos="18.93" lane="0_0" slope="0.00"/>
        <vehicle id="flow.0" x="5.10" y="0.00" angle="90.00" type="flow" speed="10.70" pos="5.10" lane="0_0" slope="0.00"/>
    </timestep>
    <timestep time="2.00">
        <vehicle id="first" x="32.75" y="0.00" angle="90.00" type="DEFAULT_VEHTYPE" speed="13.82" pos="32.75" lane="0_0" slope="0.00"/>
        <vehicle id="flow.0" x="15.55" y="0.00" angle="90.00" type="flow" speed="10.45" pos="15.55" lane="0_0" slope="0.00"/>
        <vehicle id="flow.1" x="5.10" y="0.00" angle="90.00" type="flow" speed="5.21" pos="5.10" lane="0_0" slope="0.00"/>
    </timestep>
    <timestep time="3.00">
        <vehicle id="first" x="46.56" y="0.00" angle="90.00" type="DEFAULT_VEHTYPE" speed="13.81" pos="46.56" lane="0_0" slope="0.00"/>
        <vehicle id="flow.0" x="26.63" y="0.00" angle="90.00" type="flow" speed="11.08" pos="26.63" lane="0_0" slope="0.00"/>
        <vehicle id="flow.1" x="11.27" y="0.00" angle="90.00" type="flow" speed="6.17" pos="11.27" lane="0_0" slope="0.00"/>
    </timestep>
    <timestep time="4.00">
        <vehicle id="first" x="60.36" y="0.00" angle="90.00" type="DEFAULT_VEHTYPE" speed="13.80" pos="60.36" lane="0_0" slope="0.00"/>
        <vehicle id="flow.0" x="38.28" y="0.00" angle="90.00" type="flow" speed="11.65" pos="38.28" lane="0_0" slope="0.00"/>
        <vehicle id="flow.1" x="19.16" y="0.00" angle="90.00" type="flow" speed="7.89" pos="19.16" lane="0_0" slope="0.00"/>
        <vehicle id="flow.2" x="5.10" y="0.00" angle="90.00" type="flow" speed="7.17" pos="5.10" lane="0_0" slope="0.00"/>
    </timestep>
    <timestep time="5.00">
        <vehicle id="first" x="74.14" y="0.00" angle="90.00" type="DEFAULT_VEHTYPE" speed="13.79" pos="74.14" lane="0_0" slope="0.00"/>
        <vehicle id="flow.0" x="50.37" y="0.00" angle="90.00" type="flow" speed="12.09" pos="50.37" lane="0_0" slope="0.00"/>
        <vehicle id="flow.1" x="28.50" y="0.00" angle="90.00" type="flow" speed="9.34" pos="28.50" lane="0_0" slope="0.00"/>
        <vehicle id="flow.2" x="12.21" y="0.00" angle="90.00" type="flow" speed="7.11" pos="12.21" lane="0_0" slope="0.00"/>
    </timestep>
    <timestep time="6.00">
        <vehicle id="first" x="87.92" y="0.00" angle="90.00" type="DEFAULT_VEHTYPE" speed="13.77" pos="87.92" lane="0_0" slope="0.00"/>
        <vehicle id="flow.0" x="62.76" y="0.00" angle="90.00" type="flow" speed="12.40" pos="62.76" lane="0_0" slope="0.00"/>
        <vehicle id="flow.1" x="38.86" y="0.00" angle="90.00" type="flow" speed="10.36" pos="38.86" lane="0_0" slope="0.00"/>
        <vehicle id="flow.2" x="20.35" y="0.00" angle="90.00" type="flow" speed="8.14" pos="20.35" lane="0_0" slope="0.00"/>
        <vehicle id="flow.3" x="5.10" y="0.00" angle="90.00" type="flow" speed="7.97" pos="5.10" lane="0_0" slope="0.00"/>
    </timestep>
    <timestep time="7.00">
        <vehicle id="first" x="101.68" y="0.00" angle="90.00" type="DEFAULT_VEHTYPE" speed="13.76" pos="101.68" lane="0_0" slope="0.00"/>
        <vehicle id="flow.0" x="75.38" y="0.00" angle="90.00" type="flow" speed="12.62" pos="75.38" lane="0_0" slope="0.00"/>
        <vehicle id="flow.1" x="49.87" y="0.00" angle="90.00" type="flow" speed="11.01" pos="49.87" lane="0_0" slope="0.00"/>
        <vehicle id="flow.2" x="29.58" y="0.00" angle="90.00" type="flow" speed="9.23" pos="29.58" lane="0_0" slope="0.00"/>
        <vehicle id="flow.3" x="12.93" y="0.00" angle="90.00" type="flow" speed="7.83" pos="12.93" lane="0_0" slope="0.00"/>
        <vehicle id="flow.4" x="5.10" y="0.00" angle="90.00" type="flow" speed="0.43" pos="5.10" lane="0_0" slope="0.00"/>
    </timestep>
    <timestep time="8.00">
        <vehicle id="first" x="115.42" y="0.00" angle="90.00" type="DEFAULT_VEHTYPE" speed="13.74" pos="115.42" lane="0_0" slope="0.00"/>
        <vehicle id="flow.0" x="88.16" y="0.00" angle="90.00" type="flow" speed="12.78" pos="88.16" lane="0_0" slope="0.00"/>
        <vehicle id="flow.1" x="61.27" y="0.00" angle="90.00" type="flow" speed="11.40" pos="61.27" lane="0_0" slope="0.00"/>
        <vehicle id="flow.2" x="39.67" y="0.00" angle="90.00" type="flow" speed="10.10" pos="39.67" lane="0_0" slope="0.00"/>
        <vehicle id="flow.3" x="21.46" y="0.00" angle="90.00" type="flow" speed="8.52" pos="21.46" lane="0_0" slope="0.00"/>
        <vehicle id="flow.4" x="6.10" y="0.00" angle="90.00" type="flow" speed="1.00" pos="6.10" lane="0_0" slope="0.00"/>
    </timestep>
    <timestep time="9.00">
        <vehicle id="first" x="129.14" y="0.00" angle="90.00" type="DEFAULT_VEHTYPE" speed="13.72" pos="129.14" lane="0_0" slope="0.00"/>
        <vehicle id="flow.0" x="101.06" y="0.00" angle="90.00" type="flow" speed="12.90" pos="101.06" lane="0_0" slope="0.00"/>
        <vehicle id="flow.1" x="72.92" y="0.00" angle="90.00" type="flow" speed="11.65" pos="72.92" lane="0_0" slope="0.00"/>
        <vehicle id="flow.2" x="50.38" y="0.00" angle="90.00" type="flow" speed="10.71" pos="50.38" lane="0_0" slope="0.00"/>
        <vehicle id="flow.3" x="30.81" y="0.00" angle="90.00" type="flow" speed="9.36" pos="30.81" lane="0_0" slope="0.00"/>
        <vehicle id="flow.4" x="9.53" y="0.00" angle="90.00" type="flow" speed="3.43" pos="9.53" lane="0_0" slope="0.00"/>
    </timestep>
    <timestep time="10.00">
        <vehicle id="first" x="142.83" y="0.00" angle="90.00" type="DEFAULT_VEHTYPE" speed="13.69" pos="142.83" lane="0_0" slope="0.00"/>
        <vehicle id="flow.0" x="114.05" y="0.00" angle="90.00" type="flow" speed="12.99" pos="114.05" lane="0_0" slope="0.00"/>
        <vehicle id="flow.1" x="84.73" y="0.00" angle="90.00" type="flow" speed="11.82" pos="84.73" lane="0_0" slope="0.00"/>
        <vehicle id="flow.2" x="61.49" y="0.00" angle="90.00" type="flow" speed="11.11" pos="61.49" lane="0_0" slope="0.00"/>
        <vehicle id="flow.3" x="40.90" y="0.00" angle="90.00" type="flow" speed="10.09" pos="40.90" lane="0_0" slope="0.00"/>
        <vehicle id="flow.4" x="15.39" y="0.00" angle="90.00" type="flow" speed="5.86" pos="15.39" lane="0_0" slope="0.00"/>
        <vehicle id="flow.5" x="5.10" y="0.00" angle="90.00" type="flow" speed="1.47" pos="5.10" lane="0_0" slope="0.00"/>
    </timestep>
    <timestep time="11.00">
        <vehicle id="first" x="156.48" y="0.00" angle="90.00" type="DEFAULT_VEHTYPE" speed="13.66" pos="156.48" lane="0_0" slope="0.00"/>
        <vehicle id="flow.0" x="127.11" y="0.00" angle="90.00" type="flow" speed="13.06" pos="127.11" lane="0_0" slope="0.00"/>
        <vehicle id="flow.1" x="96.68" y="0.00" angle="90.00" type="flow" speed="11.94" pos="96.68" lane="0_0" slope="0.00"/>
        <vehicle id="flow.2" x="72.85" y="0.00" angle="90.00" type="flow" speed="11.37" pos="72.85" lane="0_0" slope="0.00"/>
        <vehicle id="flow.3" x="51.55" y="0.00" angle="90.00" type="flow" speed="10.64" pos="51.55" lane="0_0" slope="0.00"/>
        <vehicle id="flow.4" x="23.49" y="0.00" angle="90.00" type="flow" speed="8.10" pos="23.49" lane="0_0" slope="0.00"/>
        <vehicle id="flow.5" x="8.04" y="0.00" angle="90.00" type="flow" speed="2.94" pos="8.04" lane="0_0" slope="0.00"/>
    </timestep>
    <timestep time="12.00">
        <vehicle id="first" x="170.10" y="0.00" angle="90.00" type="DEFAULT_VEHTYPE" speed="13.61" pos="170.10" lane="0_0" slope="0.00"/>
        <vehicle id="flow.0" x="140.23" y="0.00" angle="90.00" type="flow" speed="13.12" pos="140.23" lane="0_0" slope="0.00"/>
        <vehicle id="flow.1" x="108.72" y="0.00" angle="90.00" type="flow" speed="12.04" pos="108.72" lane="0_0" slope="0.00"/>
        <vehicle id="flow.2" x="84.40" y="0.00" angle="90.00" type="flow" speed="11.55" pos="84.40" lane="0_0" slope="0.00"/>
        <vehicle id="flow.3" x="62.57" y="0.00" angle="90.00" type="flow" speed="11.02" pos="62.57" lane="0_0" slope="0.00"/>
        <vehicle id="flow.4" x="33.40" y="0.00" angle="90.00" type="flow" speed="9.91" pos="33.40" lane="0_0" slope="0.00"/>
        <vehicle id="flow.5" x="13.17" y="0.00" angle="90.00" type="flow" speed="5.12" pos="13.17" lane="0_0" slope="0.00"/>
        <vehicle id="flow.6" x="5.10" y="0.00" angle="90.00" type="flow" speed="0.59" pos="5.10" lane="0_0" slope="0.00"/>
    </timestep>
    <timestep time="13.00">
        <vehicle id="first" x="183.65" y="0.00" angle="90.00" type="DEFAULT_VEHTYPE" speed="13.55" pos="183.65" lane="0_0" slope="0.00"/>
        <vehicle id="flow.0" x="153.38" y="0.00" angle="90.00" type="flow" speed="13.16" pos="153.38" lane="0_0" slope="0.00"/>
        <vehicle id="flow.1" x="120.84" y="0.00" angle="90.00" type="flow" speed="12.12" pos="120.84" lane="0_0" slope="0.00"/>
        <vehicle id="flow.2" x="96.08" y="0.00" angle="90.00" type="flow" speed="11.68" pos="96.08" lane="0_0" slope="0.00"/>
        <vehicle id="flow.3" x="73.86" y="0.00" angle="90.00" type="flow" speed="11.28" pos="73.86" lane="0_0" slope="0.00"/>
        <vehicle id="flow.4" x="44.52" y="0.00" angle="90.00" type="flow" speed="11.12" pos="44.52" lane="0_0" slope="0.00"/>
        <vehicle id="flow.5" x="20.40" y="0.00" angle="90.00" type="flow" speed="7.23" pos="20.40" lane="0_0" slope="0.00"/>
        <vehicle id="flow.6" x="6.14" y="0.00" angle="90.00" type="flow" speed="1.04" pos="6.14" lane="0_0" slope="0.00"/>
    </timestep>
    <timestep time="14.00">
        <vehicle id="first" x="197.12" y="0.00" angle="90.00" type="DEFAULT_VEHTYPE" speed="13.47" pos="197.12" lane="0_0" slope="0.00"/>
        <vehicle id="flow.0" x="166.57" y="0.00" angle="90.00" type="flow" speed="13.18" pos="166.57" lane="0_0" slope="0.00"/>
        <vehicle id="flow.1" x="133.02" y="0.00" angle="90.00" type="flow" speed="12.19" pos="133.02" lane="0_0" slope="0.00"/>
        <vehicle id="flow.2" x="107.86" y="0.00" angle="90.00" type="flow" speed="11.78" pos="107.86" lane="0_0" slope="0.00"/>
        <vehicle id="flow.3" x="85.32" y="0.00" angle="90.00" type="flow" speed="11.46" pos="85.32" lane="0_0" slope="0.00"/>
        <vehicle id="flow.4" x="56.30" y="0.00" angle="90.00" type="flow" speed="11.78" pos="56.30" lane="0_0" slope="0.00"/>
        <vehicle id="flow.5" x="29.31" y="0.00" angle="90.00" type="flow" speed="8.91" pos="29.31" lane="0_0" slope="0.00"/>
        <vehicle id="flow.6" x="9.50" y="0.00" angle="90.00" type="flow" speed="3.36" pos="9.50" lane="0_0" slope="0.00"/>
    </timestep>
    <timestep time="15.00">
        <vehicle id="first" x="210.49" y="0.00" angle="90.00" type="DEFAULT_VEHTYPE" speed="13.36" pos="210.49" lane="0_0" slope="0.00"/>
        <vehicle id="flow.0" x="179.76" y="0.00" angle="90.00" type="flow" speed="13.19" pos="179.76" lane="0_0" slope="0.00"/>
        <vehicle id="flow.1" x="145.27" y="0.00" angle="90.00" type="flow" speed="12.24" pos="145.27" lane="0_0" slope="0.00"/>
        <vehicle id="flow.2" x="119.73" y="0.00" angle="90.00" type="flow" speed="11.87" pos="119.73" lane="0_0" slope="0.00"/>
        <vehicle id="flow.3" x="96.92" y="0.00" angle="90.00" type="flow" speed="11.60" pos="96.92" lane="0_0" slope="0.00"/>
        <vehicle id="flow.4" x="68.37" y="0.00" angle="90.00" type="flow" speed="12.07" pos="68.37" lane="0_0" slope="0.00"/>
        <vehicle id="flow.5" x="39.28" y="0.00" angle="90.00" type="flow" speed="9.97" pos="39.28" lane="0_0" slope="0.00"/>
        <vehicle id="flow.6" x="15.24" y="0.00" angle="90.00" type="flow" speed="5.75" pos="15.24" lane="0_0" slope="0.00"/>
        <vehicle id="flow.7" x="5.10" y="0.00" angle="90.00" type="flow" speed="1.44" pos="5.10" lane="0_0" slope="0.00"/>
    </timestep>
    <timestep time="16.00">
        <vehicle id="first" x="223.70" y="0.00" angle="90.00" type="DEFAULT_VEHTYPE" speed="13.21" pos="223.70" lane="0_0" slope="0.00"/>
        <vehicle id="flow.0" x="192.95" y="0.00" angle="90.00" type="flow" speed="13.19" pos="192.95" lane="0_0" slope="0.00"/>
        <vehicle id="flow.1" x="157.55" y="0.00" angle="90.00" type="flow" speed="12.29" pos="157.55" lane="0_0" slope="0.00"/>
        <vehicle id="flow.2" x="131.67" y="0.00" angle="90.00" type="flow" speed="11.94" pos="131.67" lane="0_0" slope="0.00"/>
        <vehicle id="flow.3" x="108.62" y="0.00" angle="90.00" type="flow" speed="11.70" pos="108.62" lane="0_0" slope="0.00"/>
        <vehicle id="flow.4" x="80.54" y="0.00" angle="90.00" type="flow" speed="12.17" pos="80.54" lane="0_0" slope="0.00"/>
        <vehicle id="flow.5" x="49.80" y="0.00" angle="90.00" type="flow" speed="10.52" pos="49.80" lane="0_0" slope="0.00"/>
        <vehicle id="flow.6" x="23.21" y="0.00" angle="90.00" type="flow" speed="7.97" pos="23.21" lane="0_0" slope="0.00"/>
        <vehicle id="flow.7" x="7.95" y="0.00" angle="90.00" type="flow" speed="2.85" pos="7.95" lane="0_0" slope="0.00"/>
    </timestep>
    <timestep time="17.00">
        <vehicle id="first" x="236.67" y="0.00" angle="90.00" type="DEFAULT_VEHTYPE" speed="12.98" pos="236.67" lane="0_0" slope="0.00"/>
        <vehicle id="flow.0" x="206.11" y="0.00" angle="90.00" type="flow" speed="13.16" pos="206.11" lane="0_0" slope="0.00"/>
        <vehicle id="flow.1" x="169.88" y="0.00" angle="90.00" type="flow" speed="12.33" pos="169.88" lane="0_0" slope="0.00"/>
        <vehicle id="flow.2" x="143.67" y="0.00" angle="90.00" type="flow" speed="12.00" pos="143.67" lane="0_0" slope="0.00"/>
        <vehicle id="flow.3" x="120.40" y="0.00" angle="90.00" type="flow" speed="11.78" pos="120.40" lane="0_0" slope="0.00"/>
        <vehicle id="flow.4" x="92.73" y="0.00" angle="90.00" type="flow" speed="12.19" pos="92.73" lane="0_0" slope="0.00"/>
        <vehicle id="flow.5" x="60.59" y="0.00" angle="90.00" type="flow" speed="10.79" pos="60.59" lane="0_0" slope="0.00"/>
        <vehicle id="flow.6" x="32.98" y="0.00" angle="90.00" type="flow" speed="9.77" pos="32.98" lane="0_0" slope="0.00"/>
        <vehicle id="flow.7" x="12.98" y="0.00" angle="90.00" type="flow" speed="5.03" pos="12.98" lane="0_0" slope="0.00"/>
        <vehicle id="flow.8" x="5.10" y="0.00" angle="90.00" type="flow" speed="0.43" pos="5.10" lane="0_0" slope="0.00"/>
    </timestep>
    <timestep time="18.00">
        <vehicle id="first" x="249.29" y="0.00" angle="90.00" type="DEFAULT_VEHTYPE" speed="12.62" pos="249.29" lane="0_0" slope="0.00"/>
        <vehicle id="flow.0" x="219.20" y="0.00" angle="90.00" type="flow" speed="13.10" pos="219.20" lane="0_0" slope="0.00"/>
        <vehicle id="flow.1" x="182.24" y="0.00" angle="90.00" type="flow" speed="12.36" pos="182.24" lane="0_0" slope="0.00"/>
        <vehicle id="flow.2" x="155.73" y="0.00" angle="90.00" type="flow" speed="12.06" pos="155.73" lane="0_0" slope="0.00"/>
        <vehicle id="flow.3" x="132.26" y="0.00" angle="90.00" type="flow" speed="11.86" pos="132.26" lane="0_0" slope="0.00"/>
        <vehicle id="flow.4" x="104.92" y="0.00" angle="90.00" type="flow" speed="12.19" pos="104.92" lane="0_0" slope="0.00"/>
        <vehicle id="flow.5" x="71.50" y="0.00" angle="90.00" type="flow" speed="10.91" pos="71.50" lane="0_0" slope="0.00"/>
        <vehicle id="flow.6" x="43.96" y="0.00" angle="90.00" type="flow" speed="10.97" pos="43.96" lane="0_0" slope="0.00"/>
        <vehicle id="flow.7" x="20.16" y="0.00" angle="90.00" type="flow" speed="7.18" pos="20.16" lane="0_0" slope="0.00"/>
        <vehicle id="flow.8" x="5.85" y="0.00" angle="90.00" type="flow" speed="0.75" pos="5.85" lane="0_0" slope="0.00"/>
    </timestep>
    <timestep time="19.00">
        <vehicle id="first" x="261.33" y="0.00" angle="90.00" type="DEFAULT_VEHTYPE" speed="12.03" pos="261.33" lane="0_0" slope="0.00"/>
        <vehicle id="flow.0" x="232.17" y="0.00" angle="90.00" type="flow" speed="12.97" pos="232.17" lane="0_0" slope="0.00"/>
        <vehicle id="flow.1" x="194.62" y="0.00" angle="90.00" type="flow" speed="12.38" pos="194.62" lane="0_0" slope="0.00"/>
        <vehicle id="flow.2" x="167.84" y="0.00" angle="90.00" type="flow" speed="12.11" pos="167.84" lane="0_0" slope="0.00"/>
        <vehicle id="flow.3" x="144.18" y="0.00" angle="90.00" type="flow" speed="11.92" pos="144.18" lane="0_0" slope="0.00"/>
        <vehicle id="flow.4" x="117.10" y="0.00" angle="90.00" type="flow" speed="12.18" pos="117.10" lane="0_0" slope="0.00"/>
        <vehicle id="flow.5" x="82.49" y="0.00" angle="90.00" type="flow" speed="10.99" pos="82.49" lane="0_0" slope="0.00"/>
        <vehicle id="flow.6" x="55.53" y="0.00" angle="90.00" type="flow" speed="11.57" pos="55.53" lane="0_0" slope="0.00"/>
        <vehicle id="flow.7" x="29.13" y="0.00" angle="90.00" type="flow" speed="8.97" pos="29.13" lane="0_0" slope="0.00"/>
        <vehicle id="flow.8" x="8.95" y="0.00" angle="90.00" type="flow" speed="3.10" pos="8.95" lane="0_0" slope="0.00"/>
    </timestep>
    <timestep time="20.00">
        <vehicle id="first" x="272.38" y="0.00" angle="90.00" type="DEFAULT_VEHTYPE" speed="11.05" pos="272.38" lane="0_0" slope="0.00"/>
        <vehicle id="flow.0" x="244.91" y="0.00" angle="90.00" type="flow" speed="12.73" pos="244.91" lane="0_0" slope="0.00"/>
        <vehicle id="flow.1" x="207.01" y="0.00" angle="90.00" type="flow" speed="12.39" pos="207.01" lane="0_0" slope="0.00"/>
        <vehicle id="flow.2" x="179.99" y="0.00" angle="90.00" type="flow" speed="12.15" pos="179.99" lane="0_0" slope="0.00"/>
        <vehicle id="flow.3" x="156.15" y="0.00" angle="90.00" type="flow" speed="11.97" pos="156.15" lane="0_0" slope="0.00"/>
        <vehicle id="flow.4" x="129.28" y="0.00" angle="90.00" type="flow" speed="12.17" pos="129.28" lane="0_0" slope="0.00"/>
        <vehicle id="flow.5" x="93.52" y="0.00" angle="90.00" type="flow" speed="11.03" pos="93.52" lane="0_0" slope="0.00"/>
        <vehicle id="flow.6" x="67.31" y="0.00" angle="90.00" type="flow" speed="11.78" pos="67.31" lane="0_0" slope="0.00"/>
        <vehicle id="flow.7" x="39.30" y="0.00" angle="90.00" type="flow" speed="10.17" pos="39.30" lane="0_0" slope="0.00"/>
        <vehicle id="flow.8" x="14.46" y="0.00" angle="90.00" type="flow" speed="5.51" pos="14.46" lane="0_0" slope="0.00"/>
        <vehicle id="flow.9" x="5.10" y="0.00" angle="90.00" type="flow" speed="1.24" pos="5.10" lane="0_0" slope="0.00"/>
    </timestep>
    <timestep time="21.00">
        <vehicle id="first" x="281.81" y="0.00" angle="90.00" type="DEFAULT_VEHTYPE" speed="9.43" pos="281.81" lane="0_0" slope="0.00"/>
        <vehicle id="flow.0" x="257.16" y="0.00" angle="90.00" type="flow" speed="12.26" pos="257.16" lane="0_0" slope="0.00"/>
        <vehicle id="flow.1" x="219.39" y="0.00" angle="90.00" type="flow" speed="12.38" pos="219.39" lane="0_0" slope="0.00"/>
        <vehicle id="flow.2" x="192.17" y="0.00" angle="90.00" type="flow" speed="12.18" pos="192.17" lane="0_0" slope="0.00"/>
        <vehicle id="flow.3" x="168.17" y="0.00" angle="90.00" type="flow" speed="12.02" pos="168.17" lane="0_0" slope="0.00"/>
        <vehicle id="flow.4" x="141.44" y="0.00" angle="90.00" type="flow" speed="12.17" pos="141.44" lane="0_0" slope="0.00"/>
        <vehicle id="flow.5" x="104.59" y="0.00" angle="90.00" type="flow" speed="11.07" pos="104.59" lane="0_0" slope="0.00"/>
        <vehicle id="flow.6" x="79.10" y="0.00" angle="90.00" type="flow" speed="11.79" pos="79.10" lane="0_0" slope="0.00"/>
        <vehicle id="flow.7" x="50.11" y="0.00" angle="90.00" type="flow" speed="10.82" pos="50.11" lane="0_0" slope="0.00"/>
        <vehicle id="flow.8" x="22.21" y="0.00" angle="90.00" type="flow" speed="7.75" pos="22.21" lane="0_0" slope="0.00"/>
        <vehicle id="flow.9" x="7.46" y="0.00" angle="90.00" type="flow" speed="2.36" pos="7.46" lane="0_0" slope="0.00"/>
    </timestep>
    <timestep time="22.00">
        <vehicle id="first" x="288.90" y="0.00" angle="90.00" type="DEFAULT_VEHTYPE" speed="7.09" pos="288.90" lane="0_0" slope="0.00"/>
        <vehicle id="flow.0" x="268.41" y="0.00" angle="90.00" type="flow" speed="11.24" pos="268.41" lane="0_0" slope="0.00"/>
        <vehicle id="flow.1" x="231.71" y="0.00" angle="90.00" type="flow" speed="12.33" pos="231.71" lane="0_0" slope="0.00"/>
        <vehicle id="flow.2" x="204.37" y="0.00" angle="90.00" type="flow" speed="12.21" pos="204.37" lane="0_0" slope="0.00"/>
        <vehicle id="flow.3" x="180.24" y="0.00" angle="90.00" type="flow" speed="12.07" pos="180.24" lane="0_0" slope="0.00"/>
        <vehicle id="flow.4" x="153.61" y="0.00" angle="90.00" type="flow" speed="12.16" pos="153.61" lane="0_0" slope="0.00"/>
        <vehicle id="flow.5" x="115.69" y="0.00" angle="90.00" type="flow" speed="11.10" pos="115.69" lane="0_0" slope="0.00"/>
        <vehicle id="flow.6" x="90.83" y="0.00" angle="90.00" type="flow" speed="11.73" pos="90.83" lane="0_0" slope="0.00"/>
        <vehicle id="flow.7" x="61.23" y="0.00" angle="90.00" type="flow" speed="11.12" pos="61.23" lane="0_0" slope="0.00"/>
        <vehicle id="flow.8" x="31.75" y="0.00" angle="90.00" type="flow" speed="9.54" pos="31.75" lane="0_0" slope="0.00"/>
        <vehicle id="flow.9" x="12.02" y="0.00" angle="90.00" type="flow" speed="4.57" pos="12.02" lane="0_0" slope="0.00"/>
    </timestep>
    <timestep time="23.00">
        <vehicle id="first" x="293.53" y="0.00" angle="90.00" type="DEFAULT_VEHTYPE" speed="4.63" pos="293.53" lane="0_0" slope="0.00"/>
        <vehicle id="flow.0" x="277.61" y="0.00" angle="90.00" type="flow" speed="9.20" pos="277.61" lane="0_0" slope="0.00"/>
        <vehicle id="flow.1" x="243.88" y="0.00" angle="90.00" type="flow" speed="12.16" pos="243.88" lane="0_0" slope="0.00"/>
        <vehicle id="flow.2" x="216.59" y="0.00" angle="90.00" type="flow" speed="12.21" pos="216.59" lane="0_0" slope="0.00"/>
        <vehicle id="flow.3" x="192.34" y="0.00" angle="90.00" type="flow" speed="12.10" pos="192.34" lane="0_0" slope="0.00"/>
        <vehicle id="flow.4" x="165.77" y="0.00" angle="90.00" type="flow" speed="12.17" pos="165.77" lane="0_0" slope="0.00"/>
        <vehicle id="flow.5" x="126.82" y="0.00" angle="90.00" type="flow" speed="11.12" pos="126.82" lane="0_0" slope="0.00"/>
        <vehicle id="flow.6" x="102.49" y="0.00" angle="90.00" type="flow" speed="11.66" pos="102.49" lane="0_0" slope="0.00"/>
        <vehicle id="flow.7" x="72.48" y="0.00" angle="90.00" type="flow" speed="11.25" pos="72.48" lane="0_0" slope="0.00"/>
        <vehicle id="flow.8" x="42.44" y="0.00" angle="90.00" type="flow" speed="10.69" pos="42.44" lane="0_0" slope="0.00"/>
        <vehicle id="flow.9" x="18.79" y="0.00" angle="90.00" type="flow" speed="6.77" pos="18.79" lane="0_0" slope="0.00"/>
    </timestep>
    <timestep time="24.00">
        <vehicle id="first" x="296.27" y="0.00" angle="90.00" type="DEFAULT_VEHTYPE" speed="2.74" pos="296.27" lane="0_0" slope="0.00"/>
        <vehicle id="flow.0" x="283.90" y="0.00" angle="90.00" type="flow" speed="6.28" pos="283.90" lane="0_0" slope="0.00"/>
        <vehicle id="flow.1" x="255.54" y="0.00" angle="90.00" type="flow" speed="11.66" pos="255.54" lane="0_0" slope="0.00"/>
        <vehicle id="flow.2" x="228.76" y="0.00" angle="90.00" type="flow" speed="12.18" pos="228.76" lane="0_0" slope="0.00"/>
        <vehicle id="flow.3" x="204.47" y="0.00" angle="90.00" type="flow" speed="12.13" pos="204.47" lane="0_0" slope="0.00"/>
        <vehicle id="flow.4" x="177.94" y="0.00" angle="90.00" type="flow" speed="12.17" pos="177.94" lane="0_0" slope="0.00"/>
        <vehicle id="flow.5" x="137.96" y="0.00" angle="90.00" type="flow" speed="11.15" pos="137.96" lane="0_0" slope="0.00"/>
        <vehicle id="flow.6" x="114.07" y="0.00" angle="90.00" type="flow" speed="11.58" pos="114.07" lane="0_0" slope="0.00"/>
        <vehicle id="flow.7" x="83.78" y="0.00" angle="90.00" type="flow" speed="11.30" pos="83.78" lane="0_0" slope="0.00"/>
        <vehicle id="flow.8" x="53.73" y="0.00" angle="90.00" type="flow" speed="11.29" pos="53.73" lane="0_0" slope="0.00"/>
        <vehicle id="flow.9" x="27.41" y="0.00" angle="90.00" type="flow" speed="8.61" pos="27.41" lane="0_0" slope="0.00"/>
    </timestep>
    <timestep time="25.00">
        <vehicle id="first" x="297.84" y="0.00" angle="90.00" type="DEFAULT_VEHTYPE" speed="1.56" pos="297.84" lane="0_0" slope="0.00"/>
        <vehicle id="flow.0" x="287.63" y="0.00" angle="90.00" type="flow" speed="3.73" pos="287.63" lane="0_0" slope="0.00"/>
        <vehicle id="flow.1" x="265.85" y="0.00" angle="90.00" type="flow" speed="10.31" pos="265.85" lane="0_0" slope="0.00"/>
        <vehicle id="flow.2" x="240.77" y="0.00" angle="90.00" type="flow" speed="12.01" pos="240.77" lane="0_0" slope="0.00"/>
        <vehicle id="flow.3" x="216.61" y="0.00" angle="90.00" type="flow" speed="12.13" pos="216.61" lane="0_0" slope="0.00"/>
        <vehicle id="flow.4" x="190.12" y="0.00" angle="90.00" type="flow" speed="12.17" pos="190.12" lane="0_0" slope="0.00"/>
        <vehicle id="flow.5" x="149.13" y="0.00" angle="90.00" type="flow" speed="11.17" pos="149.13" lane="0_0" slope="0.00"/>
        <vehicle id="flow.6" x="125.58" y="0.00" angle="90.00" type="flow" speed="11.51" pos="125.58" lane="0_0" slope="0.00"/>
        <vehicle id="flow.7" x="95.09" y="0.00" angle="90.00" type="flow" speed="11.32" pos="95.09" lane="0_0" slope="0.00"/>
        <vehicle id="flow.8" x="65.26" y="0.00" angle="90.00" type="flow" speed="11.53" pos="65.26" lane="0_0" slope="0.00"/>
        <vehicle id="flow.9" x="37.26" y="0.00" angle="90.00" type="flow" speed="9.85" pos="37.26" lane="0_0" slope="0.00"/>
    </timestep>
    <timestep time="26.00">
        <vehicle id="first" x="298.73" y="0.00" angle="90.00" type="DEFAULT_VEHTYPE" speed="0.89" pos="298.73" lane="0_0" slope="0.00"/>
        <vehicle id="flow.0" x="289.72" y="0.00" angle="90.00" type="flow" speed="2.09" pos="289.72" lane="0_0" slope="0.00"/>
        <vehicle id="flow.1" x="273.65" y="0.00" angle="90.00" type="flow" speed="7.80" pos="273.65" lane="0_0" slope="0.00"/>
        <vehicle id="flow.2" x="252.19" y="0.00" angle="90.00" type="flow" speed="11.41" pos="252.19" lane="0_0" slope="0.00"/>
        <vehicle id="flow.3" x="228.68" y="0.00" angle="90.00" type="flow" speed="12.07" pos="228.68" lane="0_0" slope="0.00"/>
        <vehicle id="flow.4" x="202.29" y="0.00" angle="90.00" type="flow" speed="12.17" pos="202.29" lane="0_0" slope="0.00"/>
        <vehicle id="flow.5" x="160.32" y="0.00" angle="90.00" type="flow" speed="11.19" pos="160.32" lane="0_0" slope="0.00"/>
        <vehicle id="flow.6" x="137.04" y="0.00" angle="90.00" type="flow" speed="11.46" pos="137.04" lane="0_0" slope="0.00"/>
        <vehicle id="flow.7" x="106.41" y="0.00" angle="90.00" type="flow" speed="11.32" pos="106.41" lane="0_0" slope="0.00"/>
        <vehicle id="flow.8" x="76.88" y="0.00" angle="90.00" type="flow" speed="11.61" pos="76.88" lane="0_0" slope="0.00"/>
        <vehicle id="flow.9" x="47.78" y="0.00" angle="90.00" type="flow" speed="10.52" pos="47.78" lane="0_0" slope="0.00"/>
    </timestep>
    <timestep time="27.00">
        <vehicle id="first" x="298.73" y="0.00" angle="90.00" type="DEFAULT_VEHTYPE" speed="0.00" pos="298.73" lane="0_0" slope="0.00"/>
        <vehicle id="flow.0" x="290.89" y="0.00" angle="90.00" type="flow" speed="1.17" pos="290.89" lane="0_0" slope="0.00"/>
        <vehicle id="flow.1" x="278.60" y="0.00" angle="90.00" type="flow" speed="4.96" pos="278.60" lane="0_0" slope="0.00"/>
        <vehicle id="flow.2" x="261.91" y="0.00" angle="90.00" type="flow" speed="9.72" pos="261.91" lane="0_0" slope="0.00"/>
        <vehicle id="flow.3" x="240.46" y="0.00" angle="90.00" type="flow" speed="11.78" pos="240.46" lane="0_0" slope="0.00"/>
        <vehicle id="flow.4" x="214.44" y="0.00" angle="90.00" type="flow" speed="12.15" pos="214.44" lane="0_0" slope="0.00"/>
        <vehicle id="flow.5" x="171.53" y="0.00" angle="90.00" type="flow" speed="11.21" pos="171.53" lane="0_0" slope="0.00"/>
        <vehicle id="flow.6" x="148.46" y="0.00" angle="90.00" type="flow" speed="11.42" pos="148.46" lane="0_0" slope="0.00"/>
        <vehicle id="flow.7" x="117.74" y="0.00" angle="90.00" type="flow" speed="11.32" pos="117.74" lane="0_0" slope="0.00"/>
        <vehicle id="flow.8" x="88.50" y="0.00" angle="90.00" type="flow" speed="11.63" pos="88.50" lane="0_0" slope="0.00"/>