<?xml version="1.0" encoding="UTF-8"?>

<!-- generated on Thu Jan  5 15:09:50 2017 by SUMO Version dev-SVN-r22466
<?xml version="1.0" encoding="UTF-8"?>

<configuration xmlns:xsi="http://www.w3.org/2001/XMLSchema-instance" xsi:noNamespaceSchemaLocation="http://sumo.dlr.de/xsd/sumoConfiguration.xsd">

    <input>
        <net-file value="motorway.net.xml"/>
        <route-files value="input_routes.rou.xml"/>
        <additional-files value="input_additional.add.xml"/>
    </input>

    <processing>
        <max-depart-delay value="1"/>
    </processing>

    <report>
        <verbose value="true"/>
        <xml-validation value="never"/>
        <duration-log.statistics value="true"/>
        <no-step-log value="true"/>
    </report>

    <mesoscopic>
        <mesosim value="true"/>
        <meso-jam-threshold value="-0.9"/>
        <meso-junction-control value="true"/>
    </mesoscopic>

</configuration>
-->

<detector xmlns:xsi="http://www.w3.org/2001/XMLSchema-instance" xsi:noNamespaceSchemaLocation="http://sumo.dlr.de/xsd/det_e1meso_file.xsd">
    <interval begin="0.00" end="900.00" id="end2_0" sampledSeconds="1822.77" density="20.94" occupancy="10.47" waitingTime="0.00" speed="27.74" departed="0" arrived="521" entered="524" left="0"/>
    <interval begin="900.00" end="1800.00" id="end2_0" sampledSeconds="2158.43" density="24.79" occupancy="12.40" waitingTime="0.00" speed="26.91" departed="0" arrived="601" entered="601" left="0"/>
    <interval begin="1800.00" end="1904.00" id="end2_0" sampledSeconds="303.97" density="30.22" occupancy="15.11" waitingTime="0.00" speed="24.42" departed="0" arrived="78" entered="75" left="0"/>
</detector>
