<?xml version="1.0" encoding="UTF-8"?>

<!-- generated on Wed Sep  2 15:35:03 2020 by Eclipse SUMO sumo Version v1_6_0+1772-2f8e4c58e2
This data file and the accompanying materials
are made available under the terms of the Eclipse Public License v2.0
which accompanies this distribution, and is available at
http://www.eclipse.org/legal/epl-v20.html
SPDX-License-Identifier: EPL-2.0
<configuration xmlns:xsi="http://www.w3.org/2001/XMLSchema-instance" xsi:noNamespaceSchemaLocation="http://sumo.dlr.de/xsd/sumoConfiguration.xsd">

    <input>
        <net-file value="net.net.xml"/>
        <route-files value="input_routes.rou.xml"/>
    </input>

    <output>
        <write-license value="true"/>
        <tripinfo-output value="tripinfos.xml"/>
        <tripinfo-output.write-unfinished value="true"/>
    </output>

    <processing>
        <default.speeddev value="0"/>
    </processing>

    <report>
        <xml-validation value="never"/>
        <xml-validation.routes value="never"/>
        <duration-log.disable value="true"/>
        <no-step-log value="true"/>
    </report>

    <taxi_device>
        <device.taxi.dispatch-algorithm value="greedyShared"/>
        <device.taxi.dispatch-algorithm.output value="dispatchinfos.xml"/>
    </taxi_device>

</configuration>
-->

<tripinfos xmlns:xsi="http://www.w3.org/2001/XMLSchema-instance" xsi:noNamespaceSchemaLocation="http://sumo.dlr.de/xsd/tripinfo_file.xsd">
    <personinfo id="1" depart="0.00" type="DEFAULT_PEDTYPE">
        <ride waitingTime="73.00" vehicle="taxi" depart="73.00" arrival="126.00" arrivalPos="285.60" duration="53.00" routeLength="580.67" timeLoss="11.20"/>
    </personinfo>
    <personinfo id="0" depart="0.00" type="DEFAULT_PEDTYPE">
        <ride waitingTime="16.00" vehicle="taxi" depart="16.00" arrival="219.00" arrivalPos="285.60" duration="203.00" routeLength="1480.61" timeLoss="35.41"/>
    </personinfo>
    <tripinfo id="taxi" depart="0.00" departLane="A2A1_1" departPos="5.10" departSpeed="0.00" departDelay="0.00" arrival="-1.00" arrivalLane="" arrivalPos="-1.00" arrivalSpeed="-1.00" duration="280.00" routeLength="1582.29" waitingTime="7.00" waitingCount="2" stopTime="124.00" timeLoss="41.35" rerouteNo="3" devices="tripinfo_taxi routing_taxi taxi_taxi person_taxi" vType="taxi" speedFactor="1.00" vaporized="">
        <taxi customers="2" occupiedDistance="1480.61" occupiedTime="146.00"/>
    </tripinfo>
</tripinfos>
