<?xml version="1.0" encoding="UTF-8"?>

<!-- generated on Wed Jul 27 16:36:01 2016 by SUMO dfrouter Version dev-SVN-r21246
<?xml version="1.0" encoding="UTF-8"?>

<configuration xmlns:xsi="http://www.w3.org/2001/XMLSchema-instance" xsi:noNamespaceSchemaLocation="http://sumo.dlr.de/xsd/dfrouterConfiguration.xsd">

    <input>
        <net-file value="input_messstrecke.net.xml"/>
        <detector-files value="input_messstrecke.det.xml"/>
    </input>

    <output>
        <routes-output value="routes.rou.xml"/>
        <emitters-output value="emitters.add.xml"/>
    </output>

    <report>
        <xml-validation value="never"/>
    </report>

</configuration>
-->

<additional xmlns:xsi="http://www.w3.org/2001/XMLSchema-instance" xsi:noNamespaceSchemaLocation="http://sumo.dlr.de/xsd/additional_file.xsd">
    <routeDistribution id="MQ11Fs1">
        <route refId="ErnstRuska2O_to_HavestadtN" probability="1.00"/>
        <route refId="ErnstRuska2O_to_VolmerN" probability="1.00"/>
        <route refId="ErnstRuska2O_to_AltglienickerBreitS" probability="1.00"/>
        <route refId="ErnstRuska2O_to_ErnstRuska5O" probability="1.00"/>
    </routeDistribution>
    <routeDistribution id="MQ11Fs2">
        <route refId="ErnstRuska2O_to_HavestadtN" probability="1.00"/>
        <route refId="ErnstRuska2O_to_VolmerN" probability="1.00"/>
        <route refId="ErnstRuska2O_to_AltglienickerBreitS" probability="1.00"/>
        <route refId="ErnstRuska2O_to_ErnstRuska5O" probability="1.00"/>
    </routeDistribution>
    <routeDistribution id="MQ28Fs1S">
        <route refId="HavestadtS_to_VolmerN" probability="1.00"/>
        <route refId="HavestadtS_to_EinsteinN" probability="1.00"/>
        <route refId="HavestadtS_to_AltglienickerBreitS" probability="1.00"/>
        <route refId="HavestadtS_to_ErnstRuska5O" probability="1.00"/>
        <route refId="HavestadtS_to_ErnstRuskaSink1W" probability="1.00"/>
    </routeDistribution>
    <routeDistribution id="MQ28Fs2S">
        <route refId="HavestadtS_to_VolmerN" probability="1.00"/>
        <route refId="HavestadtS_to_EinsteinN" probability="1.00"/>
        <route refId="HavestadtS_to_AltglienickerBreitS" probability="1.00"/>
        <route refId="HavestadtS_to_ErnstRuska5O" probability="1.00"/>
        <route refId="HavestadtS_to_ErnstRuskaSink1W" probability="1.00"/>
    </routeDistribution>
    <routeDistribution id="MQ35Fs1S">
        <route refId="VolmerS_to_AltglienickerBreitS" probability="1.00"/>
        <route refId="VolmerS_to_ErnstRuska5O" probability="1.00"/>
        <route refId="VolmerS_to_HavestadtN" probability="1.00"/>
        <route refId="VolmerS_to_EinsteinN" probability="1.00"/>
        <route refId="VolmerS_to_ErnstRuskaSink1W" probability="1.00"/>
    </routeDistribution>
    <routeDistribution id="MQ43Fs1">
        <route refId="ErnstRuska5W_to_AltglienickerBreitS" probability="1.00"/>
        <route refId="ErnstRuska5W_to_VolmerN" probability="1.00"/>
        <route refId="ErnstRuska5W_to_HavestadtN" probability="1.00"/>
        <route refId="ErnstRuska5W_to_EinsteinN" probability="1.00"/>
        <route refId="ErnstRuska5W_to_ErnstRuskaSink1W" probability="1.00"/>
    </routeDistribution>
    <routeDistribution id="MQ43Fs2">
        <route refId="ErnstRuska5W_to_AltglienickerBreitS" probability="1.00"/>
        <route refId="ErnstRuska5W_to_VolmerN" probability="1.00"/>
        <route refId="ErnstRuska5W_to_HavestadtN" probability="1.00"/>
        <route refId="ErnstRuska5W_to_EinsteinN" probability="1.00"/>
        <route refId="ErnstRuska5W_to_ErnstRuskaSink1W" probability="1.00"/>
    </routeDistribution>
    <routeDistribution id="MQ43Fs3">
        <route refId="ErnstRuska5W_to_AltglienickerBreitS" probability="1.00"/>
        <route refId="ErnstRuska5W_to_VolmerN" probability="1.00"/>
        <route refId="ErnstRuska5W_to_HavestadtN" probability="1.00"/>
        <route refId="ErnstRuska5W_to_EinsteinN" probability="1.00"/>
        <route refId="ErnstRuska5W_to_ErnstRuskaSink1W" probability="1.00"/>
    </routeDistribution>
    <routeDistribution id="MQ45Fs1N">
        <route refId="AltglienickerBreitN_to_ErnstRuska5O" probability="1.00"/>
        <route refId="AltglienickerBreitN_to_VolmerN" probability="1.00"/>
        <route refId="AltglienickerBreitN_to_HavestadtN" probability="1.00"/>
        <route refId="AltglienickerBreitN_to_EinsteinN" probability="1.00"/>
        <route refId="AltglienickerBreitN_to_ErnstRuskaSink1W" probability="1.00"/>
    </routeDistribution>
    <routeDistribution id="MQ45Fs2N">
        <route refId="AltglienickerBreitN_to_ErnstRuska5O" probability="1.00"/>
        <route refId="AltglienickerBreitN_to_VolmerN" probability="1.00"/>
        <route refId="AltglienickerBreitN_to_HavestadtN" probability="1.00"/>
        <route refId="AltglienickerBreitN_to_EinsteinN" probability="1.00"/>
        <route refId="AltglienickerBreitN_to_ErnstRuskaSink1W" probability="1.00"/>
    </routeDistribution>
</additional>
