<?xml version="1.0" encoding="UTF-8"?>

<!-- generated on 03/13/17 14:56:32 by SUMO dfrouter Version dev-SVN-r23331
<?xml version="1.0" encoding="UTF-8"?>

<configuration xmlns:xsi="http://www.w3.org/2001/XMLSchema-instance" xsi:noNamespaceSchemaLocation="http://sumo.dlr.de/xsd/dfrouterConfiguration.xsd">

    <input>
        <net-file value="input_messstrecke.net.xml"/>
        <detector-files value="input_messstrecke.det.xml"/>
    </input>

    <output>
        <routes-output value="routes.rou.xml"/>
        <emitters-output value="emitters.add.xml"/>
        <vtype value="true"/>
        <vtype-output value="vtypes.rou.xml"/>
    </output>

    <defaults>
        <speeddev value="0.2"/>
    </defaults>

    <report>
        <xml-validation value="never"/>
    </report>

</configuration>
-->

<additional xmlns:xsi="http://www.w3.org/2001/XMLSchema-instance" xsi:noNamespaceSchemaLocation="http://sumo.dlr.de/xsd/additional_file.xsd">
    <vType id="PKW" speedFactor="normc(1.00,0.20,0.20,2.00)" vClass="passenger"/>
    <vType id="LKW" speedFactor="normc(1.00,0.20,0.20,2.00)" vClass="truck"/>
</additional>
