<?xml version="1.0" encoding="UTF-8"?>

<!-- generated on 2024-09-26 10:39:57 by Eclipse SUMO sumo Version v1_14_1+14996-47cf6512255
This data file and the accompanying materials
are made available under the terms of the Eclipse Public License v2.0
which accompanies this distribution, and is available at
http://www.eclipse.org/legal/epl-v20.html
This file may also be made available under the following Secondary
Licenses when the conditions for such availability set forth in the Eclipse
Public License 2.0 are satisfied: GNU General Public License, version 2
or later which is available at
https://www.gnu.org/licenses/old-licenses/gpl-2.0-standalone.html
SPDX-License-Identifier: EPL-2.0 OR GPL-2.0-or-later
<sumoConfiguration xmlns:xsi="http://www.w3.org/2001/XMLSchema-instance" xsi:noNamespaceSchemaLocation="http://sumo.dlr.de/xsd/sumoConfiguration.xsd">

    <input>
        <net-file value="motorway.net.xml"/>
        <route-files value="input_routes.rou.xml"/>
    </input>

    <output>
        <write-license value="true"/>
        <tripinfo-output value="tripinfos.xml"/>
    </output>

    <processing>
        <default.speeddev value="0"/>
    </processing>

    <report>
        <xml-validation value="never"/>
        <duration-log.disable value="true"/>
        <no-step-log value="true"/>
    </report>

    <battery>
        <device.battery.probability value="0.5"/>
    </battery>

</sumoConfiguration>
-->

<tripinfos xmlns:xsi="http://www.w3.org/2001/XMLSchema-instance" xsi:noNamespaceSchemaLocation="http://sumo.dlr.de/xsd/tripinfo_file.xsd">
    <tripinfo id="flow.0" depart="0.00" departLane="beg_0" departPos="0.00" departSpeed="39.60" departDelay="0.00" arrival="26.00" arrivalLane="beg_0" arrivalPos="1000.00" arrivalSpeed="39.38" duration="26.00" routeLength="1000.00" waitingTime="0.00" waitingCount="0" stopTime="0.00" timeLoss="0.45" rerouteNo="0" devices="tripinfo_flow.0" vType="PKW" speedFactor="1.10" vaporized=""/>
    <tripinfo id="flow.1" depart="1.00" departLane="beg_1" departPos="0.00" departSpeed="37.41" departDelay="0.00" arrival="29.00" arrivalLane="beg_0" arrivalPos="1000.00" arrivalSpeed="37.12" duration="28.00" routeLength="1000.00" waitingTime="0.00" waitingCount="0" stopTime="0.00" timeLoss="0.55" rerouteNo="0" devices="tripinfo_flow.1" vType="PKW" speedFactor="1.04" vaporized=""/>
    <tripinfo id="flow.2" depart="2.00" departLane="beg_2" departPos="0.00" departSpeed="38.71" departDelay="0.00" arrival="29.00" arrivalLane="beg_2" arrivalPos="1000.00" arrivalSpeed="37.70" duration="27.00" routeLength="1000.00" waitingTime="0.00" waitingCount="0" stopTime="0.00" timeLoss="0.49" rerouteNo="0" devices="tripinfo_flow.2 battery_flow.2" vType="PKW" speedFactor="1.08" vaporized="">
        <battery depleted="0"/>
    </tripinfo>
    <tripinfo id="flow.3" depart="3.00" departLane="beg_0" departPos="0.00" departSpeed="40.01" departDelay="0.00" arrival="30.00" arrivalLane="beg_0" arrivalPos="1000.00" arrivalSpeed="38.85" duration="27.00" routeLength="1000.00" waitingTime="0.00" waitingCount="0" stopTime="0.00" timeLoss="1.58" rerouteNo="0" devices="tripinfo_flow.3 battery_flow.3" vType="PKW" speedFactor="1.11" vaporized="">
        <battery depleted="0"/>
    </tripinfo>
    <tripinfo id="flow.4" depart="4.00" departLane="beg_1" departPos="0.00" departSpeed="39.07" departDelay="0.00" arrival="31.00" arrivalLane="beg_1" arrivalPos="1000.00" arrivalSpeed="38.69" duration="27.00" routeLength="1000.00" waitingTime="0.00" waitingCount="0" stopTime="0.00" timeLoss="0.46" rerouteNo="0" devices="tripinfo_flow.4" vType="PKW" speedFactor="1.09" vaporized=""/>
    <tripinfo id="flow.6" depart="6.00" departLane="beg_0" departPos="0.00" departSpeed="39.34" departDelay="0.00" arrival="32.00" arrivalLane="beg_0" arrivalPos="1000.00" arrivalSpeed="39.11" duration="26.00" routeLength="1000.00" waitingTime="0.00" waitingCount="0" stopTime="0.00" timeLoss="0.35" rerouteNo="0" devices="tripinfo_flow.6" vType="PKW" speedFactor="1.09" vaporized=""/>
    <tripinfo id="flow.5" depart="5.00" departLane="beg_2" departPos="0.00" departSpeed="35.48" departDelay="0.00" arrival="34.00" arrivalLane="beg_1" arrivalPos="1000.00" arrivalSpeed="34.59" duration="29.00" routeLength="1000.00" waitingTime="0.00" waitingCount="0" stopTime="0.00" timeLoss="0.49" rerouteNo="0" devices="tripinfo_flow.5 battery_flow.5" vType="PKW" speedFactor="0.99" vaporized="">
        <battery depleted="0"/>
    </tripinfo>
    <tripinfo id="flow.7" depart="7.00" departLane="beg_1" departPos="0.00" departSpeed="36.47" departDelay="0.00" arrival="35.00" arrivalLane="beg_0" arrivalPos="1000.00" arrivalSpeed="36.24" duration="28.00" routeLength="1000.00" waitingTime="0.00" waitingCount="0" stopTime="0.00" timeLoss="0.55" rerouteNo="0" devices="tripinfo_flow.7 battery_flow.7" vType="PKW" speedFactor="1.01" vaporized="">
        <battery depleted="0"/>
    </tripinfo>
    <tripinfo id="flow.8" depart="8.00" departLane="beg_2" departPos="0.00" departSpeed="37.40" departDelay="0.00" arrival="36.00" arrivalLane="beg_2" arrivalPos="1000.00" arrivalSpeed="36.74" duration="28.00" routeLength="1000.00" waitingTime="0.00" waitingCount="0" stopTime="0.00" timeLoss="0.48" rerouteNo="0" devices="tripinfo_flow.8" vType="PKW" speedFactor="1.04" vaporized=""/>
    <tripinfo id="flow.9" depart="9.00" departLane="beg_0" departPos="0.00" departSpeed="35.95" departDelay="0.00" arrival="38.00" arrivalLane="beg_0" arrivalPos="1000.00" arrivalSpeed="35.60" duration="29.00" routeLength="1000.00" waitingTime="0.00" waitingCount="0" stopTime="0.00" timeLoss="0.53" rerouteNo="0" devices="tripinfo_flow.9" vType="PKW" speedFactor="1.00" vaporized=""/>
</tripinfos>
