<?xml version="1.0" encoding="UTF-8"?>

<!-- generated on Mon Jun 17 22:49:26 2019 by Eclipse SUMO Version v1_2_0+0149-6b40db9d1b
This data file and the accompanying materials
are made available under the terms of the Eclipse Public License v2.0
which accompanies this distribution, and is available at
http://www.eclipse.org/legal/epl-v20.html
SPDX-License-Identifier: EPL-2.0
<configuration xmlns:xsi="http://www.w3.org/2001/XMLSchema-instance" xsi:noNamespaceSchemaLocation="http://sumo.dlr.de/xsd/sumoConfiguration.xsd">

    <input>
        <net-file value="net2.net.xml"/>
        <additional-files value="input_routes.rou.xml,input_additional.add.xml"/>
    </input>

    <output>
        <write-license value="true"/>
        <tripinfo-output value="tripinfos.xml"/>
    </output>

    <time>
        <end value="360"/>
    </time>

    <processing>
        <default.speeddev value="0"/>
    </processing>

    <report>
        <verbose value="true"/>
        <xml-validation value="never"/>
        <duration-log.statistics value="true"/>
        <no-step-log value="true"/>
    </report>

</configuration>
-->

<tripinfos xmlns:xsi="http://www.w3.org/2001/XMLSchema-instance" xsi:noNamespaceSchemaLocation="http://sumo.dlr.de/xsd/tripinfo_file.xsd">
    <tripinfo id="flow.0" depart="0.00" departLane="beg_0" departPos="5.10" departSpeed="41.70" departDelay="0.00" arrival="24.00" arrivalLane="end_0" arrivalPos="500.00" arrivalSpeed="41.70" duration="24.00" routeLength="995.00" waitingTime="0.00" waitingCount="0" stopTime="0.00" timeLoss="0.00" rerouteNo="0" devices="tripinfo_flow.0" vType="t0" speedFactor="1.50" vaporized=""/>
    <tripinfo id="flow.1" depart="2.00" departLane="beg_0" departPos="5.10" departSpeed="41.70" departDelay="1.00" arrival="26.00" arrivalLane="end_0" arrivalPos="500.00" arrivalSpeed="41.70" duration="24.00" routeLength="995.00" waitingTime="0.00" waitingCount="0" stopTime="0.00" timeLoss="0.00" rerouteNo="0" devices="tripinfo_flow.1" vType="t0" speedFactor="1.50" vaporized=""/>
    <tripinfo id="flow.2" depart="4.00" departLane="beg_0" departPos="5.10" departSpeed="41.70" departDelay="2.00" arrival="28.00" arrivalLane="end_0" arrivalPos="500.00" arrivalSpeed="41.70" duration="24.00" routeLength="995.00" waitingTime="0.00" waitingCount="0" stopTime="0.00" timeLoss="0.00" rerouteNo="0" devices="tripinfo_flow.2" vType="t0" speedFactor="1.50" vaporized=""/>
    <tripinfo id="flow.3" depart="6.00" departLane="beg_0" departPos="5.10" departSpeed="41.70" departDelay="3.00" arrival="30.00" arrivalLane="end_0" arrivalPos="500.00" arrivalSpeed="41.70" duration="24.00" routeLength="995.00" waitingTime="0.00" waitingCount="0" stopTime="0.00" timeLoss="0.00" rerouteNo="0" devices="tripinfo_flow.3" vType="t0" speedFactor="1.50" vaporized=""/>
    <tripinfo id="flow.4" depart="8.00" departLane="beg_0" departPos="5.10" departSpeed="41.70" departDelay="4.00" arrival="32.00" arrivalLane="end_0" arrivalPos="500.00" arrivalSpeed="41.70" duration="24.00" routeLength="995.00" waitingTime="0.00" waitingCount="0" stopTime="0.00" timeLoss="0.00" rerouteNo="0" devices="tripinfo_flow.4" vType="t0" speedFactor="1.50" vaporized=""/>
    <tripinfo id="flow.5" depart="10.00" departLane="beg_0" departPos="5.10" departSpeed="41.70" departDelay="5.00" arrival="34.00" arrivalLane="end_0" arrivalPos="500.00" arrivalSpeed="41.70" duration="24.00" routeLength="995.00" waitingTime="0.00" waitingCount="0" stopTime="0.00" timeLoss="0.00" rerouteNo="0" devices="tripinfo_flow.5" vType="t0" speedFactor="1.50" vaporized=""/>
    <tripinfo id="flow.6" depart="12.00" departLane="beg_0" departPos="5.10" departSpeed="41.70" departDelay="6.00" arrival="36.00" arrivalLane="end_0" arrivalPos="500.00" arrivalSpeed="41.70" duration="24.00" routeLength="995.00" waitingTime="0.00" waitingCount="0" stopTime="0.00" timeLoss="0.00" rerouteNo="0" devices="tripinfo_flow.6" vType="t0" speedFactor="1.50" vaporized=""/>
    <tripinfo id="flow.7" depart="14.00" departLane="beg_0" departPos="5.10" departSpeed="41.70" departDelay="7.00" arrival="38.00" arrivalLane="end_0" arrivalPos="500.00" arrivalSpeed="41.70" duration="24.00" routeLength="995.00" waitingTime="0.00" waitingCount="0" stopTime="0.00" timeLoss="0.00" rerouteNo="0" devices="tripinfo_flow.7" vType="t0" speedFactor="1.50" vaporized=""/>
    <tripinfo id="flow.8" depart="16.00" departLane="beg_0" departPos="5.10" departSpeed="41.70" departDelay="8.00" arrival="40.00" arrivalLane="end_0" arrivalPos="500.00" arrivalSpeed="41.70" duration="24.00" routeLength="995.00" waitingTime="0.00" waitingCount="0" stopTime="0.00" timeLoss="0.00" rerouteNo="0" devices="tripinfo_flow.8" vType="t0" speedFactor="1.50" vaporized=""/>
    <tripinfo id="flow.9" depart="18.00" departLane="beg_0" departPos="5.10" departSpeed="41.70" departDelay="9.00" arrival="42.00" arrivalLane="end_0" arrivalPos="500.00" arrivalSpeed="41.70" duration="24.00" routeLength="995.00" waitingTime="0.00" waitingCount="0" stopTime="0.00" timeLoss="0.00" rerouteNo="0" devices="tripinfo_flow.9" vType="t0" speedFactor="1.50" vaporized=""/>
    <tripinfo id="flow.10" depart="20.00" departLane="beg_0" departPos="5.10" departSpeed="41.70" departDelay="10.00" arrival="44.00" arrivalLane="end_0" arrivalPos="500.00" arrivalSpeed="41.70" duration="24.00" routeLength="995.00" waitingTime="0.00" waitingCount="0" stopTime="0.00" timeLoss="0.00" rerouteNo="0" devices="tripinfo_flow.10" vType="t0" speedFactor="1.50" vaporized=""/>
    <tripinfo id="flow.11" depart="22.00" departLane="beg_0" departPos="5.10" departSpeed="41.70" departDelay="11.00" arrival="46.00" arrivalLane="end_0" arrivalPos="500.00" arrivalSpeed="41.70" duration="24.00" routeLength="995.00" waitingTime="0.00" waitingCount="0" stopTime="0.00" timeLoss="0.00" rerouteNo="0" devices="tripinfo_flow.11" vType="t0" speedFactor="1.50" vaporized=""/>
    <tripinfo id="flow.12" depart="24.00" departLane="beg_0" departPos="5.10" departSpeed="41.70" departDelay="12.00" arrival="48.00" arrivalLane="end_0" arrivalPos="500.00" arrivalSpeed="41.70" duration="24.00" routeLength="995.00" waitingTime="0.00" waitingCount="0" stopTime="0.00" timeLoss="0.00" rerouteNo="0" devices="tripinfo_flow.12" vType="t0" speedFactor="1.50" vaporized=""/>
    <tripinfo id="flow.13" depart="26.00" departLane="beg_0" departPos="5.10" departSpeed="41.70" departDelay="13.00" arrival="50.00" arrivalLane="end_0" arrivalPos="500.00" arrivalSpeed="41.70" duration="24.00" routeLength="995.00" waitingTime="0.00" waitingCount="0" stopTime="0.00" timeLoss="0.00" rerouteNo="0" devices="tripinfo_flow.13" vType="t0" speedFactor="1.50" vaporized=""/>
    <tripinfo id="flow.14" depart="28.00" departLane="beg_0" departPos="5.10" departSpeed="41.70" departDelay="14.00" arrival="52.00" arrivalLane="end_0" arrivalPos="500.00" arrivalSpeed="41.70" duration="24.00" routeLength="995.00" waitingTime="0.00" waitingCount="0" stopTime="0.00" timeLoss="0.00" rerouteNo="0" devices="tripinfo_flow.14" vType="t0" speedFactor="1.50" vaporized=""/>
    <tripinfo id="flow.15" depart="30.00" departLane="beg_0" departPos="5.10" departSpeed="41.70" departDelay="15.00" arrival="54.00" arrivalLane="end_0" arrivalPos="500.00" arrivalSpeed="41.70" duration="24.00" routeLength="995.00" waitingTime="0.00" waitingCount="0" stopTime="0.00" timeLoss="0.00" rerouteNo="0" devices="tripinfo_flow.15" vType="t0" speedFactor="1.50" vaporized=""/>
    <tripinfo id="flow.16" depart="32.00" departLane="beg_0" departPos="5.10" departSpeed="41.70" departDelay="16.00" arrival="56.00" arrivalLane="end_0" arrivalPos="500.00" arrivalSpeed="41.70" duration="24.00" routeLength="995.00" waitingTime="0.00" waitingCount="0" stopTime="0.00" timeLoss="0.00" rerouteNo="0" devices="tripinfo_flow.16" vType="t0" speedFactor="1.50" vaporized=""/>
    <tripinfo id="flow.17" depart="34.00" departLane="beg_0" departPos="5.10" departSpeed="41.70" departDelay="17.00" arrival="58.00" arrivalLane="end_0" arrivalPos="500.00" arrivalSpeed="41.70" duration="24.00" routeLength="995.00" waitingTime="0.00" waitingCount="0" stopTime="0.00" timeLoss="0.00" rerouteNo="0" devices="tripinfo_flow.17" vType="t0" speedFactor="1.50" vaporized=""/>
    <tripinfo id="flow.18" depart="36.00" departLane="beg_0" departPos="5.10" departSpeed="41.70" departDelay="18.00" arrival="60.00" arrivalLane="end_0" arrivalPos="500.00" arrivalSpeed="41.70" duration="24.00" routeLength="995.00" waitingTime="0.00" waitingCount="0" stopTime="0.00" timeLoss="0.00" rerouteNo="0" devices="tripinfo_flow.18" vType="t0" speedFactor="1.50" vaporized=""/>
    <tripinfo id="flow.19" depart="38.00" departLane="beg_0" departPos="5.10" departSpeed="41.70" departDelay="19.00" arrival="62.00" arrivalLane="end_0" arrivalPos="500.00" arrivalSpeed="41.70" duration="24.00" routeLength="995.00" waitingTime="0.00" waitingCount="0" stopTime="0.00" timeLoss="0.00" rerouteNo="0" devices="tripinfo_flow.19" vType="t0" speedFactor="1.50" vaporized=""/>
    <tripinfo id="flow.20" depart="40.00" departLane="beg_0" departPos="5.10" departSpeed="41.70" departDelay="20.00" arrival="64.00" arrivalLane="end_0" arrivalPos="500.00" arrivalSpeed="41.70" duration="24.00" routeLength="995.00" waitingTime="0.00" waitingCount="0" stopTime="0.00" timeLoss="0.00" rerouteNo="0" devices="tripinfo_flow.20" vType="t0" speedFactor="1.50" vaporized=""/>
    <tripinfo id="flow.21" depart="42.00" departLane="beg_0" departPos="5.10" departSpeed="41.70" departDelay="21.00" arrival="66.00" arrivalLane="end_0" arrivalPos="500.00" arrivalSpeed="41.70" duration="24.00" routeLength="995.00" waitingTime="0.00" waitingCount="0" stopTime="0.00" timeLoss="0.00" rerouteNo="0" devices="tripinfo_flow.21" vType="t0" speedFactor="1.50" vaporized=""/>
    <tripinfo id="flow.22" depart="44.00" departLane="beg_0" departPos="5.10" departSpeed="41.70" departDelay="22.00" arrival="68.00" arrivalLane="end_0" arrivalPos="500.00" arrivalSpeed="41.70" duration="24.00" routeLength="995.00" waitingTime="0.00" waitingCount="0" stopTime="0.00" timeLoss="0.00" rerouteNo="0" devices="tripinfo_flow.22" vType="t0" speedFactor="1.50" vaporized=""/>
    <tripinfo id="flow.23" depart="46.00" departLane="beg_0" departPos="5.10" departSpeed="41.70" departDelay="23.00" arrival="70.00" arrivalLane="end_0" arrivalPos="500.00" arrivalSpeed="41.70" duration="24.00" routeLength="995.00" waitingTime="0.00" waitingCount="0" stopTime="0.00" timeLoss="0.00" rerouteNo="0" devices="tripinfo_flow.23" vType="t0" speedFactor="1.50" vaporized=""/>
    <tripinfo id="flow.24" depart="48.00" departLane="beg_0" departPos="5.10" departSpeed="41.70" departDelay="24.00" arrival="72.00" arrivalLane="end_0" arrivalPos="500.00" arrivalSpeed="41.70" duration="24.00" routeLength="995.00" waitingTime="0.00" waitingCount="0" stopTime="0.00" timeLoss="0.00" rerouteNo="0" devices="tripinfo_flow.24" vType="t0" speedFactor="1.50" vaporized=""/>
    <tripinfo id="flow.25" depart="50.00" departLane="beg_0" departPos="5.10" departSpeed="41.70" departDelay="25.00" arrival="74.00" arrivalLane="end_0" arrivalPos="500.00" arrivalSpeed="41.70" duration="24.00" routeLength="995.00" waitingTime="0.00" waitingCount="0" stopTime="0.00" timeLoss="0.00" rerouteNo="0" devices="tripinfo_flow.25" vType="t0" speedFactor="1.50" vaporized=""/>
    <tripinfo id="flow.26" depart="52.00" departLane="beg_0" departPos="5.10" departSpeed="41.70" departDelay="26.00" arrival="76.00" arrivalLane="end_0" arrivalPos="500.00" arrivalSpeed="41.70" duration="24.00" routeLength="995.00" waitingTime="0.00" waitingCount="0" stopTime="0.00" timeLoss="0.00" rerouteNo="0" devices="tripinfo_flow.26" vType="t0" speedFactor="1.50" vaporized=""/>
    <tripinfo id="flow.27" depart="54.00" departLane="beg_0" departPos="5.10" departSpeed="41.70" departDelay="27.00" arrival="78.00" arrivalLane="end_0" arrivalPos="500.00" arrivalSpeed="41.70" duration="24.00" routeLength="995.00" waitingTime="0.00" waitingCount="0" stopTime="0.00" timeLoss="0.00" rerouteNo="0" devices="tripinfo_flow.27" vType="t0" speedFactor="1.50" vaporized=""/>
    <tripinfo id="flow.28" depart="56.00" departLane="beg_0" departPos="5.10" departSpeed="41.70" departDelay="28.00" arrival="80.00" arrivalLane="end_0" arrivalPos="500.00" arrivalSpeed="41.70" duration="24.00" routeLength="995.00" waitingTime="0.00" waitingCount="0" stopTime="0.00" timeLoss="0.00" rerouteNo="0" devices="tripinfo_flow.28" vType="t0" speedFactor="1.50" vaporized=""/>
    <tripinfo id="flow.29" depart="58.00" departLane="beg_0" departPos="5.10" departSpeed="41.70" departDelay="29.00" arrival="82.00" arrivalLane="end_0" arrivalPos="500.00" arrivalSpeed="41.70" duration="24.00" routeLength="995.00" waitingTime="0.00" waitingCount="0" stopTime="0.00" timeLoss="0.00" rerouteNo="0" devices="tripinfo_flow.29" vType="t0" speedFactor="1.50" vaporized=""/>
    <tripinfo id="flow.30" depart="60.00" departLane="beg_0" departPos="5.10" departSpeed="41.70" departDelay="30.00" arrival="84.00" arrivalLane="end_0" arrivalPos="500.00" arrivalSpeed="41.70" duration="24.00" routeLength="995.00" waitingTime="0.00" waitingCount="0" stopTime="0.00" timeLoss="0.00" rerouteNo="0" devices="tripinfo_flow.30" vType="t0" speedFactor="1.50" vaporized=""/>
    <tripinfo id="flow.31" depart="62.00" departLane="beg_0" departPos="5.10" departSpeed="41.70" departDelay="31.00" arrival="86.00" arrivalLane="end_0" arrivalPos="500.00" arrivalSpeed="41.70" duration="24.00" routeLength="995.00" waitingTime="0.00" waitingCount="0" stopTime="0.00" timeLoss="0.00" rerouteNo="0" devices="tripinfo_flow.31" vType="t0" speedFactor="1.50" vaporized=""/>
    <tripinfo id="flow.32" depart="64.00" departLane="beg_0" departPos="5.10" departSpeed="41.70" departDelay="32.00" arrival="88.00" arrivalLane="end_0" arrivalPos="500.00" arrivalSpeed="41.70" duration="24.00" routeLength="995.00" waitingTime="0.00" waitingCount="0" stopTime="0.00" timeLoss="0.00" rerouteNo="0" devices="tripinfo_flow.32" vType="t0" speedFactor="1.50" vaporized=""/>
    <tripinfo id="flow.33" depart="66.00" departLane="beg_0" departPos="5.10" departSpeed="41.70" departDelay="33.00" arrival="90.00" arrivalLane="end_0" arrivalPos="500.00" arrivalSpeed="41.70" duration="24.00" routeLength="995.00" waitingTime="0.00" waitingCount="0" stopTime="0.00" timeLoss="0.00" rerouteNo="0" devices="tripinfo_flow.33" vType="t0" speedFactor="1.50" vaporized=""/>
    <tripinfo id="flow.34" depart="68.00" departLane="beg_0" departPos="5.10" departSpeed="41.70" departDelay="34.00" arrival="92.00" arrivalLane="end_0" arrivalPos="500.00" arrivalSpeed="41.70" duration="24.00" routeLength="995.00" waitingTime="0.00" waitingCount="0" stopTime="0.00" timeLoss="0.00" rerouteNo="0" devices="tripinfo_flow.34" vType="t0" speedFactor="1.50" vaporized=""/>
    <tripinfo id="flow.35" depart="70.00" departLane="beg_0" departPos="5.10" departSpeed="41.70" departDelay="35.00" arrival="94.00" arrivalLane="end_0" arrivalPos="500.00" arrivalSpeed="41.70" duration="24.00" routeLength="995.00" waitingTime="0.00" waitingCount="0" stopTime="0.00" timeLoss="0.00" rerouteNo="0" devices="tripinfo_flow.35" vType="t0" speedFactor="1.50" vaporized=""/>
    <tripinfo id="flow.36" depart="72.00" departLane="beg_0" departPos="5.10" departSpeed="41.70" departDelay="36.00" arrival="96.00" arrivalLane="end_0" arrivalPos="500.00" arrivalSpeed="41.70" duration="24.00" routeLength="995.00" waitingTime="0.00" waitingCount="0" stopTime="0.00" timeLoss="0.00" rerouteNo="0" devices="tripinfo_flow.36" vType="t0" speedFactor="1.50" vaporized=""/>
    <tripinfo id="flow.37" depart="74.00" departLane="beg_0" departPos="5.10" departSpeed="41.70" departDelay="37.00" arrival="98.00" arrivalLane="end_0" arrivalPos="500.00" arrivalSpeed="41.70" duration="24.00" routeLength="995.00" waitingTime="0.00" waitingCount="0" stopTime="0.00" timeLoss="0.00" rerouteNo="0" devices="tripinfo_flow.37" vType="t0" speedFactor="1.50" vaporized=""/>
    <tripinfo id="flow.38" depart="76.00" departLane="beg_0" departPos="5.10" departSpeed="41.70" departDelay="38.00" arrival="100.00" arrivalLane="end_0" arrivalPos="500.00" arrivalSpeed="41.70" duration="24.00" routeLength="995.00" waitingTime="0.00" waitingCount="0" stopTime="0.00" timeLoss="0.00" rerouteNo="0" devices="tripinfo_flow.38" vType="t0" speedFactor="1.50" vaporized=""/>
    <tripinfo id="flow.39" depart="78.00" departLane="beg_0" departPos="5.10" departSpeed="41.70" departDelay="39.00" arrival="102.00" arrivalLane="end_0" arrivalPos="500.00" arrivalSpeed="41.70" duration="24.00" routeLength="995.00" waitingTime="0.00" waitingCount="0" stopTime="0.00" timeLoss="0.00" rerouteNo="0" devices="tripinfo_flow.39" vType="t0" speedFactor="1.50" vaporized=""/>
    <tripinfo id="flow.40" depart="80.00" departLane="beg_0" departPos="5.10" departSpeed="41.70" departDelay="40.00" arrival="104.00" arrivalLane="end_0" arrivalPos="500.00" arrivalSpeed="41.70" duration="24.00" routeLength="995.00" waitingTime="0.00" waitingCount="0" stopTime="0.00" timeLoss="0.00" rerouteNo="0" devices="tripinfo_flow.40" vType="t0" speedFactor="1.50" vaporized=""/>
    <tripinfo id="flow.41" depart="82.00" departLane="beg_0" departPos="5.10" departSpeed="41.70" departDelay="41.00" arrival="106.00" arrivalLane="end_0" arrivalPos="500.00" arrivalSpeed="41.70" duration="24.00" routeLength="995.00" waitingTime="0.00" waitingCount="0" stopTime="0.00" timeLoss="0.00" rerouteNo="0" devices="tripinfo_flow.41" vType="t0" speedFactor="1.50" vaporized=""/>
    <tripinfo id="flow.42" depart="84.00" departLane="beg_0" departPos="5.10" departSpeed="41.70" departDelay="42.00" arrival="108.00" arrivalLane="end_0" arrivalPos="500.00" arrivalSpeed="41.70" duration="24.00" routeLength="995.00" waitingTime="0.00" waitingCount="0" stopTime="0.00" timeLoss="0.00" rerouteNo="0" devices="tripinfo_flow.42" vType="t0" speedFactor="1.50" vaporized=""/>
    <tripinfo id="flow.43" depart="86.00" departLane="beg_0" departPos="5.10" departSpeed="41.70" departDelay="43.00" arrival="110.00" arrivalLane="end_0" arrivalPos="500.00" arrivalSpeed="41.70" duration="24.00" routeLength="995.00" waitingTime="0.00" waitingCount="0" stopTime="0.00" timeLoss="0.00" rerouteNo="0" devices="tripinfo_flow.43" vType="t0" speedFactor="1.50" vaporized=""/>
    <tripinfo id="flow.44" depart="88.00" departLane="beg_0" departPos="5.10" departSpeed="41.70" departDelay="44.00" arrival="112.00" arrivalLane="end_0" arrivalPos="500.00" arrivalSpeed="41.70" duration="24.00" routeLength="995.00" waitingTime="0.00" waitingCount="0" stopTime="0.00" timeLoss="0.00" rerouteNo="0" devices="tripinfo_flow.44" vType="t0" speedFactor="1.50" vaporized=""/>
    <tripinfo id="flow.45" depart="90.00" departLane="beg_0" departPos="5.10" departSpeed="41.70" departDelay="45.00" arrival="114.00" arrivalLane="end_0" arrivalPos="500.00" arrivalSpeed="41.70" duration="24.00" routeLength="995.00" waitingTime="0.00" waitingCount="0" stopTime="0.00" timeLoss="0.00" rerouteNo="0" devices="tripinfo_flow.45" vType="t0" speedFactor="1.50" vaporized=""/>
    <tripinfo id="flow.46" depart="92.00" departLane="beg_0" departPos="5.10" departSpeed="41.70" departDelay="46.00" arrival="116.00" arrivalLane="end_0" arrivalPos="500.00" arrivalSpeed="41.70" duration="24.00" routeLength="995.00" waitingTime="0.00" waitingCount="0" stopTime="0.00" timeLoss="0.00" rerouteNo="0" devices="tripinfo_flow.46" vType="t0" speedFactor="1.50" vaporized=""/>
    <tripinfo id="flow.47" depart="94.00" departLane="beg_0" departPos="5.10" departSpeed="41.70" departDelay="47.00" arrival="118.00" arrivalLane="end_0" arrivalPos="500.00" arrivalSpeed="41.70" duration="24.00" routeLength="995.00" waitingTime="0.00" waitingCount="0" stopTime="0.00" timeLoss="0.00" rerouteNo="0" devices="tripinfo_flow.47" vType="t0" speedFactor="1.50" vaporized=""/>
    <tripinfo id="flow.48" depart="96.00" departLane="beg_0" departPos="5.10" departSpeed="41.70" departDelay="48.00" arrival="120.00" arrivalLane="end_0" arrivalPos="500.00" arrivalSpeed="41.70" duration="24.00" routeLength="995.00" waitingTime="0.00" waitingCount="0" stopTime="0.00" timeLoss="0.00" rerouteNo="0" devices="tripinfo_flow.48" vType="t0" speedFactor="1.50" vaporized=""/>
    <tripinfo id="flow.49" depart="98.00" departLane="beg_0" departPos="5.10" departSpeed="41.70" departDelay="49.00" arrival="122.00" arrivalLane="end_0" arrivalPos="500.00" arrivalSpeed="41.70" duration="24.00" routeLength="995.00" waitingTime="0.00" waitingCount="0" stopTime="0.00" timeLoss="0.00" rerouteNo="0" devices="tripinfo_flow.49" vType="t0" speedFactor="1.50" vaporized=""/>
    <tripinfo id="flow.50" depart="100.00" departLane="beg_0" departPos="5.10" departSpeed="41.70" departDelay="50.00" arrival="124.00" arrivalLane="end_0" arrivalPos="500.00" arrivalSpeed="41.70" duration="24.00" routeLength="995.00" waitingTime="0.00" waitingCount="0" stopTime="0.00" timeLoss="0.00" rerouteNo="0" devices="tripinfo_flow.50" vType="t0" speedFactor="1.50" vaporized=""/>
    <tripinfo id="flow.51" depart="102.00" departLane="beg_0" departPos="5.10" departSpeed="41.70" departDelay="51.00" arrival="126.00" arrivalLane="end_0" arrivalPos="500.00" arrivalSpeed="41.70" duration="24.00" routeLength="995.00" waitingTime="0.00" waitingCount="0" stopTime="0.00" timeLoss="0.00" rerouteNo="0" devices="tripinfo_flow.51" vType="t0" speedFactor="1.50" vaporized=""/>
    <tripinfo id="flow.52" depart="104.00" departLane="beg_0" departPos="5.10" departSpeed="41.70" departDelay="52.00" arrival="128.00" arrivalLane="end_0" arrivalPos="500.00" arrivalSpeed="41.70" duration="24.00" routeLength="995.00" waitingTime="0.00" waitingCount="0" stopTime="0.00" timeLoss="0.00" rerouteNo="0" devices="tripinfo_flow.52" vType="t0" speedFactor="1.50" vaporized=""/>
    <tripinfo id="flow.53" depart="106.00" departLane="beg_0" departPos="5.10" departSpeed="41.70" departDelay="53.00" arrival="130.00" arrivalLane="end_0" arrivalPos="500.00" arrivalSpeed="41.70" duration="24.00" routeLength="995.00" waitingTime="0.00" waitingCount="0" stopTime="0.00" timeLoss="0.00" rerouteNo="0" devices="tripinfo_flow.53" vType="t0" speedFactor="1.50" vaporized=""/>
    <tripinfo id="flow.54" depart="108.00" departLane="beg_0" departPos="5.10" departSpeed="41.70" departDelay="54.00" arrival="132.00" arrivalLane="end_0" arrivalPos="500.00" arrivalSpeed="41.70" duration="24.00" routeLength="995.00" waitingTime="0.00" waitingCount="0" stopTime="0.00" timeLoss="0.00" rerouteNo="0" devices="tripinfo_flow.54" vType="t0" speedFactor="1.50" vaporized=""/>
    <tripinfo id="flow.55" depart="110.00" departLane="beg_0" departPos="5.10" departSpeed="41.70" departDelay="55.00" arrival="134.00" arrivalLane="end_0" arrivalPos="500.00" arrivalSpeed="41.70" duration="24.00" routeLength="995.00" waitingTime="0.00" waitingCount="0" stopTime="0.00" timeLoss="0.00" rerouteNo="0" devices="tripinfo_flow.55" vType="t0" speedFactor="1.50" vaporized=""/>
    <tripinfo id="flow.56" depart="112.00" departLane="beg_0" departPos="5.10" departSpeed="41.70" departDelay="56.00" arrival="136.00" arrivalLane="end_0" arrivalPos="500.00" arrivalSpeed="41.70" duration="24.00" routeLength="995.00" waitingTime="0.00" waitingCount="0" stopTime="0.00" timeLoss="0.00" rerouteNo="0" devices="tripinfo_flow.56" vType="t0" speedFactor="1.50" vaporized=""/>
    <tripinfo id="flow.57" depart="114.00" departLane="beg_0" departPos="5.10" departSpeed="41.70" departDelay="57.00" arrival="138.00" arrivalLane="end_0" arrivalPos="500.00" arrivalSpeed="41.70" duration="24.00" routeLength="995.00" waitingTime="0.00" waitingCount="0" stopTime="0.00" timeLoss="0.00" rerouteNo="0" devices="tripinfo_flow.57" vType="t0" speedFactor="1.50" vaporized=""/>
    <tripinfo id="flow.58" depart="116.00" departLane="beg_0" departPos="5.10" departSpeed="41.70" departDelay="58.00" arrival="140.00" arrivalLane="end_0" arrivalPos="500.00" arrivalSpeed="41.70" duration="24.00" routeLength="995.00" waitingTime="0.00" waitingCount="0" stopTime="0.00" timeLoss="0.00" rerouteNo="0" devices="tripinfo_flow.58" vType="t0" speedFactor="1.50" vaporized=""/>
    <tripinfo id="flow.59" depart="118.00" departLane="beg_0" departPos="5.10" departSpeed="41.70" departDelay="59.00" arrival="142.00" arrivalLane="end_0" arrivalPos="500.00" arrivalSpeed="41.70" duration="24.00" routeLength="995.00" waitingTime="0.00" waitingCount="0" stopTime="0.00" timeLoss="0.00" rerouteNo="0" devices="tripinfo_flow.59" vType="t0" speedFactor="1.50" vaporized=""/>
    <tripinfo id="flow.60" depart="120.00" departLane="beg_0" departPos="5.10" departSpeed="41.70" departDelay="60.00" arrival="144.00" arrivalLane="end_0" arrivalPos="500.00" arrivalSpeed="41.70" duration="24.00" routeLength="995.00" waitingTime="0.00" waitingCount="0" stopTime="0.00" timeLoss="0.00" rerouteNo="0" devices="tripinfo_flow.60" vType="t0" speedFactor="1.50" vaporized=""/>
    <tripinfo id="flow.61" depart="122.00" departLane="beg_0" departPos="5.10" departSpeed="41.70" departDelay="61.00" arrival="146.00" arrivalLane="end_0" arrivalPos="500.00" arrivalSpeed="41.70" duration="24.00" routeLength="995.00" waitingTime="0.00" waitingCount="0" stopTime="0.00" timeLoss="0.00" rerouteNo="0" devices="tripinfo_flow.61" vType="t0" speedFactor="1.50" vaporized=""/>
    <tripinfo id="flow.62" depart="124.00" departLane="beg_0" departPos="5.10" departSpeed="41.70" departDelay="62.00" arrival="148.00" arrivalLane="end_0" arrivalPos="500.00" arrivalSpeed="41.70" duration="24.00" routeLength="995.00" waitingTime="0.00" waitingCount="0" stopTime="0.00" timeLoss="0.00" rerouteNo="0" devices="tripinfo_flow.62" vType="t0" speedFactor="1.50" vaporized=""/>
    <tripinfo id="flow.63" depart="126.00" departLane="beg_0" departPos="5.10" departSpeed="41.70" departDelay="63.00" arrival="150.00" arrivalLane="end_0" arrivalPos="500.00" arrivalSpeed="41.70" duration="24.00" routeLength="995.00" waitingTime="0.00" waitingCount="0" stopTime="0.00" timeLoss="0.00" rerouteNo="0" devices="tripinfo_flow.63" vType="t0" speedFactor="1.50" vaporized=""/>
    <tripinfo id="flow.64" depart="128.00" departLane="beg_0" departPos="5.10" departSpeed="41.70" departDelay="64.00" arrival="152.00" arrivalLane="end_0" arrivalPos="500.00" arrivalSpeed="41.70" duration="24.00" routeLength="995.00" waitingTime="0.00" waitingCount="0" stopTime="0.00" timeLoss="0.00" rerouteNo="0" devices="tripinfo_flow.64" vType="t0" speedFactor="1.50" vaporized=""/>
    <tripinfo id="flow.65" depart="130.00" departLane="beg_0" departPos="5.10" departSpeed="41.70" departDelay="65.00" arrival="154.00" arrivalLane="end_0" arrivalPos="500.00" arrivalSpeed="41.70" duration="24.00" routeLength="995.00" waitingTime="0.00" waitingCount="0" stopTime="0.00" timeLoss="0.00" rerouteNo="0" devices="tripinfo_flow.65" vType="t0" speedFactor="1.50" vaporized=""/>
    <tripinfo id="flow.66" depart="132.00" departLane="beg_0" departPos="5.10" departSpeed="41.70" departDelay="66.00" arrival="156.00" arrivalLane="end_0" arrivalPos="500.00" arrivalSpeed="41.70" duration="24.00" routeLength="995.00" waitingTime="0.00" waitingCount="0" stopTime="0.00" timeLoss="0.00" rerouteNo="0" devices="tripinfo_flow.66" vType="t0" speedFactor="1.50" vaporized=""/>
    <tripinfo id="flow.67" depart="134.00" departLane="beg_0" departPos="5.10" departSpeed="41.70" departDelay="67.00" arrival="158.00" arrivalLane="end_0" arrivalPos="500.00" arrivalSpeed="41.70" duration="24.00" routeLength="995.00" waitingTime="0.00" waitingCount="0" stopTime="0.00" timeLoss="0.00" rerouteNo="0" devices="tripinfo_flow.67" vType="t0" speedFactor="1.50" vaporized=""/>
    <tripinfo id="flow.68" depart="136.00" departLane="beg_0" departPos="5.10" departSpeed="41.70" departDelay="68.00" arrival="160.00" arrivalLane="end_0" arrivalPos="500.00" arrivalSpeed="41.70" duration="24.00" routeLength="995.00" waitingTime="0.00" waitingCount="0" stopTime="0.00" timeLoss="0.00" rerouteNo="0" devices="tripinfo_flow.68" vType="t0" speedFactor="1.50" vaporized=""/>
    <tripinfo id="flow.69" depart="138.00" departLane="beg_0" departPos="5.10" departSpeed="41.70" departDelay="69.00" arrival="162.00" arrivalLane="end_0" arrivalPos="500.00" arrivalSpeed="41.70" duration="24.00" routeLength="995.00" waitingTime="0.00" waitingCount="0" stopTime="0.00" timeLoss="0.00" rerouteNo="0" devices="tripinfo_flow.69" vType="t0" speedFactor="1.50" vaporized=""/>
    <tripinfo id="flow.70" depart="140.00" departLane="beg_0" departPos="5.10" departSpeed="41.70" departDelay="70.00" arrival="164.00" arrivalLane="end_0" arrivalPos="500.00" arrivalSpeed="41.70" duration="24.00" routeLength="995.00" waitingTime="0.00" waitingCount="0" stopTime="0.00" timeLoss="0.00" rerouteNo="0" devices="tripinfo_flow.70" vType="t0" speedFactor="1.50" vaporized=""/>
    <tripinfo id="flow.71" depart="142.00" departLane="beg_0" departPos="5.10" departSpeed="41.70" departDelay="71.00" arrival="166.00" arrivalLane="end_0" arrivalPos="500.00" arrivalSpeed="41.70" duration="24.00" routeLength="995.00" waitingTime="0.00" waitingCount="0" stopTime="0.00" timeLoss="0.00" rerouteNo="0" devices="tripinfo_flow.71" vType="t0" speedFactor="1.50" vaporized=""/>
    <tripinfo id="flow.72" depart="144.00" departLane="beg_0" departPos="5.10" departSpeed="41.70" departDelay="72.00" arrival="168.00" arrivalLane="end_0" arrivalPos="500.00" arrivalSpeed="41.70" duration="24.00" routeLength="995.00" waitingTime="0.00" waitingCount="0" stopTime="0.00" timeLoss="0.00" rerouteNo="0" devices="tripinfo_flow.72" vType="t0" speedFactor="1.50" vaporized=""/>
    <tripinfo id="flow.73" depart="146.00" departLane="beg_0" departPos="5.10" departSpeed="41.70" departDelay="73.00" arrival="170.00" arrivalLane="end_0" arrivalPos="500.00" arrivalSpeed="41.70" duration="24.00" routeLength="995.00" waitingTime="0.00" waitingCount="0" stopTime="0.00" timeLoss="0.00" rerouteNo="0" devices="tripinfo_flow.73" vType="t0" speedFactor="1.50" vaporized=""/>