<?xml version="1.0" encoding="UTF-8"?>

<!-- generated on Thu May  8 13:31:47 2014 by SUMO sumo Version dev-SVN-r16321
<?xml version="1.0" encoding="UTF-8"?>

<configuration xmlns:xsi="http://www.w3.org/2001/XMLSchema-instance" xsi:noNamespaceSchemaLocation="http://sumo.dlr.de/xsd/sumoConfiguration.xsd">

    <input>
        <net-file value="net.net.xml"/>
        <additional-files value="input_additional.add.xml,input_additional2.add.xml"/>
    </input>

    <output>
        <netstate-dump value="rawdump.xml"/>
    </output>

    <processing>
        <pedestrian.model value="striping"/>
        <pedestrian.striping.dawdling value="0"/>
    </processing>

    <report>
        <xml-validation value="never"/>
        <no-step-log value="true"/>
    </report>

</configuration>
-->

<netstate xmlns:xsi="http://www.w3.org/2001/XMLSchema-instance" xsi:noNamespaceSchemaLocation="http://sumo.dlr.de/xsd/netstate_file.xsd">
    <timestep time="0.00"/>
    <timestep time="1.00"/>
    <timestep time="2.00"/>
    <timestep time="3.00"/>
    <timestep time="4.00"/>
    <timestep time="5.00"/>
    <timestep time="6.00"/>
    <timestep time="7.00"/>
    <timestep time="8.00"/>
    <timestep time="9.00"/>
    <timestep time="10.00">
        <edge id="CS">
            <person id="p0" pos="20.00" angle="180.00" stage="walking"/>
        </edge>
    </timestep>
    <timestep time="11.00">
        <edge id="CS">
            <person id="p0" pos="18.61" angle="180.00" stage="walking"/>
        </edge>
    </timestep>
    <timestep time="12.00">
        <edge id="CS">
            <person id="p0" pos="17.22" angle="180.00" stage="walking"/>
        </edge>
    </timestep>
    <timestep time="13.00">
        <edge id="CS">
            <person id="p0" pos="15.83" angle="180.00" stage="walking"/>
        </edge>
    </timestep>
    <timestep time="14.00">
        <edge id="CS">
            <person id="p0" pos="14.44" angle="180.00" stage="walking"/>
        </edge>
    </timestep>
    <timestep time="15.00">
        <edge id="CS">
            <person id="p0" pos="13.06" angle="180.00" stage="walking"/>
        </edge>
    </timestep>
    <timestep time="16.00">
        <edge id="CS">
            <person id="p0" pos="11.67" angle="180.00" stage="walking"/>
        </edge>
    </timestep>
    <timestep time="17.00">
        <edge id="CS">
            <person id="p0" pos="10.28" angle="180.00" stage="walking"/>
        </edge>
    </timestep>
    <timestep time="18.00">
        <edge id="CS">
            <person id="p0" pos="8.89" angle="180.00" stage="walking"/>
        </edge>
    </timestep>
    <timestep time="19.00">
        <edge id="CS">
            <person id="p0" pos="7.50" angle="180.00" stage="walking"/>
        </edge>
    </timestep>
    <timestep time="20.00">
        <edge id="CS">
            <person id="p0" pos="6.11" angle="180.00" stage="walking"/>
        </edge>
    </timestep>
    <timestep time="21.00">
        <edge id="CS">
            <person id="p0" pos="4.72" angle="180.00" stage="walking"/>
        </edge>
    </timestep>
    <timestep time="22.00">
        <edge id="CS">
            <person id="p0" pos="3.33" angle="180.00" stage="walking"/>
        </edge>
    </timestep>
    <timestep time="23.00">
        <edge id="CS">
            <person id="p0" pos="1.94" angle="180.00" stage="walking"/>
        </edge>
    </timestep>
    <timestep time="24.00">
        <edge id="CS">
            <person id="p0" pos="0.56" angle="180.00" stage="walking"/>
        </edge>
    </timestep>
    <timestep time="25.00">
        <edge id=":C_w3">
            <person id="p0" pos="4.38" angle="180.00" stage="walking"/>
        </edge>
    </timestep>
    <timestep time="26.00">
        <edge id=":C_w3">
            <person id="p0" pos="2.99" angle="-161.22" stage="walking"/>
        </edge>
    </timestep>
    <timestep time="27.00">
        <edge id=":C_w3">
            <person id="p0" pos="1.60" angle="-161.22" stage="walking"/>
        </edge>
    </timestep>
    <timestep time="28.00">
        <edge id=":C_w3">
            <person id="p0" pos="0.21" angle="180.00" stage="walking"/>
        </edge>
    </timestep>
    <timestep time="29.00">
        <edge id=":C_w3">
            <person id="p0" pos="0.21" angle="180.00" stage="walking"/>
        </edge>
    </timestep>
    <timestep time="30.00">
        <edge id=":C_w3">
            <person id="p0" pos="0.21" angle="180.00" stage="walking"/>
        </edge>
    </timestep>
    <timestep time="31.00">
        <edge id=":C_w3">
            <person id="p0" pos="0.21" angle="180.00" stage="walking"/>
        </edge>
    </timestep>
    <timestep time="32.00">
        <edge id=":C_w3">
            <person id="p0" pos="0.21" angle="180.00" stage="walking"/>
        </edge>
    </timestep>
    <timestep time="33.00">
        <edge id=":C_w3">
            <person id="p0" pos="0.21" angle="180.00" stage="walking"/>
        </edge>
    </timestep>
    <timestep time="34.00">
        <edge id=":C_w3">
            <person id="p0" pos="0.21" angle="180.00" stage="walking"/>
        </edge>
    </timestep>
    <timestep time="35.00">
        <edge id=":C_c3">
            <person id="p0" pos="17.32" angle="180.00" stage="walking"/>
        </edge>
    </timestep>
    <timestep time="36.00">
        <edge id=":C_c3">
            <person id="p0" pos="15.93" angle="180.00" stage="walking"/>
        </edge>
    </timestep>
    <timestep time="37.00">
        <edge id=":C_c3">
            <person id="p0" pos="14.54" angle="180.00" stage="walking"/>
        </edge>
    </timestep>
    <timestep time="38.00">
        <edge id=":C_c3">
            <person id="p0" pos="13.16" angle="180.00" stage="walking"/>
        </edge>
    </timestep>
    <timestep time="39.00">
        <edge id=":C_c3">
            <person id="p0" pos="11.77" angle="180.00" stage="walking"/>
        </edge>
    </timestep>
    <timestep time="40.00">
        <edge id=":C_c3">
            <person id="p0" pos="10.38" angle="180.00" stage="walking"/>
        </edge>
    </timestep>
    <timestep time="41.00">
        <edge id=":C_c3">
            <person id="p0" pos="8.99" angle="180.00" stage="walking"/>
        </edge>
    </timestep>
    <timestep time="42.00">
        <edge id=":C_c3">
            <person id="p0" pos="7.60" angle="180.00" stage="walking"/>
        </edge>
    </timestep>
    <timestep time="43.00">
        <edge id=":C_c3">
            <person id="p0" pos="6.21" angle="180.00" stage="walking"/>
        </edge>
    </timestep>
    <timestep time="44.00">
        <edge id=":C_c3">
            <person id="p0" pos="4.82" angle="180.00" stage="walking"/>
        </edge>
    </timestep>
    <timestep time="45.00">
        <edge id=":C_c3">
            <person id="p0" pos="3.43" angle="180.00" stage="walking"/>
        </edge>
    </timestep>
    <timestep time="46.00">
        <edge id=":C_c3">
            <person id="p0" pos="2.04" angle="180.00" stage="walking"/>
        </edge>
    </timestep>
    <timestep time="47.00">
        <edge id=":C_c3">
            <person id="p0" pos="0.66" angle="180.00" stage="walking"/>
        </edge>
    </timestep>
    <timestep time="48.00">
        <edge id=":C_w0">
            <person id="p0" pos="2.26" angle="-109.81" stage="walking"/>
        </edge>
    </timestep>
    <timestep time="49.00">
        <edge id=":C_w0">
            <person id="p0" pos="0.87" angle="-109.81" stage="walking"/>
        </edge>
    </timestep>
    <timestep time="50.00">
        <edge id="CW">
            <person id="p0" pos="0.52" angle="-90.00" stage="walking"/>
        </edge>
    </timestep>
    <timestep time="51.00">
        <edge id="CW">
            <person id="p0" pos="1.91" angle="-90.00" stage="walking"/>
        </edge>
    </timestep>
    <timestep time="52.00">
        <edge id="CW">
            <person id="p0" pos="3.30" angle="-90.00" stage="walking"/>
        </edge>
    </timestep>
    <timestep time="53.00">
        <edge id="CW">
            <person id="p0" pos="4.69" angle="-90.00" stage="walking"/>
        </edge>
    </timestep>
    <timestep time="54.00">
        <edge id="CW">
            <person id="p0" pos="6.08" angle="-90.00" stage="walking"/>
        </edge>
    </timestep>
    <timestep time="55.00">
        <edge id="CW">
            <person id="p0" pos="7.46" angle="-90.00" stage="walking"/>
        </edge>
    </timestep>
    <timestep time="56.00">
        <edge id="CW">
            <person id="p0" pos="8.85" angle="-90.00" stage="walking"/>
        </edge>
    </timestep>
    <timestep time="57.00">
        <edge id="CW">
            <person id="p0" pos="10.24" angle="-90.00" stage="walking"/>
        </edge>
    </timestep>
    <timestep time="58.00">
        <edge id="CW">
            <person id="p0" pos="11.63" angle="-90.00" stage="walking"/>
        </edge>
    </timestep>
    <timestep time="59.00">
        <edge id="CW">
            <person id="p0" pos="13.02" angle="-90.00" stage="walking"/>
        </edge>
    </timestep>
    <timestep time="60.00">
        <edge id="CW">
            <person id="p0" pos="14.41" angle="-90.00" stage="walking"/>
        </edge>
    </timestep>
    <timestep time="61.00">
        <edge id="CW">
            <person id="p0" pos="15.80" angle="-90.00" stage="walking"/>
        </edge>
    </timestep>
    <timestep time="62.00">
        <edge id="CW">
            <person id="p0" pos="17.19" angle="-90.00" stage="walking"/>
        </edge>
    </timestep>
    <timestep time="63.00">
        <edge id="CW">
            <person id="p0" pos="18.58" angle="-90.00" stage="walking"/>
        </edge>
    </timestep>
    <timestep time="64.00">
        <edge id="CW">
            <person id="p0" pos="19.96" angle="-90.00" stage="walking"/>
        </edge>
    </timestep>
    <timestep time="65.00"/>
</netstate>
