<?xml version="1.0" encoding="UTF-8"?>

<!-- generated on Fri Dec 20 12:26:47 2019 by Eclipse SUMO Version v1_4_0+0244-fdd41c3
This data file and the accompanying materials
are made available under the terms of the Eclipse Public License v2.0
which accompanies this distribution, and is available at
http://www.eclipse.org/legal/epl-v20.html
SPDX-License-Identifier: EPL-2.0
<configuration xmlns:xsi="http://www.w3.org/2001/XMLSchema-instance" xsi:noNamespaceSchemaLocation="http://sumo.dlr.de/xsd/sumoConfiguration.xsd">

    <input>
        <net-file value="net.net.xml"/>
        <route-files value="input_routes.rou.xml"/>
        <additional-files value="input_additional.add.xml"/>
    </input>

    <output>
        <write-license value="true"/>
        <vehroute-output value="vehroutes.xml"/>
        <stop-output value="stopinfos.xml"/>
    </output>

    <processing>
        <default.speeddev value="0"/>
    </processing>

    <report>
        <xml-validation value="never"/>
        <no-step-log value="true"/>
    </report>

</configuration>
-->

<routes xmlns:xsi="http://www.w3.org/2001/XMLSchema-instance" xsi:noNamespaceSchemaLocation="http://sumo.dlr.de/xsd/routes_file.xsd">
    <vehicle id="ego" depart="0.00" arrival="23.00">
        <routeDistribution>
            <route replacedOnEdge="gneE0" reason="rerouter_0:parkingAreaReroute" replacedAtTime="8.00" probability="0" edges="gneE0 gneE1"/>
            <route edges="gneE0 gneE1"/>
        </routeDistribution>
    </vehicle>

    <vehicle id="occupyPA" depart="0.00" departSpeed="13.89" arrival="75.00">
        <route edges="gneE1"/>
        <stop parkingArea="p3" duration="60.00"/>
    </vehicle>

    <vehicle id="blocker" depart="0.00" departPos="30.00" arrival="75.00">
        <route edges="gneE0"/>
        <stop lane="gneE0_0" endPos="50.00" duration="60.00"/>
    </vehicle>

</routes>
