<?xml version="1.0" encoding="UTF-8"?>

<!-- generated on Wed Jan  3 09:21:18 2018 by SUMO Version v0_32_0+0043-24523c2
<?xml version="1.0" encoding="UTF-8"?>

<configuration xmlns:xsi="http://www.w3.org/2001/XMLSchema-instance" xsi:noNamespaceSchemaLocation="http://sumo.dlr.de/xsd/sumoConfiguration.xsd">

    <input>
        <net-file value="net.net.xml"/>
        <route-files value="input_routes.rou.xml"/>
        <additional-files value="input_additional.add.xml"/>
    </input>

    <output>
        <tripinfo-output value="tripinfos.xml"/>
        <vehroute-output value="vehroutes.xml"/>
        <vehroute-output.skip-ptlines value="true"/>
    </output>

    <routing>
        <persontrip.transfer.car-walk value="allJunctions"/>
    </routing>

    <report>
        <xml-validation value="never"/>
        <no-step-log value="true"/>
    </report>

</configuration>
-->

<tripinfos xmlns:xsi="http://www.w3.org/2001/XMLSchema-instance" xsi:noNamespaceSchemaLocation="http://sumo.dlr.de/xsd/tripinfo_file.xsd">
    <tripinfo id="p0_0" depart="0.00" departLane="beg_0" departPos="5.10" departSpeed="0.00" departDelay="0.00" arrival="25.00" arrivalLane="beg_0" arrivalPos="500.00" arrivalSpeed="27.68" duration="25.00" routeLength="494.90" waitingTime="0.00" stopTime="0.00" timeLoss="6.65" rerouteNo="0" devices="vehroute_p0_0 tripinfo_p0_0 person_p0_0" vType="DEFAULT_VEHTYPE" speedFactor="1.00" vaporized=""/>
    <tripinfo id="train.0" depart="0.00" departLane="gneE0_0" departPos="109.60" departSpeed="0.00" departDelay="0.00" arrival="128.00" arrivalLane="gneE0_0" arrivalPos="1529.03" arrivalSpeed="13.89" duration="128.00" routeLength="1419.43" waitingTime="0.00" stopTime="2.00" timeLoss="23.75" rerouteNo="1" devices="vehroute_train.0 tripinfo_train.0 routing_train.0" vType="train" speedFactor="1.00" vaporized=""/>
    <tripinfo id="train.1" depart="300.00" departLane="gneE0_0" departPos="109.60" departSpeed="0.00" departDelay="0.00" arrival="429.00" arrivalLane="gneE0_0" arrivalPos="1529.03" arrivalSpeed="13.89" duration="129.00" routeLength="1419.43" waitingTime="0.00" stopTime="3.00" timeLoss="23.75" rerouteNo="1" devices="vehroute_train.1 tripinfo_train.1 routing_train.1 person_train.1" vType="train" speedFactor="1.00" vaporized=""/>
    <personinfo id="p0" depart="0.00">
        <ride waitingTime="0.00" vehicle="p0_0" depart="0.00" arrival="25.00" arrivalPos="500.00" duration="25.00" routeLength="509.21"/>
        <walk depart="25.00" departPos="0.00" arrival="226.00" arrivalPos="250.00" duration="201.00" routeLength="250.00" timeLoss="21.00" maxSpeed="1.39"/>
        <ride waitingTime="99.00" vehicle="train.1" depart="325.00" arrival="406.00" arrivalPos="1240.00" duration="81.00" routeLength="1000.00"/>
        <walk depart="406.00" departPos="250.00" arrival="610.00" arrivalPos="0.00" duration="204.00" routeLength="251.13" timeLoss="23.19" maxSpeed="1.39"/>
    </personinfo>
    <tripinfo id="train.2" depart="600.00" departLane="gneE0_0" departPos="109.60" departSpeed="0.00" departDelay="0.00" arrival="728.00" arrivalLane="gneE0_0" arrivalPos="1529.03" arrivalSpeed="13.89" duration="128.00" routeLength="1419.43" waitingTime="0.00" stopTime="2.00" timeLoss="23.75" rerouteNo="1" devices="vehroute_train.2 tripinfo_train.2 routing_train.2" vType="train" speedFactor="1.00" vaporized=""/>
    <tripinfo id="train.3" depart="900.00" departLane="gneE0_0" departPos="109.60" departSpeed="0.00" departDelay="0.00" arrival="1028.00" arrivalLane="gneE0_0" arrivalPos="1529.03" arrivalSpeed="13.89" duration="128.00" routeLength="1419.43" waitingTime="0.00" stopTime="2.00" timeLoss="23.75" rerouteNo="1" devices="vehroute_train.3 tripinfo_train.3 routing_train.3" vType="train" speedFactor="1.00" vaporized=""/>
</tripinfos>
