<?xml version="1.0" encoding="UTF-8"?>

<!-- generated on Fri Jul  1 15:28:58 2016 by SUMO Version dev-SVN-r21086
<?xml version="1.0" encoding="UTF-8"?>

<configuration xmlns:xsi="http://www.w3.org/2001/XMLSchema-instance" xsi:noNamespaceSchemaLocation="http://sumo.dlr.de/xsd/sumoConfiguration.xsd">

    <input>
        <net-file value="motorway.net.xml"/>
        <route-files value="input_routes.rou.xml"/>
        <additional-files value="input_additional.add.xml"/>
    </input>

    <processing>
        <max-depart-delay value="1"/>
    </processing>

    <report>
        <verbose value="true"/>
        <xml-validation value="never"/>
        <duration-log.statistics value="true"/>
        <no-step-log value="true"/>
    </report>

    <mesoscopic>
        <mesosim value="true"/>
        <meso-jam-threshold value="-0.9"/>
        <meso-junction-control value="true"/>
    </mesoscopic>

</configuration>
-->

<detector>
    <interval begin="0.00" end="900.00" id="end2_0" sampledSeconds="1453.98" density="16.70" occupancy="8.35" waitingTime="0.00" speed="34.79" departed="0" arrived="522" entered="524" left="0"/>
    <interval begin="900.00" end="1800.00" id="end2_0" sampledSeconds="1694.72" density="19.47" occupancy="9.73" waitingTime="0.00" speed="34.28" departed="0" arrived="600" entered="601" left="0"/>
    <interval begin="1800.00" end="1903.00" id="end2_0" sampledSeconds="214.86" density="21.57" occupancy="10.78" waitingTime="0.00" speed="34.35" departed="0" arrived="78" entered="75" left="0"/>
</detector>
