<?xml version="1.0" encoding="UTF-8"?>

<!-- generated on Sun Nov 23 15:27:21 2014 by SUMO Version dev-SVN-r17370I
<?xml version="1.0" encoding="UTF-8"?>

<configuration xmlns:xsi="http://www.w3.org/2001/XMLSchema-instance" xsi:noNamespaceSchemaLocation="http://sumo.dlr.de/xsd/sumoConfiguration.xsd">

    <input>
        <net-file value="motorway.net.xml"/>
        <route-files value="input_routes.rou.xml"/>
        <additional-files value="input_additional.add.xml"/>
    </input>

    <processing>
        <max-depart-delay value="1"/>
    </processing>

    <report>
        <xml-validation value="never"/>
        <no-duration-log value="true"/>
        <no-step-log value="true"/>
    </report>

    <mesoscopic>
        <mesosim value="true"/>
        <meso-junction-control value="true"/>
    </mesoscopic>

</configuration>
-->

<detector>
    <interval begin="0.00" end="900.00" id="end2_0" sampledSeconds="1750.85" density="20.11" occupancy="10.06" waitingTime="0.00" speed="27.97" departed="0" arrived="0" entered="508" left="505"/>
    <interval begin="900.00" end="1800.00" id="end2_0" sampledSeconds="2028.56" density="23.30" occupancy="11.65" waitingTime="0.00" speed="27.26" departed="0" arrived="0" entered="571" left="572"/>
    <interval begin="1800.00" end="2021.00" id="end2_0" sampledSeconds="450.08" density="21.05" occupancy="10.53" waitingTime="0.00" speed="26.21" departed="0" arrived="0" entered="121" left="123"/>
</detector>
