<?xml version="1.0" encoding="UTF-8"?>

<!-- generated on Mon Mar  3 14:01:01 2014 by SUMO sumo Version dev-SVN-r15793
<?xml version="1.0" encoding="UTF-8"?>

<configuration xmlns:xsi="http://www.w3.org/2001/XMLSchema-instance" xsi:noNamespaceSchemaLocation="http://sumo.dlr.de/xsd/sumoConfiguration.xsd">

    <input>
        <net-file value="three_split.net.xml"/>
        <route-files value="input_routes.rou.xml"/>
        <additional-files value="input_additional.add.xml,input_additional2.add.xml"/>
    </input>

    <output>
        <netstate-dump value="rawdump.xml"/>
    </output>

    <time>
        <step-length value="0.5"/>
    </time>

    <report>
        <xml-validation value="never"/>
        <no-duration-log value="true"/>
        <no-step-log value="true"/>
    </report>

</configuration>
-->

<netstate xmlns:xsi="http://www.w3.org/2001/XMLSchema-instance" xsi:noNamespaceSchemaLocation="http://sumo.dlr.de/xsd/netstate_file.xsd">
    <timestep time="0.00">
        <edge id="beg">
            <lane id="beg_0">
                <vehicle id="leader" pos="5.10" speed="0.00"/>
            </lane>
        </edge>
    </timestep>
    <timestep time="0.50">
        <edge id="beg">
            <lane id="beg_0">
                <vehicle id="leader" pos="5.75" speed="1.30"/>
            </lane>
        </edge>
    </timestep>
    <timestep time="1.00">
        <edge id="beg">
            <lane id="beg_0">
                <vehicle id="leader" pos="7.05" speed="2.60"/>
            </lane>
        </edge>
    </timestep>
    <timestep time="1.50">
        <edge id="beg">
            <lane id="beg_0">
                <vehicle id="leader" pos="9.00" speed="3.90"/>
            </lane>
        </edge>
    </timestep>
    <timestep time="2.00">
        <edge id="beg">
            <lane id="beg_0">
                <vehicle id="follower" pos="5.10" speed="0.00"/>
                <vehicle id="leader" pos="11.60" speed="5.20"/>
            </lane>
        </edge>
    </timestep>
    <timestep time="2.50">
        <edge id="beg">
            <lane id="beg_0">
                <vehicle id="follower" pos="5.75" speed="1.30"/>
                <vehicle id="leader" pos="14.85" speed="6.50"/>
            </lane>
        </edge>
    </timestep>
    <timestep time="3.00">
        <edge id="beg">
            <lane id="beg_0">
                <vehicle id="follower" pos="7.05" speed="2.60"/>
                <vehicle id="leader" pos="18.75" speed="7.80"/>
            </lane>
        </edge>
    </timestep>
    <timestep time="3.50">
        <edge id="beg">
            <lane id="beg_0">
                <vehicle id="follower" pos="9.00" speed="3.90"/>
                <vehicle id="leader" pos="23.30" speed="9.10"/>
            </lane>
        </edge>
    </timestep>
    <timestep time="4.00">
        <edge id="beg">
            <lane id="beg_0">
                <vehicle id="follower" pos="11.60" speed="5.20"/>
                <vehicle id="leader" pos="28.50" speed="10.40"/>
            </lane>
        </edge>
    </timestep>
    <timestep time="4.50">
        <edge id="beg">
            <lane id="beg_0">
                <vehicle id="follower" pos="14.85" speed="6.50"/>
                <vehicle id="leader" pos="34.35" speed="11.70"/>
            </lane>
        </edge>
    </timestep>
    <timestep time="5.00">
        <edge id="beg">
            <lane id="beg_0">
                <vehicle id="follower" pos="18.75" speed="7.80"/>
                <vehicle id="leader" pos="40.85" speed="13.00"/>
            </lane>
        </edge>
    </timestep>
    <timestep time="5.50">
        <edge id="beg">
            <lane id="beg_0">
                <vehicle id="follower" pos="23.30" speed="9.10"/>
                <vehicle id="leader" pos="48.00" speed="14.30"/>
            </lane>
        </edge>
    </timestep>
    <timestep time="6.00">
        <edge id="beg">
            <lane id="beg_0">
                <vehicle id="follower" pos="28.50" speed="10.40"/>
                <vehicle id="leader" pos="55.80" speed="15.60"/>
            </lane>
        </edge>
    </timestep>
    <timestep time="6.50">
        <edge id="beg">
            <lane id="beg_0">
                <vehicle id="follower" pos="34.35" speed="11.70"/>
                <vehicle id="leader" pos="64.25" speed="16.90"/>
            </lane>
        </edge>
    </timestep>
    <timestep time="7.00">
        <edge id="beg">
            <lane id="beg_0">
                <vehicle id="follower" pos="40.85" speed="13.00"/>
                <vehicle id="leader" pos="73.35" speed="18.20"/>
            </lane>
        </edge>
    </timestep>
    <timestep time="7.50">
        <edge id="beg">
            <lane id="beg_0">
                <vehicle id="follower" pos="48.00" speed="14.30"/>
                <vehicle id="leader" pos="83.10" speed="19.50"/>
            </lane>
        </edge>
    </timestep>
    <timestep time="8.00">
        <edge id="beg">
            <lane id="beg_0">
                <vehicle id="follower" pos="55.80" speed="15.60"/>
                <vehicle id="leader" pos="93.10" speed="20.00"/>
            </lane>
        </edge>
    </timestep>
    <timestep time="8.50">
        <edge id="beg">
            <lane id="beg_0">
                <vehicle id="follower" pos="64.25" speed="16.90"/>
                <vehicle id="leader" pos="103.10" speed="20.00"/>
            </lane>
        </edge>
    </timestep>
    <timestep time="9.00">
        <edge id="beg">
            <lane id="beg_0">
                <vehicle id="follower" pos="73.35" speed="18.20"/>
                <vehicle id="leader" pos="113.10" speed="20.00"/>
            </lane>
        </edge>
    </timestep>
    <timestep time="9.50">
        <edge id="beg">
            <lane id="beg_0">
                <vehicle id="follower" pos="83.10" speed="19.50"/>
                <vehicle id="leader" pos="123.10" speed="20.00"/>
            </lane>
        </edge>
    </timestep>
    <timestep time="10.00">
        <edge id="beg">
            <lane id="beg_0">
                <vehicle id="follower" pos="93.50" speed="20.80"/>
                <vehicle id="leader" pos="133.10" speed="20.00"/>
            </lane>
        </edge>
    </timestep>
    <timestep time="10.50">
        <edge id="beg">
            <lane id="beg_0">
                <vehicle id="follower" pos="104.55" speed="22.10"/>
                <vehicle id="leader" pos="143.10" speed="20.00"/>
            </lane>
        </edge>
    </timestep>
    <timestep time="11.00">
        <edge id="beg">
            <lane id="beg_0">
                <vehicle id="follower" pos="115.79" speed="22.49"/>
                <vehicle id="leader" pos="153.10" speed="20.00"/>
            </lane>
        </edge>
    </timestep>
    <timestep time="11.50">
        <edge id="beg">
            <lane id="beg_0">
                <vehicle id="follower" pos="126.92" speed="22.26"/>
                <vehicle id="leader" pos="163.10" speed="20.00"/>
            </lane>
        </edge>
    </timestep>
    <timestep time="12.00">
        <edge id="beg">
            <lane id="beg_0">
                <vehicle id="follower" pos="137.95" speed="22.05"/>
                <vehicle id="leader" pos="173.10" speed="20.00"/>
            </lane>
        </edge>
    </timestep>
    <timestep time="12.50">
        <edge id="beg">
            <lane id="beg_0">
                <vehicle id="follower" pos="148.88" speed="21.87"/>
                <vehicle id="leader" pos="183.10" speed="20.00"/>
            </lane>
        </edge>
    </timestep>
    <timestep time="13.00">
        <edge id="beg">
            <lane id="beg_0">
                <vehicle id="follower" pos="159.73" speed="21.70"/>
                <vehicle id="leader" pos="193.10" speed="20.00"/>
            </lane>
        </edge>
    </timestep>
    <timestep time="13.50">
        <edge id="beg">
            <lane id="beg_0">
                <vehicle id="follower" pos="170.51" speed="21.54"/>
                <vehicle id="leader" pos="203.10" speed="20.00"/>
            </lane>
        </edge>
    </timestep>
    <timestep time="14.00">
        <edge id="beg">
            <lane id="beg_0">
                <vehicle id="follower" pos="181.21" speed="21.40"/>
                <vehicle id="leader" pos="213.10" speed="20.00"/>
            </lane>
        </edge>
    </timestep>
    <timestep time="14.50">
        <edge id="beg">
            <lane id="beg_0">
                <vehicle id="follower" pos="191.84" speed="21.28"/>
                <vehicle id="leader" pos="223.10" speed="20.00"/>
            </lane>
        </edge>
    </timestep>
    <timestep time="15.00">
        <edge id="beg">
            <lane id="beg_0">
                <vehicle id="follower" pos="202.42" speed="21.16"/>
                <vehicle id="leader" pos="233.10" speed="20.00"/>
            </lane>
        </edge>
    </timestep>
    <timestep time="15.50">
        <edge id="beg">
            <lane id="beg_0">
                <vehicle id="follower" pos="212.95" speed="21.05"/>
                <vehicle id="leader" pos="243.10" speed="20.00"/>
            </lane>
        </edge>
    </timestep>
    <timestep time="16.00">
        <edge id="beg">
            <lane id="beg_0">
                <vehicle id="follower" pos="223.43" speed="20.96"/>
                <vehicle id="leader" pos="253.10" speed="20.00"/>
            </lane>
        </edge>
    </timestep>
    <timestep time="16.50">
        <edge id="beg">
            <lane id="beg_0">
                <vehicle id="follower" pos="233.87" speed="20.87"/>
                <vehicle id="leader" pos="263.10" speed="20.00"/>
            </lane>
        </edge>
    </timestep>
    <timestep time="17.00">
        <edge id="beg">
            <lane id="beg_0">
                <vehicle id="follower" pos="244.26" speed="20.79"/>
                <vehicle id="leader" pos="273.10" speed="20.00"/>
            </lane>
        </edge>
    </timestep>
    <timestep time="17.50">
        <edge id="beg">
            <lane id="beg_0">
                <vehicle id="follower" pos="254.62" speed="20.72"/>
                <vehicle id="leader" pos="283.10" speed="20.00"/>
            </lane>
        </edge>
    </timestep>
    <timestep time="18.00">
        <edge id="beg">
            <lane id="beg_0">
                <vehicle id="follower" pos="264.95" speed="20.65"/>
                <vehicle id="leader" pos="293.10" speed="20.00"/>
            </lane>
        </edge>
    </timestep>
    <timestep time="18.50">
        <edge id="beg">
            <lane id="beg_0">
                <vehicle id="follower" pos="275.25" speed="20.60"/>
                <vehicle id="leader" pos="303.10" speed="20.00"/>
            </lane>
        </edge>
    </timestep>
    <timestep time="19.00">
        <edge id="beg">
            <lane id="beg_0">
                <vehicle id="follower" pos="285.52" speed="20.54"/>
                <vehicle id="leader" pos="313.10" speed="20.00"/>
            </lane>
        </edge>
    </timestep>
    <timestep time="19.50">
        <edge id="beg">
            <lane id="beg_0">
                <vehicle id="follower" pos="295.76" speed="20.49"/>
                <vehicle id="leader" pos="323.10" speed="20.00"/>
            </lane>
        </edge>
    </timestep>
    <timestep time="20.00">
        <edge id="beg">
            <lane id="beg_0">
                <vehicle id="follower" pos="305.99" speed="20.45"/>
                <vehicle id="leader" pos="333.10" speed="20.00"/>
            </lane>
        </edge>
    </timestep>
    <timestep time="20.50">
        <edge id="beg">
            <lane id="beg_0">
                <vehicle id="follower" pos="316.19" speed="20.41"/>
                <vehicle id="leader" pos="343.10" speed="20.00"/>
            </lane>
        </edge>
    </timestep>
    <timestep time="21.00">
        <edge id="beg">
            <lane id="beg_0">
                <vehicle id="follower" pos="326.38" speed="20.37"/>
                <vehicle id="leader" pos="353.10" speed="20.00"/>
            </lane>
        </edge>
    </timestep>
    <timestep time="21.50">
        <edge id="beg">
            <lane id="beg_0">
                <vehicle id="follower" pos="336.54" speed="20.34"/>
                <vehicle id="leader" pos="363.10" speed="20.00"/>
            </lane>
        </edge>
    </timestep>
    <timestep time="22.00">
        <edge id="beg">
            <lane id="beg_0">
                <vehicle id="follower" pos="346.70" speed="20.31"/>
                <vehicle id="leader" pos="373.10" speed="20.00"/>
            </lane>
        </edge>
    </timestep>
    <timestep time="22.50">
        <edge id="beg">
            <lane id="beg_0">
                <vehicle id="follower" pos="356.84" speed="20.28"/>
                <vehicle id="leader" pos="383.10" speed="20.00"/>
            </lane>
        </edge>
    </timestep>
    <timestep time="23.00">
        <edge id="beg">
            <lane id="beg_0">
                <vehicle id="follower" pos="366.96" speed="20.25"/>
                <vehicle id="leader" pos="393.10" speed="20.00"/>
            </lane>
        </edge>
    </timestep>
    <timestep time="23.50">
        <edge id="beg">
            <lane id="beg_0">
                <vehicle id="follower" pos="377.08" speed="20.23"/>
                <vehicle id="leader" pos="403.10" speed="20.00"/>
            </lane>
        </edge>
    </timestep>
    <timestep time="24.00">
        <edge id="beg">
            <lane id="beg_0">
                <vehicle id="follower" pos="387.18" speed="20.20"/>
                <vehicle id="leader" pos="413.10" speed="20.00"/>
            </lane>
        </edge>
    </timestep>
    <timestep time="24.50">
        <edge id="beg">
            <lane id="beg_0">
                <vehicle id="follower" pos="397.27" speed="20.18"/>
                <vehicle id="leader" pos="423.10" speed="20.00"/>
            </lane>
        </edge>
    </timestep>
    <timestep time="25.00">
        <edge id="beg">
            <lane id="beg_0">
                <vehicle id="follower" pos="407.35" speed="20.17"/>
                <vehicle id="leader" pos="433.10" speed="20.00"/>
            </lane>
        </edge>
    </timestep>
    <timestep time="25.50">
        <edge id="beg">
            <lane id="beg_0">
                <vehicle id="follower" pos="417.43" speed="20.15"/>
                <vehicle id="leader" pos="443.10" speed="20.00"/>
            </lane>
        </edge>
    </timestep>
    <timestep time="26.00">
        <edge id="beg">
            <lane id="beg_0">
                <vehicle id="follower" pos="427.49" speed="20.13"/>
                <vehicle id="leader" pos="453.10" speed="20.00"/>
            </lane>
        </edge>
    </timestep>
    <timestep time="26.50">
        <edge id="beg">
            <lane id="beg_0">
                <vehicle id="follower" pos="437.56" speed="20.12"/>
                <vehicle id="leader" pos="463.10" speed="20.00"/>
            </lane>
        </edge>
    </timestep>
    <timestep time="27.00">
        <edge id="beg">
            <lane id="beg_0">
                <vehicle id="follower" pos="447.61" speed="20.11"/>
                <vehicle id="leader" pos="473.10" speed="20.00"/>
            </lane>
        </edge>
    </timestep>
    <timestep time="27.50">
        <edge id="beg">
            <lane id="beg_0">
                <vehicle id="follower" pos="457.66" speed="20.10"/>
                <vehicle id="leader" pos="483.10" speed="20.00"/>
            </lane>
        </edge>
    </timestep>
    <timestep time="28.00">
        <edge id="beg">
            <lane id="beg_0">
                <vehicle id="follower" pos="467.70" speed="20.09"/>
                <vehicle id="leader" pos="493.10" speed="20.00"/>
            </lane>
        </edge>
    </timestep>
    <timestep time="28.50">
        <edge id="beg">
            <lane id="beg_0">
                <vehicle id="follower" pos="477.74" speed="20.08"/>
            </lane>
        </edge>
        <edge id="middle">
            <lane id="middle_0">
                <vehicle id="leader" pos="3.10" speed="20.00"/>
            </lane>
        </edge>
    </timestep>
    <timestep time="29.00">
        <edge id="beg">
            <lane id="beg_0">
                <vehicle id="follower" pos="487.78" speed="20.07"/>
            </lane>
        </edge>
        <edge id="middle">
            <lane id="middle_0">
                <vehicle id="leader" pos="13.10" speed="20.00"/>
            </lane>
        </edge>
    </timestep>
    <timestep time="29.50">
        <edge id="beg">
            <lane id="beg_0">
                <vehicle id="follower" pos="497.81" speed="20.06"/>
            </lane>
        </edge>
        <edge id="middle">
            <lane id="middle_0">
                <vehicle id="leader" pos="23.10" speed="20.00"/>
            </lane>
        </edge>
    </timestep>
    <timestep time="30.00">
        <edge id="middle">
            <lane id="middle_0">
                <vehicle id="follower" pos="7.84" speed="20.06"/>
                <vehicle id="leader" pos="33.10" speed="20.00"/>
            </lane>
        </edge>
    </timestep>
    <timestep time="30.50">
        <edge id="middle">
            <lane id="middle_0">
                <vehicle id="follower" pos="17.86" speed="20.05"/>
                <vehicle id="leader" pos="43.10" speed="20.00"/>
            </lane>
        </edge>
    </timestep>
    <timestep time="31.00">
        <edge id="middle">
            <lane id="middle_0">
                <vehicle id="follower" pos="27.89" speed="20.05"/>
                <vehicle id="leader" pos="53.10" speed="20.00"/>
            </lane>
        </edge>
    </timestep>
    <timestep time="31.50">
        <edge id="middle">
            <lane id="middle_0">
                <vehicle id="follower" pos="37.91" speed="20.04"/>
                <vehicle id="leader" pos="63.10" speed="20.00"/>
            </lane>
        </edge>
    </timestep>
    <timestep time="32.00">
        <edge id="middle">
            <lane id="middle_0">
                <vehicle id="follower" pos="47.93" speed="20.04"/>
                <vehicle id="leader" pos="73.10" speed="20.00"/>
            </lane>
        </edge>
    </timestep>
    <timestep time="32.50">
        <edge id="middle">
            <lane id="middle_0">
                <vehicle id="follower" pos="57.95" speed="20.03"/>
                <vehicle id="leader" pos="83.10" speed="20.00"/>
            </lane>
        </edge>
    </timestep>
    <timestep time="33.00">
        <edge id="middle">
            <lane id="middle_0">
                <vehicle id="follower" pos="67.96" speed="20.03"/>
                <vehicle id="leader" pos="93.10" speed="20.00"/>
            </lane>
        </edge>
    </timestep>
    <timestep time="33.50">
        <edge id="middle">
            <lane id="middle_0">
                <vehicle id="follower" pos="77.97" speed="20.03"/>
                <vehicle id="leader" pos="103.10" speed="20.00"/>
            </lane>
        </edge>
    </timestep>
    <timestep time="34.00">
        <edge id="middle">
            <lane id="middle_0">
                <vehicle id="follower" pos="87.99" speed="20.02"/>
                <vehicle id="leader" pos="113.10" speed="20.00"/>
            </lane>
        </edge>
    </timestep>
    <timestep time="34.50">
        <edge id="middle">
            <lane id="middle_0">
                <vehicle id="follower" pos="98.00" speed="20.02"/>
                <vehicle id="leader" pos="123.10" speed="20.00"/>
            </lane>
        </edge>
    </timestep>
    <timestep time="35.00">
        <edge id="middle">
            <lane id="middle_0">
                <vehicle id="follower" pos="108.01" speed="20.02"/>
                <vehicle id="leader" pos="133.10" speed="20.00"/>
            </lane>
        </edge>
    </timestep>
    <timestep time="35.50">
        <edge id="middle">
            <lane id="middle_0">
                <vehicle id="follower" pos="118.02" speed="20.02"/>
                <vehicle id="leader" pos="143.10" speed="20.00"/>
            </lane>
        </edge>
    </timestep>
    <timestep time="36.00">
        <edge id="middle">
            <lane id="middle_0">
                <vehicle id="follower" pos="128.03" speed="20.02"/>
                <vehicle id="leader" pos="152.84" speed="19.48"/>
            </lane>
        </edge>
    </timestep>
    <timestep time="36.50">
        <edge id="middle">
            <lane id="middle_0">
                <vehicle id="follower" pos="137.80" speed="19.55"/>
                <vehicle id="leader" pos="161.58" speed="17.48"/>
            </lane>
        </edge>
    </timestep>
    <timestep time="37.00">
        <edge id="middle">
            <lane id="middle_0">
                <vehicle id="follower" pos="146.68" speed="17.77"/>
                <vehicle id="leader" pos="169.34" speed="15.51"/>
            </lane>
        </edge>
    </timestep>
    <timestep time="37.50">
        <edge id="middle">
            <lane id="middle_0">
                <vehicle id="follower" pos="154.69" speed="16.01"/>
                <vehicle id="leader" pos="176.12" speed="13.57"/>
            </lane>
        </edge>
    </timestep>
    <timestep time="38.00">
        <edge id="middle">
            <lane id="middle_0">
                <vehicle id="follower" pos="161.83" speed="14.29"/>
                <vehicle id="leader" pos="181.94" speed="11.64"/>
            </lane>
        </edge>
    </timestep>
    <timestep time="38.50">
        <edge id="middle">
            <lane id="middle_0">
                <vehicle id="follower" pos="168.15" speed="12.63"/>
                <vehicle id="leader" pos="186.83" speed="9.77"/>
            </lane>
        </edge>
    </timestep>
    <timestep time="39.00">
        <edge id="middle">
            <lane id="middle_0">
                <vehicle id="follower" pos="173.69" speed="11.07"/>
                <vehicle id="leader" pos="190.81" speed="7.97"/>
            </lane>
        </edge>
    </timestep>
    <timestep time="39.50">
        <edge id="middle">
            <lane id="middle_0">
                <vehicle id="follower" pos="178.45" speed="9.53"/>
                <vehicle id="leader" pos="193.95" speed="6.28"/>
            </lane>
        </edge>
    </timestep>
    <timestep time="40.00">
        <edge id="middle">
            <lane id="middle_0">
                <vehicle id="follower" pos="182.48" speed="8.06"/>
                <vehicle id="leader" pos="196.31" speed="4.71"/>
            </lane>
        </edge>
    </timestep>
    <timestep time="40.50">
        <edge id="middle">
            <lane id="middle_0">
                <vehicle id="follower" pos="185.86" speed="6.76"/>
                <vehicle id="leader" pos="197.91" speed="3.21"/>
            </lane>
        </edge>
    </timestep>
    <timestep time="41.00">
        <edge id="middle">
            <lane id="middle_0">
                <vehicle id="follower" pos="188.59" speed="5.45"/>
                <vehicle id="leader" pos="198.96" speed="2.09"/>
            </lane>
        </edge>
    </timestep>
    <timestep time="41.50">
        <edge id="middle">
            <lane id="middle_0">
                <vehicle id="follower" pos="190.75" speed="4.33"/>
                <vehicle id="leader" pos="199.48" speed="1.04"/>
            </lane>
        </edge>
    </timestep>
    <timestep time="42.00">
        <edge id="middle">
            <lane id="middle_0">
                <vehicle id="follower" pos="192.37" speed="3.23"/>
                <vehicle id="leader" pos="199.74" speed="0.52"/>
            </lane>
        </edge>
    </timestep>
    <timestep time="42.50">
        <edge id="middle">
            <lane id="middle_0">
                <vehicle id="follower" pos="193.53" speed="2.33"/>
                <vehicle id="leader" pos="199.87" speed="0.26"/>
            </lane>
        </edge>
    </timestep>
    <timestep time="43.00">
        <edge id="middle">
            <lane id="middle_0">
                <vehicle id="follower" pos="194.20" speed="1.33"/>
                <vehicle id="leader" pos="199.87" speed="0.00"/>
            </lane>
        </edge>
    </timestep>
    <timestep time="43.50">
        <edge id="middle">
            <lane id="middle_0">
                <vehicle id="follower" pos="194.53" speed="0.67"/>
                <vehicle id="leader" pos="199.87" speed="0.00"/>
            </lane>
        </edge>
    </timestep>
    <timestep time="44.00">
        <edge id="middle">
            <lane id="middle_0">
                <vehicle id="follower" pos="194.70" speed="0.33"/>
                <vehicle id="leader" pos="199.87" speed="0.00"/>
            </lane>
        </edge>
    </timestep>
    <timestep time="44.50">
        <edge id="middle">
            <lane id="middle_0">
                <vehicle id="follower" pos="194.78" speed="0.17"/>
                <vehicle id="leader" pos="199.87" speed="0.00"/>
            </lane>
        </edge>
    </timestep>
    <timestep time="45.00">
        <edge id="middle">
            <lane id="middle_0">
                <vehicle id="follower" pos="194.83" speed="0.08"/>
                <vehicle id="leader" pos="199.87" speed="0.00"/>
            </lane>
        </edge>
    </timestep>
    <timestep time="45.50">
        <edge id="middle">
            <lane id="middle_0">
                <vehicle id="follower" pos="194.85" speed="0.04"/>
                <vehicle id="leader" pos="199.87" speed="0.00"/>
            </lane>
        </edge>
    </timestep>
    <timestep time="46.00">
        <edge id="middle">
            <lane id="middle_0">
                <vehicle id="follower" pos="194.86" speed="0.02"/>
                <vehicle id="leader" pos="199.87" speed="0.00"/>
            </lane>
        </edge>
    </timestep>
    <timestep time="46.50">
        <edge id="middle">
            <lane id="middle_0">
                <vehicle id="follower" pos="194.86" speed="0.01"/>
                <vehicle id="leader" pos="199.87" speed="0.00"/>
            </lane>
        </edge>
    </timestep>
    <timestep time="47.00">
        <edge id="middle">
            <lane id="middle_0">
                <vehicle id="follower" pos="194.87" speed="0.01"/>
                <vehicle id="leader" pos="199.87" speed="0.00"/>
            </lane>
        </edge>
    </timestep>
    <timestep time="47.50">
        <edge id="middle">
            <lane id="middle_0">
                <vehicle id="follower" pos="194.87" speed="0.00"/>
                <vehicle id="leader" pos="199.87" speed="0.00"/>
            </lane>
        </edge>
    </timestep>
    <timestep time="48.00">
        <edge id="middle">
            <lane id="middle_0">
                <vehicle id="follower" pos="194.87" speed="0.00"/>
                <vehicle id="leader" pos="199.93" speed="0.13"/>
            </lane>
        </edge>
    </timestep>
    <timestep time="48.50">
        <edge id="middle">
            <lane id="middle_0">
                <vehicle id="follower" pos="194.90" speed="0.07"/>
                <vehicle id="leader" pos="200.65" speed="1.43"/>
            </lane>
        </edge>
    </timestep>
    <timestep time="49.00">
        <edge id="middle">
            <lane id="middle_0">
                <vehicle id="follower" pos="195.27" speed="0.75"/>
                <vehicle id="leader" pos="202.01" speed="2.73"/>
            </lane>
        </edge>
    </timestep>
    <timestep time="49.50">
        <edge id="middle">
            <lane id="middle_0">
                <vehicle id="follower" pos="196.26" speed="1.98"/>
                <vehicle id="leader" pos="204.03" speed="4.03"/>
            </lane>
        </edge>
    </timestep>
    <timestep time="50.00">
        <edge id="middle">
            <lane id="middle_0">
                <vehicle id="follower" pos="197.86" speed="3.19"/>
                <vehicle id="leader" pos="206.69" speed="5.33"/>
            </lane>
        </edge>
    </timestep>
    <timestep time="50.50">
        <edge id="middle">
            <lane id="middle_0">
                <vehicle id="follower" pos="200.10" speed="4.49"/>
                <vehicle id="leader" pos="210.01" speed="6.63"/>
            </lane>
        </edge>
    </timestep>
    <timestep time="51.00">
        <edge id="middle">
            <lane id="middle_0">
                <vehicle id="follower" pos="202.98" speed="5.77"/>
                <vehicle id="leader" pos="213.97" speed="7.93"/>
            </lane>
        </edge>
    </timestep>
    <timestep time="51.50">
        <edge id="middle">
            <lane id="middle_0">
                <vehicle id="follower" pos="206.52" speed="7.07"/>
                <vehicle id="leader" pos="218.59" speed="9.23"/>
            </lane>
        </edge>
    </timestep>
    <timestep time="52.00">
        <edge id="middle">
            <lane id="middle_0">
                <vehicle id="follower" pos="210.70" speed="8.37"/>
                <vehicle id="leader" pos="223.86" speed="10.53"/>
            </lane>
        </edge>
    </timestep>
    <timestep time="52.50">
        <edge id="middle">
            <lane id="middle_0">
                <vehicle id="follower" pos="215.54" speed="9.67"/>
                <vehicle id="leader" pos="229.77" speed="11.83"/>
            </lane>
        </edge>
    </timestep>
    <timestep time="53.00">
        <edge id="middle">
            <lane id="middle_0">
                <vehicle id="follower" pos="221.02" speed="10.97"/>
                <vehicle id="leader" pos="236.34" speed="13.13"/>
            </lane>
        </edge>
    </timestep>
    <timestep time="53.50">
        <edge id="middle">
            <lane id="middle_0">
                <vehicle id="follower" pos="227.16" speed="12.27"/>
                <vehicle id="leader" pos="243.55" speed="14.43"/>