<?xml version="1.0" encoding="UTF-8"?>

<!-- generated on 2025-11-18T16:33:51.700271+01:00 by Eclipse SUMO sumo v1_25_0+0086-b1f02afa5bd
This data file and the accompanying materials
are made available under the terms of the Eclipse Public License v2.0
which accompanies this distribution, and is available at
http://www.eclipse.org/legal/epl-v20.html
This file may also be made available under the following Secondary
Licenses when the conditions for such availability set forth in the Eclipse
Public License 2.0 are satisfied: GNU General Public License, version 2
or later which is available at
https://www.gnu.org/licenses/old-licenses/gpl-2.0-standalone.html
SPDX-License-Identifier: EPL-2.0 OR GPL-2.0-or-later
<sumoConfiguration xmlns:xsi="http://www.w3.org/2001/XMLSchema-instance" xsi:noNamespaceSchemaLocation="http://sumo.dlr.de/xsd/sumoConfiguration.xsd">

    <input>
        <net-file value="net.net.xml"/>
        <route-files value="input_routes.rou.xml"/>
        <additional-files value="input_additional.add.xml,input_additional2.add.xml"/>
    </input>

    <output>
        <write-license value="true"/>
        <tripinfo-output.write-unfinished value="true"/>
    </output>

    <time>
        <begin value="0"/>
        <end value="3000"/>
        <step-length value="0.25"/>
    </time>

    <processing>
        <default.speeddev value="0"/>
    </processing>

    <report>
        <xml-validation value="never"/>
        <duration-log.statistics value="true"/>
        <no-step-log value="true"/>
    </report>

</sumoConfiguration>
-->

<meandata xmlns:xsi="http://www.w3.org/2001/XMLSchema-instance" xsi:noNamespaceSchemaLocation="http://sumo.dlr.de/xsd/meandata_file.xsd">
    <interval begin="0.00" end="60.00" id="dump_60">
        <edge id="1/1to2/1" sampledSeconds="1002.87" traveltime="274.63" overlapTraveltime="268.27" density="16.86" overlapDensity="17.06" laneDensity="16.86" occupancy="8.48" waitingTime="595.50" timeLoss="815.02" speed="3.67" speedRelative="0.19" departed="60" arrived="0" entered="0" left="29" laneChangedFrom="0" laneChangedTo="0" flow="216.56"/>
        <edge id="2/1to3/1" sampledSeconds="808.88" traveltime="51.95" overlapTraveltime="52.21" density="13.74" overlapDensity="13.76" laneDensity="13.74" occupancy="6.83" waitingTime="0.00" timeLoss="30.40" speed="18.86" speedRelative="0.96" departed="0" arrived="0" entered="29" left="3" laneChangedFrom="0" laneChangedTo="0" flow="933.32"/>
        <edge id="3/1to4/1" sampledSeconds="7.79" traveltime="50.00" overlapTraveltime="50.25" density="0.13" overlapDensity="0.13" laneDensity="0.13" occupancy="0.06" waitingTime="0.00" timeLoss="0.00" speed="19.60" speedRelative="1.00" departed="0" arrived="0" entered="3" left="0" laneChangedFrom="0" laneChangedTo="0" flow="9.35"/>
    </interval>
    <interval begin="60.00" end="120.00" id="dump_60">
        <edge id="1/1to2/1" sampledSeconds="2779.46" traveltime="233.10" overlapTraveltime="231.97" density="47.14" overlapDensity="47.27" laneDensity="47.14" occupancy="23.60" waitingTime="1901.00" timeLoss="2177.34" speed="4.25" speedRelative="0.22" departed="60" arrived="0" entered="0" left="30" laneChangedFrom="0" laneChangedTo="0" flow="713.41"/>
        <edge id="2/1to3/1" sampledSeconds="1584.00" traveltime="51.61" overlapTraveltime="51.87" density="26.81" overlapDensity="26.94" laneDensity="26.81" occupancy="13.40" waitingTime="0.00" timeLoss="49.51" speed="18.99" speedRelative="0.97" departed="0" arrived="0" entered="30" left="30" laneChangedFrom="0" laneChangedTo="0" flow="1832.32"/>
        <edge id="3/1to4/1" sampledSeconds="1000.24" traveltime="50.42" overlapTraveltime="50.68" density="16.98" overlapDensity="17.01" laneDensity="16.98" occupancy="8.46" waitingTime="0.00" timeLoss="8.45" speed="19.43" speedRelative="0.99" departed="0" arrived="0" entered="30" left="8" laneChangedFrom="0" laneChangedTo="0" flow="1187.82"/>
        <edge id="4/1to5/1" sampledSeconds="58.25" traveltime="50.00" overlapTraveltime="50.25" density="0.99" overlapDensity="0.99" laneDensity="0.99" occupancy="0.49" waitingTime="0.00" timeLoss="0.00" speed="19.60" speedRelative="1.00" departed="0" arrived="0" entered="8" left="0" laneChangedFrom="0" laneChangedTo="0" flow="69.91"/>
    </interval>
    <interval begin="120.00" end="180.00" id="dump_60">
        <edge id="1/1to2/1" sampledSeconds="3690.77" traveltime="181.44" overlapTraveltime="181.36" density="62.63" overlapDensity="62.77" laneDensity="62.63" occupancy="31.13" waitingTime="2375.50" timeLoss="2668.10" speed="5.43" speedRelative="0.28" departed="19" arrived="0" entered="0" left="31" laneChangedFrom="0" laneChangedTo="0" flow="1217.79"/>
        <edge id="2/1to3/1" sampledSeconds="1592.09" traveltime="51.74" overlapTraveltime="52.01" density="26.94" overlapDensity="27.08" laneDensity="26.94" occupancy="13.47" waitingTime="0.00" timeLoss="53.69" speed="18.94" speedRelative="0.97" departed="0" arrived="0" entered="31" left="31" laneChangedFrom="0" laneChangedTo="0" flow="1836.89"/>
        <edge id="3/1to4/1" sampledSeconds="1564.64" traveltime="51.44" overlapTraveltime="51.70" density="26.48" overlapDensity="26.61" laneDensity="26.48" occupancy="13.24" waitingTime="0.00" timeLoss="43.71" speed="19.05" speedRelative="0.97" departed="0" arrived="0" entered="30" left="29" laneChangedFrom="0" laneChangedTo="0" flow="1816.29"/>
        <edge id="4/1to5/1" sampledSeconds="1171.32" traveltime="50.04" overlapTraveltime="50.30" density="19.87" overlapDensity="19.92" laneDensity="19.87" occupancy="9.92" waitingTime="0.00" timeLoss="1.07" speed="19.58" speedRelative="1.00" departed="0" arrived="0" entered="29" left="12" laneChangedFrom="0" laneChangedTo="0" flow="1400.72"/>
        <edge id="5/1to6/1" sampledSeconds="155.98" traveltime="50.00" overlapTraveltime="50.25" density="2.65" overlapDensity="2.65" laneDensity="2.65" occupancy="1.31" waitingTime="0.00" timeLoss="0.00" speed="19.60" speedRelative="1.00" departed="0" arrived="0" entered="12" left="0" laneChangedFrom="0" laneChangedTo="0" flow="187.19"/>
    </interval>
    <interval begin="180.00" end="240.00" id="dump_60">
        <edge id="1/1to2/1" sampledSeconds="2120.44" traveltime="74.97" overlapTraveltime="75.23" density="35.92" overlapDensity="36.06" laneDensity="35.92" occupancy="17.73" waitingTime="439.25" timeLoss="703.94" speed="13.09" speedRelative="0.67" departed="9" arrived="0" entered="0" left="31" laneChangedFrom="0" laneChangedTo="0" flow="1690.41"/>
        <edge id="2/1to3/1" sampledSeconds="1594.03" traveltime="51.77" overlapTraveltime="52.04" density="26.97" overlapDensity="27.11" laneDensity="26.97" occupancy="13.49" waitingTime="0.00" timeLoss="54.72" speed="18.93" speedRelative="0.97" departed="0" arrived="0" entered="31" left="30" laneChangedFrom="0" laneChangedTo="0" flow="1837.90"/>
        <edge id="3/1to4/1" sampledSeconds="1591.12" traveltime="51.75" overlapTraveltime="52.02" density="26.92" overlapDensity="27.06" laneDensity="26.92" occupancy="13.46" waitingTime="0.00" timeLoss="53.99" speed="18.93" speedRelative="0.97" departed="0" arrived="0" entered="31" left="31" laneChangedFrom="0" laneChangedTo="0" flow="1835.17"/>
        <edge id="4/1to5/1" sampledSeconds="1529.44" traveltime="50.89" overlapTraveltime="51.14" density="25.89" overlapDensity="26.01" laneDensity="25.89" occupancy="12.94" waitingTime="0.00" timeLoss="26.65" speed="19.26" speedRelative="0.98" departed="0" arrived="0" entered="31" left="29" laneChangedFrom="0" laneChangedTo="0" flow="1794.58"/>
        <edge id="5/1to6/1" sampledSeconds="1309.96" traveltime="50.00" overlapTraveltime="50.25" density="22.21" overlapDensity="22.28" laneDensity="22.21" occupancy="11.09" waitingTime="0.00" timeLoss="0.00" speed="19.60" speedRelative="1.00" departed="0" arrived="0" entered="29" left="17" laneChangedFrom="0" laneChangedTo="0" flow="1566.85"/>
        <edge id="6/1to7/1" sampledSeconds="300.60" traveltime="50.00" overlapTraveltime="50.25" density="5.11" overlapDensity="5.11" laneDensity="5.11" occupancy="2.54" waitingTime="0.00" timeLoss="0.00" speed="19.60" speedRelative="1.00" departed="0" arrived="0" entered="17" left="0" laneChangedFrom="0" laneChangedTo="0" flow="360.74"/>
    </interval>
    <interval begin="240.00" end="300.00" id="dump_60">
        <edge id="1/1to2/1" sampledSeconds="1420.63" traveltime="55.01" overlapTraveltime="55.27" density="24.03" overlapDensity="24.16" laneDensity="24.03" occupancy="11.82" waitingTime="0.00" timeLoss="128.90" speed="17.82" speedRelative="0.91" departed="23" arrived="0" entered="0" left="29" laneChangedFrom="0" laneChangedTo="0" flow="1541.32"/>
        <edge id="2/1to3/1" sampledSeconds="1581.77" traveltime="51.66" overlapTraveltime="51.92" density="26.76" overlapDensity="26.90" laneDensity="26.76" occupancy="13.38" waitingTime="0.00" timeLoss="50.90" speed="18.97" speedRelative="0.97" departed="0" arrived="0" entered="29" left="31" laneChangedFrom="0" laneChangedTo="0" flow="1827.68"/>
        <edge id="3/1to4/1" sampledSeconds="1595.61" traveltime="51.78" overlapTraveltime="52.05" density="27.00" overlapDensity="27.14" laneDensity="27.00" occupancy="13.50" waitingTime="0.00" timeLoss="54.99" speed="18.92" speedRelative="0.97" departed="0" arrived="0" entered="31" left="30" laneChangedFrom="0" laneChangedTo="0" flow="1839.67"/>
        <edge id="4/1to5/1" sampledSeconds="1584.11" traveltime="51.64" overlapTraveltime="51.91" density="26.80" overlapDensity="26.94" laneDensity="26.80" occupancy="13.40" waitingTime="0.00" timeLoss="50.57" speed="18.97" speedRelative="0.97" departed="0" arrived="0" entered="30" left="31" laneChangedFrom="0" laneChangedTo="0" flow="1830.88"/>
        <edge id="5/1to6/1" sampledSeconds="1497.15" traveltime="50.51" overlapTraveltime="50.77" density="25.34" overlapDensity="25.46" laneDensity="25.34" occupancy="12.67" waitingTime="0.00" timeLoss="15.14" speed="19.40" speedRelative="0.99" departed="0" arrived="0" entered="31" left="29" laneChangedFrom="0" laneChangedTo="0" flow="1769.64"/>
        <edge id="6/1to7/1" sampledSeconds="1405.07" traveltime="50.00" overlapTraveltime="50.25" density="23.80" overlapDensity="23.90" laneDensity="23.80" occupancy="11.89" waitingTime="0.00" timeLoss="0.00" speed="19.60" speedRelative="1.00" departed="0" arrived="0" entered="29" left="22" laneChangedFrom="0" laneChangedTo="0" flow="1679.46"/>
        <edge id="7/1to8/1" sampledSeconds="492.06" traveltime="50.00" overlapTraveltime="50.25" density="8.37" overlapDensity="8.37" laneDensity="8.37" occupancy="4.16" waitingTime="0.00" timeLoss="0.00" speed="19.60" speedRelative="1.00" departed="0" arrived="0" entered="22" left="0" laneChangedFrom="0" laneChangedTo="0" flow="590.51"/>
    </interval>
    <interval begin="300.00" end="360.00" id="dump_60">
        <edge id="1/1to2/1" sampledSeconds="1298.12" traveltime="54.77" overlapTraveltime="55.03" density="21.98" overlapDensity="22.08" laneDensity="21.98" occupancy="10.80" waitingTime="0.00" timeLoss="112.65" speed="17.90" speedRelative="0.91" departed="24" arrived="0" entered="0" left="23" laneChangedFrom="0" laneChangedTo="0" flow="1415.58"/>
        <edge id="2/1to3/1" sampledSeconds="1295.59" traveltime="50.54" overlapTraveltime="50.80" density="21.91" overlapDensity="22.04" laneDensity="21.91" occupancy="10.96" waitingTime="0.00" timeLoss="14.01" speed="19.39" speedRelative="0.99" departed="0" arrived="0" entered="23" left="28" laneChangedFrom="0" laneChangedTo="0" flow="1529.41"/>
        <edge id="3/1to4/1" sampledSeconds="1579.65" traveltime="51.74" overlapTraveltime="52.00" density="26.73" overlapDensity="26.87" laneDensity="26.73" occupancy="13.37" waitingTime="0.00" timeLoss="53.11" speed="18.94" speedRelative="0.97" departed="0" arrived="0" entered="28" left="31" laneChangedFrom="0" laneChangedTo="0" flow="1822.46"/>
        <edge id="4/1to5/1" sampledSeconds="1597.39" traveltime="51.77" overlapTraveltime="52.04" density="27.03" overlapDensity="27.17" laneDensity="27.03" occupancy="13.52" waitingTime="0.00" timeLoss="54.82" speed="18.93" speedRelative="0.97" departed="0" arrived="0" entered="31" left="30" laneChangedFrom="0" laneChangedTo="0" flow="1842.01"/>
        <edge id="5/1to6/1" sampledSeconds="1568.55" traveltime="51.49" overlapTraveltime="51.75" density="26.55" overlapDensity="26.68" laneDensity="26.55" occupancy="13.27" waitingTime="0.00" timeLoss="45.31" speed="19.03" speedRelative="0.97" departed="0" arrived="0" entered="30" left="30" laneChangedFrom="0" laneChangedTo="0" flow="1818.81"/>
        <edge id="6/1to7/1" sampledSeconds="1472.27" traveltime="50.19" overlapTraveltime="50.44" density="24.91" overlapDensity="25.04" laneDensity="24.91" occupancy="12.46" waitingTime="0.00" timeLoss="5.56" speed="19.53" speedRelative="1.00" departed="0" arrived="0" entered="30" left="29" laneChangedFrom="0" laneChangedTo="0" flow="1751.28"/>
        <edge id="7/1to8/1" sampledSeconds="1453.35" traveltime="50.00" overlapTraveltime="50.25" density="24.60" overlapDensity="24.72" laneDensity="24.60" occupancy="12.30" waitingTime="0.00" timeLoss="0.00" speed="19.60" speedRelative="1.00" departed="0" arrived="0" entered="29" left="27" laneChangedFrom="0" laneChangedTo="0" flow="1735.86"/>
        <edge id="8/1to9/1" sampledSeconds="725.12" traveltime="50.00" overlapTraveltime="50.25" density="12.32" overlapDensity="12.33" laneDensity="12.32" occupancy="6.13" waitingTime="0.00" timeLoss="0.00" speed="19.60" speedRelative="1.00" departed="0" arrived="0" entered="27" left="2" laneChangedFrom="0" laneChangedTo="0" flow="869.59"/>
        <edge id="9/1to10/1" sampledSeconds="5.44" traveltime="50.00" overlapTraveltime="50.25" density="0.09" overlapDensity="0.09" laneDensity="0.09" occupancy="0.04" waitingTime="0.00" timeLoss="0.00" speed="19.60" speedRelative="1.00" departed="0" arrived="0" entered="2" left="0" laneChangedFrom="0" laneChangedTo="0" flow="6.53"/>
    </interval>
    <interval begin="360.00" end="420.00" id="dump_60">
        <edge id="1/1to2/1" sampledSeconds="1298.81" traveltime="54.78" overlapTraveltime="55.04" density="21.99" overlapDensity="22.09" laneDensity="21.99" occupancy="10.80" waitingTime="0.00" timeLoss="112.94" speed="17.90" speedRelative="0.91" departed="23" arrived="0" entered="0" left="24" laneChangedFrom="0" laneChangedTo="0" flow="1415.78"/>
        <edge id="10/1to1/1" sampledSeconds="51.84" traveltime="50.00" overlapTraveltime="50.25" density="0.88" overlapDensity="0.88" laneDensity="0.88" occupancy="0.43" waitingTime="0.00" timeLoss="0.00" speed="19.60" speedRelative="1.00" departed="0" arrived="0" entered="7" left="0" laneChangedFrom="0" laneChangedTo="0" flow="62.21"/>
        <edge id="2/1to3/1" sampledSeconds="1186.15" traveltime="50.00" overlapTraveltime="50.25" density="20.07" overlapDensity="20.17" laneDensity="20.07" occupancy="10.03" waitingTime="0.00" timeLoss="0.00" speed="19.60" speedRelative="1.00" departed="0" arrived="0" entered="24" left="24" laneChangedFrom="0" laneChangedTo="0" flow="1416.12"/>
        <edge id="3/1to4/1" sampledSeconds="1286.64" traveltime="50.53" overlapTraveltime="50.79" density="21.76" overlapDensity="21.88" laneDensity="21.76" occupancy="10.88" waitingTime="0.00" timeLoss="13.75" speed="19.39" speedRelative="0.99" departed="0" arrived="0" entered="24" left="28" laneChangedFrom="0" laneChangedTo="0" flow="1518.99"/>
        <edge id="4/1to5/1" sampledSeconds="1571.91" traveltime="51.62" overlapTraveltime="51.88" density="26.59" overlapDensity="26.73" laneDensity="26.59" occupancy="13.30" waitingTime="0.00" timeLoss="49.37" speed="18.98" speedRelative="0.97" departed="0" arrived="0" entered="28" left="31" laneChangedFrom="0" laneChangedTo="0" flow="1817.68"/>
        <edge id="5/1to6/1" sampledSeconds="1597.77" traveltime="51.68" overlapTraveltime="51.95" density="27.04" overlapDensity="27.17" laneDensity="27.04" occupancy="13.52" waitingTime="0.00" timeLoss="52.09" speed="18.96" speedRelative="0.97" departed="0" arrived="0" entered="31" left="30" laneChangedFrom="0" laneChangedTo="0" flow="1845.75"/>
        <edge id="6/1to7/1" sampledSeconds="1543.21" traveltime="51.21" overlapTraveltime="51.46" density="26.12" overlapDensity="26.25" laneDensity="26.12" occupancy="13.06" waitingTime="0.00" timeLoss="36.28" speed="19.14" speedRelative="0.98" departed="0" arrived="0" entered="30" left="29" laneChangedFrom="0" laneChangedTo="0" flow="1799.55"/>
        <edge id="7/1to8/1" sampledSeconds="1460.35" traveltime="50.01" overlapTraveltime="50.26" density="24.71" overlapDensity="24.84" laneDensity="24.71" occupancy="12.36" waitingTime="0.00" timeLoss="0.28" speed="19.60" speedRelative="1.00" departed="0" arrived="0" entered="29" left="29" laneChangedFrom="0" laneChangedTo="0" flow="1743.32"/>
        <edge id="8/1to9/1" sampledSeconds="1459.65" traveltime="50.00" overlapTraveltime="50.25" density="24.70" overlapDensity="24.83" laneDensity="24.70" occupancy="12.35" waitingTime="0.00" timeLoss="0.00" speed="19.60" speedRelative="1.00" departed="0" arrived="0" entered="29" left="29" laneChangedFrom="0" laneChangedTo="0" flow="1742.81"/>
        <edge id="9/1to10/1" sampledSeconds="959.21" traveltime="50.00" overlapTraveltime="50.25" density="16.28" overlapDensity="16.31" laneDensity="16.28" occupancy="8.12" waitingTime="0.00" timeLoss="0.00" speed="19.60" speedRelative="1.00" departed="0" arrived="0" entered="29" left="7" laneChangedFrom="0" laneChangedTo="0" flow="1148.98"/>
    </interval>
    <interval begin="420.00" end="480.00" id="dump_60">
        <edge id="1/1to2/1" sampledSeconds="1296.44" traveltime="53.70" overlapTraveltime="53.95" density="21.95" overlapDensity="22.05" laneDensity="21.95" occupancy="10.84" waitingTime="0.00" timeLoss="88.89" speed="18.26" speedRelative="0.93" departed="15" arrived="0" entered="10" left="23" laneChangedFrom="0" laneChangedTo="0" flow="1442.11"/>
        <edge id="10/1to1/1" sampledSeconds="1198.36" traveltime="52.23" overlapTraveltime="52.57" density="20.31" overlapDensity="20.38" laneDensity="20.31" occupancy="10.14" waitingTime="0.00" timeLoss="52.86" speed="18.74" speedRelative="0.96" departed="0" arrived="0" entered="29" left="10" laneChangedFrom="0" laneChangedTo="0" flow="1371.63"/>
        <edge id="2/1to3/1" sampledSeconds="1186.90" traveltime="50.00" overlapTraveltime="50.25" density="20.08" overlapDensity="20.19" laneDensity="20.08" occupancy="10.04" waitingTime="0.00" timeLoss="0.00" speed="19.60" speedRelative="1.00" departed="0" arrived="0" entered="23" left="24" laneChangedFrom="0" laneChangedTo="0" flow="1417.02"/>
        <edge id="3/1to4/1" sampledSeconds="1186.15" traveltime="50.00" overlapTraveltime="50.25" density="20.07" overlapDensity="20.17" laneDensity="20.07" occupancy="10.03" waitingTime="0.00" timeLoss="0.00" speed="19.60" speedRelative="1.00" departed="0" arrived="0" entered="24" left="24" laneChangedFrom="0" laneChangedTo="0" flow="1416.12"/>
        <edge id="4/1to5/1" sampledSeconds="1274.94" traveltime="50.48" overlapTraveltime="50.74" density="21.56" overlapDensity="21.68" laneDensity="21.56" occupancy="10.78" waitingTime="0.00" timeLoss="12.31" speed="19.41" speedRelative="0.99" departed="0" arrived="0" entered="24" left="28" laneChangedFrom="0" laneChangedTo="0" flow="1506.67"/>
        <edge id="5/1to6/1" sampledSeconds="1563.91" traveltime="51.57" overlapTraveltime="51.84" density="26.46" overlapDensity="26.60" laneDensity="26.46" occupancy="13.23" waitingTime="0.00" timeLoss="47.77" speed="19.00" speedRelative="0.97" departed="0" arrived="0" entered="28" left="31" laneChangedFrom="0" laneChangedTo="0" flow="1809.99"/>
        <edge id="6/1to7/1" sampledSeconds="1601.51" traveltime="51.72" overlapTraveltime="51.98" density="27.10" overlapDensity="27.24" laneDensity="27.10" occupancy="13.55" waitingTime="0.00" timeLoss="53.32" speed="18.95" speedRelative="0.97" departed="0" arrived="0" entered="31" left="31" laneChangedFrom="0" laneChangedTo="0" flow="1848.45"/>
        <edge id="7/1to8/1" sampledSeconds="1506.29" traveltime="50.67" overlapTraveltime="50.92" density="25.49" overlapDensity="25.62" laneDensity="25.49" occupancy="12.74" waitingTime="0.00" timeLoss="19.90" speed="19.34" speedRelative="0.99" departed="0" arrived="0" entered="31" left="29" laneChangedFrom="0" laneChangedTo="0" flow="1774.90"/>
        <edge id="8/1to9/1" sampledSeconds="1459.77" traveltime="50.01" overlapTraveltime="50.27" density="24.70" overlapDensity="24.83" laneDensity="24.70" occupancy="12.35" waitingTime="0.00" timeLoss="0.41" speed="19.59" speedRelative="1.00" departed="0" arrived="0" entered="29" left="29" laneChangedFrom="0" laneChangedTo="0" flow="1742.46"/>
        <edge id="9/1to10/1" sampledSeconds="1459.65" traveltime="50.02" overlapTraveltime="50.27" density="24.70" overlapDensity="24.83" laneDensity="24.70" occupancy="12.35" waitingTime="0.00" timeLoss="0.59" speed="19.59" speedRelative="1.00" departed="0" arrived="0" entered="29" left="29" laneChangedFrom="0" laneChangedTo="0" flow="1742.10"/>
    </interval>
    <interval begin="480.00" end="540.00" id="dump_60">
        <edge id="1/1to2/1" sampledSeconds="1533.43" traveltime="51.68" overlapTraveltime="51.94" density="25.96" overlapDensity="26.08" laneDensity="25.96" occupancy="12.97" waitingTime="0.00" timeLoss="49.81" speed="18.96" speedRelative="0.97" departed="0" arrived="0" entered="30" left="27" laneChangedFrom="0" laneChangedTo="0" flow="1772.19"/>
        <edge id="10/1to1/1" sampledSeconds="1522.14" traveltime="52.01" overlapTraveltime="52.33" density="25.73" overlapDensity="25.89" laneDensity="25.73" occupancy="12.87" waitingTime="0.00" timeLoss="60.34" speed="18.82" speedRelative="0.96" departed="0" arrived="0" entered="29" left="31" laneChangedFrom="0" laneChangedTo="0" flow="1744.95"/>
        <edge id="2/1to3/1" sampledSeconds="1225.40" traveltime="50.01" overlapTraveltime="50.26" density="20.74" overlapDensity="20.84" laneDensity="20.74" occupancy="10.37" waitingTime="0.00" timeLoss="0.26" speed="19.60" speedRelative="1.00" departed="0" arrived="0" entered="27" left="23" laneChangedFrom="0" laneChangedTo="0" flow="1463.22"/>
        <edge id="3/1to4/1" sampledSeconds="1187.39" traveltime="50.00" overlapTraveltime="50.25" density="20.09" overlapDensity="20.19" laneDensity="20.09" occupancy="10.05" waitingTime="0.00" timeLoss="0.00" speed="19.60" speedRelative="1.00" departed="0" arrived="0" entered="23" left="24" laneChangedFrom="0" laneChangedTo="0" flow="1417.69"/>
        <edge id="4/1to5/1" sampledSeconds="1186.15" traveltime="50.00" overlapTraveltime="50.25" density="20.07" overlapDensity="20.17" laneDensity="20.07" occupancy="10.04" waitingTime="0.00" timeLoss="0.00" speed="19.60" speedRelative="1.00" departed="0" arrived="0" entered="24" left="24" laneChangedFrom="0" laneChangedTo="0" flow="1416.12"/>
        <edge id="5/1to6/1" sampledSeconds="1264.74" traveltime="50.42" overlapTraveltime="50.68" density="21.39" overlapDensity="21.51" laneDensity="21.39" occupancy="10.70" waitingTime="0.00" timeLoss="10.63" speed="19.44" speedRelative="0.99" departed="0" arrived="0" entered="24" left="28" laneChangedFrom="0" laneChangedTo="0" flow="1496.45"/>
        <edge id="6/1to7/1" sampledSeconds="1557.31" traveltime="51.65" overlapTraveltime="51.92" density="26.35" overlapDensity="26.49" laneDensity="26.35" occupancy="13.18" waitingTime="0.00" timeLoss="49.94" speed="18.97" speedRelative="0.97" departed="0" arrived="0" entered="28" left="30" laneChangedFrom="0" laneChangedTo="0" flow="1799.78"/>
        <edge id="7/1to8/1" sampledSeconds="1595.14" traveltime="51.67" overlapTraveltime="51.94" density="27.00" overlapDensity="27.13" laneDensity="27.00" occupancy="13.50" waitingTime="0.00" timeLoss="51.73" speed="18.96" speedRelative="0.97" departed="0" arrived="0" entered="30" left="30" laneChangedFrom="0" laneChangedTo="0" flow="1843.02"/>
        <edge id="8/1to9/1" sampledSeconds="1476.83" traveltime="50.26" overlapTraveltime="50.51" density="24.99" overlapDensity="25.12" laneDensity="24.99" occupancy="12.49" waitingTime="0.00" timeLoss="7.69" speed="19.50" speedRelative="0.99" departed="0" arrived="0" entered="30" left="30" laneChangedFrom="0" laneChangedTo="0" flow="1754.20"/>
        <edge id="9/1to10/1" sampledSeconds="1459.88" traveltime="50.05" overlapTraveltime="50.31" density="24.70" overlapDensity="24.83" laneDensity="24.70" occupancy="12.35" waitingTime="0.00" timeLoss="1.55" speed="19.58" speedRelative="1.00" departed="0" arrived="0" entered="29" left="29" laneChangedFrom="0" laneChangedTo="0" flow="1741.22"/>
    </interval>
    <interval begin="540.00" end="600.00" id="dump_60">
        <edge id="1/1to2/1" sampledSeconds="1559.90" traveltime="51.58" overlapTraveltime="51.85" density="26.39" overlapDensity="26.53" laneDensity="26.39" occupancy="13.20" waitingTime="0.00" timeLoss="47.94" speed="19.00" speedRelative="0.97" departed="0" arrived="0" entered="30" left="31" laneChangedFrom="0" laneChangedTo="0" flow="1805.15"/>
        <edge id="10/1to1/1" sampledSeconds="1468.94" traveltime="50.26" overlapTraveltime="50.52" density="24.85" overlapDensity="24.98" laneDensity="24.85" occupancy="12.43" waitingTime="0.00" timeLoss="7.77" speed="19.50" speedRelative="0.99" departed="0" arrived="0" entered="29" left="29" laneChangedFrom="0" laneChangedTo="0" flow="1744.47"/>
        <edge id="2/1to3/1" sampledSeconds="1508.83" traveltime="50.91" overlapTraveltime="51.17" density="25.54" overlapDensity="25.66" laneDensity="25.54" occupancy="12.77" waitingTime="0.00" timeLoss="27.03" speed="19.25" speedRelative="0.98" departed="0" arrived="0" entered="30" left="27" laneChangedFrom="0" laneChangedTo="0" flow="1770.01"/>
        <edge id="3/1to4/1" sampledSeconds="1254.60" traveltime="50.00" overlapTraveltime="50.25" density="21.24" overlapDensity="21.34" laneDensity="21.24" occupancy="10.61" waitingTime="0.00" timeLoss="0.00" speed="19.60" speedRelative="1.00" departed="0" arrived="0" entered="27" left="23" laneChangedFrom="0" laneChangedTo="0" flow="1498.48"/>
        <edge id="4/1to5/1" sampledSeconds="1187.21" traveltime="50.00" overlapTraveltime="50.25" density="20.09" overlapDensity="20.19" laneDensity="20.09" occupancy="10.05" waitingTime="0.00" timeLoss="0.00" speed="19.60" speedRelative="1.00" departed="0" arrived="0" entered="23" left="23" laneChangedFrom="0" laneChangedTo="0" flow="1417.70"/>
        <edge id="5/1to6/1" sampledSeconds="1186.50" traveltime="50.00" overlapTraveltime="50.25" density="20.08" overlapDensity="20.18" laneDensity="20.08" occupancy="10.04" waitingTime="0.00" timeLoss="0.00" speed="19.60" speedRelative="1.00" departed="0" arrived="0" entered="23" left="24" laneChangedFrom="0" laneChangedTo="0" flow="1416.54"/>
        <edge id="6/1to7/1" sampledSeconds="1255.59" traveltime="50.35" overlapTraveltime="50.61" density="21.23" overlapDensity="21.35" laneDensity="21.23" occupancy="10.62" waitingTime="0.00" timeLoss="8.81" speed="19.46" speedRelative="0.99" departed="0" arrived="0" entered="24" left="28" laneChangedFrom="0" laneChangedTo="0" flow="1487.66"/>
        <edge id="7/1to8/1" sampledSeconds="1550.15" traveltime="51.59" overlapTraveltime="51.85" density="26.23" overlapDensity="26.36" laneDensity="26.23" occupancy="13.12" waitingTime="0.00" timeLoss="47.84" speed="19.00" speedRelative="0.97" departed="0" arrived="0" entered="28" left="30" laneChangedFrom="0" laneChangedTo="0" flow="1793.70"/>
        <edge id="8/1to9/1" sampledSeconds="1571.87" traveltime="51.40" overlapTraveltime="51.65" density="26.60" overlapDensity="26.73" laneDensity="26.60" occupancy="13.30" waitingTime="0.00" timeLoss="42.68" speed="19.07" speedRelative="0.97" departed="0" arrived="0" entered="30" left="29" laneChangedFrom="0" laneChangedTo="0" flow="1825.96"/>
        <edge id="9/1to10/1" sampledSeconds="1464.37" traveltime="50.07" overlapTraveltime="50.33" density="24.78" overlapDensity="24.91" laneDensity="24.78" occupancy="12.39" waitingTime="0.00" timeLoss="2.26" speed="19.57" speedRelative="1.00" departed="0" arrived="0" entered="30" left="29" laneChangedFrom="0" laneChangedTo="0" flow="1745.76"/>
    </interval>
    <interval begin="600.00" end="660.00" id="dump_60">
        <edge id="1/1to2/1" sampledSeconds="1503.13" traveltime="51.04" overlapTraveltime="51.30" density="25.43" overlapDensity="25.57" laneDensity="25.43" occupancy="12.72" waitingTime="0.00" timeLoss="30.76" speed="19.20" speedRelative="0.98" departed="0" arrived="0" entered="29" left="29" laneChangedFrom="0" laneChangedTo="0" flow="1757.91"/>
        <edge id="10/1to1/1" sampledSeconds="1462.61" traveltime="50.08" overlapTraveltime="50.34" density="24.75" overlapDensity="24.88" laneDensity="24.75" occupancy="12.37" waitingTime="0.00" timeLoss="2.54" speed="19.57" speedRelative="1.00" departed="0" arrived="0" entered="29" left="29" laneChangedFrom="0" laneChangedTo="0" flow="1743.32"/>
        <edge id="2/1to3/1" sampledSeconds="1560.30" traveltime="51.56" overlapTraveltime="51.82" density="26.40" overlapDensity="26.54" laneDensity="26.40" occupancy="13.20" waitingTime="0.00" timeLoss="47.21" speed="19.01" speedRelative="0.97" departed="0" arrived="0" entered="30" left="31" laneChangedFrom="0" laneChangedTo="0" flow="1806.33"/>
        <edge id="3/1to4/1" sampledSeconds="1486.57" traveltime="50.42" overlapTraveltime="50.67" density="25.16" overlapDensity="25.28" laneDensity="25.16" occupancy="12.58" waitingTime="0.00" timeLoss="12.37" speed="19.44" speedRelative="0.99" departed="0" arrived="0" entered="31" left="28" laneChangedFrom="0" laneChangedTo="0" flow="1760.57"/>
        <edge id="4/1to5/1" sampledSeconds="1293.83" traveltime="50.00" overlapTraveltime="50.25" density="21.90" overlapDensity="22.01" laneDensity="21.90" occupancy="10.95" waitingTime="0.00" timeLoss="0.00" speed="19.60" speedRelative="1.00" departed="0" arrived="0" entered="28" left="24" laneChangedFrom="0" laneChangedTo="0" flow="1545.35"/>