<?xml version="1.0" encoding="UTF-8"?>

<!-- generated on Tue Jun 23 16:12:49 2020 by Eclipse SUMO Version v1_6_0+0948-a552c9c904
This data file and the accompanying materials
are made available under the terms of the Eclipse Public License v2.0
which accompanies this distribution, and is available at
http://www.eclipse.org/legal/epl-v20.html
SPDX-License-Identifier: EPL-2.0
<configuration xmlns:xsi="http://www.w3.org/2001/XMLSchema-instance" xsi:noNamespaceSchemaLocation="http://sumo.dlr.de/xsd/sumoConfiguration.xsd">

    <input>
        <net-file value="net.net.xml"/>
        <route-files value="input_routes.rou.xml"/>
        <additional-files value="input_additional.add.xml,input_additional2.add.xml"/>
    </input>

    <output>
        <write-license value="true"/>
        <tripinfo-output.write-unfinished value="true"/>
    </output>

    <time>
        <begin value="0"/>
        <end value="3000"/>
        <step-length value="0.25"/>
    </time>

    <processing>
        <default.speeddev value="0"/>
    </processing>

    <report>
        <verbose value="true"/>
        <xml-validation value="never"/>
        <duration-log.statistics value="true"/>
        <no-step-log value="true"/>
    </report>

    <gui_only>
        <tracker-interval value="0.25"/>
    </gui_only>

</configuration>
-->

<meandata xmlns:xsi="http://www.w3.org/2001/XMLSchema-instance" xsi:noNamespaceSchemaLocation="http://sumo.dlr.de/xsd/meandata_file.xsd">
    <interval begin="0.00" end="60.00" id="dump_60">
        <edge id="1/1to2/1" sampledSeconds="1002.87" traveltime="274.63" overlapTraveltime="268.27" density="17.06" laneDensity="17.06" occupancy="8.48" waitingTime="595.50" speed="3.67" departed="60" arrived="0" entered="0" left="29" laneChangedFrom="0" laneChangedTo="0"/>
        <edge id="2/1to3/1" sampledSeconds="808.88" traveltime="51.95" overlapTraveltime="52.21" density="13.76" laneDensity="13.76" occupancy="6.83" waitingTime="0.00" speed="18.86" departed="0" arrived="0" entered="29" left="3" laneChangedFrom="0" laneChangedTo="0"/>
        <edge id="3/1to4/1" sampledSeconds="7.79" traveltime="50.00" overlapTraveltime="50.25" density="0.13" laneDensity="0.13" occupancy="0.06" waitingTime="0.00" speed="19.60" departed="0" arrived="0" entered="3" left="0" laneChangedFrom="0" laneChangedTo="0"/>
    </interval>
    <interval begin="60.00" end="120.00" id="dump_60">
        <edge id="1/1to2/1" sampledSeconds="2779.46" traveltime="233.10" overlapTraveltime="231.97" density="47.27" laneDensity="47.27" occupancy="23.60" waitingTime="1901.00" speed="4.25" departed="60" arrived="0" entered="0" left="30" laneChangedFrom="0" laneChangedTo="0"/>
        <edge id="2/1to3/1" sampledSeconds="1584.00" traveltime="51.61" overlapTraveltime="51.87" density="26.94" laneDensity="26.94" occupancy="13.40" waitingTime="0.00" speed="18.99" departed="0" arrived="0" entered="30" left="30" laneChangedFrom="0" laneChangedTo="0"/>
        <edge id="3/1to4/1" sampledSeconds="1000.24" traveltime="50.42" overlapTraveltime="50.68" density="17.01" laneDensity="17.01" occupancy="8.46" waitingTime="0.00" speed="19.43" departed="0" arrived="0" entered="30" left="8" laneChangedFrom="0" laneChangedTo="0"/>
        <edge id="4/1to5/1" sampledSeconds="58.25" traveltime="50.00" overlapTraveltime="50.25" density="0.99" laneDensity="0.99" occupancy="0.49" waitingTime="0.00" speed="19.60" departed="0" arrived="0" entered="8" left="0" laneChangedFrom="0" laneChangedTo="0"/>
    </interval>
    <interval begin="120.00" end="180.00" id="dump_60">
        <edge id="1/1to2/1" sampledSeconds="3690.77" traveltime="181.44" overlapTraveltime="181.36" density="62.77" laneDensity="62.77" occupancy="31.13" waitingTime="2375.50" speed="5.43" departed="19" arrived="0" entered="0" left="31" laneChangedFrom="0" laneChangedTo="0"/>
        <edge id="2/1to3/1" sampledSeconds="1592.09" traveltime="51.74" overlapTraveltime="52.01" density="27.08" laneDensity="27.08" occupancy="13.47" waitingTime="0.00" speed="18.94" departed="0" arrived="0" entered="31" left="31" laneChangedFrom="0" laneChangedTo="0"/>
        <edge id="3/1to4/1" sampledSeconds="1564.64" traveltime="51.44" overlapTraveltime="51.70" density="26.61" laneDensity="26.61" occupancy="13.24" waitingTime="0.00" speed="19.05" departed="0" arrived="0" entered="30" left="29" laneChangedFrom="0" laneChangedTo="0"/>
        <edge id="4/1to5/1" sampledSeconds="1171.32" traveltime="50.04" overlapTraveltime="50.30" density="19.92" laneDensity="19.92" occupancy="9.92" waitingTime="0.00" speed="19.58" departed="0" arrived="0" entered="29" left="12" laneChangedFrom="0" laneChangedTo="0"/>
        <edge id="5/1to6/1" sampledSeconds="155.98" traveltime="50.00" overlapTraveltime="50.25" density="2.65" laneDensity="2.65" occupancy="1.31" waitingTime="0.00" speed="19.60" departed="0" arrived="0" entered="12" left="0" laneChangedFrom="0" laneChangedTo="0"/>
    </interval>
    <interval begin="180.00" end="240.00" id="dump_60">
        <edge id="1/1to2/1" sampledSeconds="2120.44" traveltime="74.97" overlapTraveltime="75.23" density="36.06" laneDensity="36.06" occupancy="17.73" waitingTime="439.25" speed="13.09" departed="9" arrived="0" entered="0" left="31" laneChangedFrom="0" laneChangedTo="0"/>
        <edge id="2/1to3/1" sampledSeconds="1594.03" traveltime="51.77" overlapTraveltime="52.04" density="27.11" laneDensity="27.11" occupancy="13.49" waitingTime="0.00" speed="18.93" departed="0" arrived="0" entered="31" left="30" laneChangedFrom="0" laneChangedTo="0"/>
        <edge id="3/1to4/1" sampledSeconds="1592.14" traveltime="51.74" overlapTraveltime="52.01" density="27.08" laneDensity="27.08" occupancy="13.47" waitingTime="0.00" speed="18.94" departed="0" arrived="0" entered="31" left="31" laneChangedFrom="0" laneChangedTo="0"/>
        <edge id="4/1to5/1" sampledSeconds="1528.42" traveltime="50.96" overlapTraveltime="51.22" density="26.00" laneDensity="26.00" occupancy="12.93" waitingTime="0.00" speed="19.23" departed="0" arrived="0" entered="31" left="29" laneChangedFrom="0" laneChangedTo="0"/>
        <edge id="5/1to6/1" sampledSeconds="1309.96" traveltime="50.00" overlapTraveltime="50.25" density="22.28" laneDensity="22.28" occupancy="11.09" waitingTime="0.00" speed="19.60" departed="0" arrived="0" entered="29" left="17" laneChangedFrom="0" laneChangedTo="0"/>
        <edge id="6/1to7/1" sampledSeconds="300.60" traveltime="50.00" overlapTraveltime="50.25" density="5.11" laneDensity="5.11" occupancy="2.54" waitingTime="0.00" speed="19.60" departed="0" arrived="0" entered="17" left="0" laneChangedFrom="0" laneChangedTo="0"/>
    </interval>
    <interval begin="240.00" end="300.00" id="dump_60">
        <edge id="1/1to2/1" sampledSeconds="1420.63" traveltime="55.01" overlapTraveltime="55.27" density="24.16" laneDensity="24.16" occupancy="11.82" waitingTime="0.00" speed="17.82" departed="23" arrived="0" entered="0" left="29" laneChangedFrom="0" laneChangedTo="0"/>
        <edge id="2/1to3/1" sampledSeconds="1581.77" traveltime="51.66" overlapTraveltime="51.92" density="26.90" laneDensity="26.90" occupancy="13.38" waitingTime="0.00" speed="18.97" departed="0" arrived="0" entered="29" left="31" laneChangedFrom="0" laneChangedTo="0"/>
        <edge id="3/1to4/1" sampledSeconds="1595.32" traveltime="51.82" overlapTraveltime="52.08" density="27.13" laneDensity="27.13" occupancy="13.50" waitingTime="0.00" speed="18.91" departed="0" arrived="0" entered="31" left="30" laneChangedFrom="0" laneChangedTo="0"/>
        <edge id="4/1to5/1" sampledSeconds="1588.18" traveltime="51.68" overlapTraveltime="51.94" density="27.01" laneDensity="27.01" occupancy="13.44" waitingTime="0.00" speed="18.96" departed="0" arrived="0" entered="30" left="31" laneChangedFrom="0" laneChangedTo="0"/>
        <edge id="5/1to6/1" sampledSeconds="1493.38" traveltime="50.49" overlapTraveltime="50.74" density="25.40" laneDensity="25.40" occupancy="12.63" waitingTime="0.00" speed="19.41" departed="0" arrived="0" entered="31" left="29" laneChangedFrom="0" laneChangedTo="0"/>
        <edge id="6/1to7/1" sampledSeconds="1405.07" traveltime="50.00" overlapTraveltime="50.25" density="23.90" laneDensity="23.90" occupancy="11.89" waitingTime="0.00" speed="19.60" departed="0" arrived="0" entered="29" left="22" laneChangedFrom="0" laneChangedTo="0"/>
        <edge id="7/1to8/1" sampledSeconds="492.06" traveltime="50.00" overlapTraveltime="50.25" density="8.37" laneDensity="8.37" occupancy="4.16" waitingTime="0.00" speed="19.60" departed="0" arrived="0" entered="22" left="0" laneChangedFrom="0" laneChangedTo="0"/>
    </interval>
    <interval begin="300.00" end="360.00" id="dump_60">
        <edge id="1/1to2/1" sampledSeconds="1298.12" traveltime="54.77" overlapTraveltime="55.03" density="22.08" laneDensity="22.08" occupancy="10.80" waitingTime="0.00" speed="17.90" departed="24" arrived="0" entered="0" left="23" laneChangedFrom="0" laneChangedTo="0"/>
        <edge id="2/1to3/1" sampledSeconds="1295.05" traveltime="50.52" overlapTraveltime="50.78" density="22.03" laneDensity="22.03" occupancy="10.96" waitingTime="0.00" speed="19.40" departed="0" arrived="0" entered="23" left="28" laneChangedFrom="0" laneChangedTo="0"/>
        <edge id="3/1to4/1" sampledSeconds="1578.99" traveltime="51.66" overlapTraveltime="51.92" density="26.86" laneDensity="26.86" occupancy="13.36" waitingTime="0.00" speed="18.97" departed="0" arrived="0" entered="28" left="31" laneChangedFrom="0" laneChangedTo="0"/>
        <edge id="4/1to5/1" sampledSeconds="1597.20" traveltime="51.83" overlapTraveltime="52.10" density="27.16" laneDensity="27.16" occupancy="13.51" waitingTime="0.00" speed="18.91" departed="0" arrived="0" entered="31" left="30" laneChangedFrom="0" laneChangedTo="0"/>
        <edge id="5/1to6/1" sampledSeconds="1574.26" traveltime="51.55" overlapTraveltime="51.81" density="26.77" laneDensity="26.77" occupancy="13.32" waitingTime="0.00" speed="19.01" departed="0" arrived="0" entered="30" left="30" laneChangedFrom="0" laneChangedTo="0"/>
        <edge id="6/1to7/1" sampledSeconds="1467.92" traveltime="50.11" overlapTraveltime="50.36" density="24.97" laneDensity="24.97" occupancy="12.42" waitingTime="0.00" speed="19.56" departed="0" arrived="0" entered="30" left="29" laneChangedFrom="0" laneChangedTo="0"/>
        <edge id="7/1to8/1" sampledSeconds="1453.35" traveltime="50.00" overlapTraveltime="50.25" density="24.72" laneDensity="24.72" occupancy="12.30" waitingTime="0.00" speed="19.60" departed="0" arrived="0" entered="29" left="27" laneChangedFrom="0" laneChangedTo="0"/>
        <edge id="8/1to9/1" sampledSeconds="725.12" traveltime="50.00" overlapTraveltime="50.25" density="12.33" laneDensity="12.33" occupancy="6.13" waitingTime="0.00" speed="19.60" departed="0" arrived="0" entered="27" left="2" laneChangedFrom="0" laneChangedTo="0"/>
        <edge id="9/1to10/1" sampledSeconds="5.44" traveltime="50.00" overlapTraveltime="50.25" density="0.09" laneDensity="0.09" occupancy="0.04" waitingTime="0.00" speed="19.60" departed="0" arrived="0" entered="2" left="0" laneChangedFrom="0" laneChangedTo="0"/>
    </interval>
    <interval begin="360.00" end="420.00" id="dump_60">
        <edge id="1/1to2/1" sampledSeconds="1298.81" traveltime="54.78" overlapTraveltime="55.04" density="22.09" laneDensity="22.09" occupancy="10.80" waitingTime="0.00" speed="17.90" departed="23" arrived="0" entered="0" left="24" laneChangedFrom="0" laneChangedTo="0"/>
        <edge id="10/1to1/1" sampledSeconds="51.84" traveltime="50.00" overlapTraveltime="50.25" density="0.88" laneDensity="0.88" occupancy="0.43" waitingTime="0.00" speed="19.60" departed="0" arrived="0" entered="7" left="0" laneChangedFrom="0" laneChangedTo="0"/>
        <edge id="2/1to3/1" sampledSeconds="1186.15" traveltime="50.00" overlapTraveltime="50.25" density="20.17" laneDensity="20.17" occupancy="10.03" waitingTime="0.00" speed="19.60" departed="0" arrived="0" entered="24" left="24" laneChangedFrom="0" laneChangedTo="0"/>
        <edge id="3/1to4/1" sampledSeconds="1283.99" traveltime="50.49" overlapTraveltime="50.76" density="21.84" laneDensity="21.84" occupancy="10.86" waitingTime="0.00" speed="19.41" departed="0" arrived="0" entered="24" left="28" laneChangedFrom="0" laneChangedTo="0"/>
        <edge id="4/1to5/1" sampledSeconds="1581.95" traveltime="51.95" overlapTraveltime="52.21" density="26.91" laneDensity="26.91" occupancy="13.39" waitingTime="0.00" speed="18.86" departed="0" arrived="0" entered="28" left="31" laneChangedFrom="0" laneChangedTo="0"/>
        <edge id="5/1to6/1" sampledSeconds="1590.96" traveltime="51.74" overlapTraveltime="52.00" density="27.06" laneDensity="27.06" occupancy="13.46" waitingTime="0.00" speed="18.94" departed="0" arrived="0" entered="31" left="30" laneChangedFrom="0" laneChangedTo="0"/>
        <edge id="6/1to7/1" sampledSeconds="1543.11" traveltime="51.12" overlapTraveltime="51.37" density="26.24" laneDensity="26.24" occupancy="13.06" waitingTime="0.00" speed="19.17" departed="0" arrived="0" entered="30" left="29" laneChangedFrom="0" laneChangedTo="0"/>
        <edge id="7/1to8/1" sampledSeconds="1459.86" traveltime="50.00" overlapTraveltime="50.26" density="24.83" laneDensity="24.83" occupancy="12.35" waitingTime="0.00" speed="19.60" departed="0" arrived="0" entered="29" left="29" laneChangedFrom="0" laneChangedTo="0"/>
        <edge id="8/1to9/1" sampledSeconds="1459.64" traveltime="50.00" overlapTraveltime="50.25" density="24.83" laneDensity="24.83" occupancy="12.35" waitingTime="0.00" speed="19.60" departed="0" arrived="0" entered="29" left="29" laneChangedFrom="0" laneChangedTo="0"/>
        <edge id="9/1to10/1" sampledSeconds="959.21" traveltime="50.00" overlapTraveltime="50.25" density="16.31" laneDensity="16.31" occupancy="8.12" waitingTime="0.00" speed="19.60" departed="0" arrived="0" entered="29" left="7" laneChangedFrom="0" laneChangedTo="0"/>
    </interval>
    <interval begin="420.00" end="480.00" id="dump_60">
        <edge id="1/1to2/1" sampledSeconds="1296.32" traveltime="53.68" overlapTraveltime="53.94" density="22.05" laneDensity="22.05" occupancy="10.84" waitingTime="0.00" speed="18.26" departed="15" arrived="0" entered="10" left="23" laneChangedFrom="0" laneChangedTo="0"/>
        <edge id="10/1to1/1" sampledSeconds="1198.48" traveltime="52.24" overlapTraveltime="52.58" density="20.38" laneDensity="20.38" occupancy="10.14" waitingTime="0.00" speed="18.73" departed="0" arrived="0" entered="29" left="10" laneChangedFrom="0" laneChangedTo="0"/>
        <edge id="2/1to3/1" sampledSeconds="1186.90" traveltime="50.00" overlapTraveltime="50.25" density="20.19" laneDensity="20.19" occupancy="10.04" waitingTime="0.00" speed="19.60" departed="0" arrived="0" entered="23" left="24" laneChangedFrom="0" laneChangedTo="0"/>
        <edge id="3/1to4/1" sampledSeconds="1186.15" traveltime="50.00" overlapTraveltime="50.25" density="20.17" laneDensity="20.17" occupancy="10.03" waitingTime="0.00" speed="19.60" departed="0" arrived="0" entered="24" left="24" laneChangedFrom="0" laneChangedTo="0"/>
        <edge id="4/1to5/1" sampledSeconds="1278.26" traveltime="50.52" overlapTraveltime="50.79" density="21.74" laneDensity="21.74" occupancy="10.81" waitingTime="0.00" speed="19.39" departed="0" arrived="0" entered="24" left="28" laneChangedFrom="0" laneChangedTo="0"/>
        <edge id="5/1to6/1" sampledSeconds="1571.50" traveltime="51.68" overlapTraveltime="51.94" density="26.73" laneDensity="26.73" occupancy="13.30" waitingTime="0.00" speed="18.96" departed="0" arrived="0" entered="28" left="31" laneChangedFrom="0" laneChangedTo="0"/>
        <edge id="6/1to7/1" sampledSeconds="1589.87" traveltime="51.76" overlapTraveltime="52.02" density="27.04" laneDensity="27.04" occupancy="13.45" waitingTime="0.00" speed="18.93" departed="0" arrived="0" entered="31" left="31" laneChangedFrom="0" laneChangedTo="0"/>
        <edge id="7/1to8/1" sampledSeconds="1506.93" traveltime="50.67" overlapTraveltime="50.92" density="25.63" laneDensity="25.63" occupancy="12.75" waitingTime="0.00" speed="19.34" departed="0" arrived="0" entered="30" left="29" laneChangedFrom="0" laneChangedTo="0"/>
        <edge id="8/1to9/1" sampledSeconds="1459.74" traveltime="50.01" overlapTraveltime="50.27" density="24.83" laneDensity="24.83" occupancy="12.35" waitingTime="0.00" speed="19.59" departed="0" arrived="0" entered="29" left="29" laneChangedFrom="0" laneChangedTo="0"/>
        <edge id="9/1to10/1" sampledSeconds="1459.63" traveltime="50.02" overlapTraveltime="50.27" density="24.83" laneDensity="24.83" occupancy="12.35" waitingTime="0.00" speed="19.59" departed="0" arrived="0" entered="29" left="29" laneChangedFrom="0" laneChangedTo="0"/>
    </interval>
    <interval begin="480.00" end="540.00" id="dump_60">
        <edge id="1/1to2/1" sampledSeconds="1532.04" traveltime="51.70" overlapTraveltime="51.96" density="26.06" laneDensity="26.06" occupancy="12.96" waitingTime="0.00" speed="18.96" departed="0" arrived="0" entered="30" left="27" laneChangedFrom="0" laneChangedTo="0"/>
        <edge id="10/1to1/1" sampledSeconds="1523.09" traveltime="52.05" overlapTraveltime="52.36" density="25.90" laneDensity="25.90" occupancy="12.88" waitingTime="0.00" speed="18.81" departed="0" arrived="0" entered="29" left="31" laneChangedFrom="0" laneChangedTo="0"/>
        <edge id="2/1to3/1" sampledSeconds="1225.81" traveltime="50.01" overlapTraveltime="50.27" density="20.85" laneDensity="20.85" occupancy="10.37" waitingTime="0.00" speed="19.59" departed="0" arrived="0" entered="27" left="23" laneChangedFrom="0" laneChangedTo="0"/>
        <edge id="3/1to4/1" sampledSeconds="1187.39" traveltime="50.00" overlapTraveltime="50.25" density="20.19" laneDensity="20.19" occupancy="10.05" waitingTime="0.00" speed="19.60" departed="0" arrived="0" entered="23" left="24" laneChangedFrom="0" laneChangedTo="0"/>
        <edge id="4/1to5/1" sampledSeconds="1186.15" traveltime="50.00" overlapTraveltime="50.25" density="20.17" laneDensity="20.17" occupancy="10.04" waitingTime="0.00" speed="19.60" departed="0" arrived="0" entered="24" left="24" laneChangedFrom="0" laneChangedTo="0"/>
        <edge id="5/1to6/1" sampledSeconds="1267.96" traveltime="50.42" overlapTraveltime="50.68" density="21.57" laneDensity="21.57" occupancy="10.73" waitingTime="0.00" speed="19.44" departed="0" arrived="0" entered="24" left="28" laneChangedFrom="0" laneChangedTo="0"/>
        <edge id="6/1to7/1" sampledSeconds="1566.54" traveltime="51.59" overlapTraveltime="51.85" density="26.64" laneDensity="26.64" occupancy="13.26" waitingTime="0.00" speed="18.99" departed="0" arrived="0" entered="28" left="30" laneChangedFrom="0" laneChangedTo="0"/>
        <edge id="7/1to8/1" sampledSeconds="1582.10" traveltime="51.63" overlapTraveltime="51.89" density="26.91" laneDensity="26.91" occupancy="13.39" waitingTime="0.00" speed="18.98" departed="0" arrived="0" entered="31" left="30" laneChangedFrom="0" laneChangedTo="0"/>
        <edge id="8/1to9/1" sampledSeconds="1477.58" traveltime="50.28" overlapTraveltime="50.53" density="25.13" laneDensity="25.13" occupancy="12.50" waitingTime="0.00" speed="19.49" departed="0" arrived="0" entered="30" left="29" laneChangedFrom="0" laneChangedTo="0"/>
        <edge id="9/1to10/1" sampledSeconds="1459.83" traveltime="50.05" overlapTraveltime="50.31" density="24.83" laneDensity="24.83" occupancy="12.35" waitingTime="0.00" speed="19.58" departed="0" arrived="0" entered="29" left="29" laneChangedFrom="0" laneChangedTo="0"/>
    </interval>
    <interval begin="540.00" end="600.00" id="dump_60">
        <edge id="1/1to2/1" sampledSeconds="1563.63" traveltime="51.59" overlapTraveltime="51.86" density="26.59" laneDensity="26.59" occupancy="13.23" waitingTime="0.00" speed="18.99" departed="0" arrived="0" entered="30" left="31" laneChangedFrom="0" laneChangedTo="0"/>
        <edge id="10/1to1/1" sampledSeconds="1468.49" traveltime="50.25" overlapTraveltime="50.51" density="24.98" laneDensity="24.98" occupancy="12.42" waitingTime="0.00" speed="19.50" departed="0" arrived="0" entered="29" left="29" laneChangedFrom="0" laneChangedTo="0"/>
        <edge id="2/1to3/1" sampledSeconds="1505.59" traveltime="50.87" overlapTraveltime="51.13" density="25.61" laneDensity="25.61" occupancy="12.74" waitingTime="0.00" speed="19.26" departed="0" arrived="0" entered="31" left="27" laneChangedFrom="0" laneChangedTo="0"/>
        <edge id="3/1to4/1" sampledSeconds="1254.58" traveltime="50.00" overlapTraveltime="50.25" density="21.34" laneDensity="21.34" occupancy="10.61" waitingTime="0.00" speed="19.60" departed="0" arrived="0" entered="27" left="23" laneChangedFrom="0" laneChangedTo="0"/>
        <edge id="4/1to5/1" sampledSeconds="1187.21" traveltime="50.00" overlapTraveltime="50.25" density="20.19" laneDensity="20.19" occupancy="10.05" waitingTime="0.00" speed="19.60" departed="0" arrived="0" entered="23" left="23" laneChangedFrom="0" laneChangedTo="0"/>
        <edge id="5/1to6/1" sampledSeconds="1186.50" traveltime="50.00" overlapTraveltime="50.25" density="20.18" laneDensity="20.18" occupancy="10.04" waitingTime="0.00" speed="19.60" departed="0" arrived="0" entered="23" left="24" laneChangedFrom="0" laneChangedTo="0"/>
        <edge id="6/1to7/1" sampledSeconds="1256.13" traveltime="50.33" overlapTraveltime="50.58" density="21.36" laneDensity="21.36" occupancy="10.63" waitingTime="0.00" speed="19.47" departed="0" arrived="0" entered="24" left="28" laneChangedFrom="0" laneChangedTo="0"/>
        <edge id="7/1to8/1" sampledSeconds="1560.57" traveltime="51.58" overlapTraveltime="51.84" density="26.54" laneDensity="26.54" occupancy="13.21" waitingTime="0.00" speed="19.00" departed="0" arrived="0" entered="28" left="31" laneChangedFrom="0" laneChangedTo="0"/>
        <edge id="8/1to9/1" sampledSeconds="1560.86" traveltime="51.30" overlapTraveltime="51.55" density="26.55" laneDensity="26.55" occupancy="13.21" waitingTime="0.00" speed="19.11" departed="0" arrived="0" entered="30" left="30" laneChangedFrom="0" laneChangedTo="0"/>
        <edge id="9/1to10/1" sampledSeconds="1464.48" traveltime="50.07" overlapTraveltime="50.33" density="24.91" laneDensity="24.91" occupancy="12.39" waitingTime="0.00" speed="19.57" departed="0" arrived="0" entered="30" left="29" laneChangedFrom="0" laneChangedTo="0"/>
    </interval>
    <interval begin="600.00" end="660.00" id="dump_60">
        <edge id="1/1to2/1" sampledSeconds="1499.32" traveltime="50.97" overlapTraveltime="51.23" density="25.50" laneDensity="25.50" occupancy="12.69" waitingTime="0.00" speed="19.23" departed="0" arrived="0" entered="29" left="29" laneChangedFrom="0" laneChangedTo="0"/>
        <edge id="10/1to1/1" sampledSeconds="1463.04" traveltime="50.10" overlapTraveltime="50.35" density="24.88" laneDensity="24.88" occupancy="12.38" waitingTime="0.00" speed="19.56" departed="0" arrived="0" entered="29" left="29" laneChangedFrom="0" laneChangedTo="0"/>
        <edge id="2/1to3/1" sampledSeconds="1562.96" traveltime="51.47" overlapTraveltime="51.74" density="26.58" laneDensity="26.58" occupancy="13.22" waitingTime="0.00" speed="19.04" departed="0" arrived="0" entered="29" left="31" laneChangedFrom="0" laneChangedTo="0"/>
        <edge id="3/1to4/1" sampledSeconds="1487.04" traveltime="50.43" overlapTraveltime="50.69" density="25.29" laneDensity="25.29" occupancy="12.58" waitingTime="0.00" speed="19.43" departed="0" arrived="0" entered="31" left="28" laneChangedFrom="0" laneChangedTo="0"/>
        <edge id="4/1to5/1" sampledSeconds="1293.80" traveltime="50.00" overlapTraveltime="50.25" density="22.00" laneDensity="22.00" occupancy="10.95" waitingTime="0.00" speed="19.60" departed="0" arrived="0" entered="28" left="24" laneChangedFrom="0" laneChangedTo="0"/>
        <edge id="5/1to6/1" sampledSeconds="1186.86" traveltime="50.00" overlapTraveltime="50.25" density="20.19" laneDensity="20.19" occupancy="10.04" waitingTime="0.00" speed="19.60" departed="0" arrived="0" entered="24" left="23" laneChangedFrom="0" laneChangedTo="0"/>
        <edge id="6/1to7/1" sampledSeconds="1187.03" traveltime="50.00" overlapTraveltime="50.25" density="20.19" laneDensity="20.19" occupancy="10.04" waitingTime="0.00" speed="19.60" departed="0" arrived="0" entered="23" left="24" laneChangedFrom="0" laneChangedTo="0"/>
        <edge id="7/1to8/1" sampledSeconds="1248.61" traveltime="50.36" overlapTraveltime="50.62" density="21.24" laneDensity="21.24" occupancy="10.56" waitingTime="0.00" speed="19.46" departed="0" arrived="0" entered="24" left="27" laneChangedFrom="0" laneChangedTo="0"/>
        <edge id="8/1to9/1" sampledSeconds="1550.92" traveltime="51.66" overlapTraveltime="51.93" density="26.38" laneDensity="26.38" occupancy="13.12" waitingTime="0.00" speed="18.97" departed="0" arrived="0" entered="28" left="30" laneChangedFrom="0" laneChangedTo="0"/>
        <edge id="9/1to10/1" sampledSeconds="1528.39" traveltime="50.97" overlapTraveltime="51.23" density="25.99" laneDensity="25.99" occupancy="12.93" waitingTime="0.00" speed="19.23" departed="0" arrived="0" entered="30" left="29" laneChangedFrom="0" laneChangedTo="0"/>
    </interval>
    <interval begin="660.00" end="720.00" id="dump_60">
        <edge id="1/1to2/1" sampledSeconds="1482.33" traveltime="50.57" overlapTraveltime="50.83" density="25.21" laneDensity="25.21" occupancy="12.54" waitingTime="0.00" speed="19.38" departed="0" arrived="0" entered="29" left="30" laneChangedFrom="0" laneChangedTo="0"/>
        <edge id="10/1to1/1" sampledSeconds="1493.67" traveltime="50.53" overlapTraveltime="50.78" density="25.40" laneDensity="25.40" occupancy="12.64" waitingTime="0.00" speed="19.39" departed="0" arrived="0" entered="31" left="29" laneChangedFrom="0" laneChangedTo="0"/>
        <edge id="2/1to3/1" sampledSeconds="1512.10" traveltime="51.27" overlapTraveltime="51.54" density="25.72" laneDensity="25.72" occupancy="12.79" waitingTime="0.00" speed="19.11" departed="0" arrived="0" entered="29" left="29" laneChangedFrom="0" laneChangedTo="0"/>
        <edge id="3/1to4/1" sampledSeconds="1552.02" traveltime="51.41" overlapTraveltime="51.67" density="26.40" laneDensity="26.40" occupancy="13.13" waitingTime="0.00" speed="19.06" departed="0" arrived="0" entered="29" left="30" laneChangedFrom="0" laneChangedTo="0"/>
        <edge id="4/1to5/1" sampledSeconds="1468.71" traveltime="50.12" overlapTraveltime="50.38" density="24.98" laneDensity="24.98" occupancy="12.43" waitingTime="0.00" speed="19.55" departed="0" arrived="0" entered="30" left="29" laneChangedFrom="0" laneChangedTo="0"/>
        <edge id="5/1to6/1" sampledSeconds="1338.99" traveltime="50.00" overlapTraveltime="50.25" density="22.77" laneDensity="22.77" occupancy="11.33" waitingTime="0.00" speed="19.60" departed="0" arrived="0" entered="29" left="25" laneChangedFrom="0" laneChangedTo="0"/>
        <edge id="6/1to7/1" sampledSeconds="1189.61" traveltime="50.00" overlapTraveltime="50.25" density="20.23" laneDensity="20.23" occupancy="10.06" waitingTime="0.00" speed="19.60" departed="0" arrived="0" entered="25" left="23" laneChangedFrom="0" laneChangedTo="0"/>
        <edge id="7/1to8/1" sampledSeconds="1186.85" traveltime="50.00" overlapTraveltime="50.25" density="20.19" laneDensity="20.19" occupancy="10.04" waitingTime="0.00" speed="19.60" departed="0" arrived="0" entered="23" left="23" laneChangedFrom="0" laneChangedTo="0"/>
        <edge id="8/1to9/1" sampledSeconds="1242.51" traveltime="50.27" overlapTraveltime="50.53" density="21.13" laneDensity="21.13" occupancy="10.51" waitingTime="0.00" speed="19.49" departed="0" arrived="0" entered="23" left="28" laneChangedFrom="0" laneChangedTo="0"/>
        <edge id="9/1to10/1" sampledSeconds="1541.33" traveltime="51.54" overlapTraveltime="51.80" density="26.21" laneDensity="26.21" occupancy="13.04" waitingTime="0.00" speed="19.02" departed="0" arrived="0" entered="28" left="31" laneChangedFrom="0" laneChangedTo="0"/>
    </interval>
    <interval begin="720.00" end="780.00" id="dump_60">
        <edge id="1/1to2/1" sampledSeconds="1478.25" traveltime="50.35" overlapTraveltime="50.61" density="25.14" laneDensity="25.14" occupancy="12.50" waitingTime="0.00" speed="19.46" departed="0" arrived="0" entered="30" left="29" laneChangedFrom="0" laneChangedTo="0"/>
        <edge id="10/1to1/1" sampledSeconds="1520.35" traveltime="51.32" overlapTraveltime="51.58" density="25.86" laneDensity="25.86" occupancy="12.87" waitingTime="0.00" speed="19.10" departed="0" arrived="0" entered="27" left="30" laneChangedFrom="0" laneChangedTo="0"/>
        <edge id="2/1to3/1" sampledSeconds="1507.17" traveltime="51.08" overlapTraveltime="51.34" density="25.63" laneDensity="25.63" occupancy="12.75" waitingTime="0.00" speed="19.19" departed="0" arrived="0" entered="30" left="30" laneChangedFrom="0" laneChangedTo="0"/>
        <edge id="3/1to4/1" sampledSeconds="1515.61" traveltime="51.31" overlapTraveltime="51.57" density="25.78" laneDensity="25.78" occupancy="12.82" waitingTime="0.00" speed="19.10" departed="0" arrived="0" entered="30" left="30" laneChangedFrom="0" laneChangedTo="0"/>
        <edge id="4/1to5/1" sampledSeconds="1524.55" traveltime="51.14" overlapTraveltime="51.40" density="25.93" laneDensity="25.93" occupancy="12.90" waitingTime="0.00" speed="19.16" departed="0" arrived="0" entered="29" left="29" laneChangedFrom="0" laneChangedTo="0"/>
        <edge id="5/1to6/1" sampledSeconds="1459.75" traveltime="50.00" overlapTraveltime="50.26" density="24.83" laneDensity="24.83" occupancy="12.35" waitingTime="0.00" speed="19.60" departed="0" arrived="0" entered="29" left="29" laneChangedFrom="0" laneChangedTo="0"/>
        <edge id="6/1to7/1" sampledSeconds="1380.56" traveltime="50.00" overlapTraveltime="50.25" density="23.48" laneDensity="23.48" occupancy="11.68" waitingTime="0.00" speed="19.60" departed="0" arrived="0" entered="29" left="25" laneChangedFrom="0" laneChangedTo="0"/>