<?xml version="1.0" encoding="UTF-8"?>

<!-- generated on Tue Jun 23 16:02:32 2020 by Eclipse SUMO Version v1_6_0+0946-c44c141c87
This data file and the accompanying materials
are made available under the terms of the Eclipse Public License v2.0
which accompanies this distribution, and is available at
http://www.eclipse.org/legal/epl-v20.html
SPDX-License-Identifier: EPL-2.0
<configuration xmlns:xsi="http://www.w3.org/2001/XMLSchema-instance" xsi:noNamespaceSchemaLocation="http://sumo.dlr.de/xsd/sumoConfiguration.xsd">

    <input>
        <net-file value="net.net.xml"/>
        <route-files value="input_routes.rou.xml"/>
        <additional-files value="input_additional.add.xml,input_additional2.add.xml"/>
    </input>

    <output>
        <write-license value="true"/>
        <tripinfo-output.write-unfinished value="true"/>
    </output>

    <time>
        <begin value="0"/>
        <end value="3000"/>
        <step-length value="0.25"/>
    </time>

    <processing>
        <default.speeddev value="0"/>
    </processing>

    <report>
        <verbose value="true"/>
        <xml-validation value="never"/>
        <duration-log.statistics value="true"/>
        <no-step-log value="true"/>
    </report>

    <gui_only>
        <tracker-interval value="0.25"/>
    </gui_only>

</configuration>
-->

<meandata xmlns:xsi="http://www.w3.org/2001/XMLSchema-instance" xsi:noNamespaceSchemaLocation="http://sumo.dlr.de/xsd/meandata_file.xsd">
    <interval begin="0.00" end="60.00" id="dump_60">
        <edge id="1/1to2/1" sampledSeconds="1007.41" traveltime="126.54" overlapTraveltime="126.27" density="17.13" laneDensity="17.13" occupancy="8.52" waitingTime="96.00" speed="7.80" departed="60" arrived="0" entered="0" left="29" laneChangedFrom="0" laneChangedTo="0"/>
        <edge id="2/1to3/1" sampledSeconds="804.09" traveltime="51.90" overlapTraveltime="52.16" density="13.68" laneDensity="13.68" occupancy="6.79" waitingTime="0.00" speed="18.88" departed="0" arrived="0" entered="28" left="3" laneChangedFrom="0" laneChangedTo="0"/>
        <edge id="3/1to4/1" sampledSeconds="7.79" traveltime="50.00" overlapTraveltime="50.25" density="0.13" laneDensity="0.13" occupancy="0.06" waitingTime="0.00" speed="19.60" departed="0" arrived="0" entered="3" left="0" laneChangedFrom="0" laneChangedTo="0"/>
    </interval>
    <interval begin="60.00" end="120.00" id="dump_60">
        <edge id="1/1to2/1" sampledSeconds="1918.71" traveltime="73.76" overlapTraveltime="74.01" density="32.63" laneDensity="32.63" occupancy="16.12" waitingTime="80.25" speed="13.31" departed="26" arrived="0" entered="0" left="30" laneChangedFrom="0" laneChangedTo="0"/>
        <edge id="2/1to3/1" sampledSeconds="1569.97" traveltime="51.56" overlapTraveltime="51.82" density="26.70" laneDensity="26.70" occupancy="13.28" waitingTime="0.00" speed="19.01" departed="0" arrived="0" entered="31" left="30" laneChangedFrom="0" laneChangedTo="0"/>
        <edge id="3/1to4/1" sampledSeconds="996.37" traveltime="50.36" overlapTraveltime="50.61" density="16.95" laneDensity="16.95" occupancy="8.43" waitingTime="0.00" speed="19.46" departed="0" arrived="0" entered="30" left="8" laneChangedFrom="0" laneChangedTo="0"/>
        <edge id="4/1to5/1" sampledSeconds="58.25" traveltime="50.00" overlapTraveltime="50.25" density="0.99" laneDensity="0.99" occupancy="0.49" waitingTime="0.00" speed="19.60" departed="0" arrived="0" entered="8" left="0" laneChangedFrom="0" laneChangedTo="0"/>
    </interval>
    <interval begin="120.00" end="180.00" id="dump_60">
        <edge id="1/1to2/1" sampledSeconds="1454.48" traveltime="54.99" overlapTraveltime="55.25" density="24.74" laneDensity="24.74" occupancy="12.12" waitingTime="0.00" speed="17.83" departed="24" arrived="0" entered="0" left="29" laneChangedFrom="0" laneChangedTo="0"/>
        <edge id="2/1to3/1" sampledSeconds="1571.01" traveltime="51.68" overlapTraveltime="51.94" density="26.72" laneDensity="26.72" occupancy="13.29" waitingTime="0.00" speed="18.96" departed="0" arrived="0" entered="29" left="30" laneChangedFrom="0" laneChangedTo="0"/>
        <edge id="3/1to4/1" sampledSeconds="1544.37" traveltime="51.28" overlapTraveltime="51.53" density="26.27" laneDensity="26.27" occupancy="13.07" waitingTime="0.00" speed="19.11" departed="0" arrived="0" entered="30" left="29" laneChangedFrom="0" laneChangedTo="0"/>
        <edge id="4/1to5/1" sampledSeconds="1170.48" traveltime="50.04" overlapTraveltime="50.29" density="19.91" laneDensity="19.91" occupancy="9.91" waitingTime="0.00" speed="19.59" departed="0" arrived="0" entered="29" left="12" laneChangedFrom="0" laneChangedTo="0"/>
        <edge id="5/1to6/1" sampledSeconds="155.98" traveltime="50.00" overlapTraveltime="50.25" density="2.65" laneDensity="2.65" occupancy="1.31" waitingTime="0.00" speed="19.60" departed="0" arrived="0" entered="12" left="0" laneChangedFrom="0" laneChangedTo="0"/>
    </interval>
    <interval begin="180.00" end="240.00" id="dump_60">
        <edge id="1/1to2/1" sampledSeconds="1298.06" traveltime="54.77" overlapTraveltime="55.02" density="22.08" laneDensity="22.08" occupancy="10.80" waitingTime="0.00" speed="17.90" departed="24" arrived="0" entered="0" left="24" laneChangedFrom="0" laneChangedTo="0"/>
        <edge id="2/1to3/1" sampledSeconds="1330.94" traveltime="50.79" overlapTraveltime="51.06" density="22.64" laneDensity="22.64" occupancy="11.26" waitingTime="0.00" speed="19.29" departed="0" arrived="0" entered="24" left="29" laneChangedFrom="0" laneChangedTo="0"/>
        <edge id="3/1to4/1" sampledSeconds="1566.13" traveltime="51.55" overlapTraveltime="51.82" density="26.64" laneDensity="26.64" occupancy="13.25" waitingTime="0.00" speed="19.01" departed="0" arrived="0" entered="29" left="30" laneChangedFrom="0" laneChangedTo="0"/>
        <edge id="4/1to5/1" sampledSeconds="1509.65" traveltime="50.73" overlapTraveltime="50.99" density="25.68" laneDensity="25.68" occupancy="12.77" waitingTime="0.00" speed="19.32" departed="0" arrived="0" entered="30" left="29" laneChangedFrom="0" laneChangedTo="0"/>
        <edge id="5/1to6/1" sampledSeconds="1310.02" traveltime="50.00" overlapTraveltime="50.25" density="22.28" laneDensity="22.28" occupancy="11.09" waitingTime="0.00" speed="19.60" departed="0" arrived="0" entered="29" left="17" laneChangedFrom="0" laneChangedTo="0"/>
        <edge id="6/1to7/1" sampledSeconds="300.61" traveltime="50.00" overlapTraveltime="50.25" density="5.11" laneDensity="5.11" occupancy="2.54" waitingTime="0.00" speed="19.60" departed="0" arrived="0" entered="17" left="0" laneChangedFrom="0" laneChangedTo="0"/>
    </interval>
    <interval begin="240.00" end="300.00" id="dump_60">
        <edge id="1/1to2/1" sampledSeconds="1299.51" traveltime="54.79" overlapTraveltime="55.04" density="22.10" laneDensity="22.10" occupancy="10.80" waitingTime="0.00" speed="17.89" departed="23" arrived="0" entered="0" left="24" laneChangedFrom="0" laneChangedTo="0"/>
        <edge id="2/1to3/1" sampledSeconds="1186.33" traveltime="50.00" overlapTraveltime="50.25" density="20.18" laneDensity="20.18" occupancy="10.04" waitingTime="0.00" speed="19.60" departed="0" arrived="0" entered="24" left="24" laneChangedFrom="0" laneChangedTo="0"/>
        <edge id="3/1to4/1" sampledSeconds="1318.59" traveltime="50.71" overlapTraveltime="50.98" density="22.43" laneDensity="22.43" occupancy="11.15" waitingTime="0.00" speed="19.32" departed="0" arrived="0" entered="24" left="29" laneChangedFrom="0" laneChangedTo="0"/>
        <edge id="4/1to5/1" sampledSeconds="1558.23" traveltime="51.61" overlapTraveltime="51.87" density="26.50" laneDensity="26.50" occupancy="13.19" waitingTime="0.00" speed="18.99" departed="0" arrived="0" entered="29" left="30" laneChangedFrom="0" laneChangedTo="0"/>
        <edge id="5/1to6/1" sampledSeconds="1476.19" traveltime="50.27" overlapTraveltime="50.52" density="25.11" laneDensity="25.11" occupancy="12.49" waitingTime="0.00" speed="19.49" departed="0" arrived="0" entered="30" left="29" laneChangedFrom="0" laneChangedTo="0"/>
        <edge id="6/1to7/1" sampledSeconds="1405.14" traveltime="50.00" overlapTraveltime="50.25" density="23.90" laneDensity="23.90" occupancy="11.89" waitingTime="0.00" speed="19.60" departed="0" arrived="0" entered="29" left="22" laneChangedFrom="0" laneChangedTo="0"/>
        <edge id="7/1to8/1" sampledSeconds="492.07" traveltime="50.00" overlapTraveltime="50.25" density="8.37" laneDensity="8.37" occupancy="4.16" waitingTime="0.00" speed="19.60" departed="0" arrived="0" entered="22" left="0" laneChangedFrom="0" laneChangedTo="0"/>
    </interval>
    <interval begin="300.00" end="360.00" id="dump_60">
        <edge id="1/1to2/1" sampledSeconds="1297.85" traveltime="54.77" overlapTraveltime="55.03" density="22.07" laneDensity="22.07" occupancy="10.80" waitingTime="0.00" speed="17.90" departed="24" arrived="0" entered="0" left="23" laneChangedFrom="0" laneChangedTo="0"/>
        <edge id="2/1to3/1" sampledSeconds="1187.03" traveltime="50.00" overlapTraveltime="50.25" density="20.19" laneDensity="20.19" occupancy="10.04" waitingTime="0.00" speed="19.60" departed="0" arrived="0" entered="23" left="23" laneChangedFrom="0" laneChangedTo="0"/>
        <edge id="3/1to4/1" sampledSeconds="1186.79" traveltime="50.00" overlapTraveltime="50.25" density="20.18" laneDensity="20.18" occupancy="10.04" waitingTime="0.00" speed="19.60" departed="0" arrived="0" entered="23" left="24" laneChangedFrom="0" laneChangedTo="0"/>
        <edge id="4/1to5/1" sampledSeconds="1307.58" traveltime="50.63" overlapTraveltime="50.89" density="22.24" laneDensity="22.24" occupancy="11.06" waitingTime="0.00" speed="19.35" departed="0" arrived="0" entered="24" left="29" laneChangedFrom="0" laneChangedTo="0"/>
        <edge id="5/1to6/1" sampledSeconds="1531.04" traveltime="51.23" overlapTraveltime="51.49" density="26.04" laneDensity="26.04" occupancy="12.96" waitingTime="0.00" speed="19.13" departed="0" arrived="0" entered="29" left="29" laneChangedFrom="0" laneChangedTo="0"/>
        <edge id="6/1to7/1" sampledSeconds="1460.51" traveltime="50.01" overlapTraveltime="50.27" density="24.84" laneDensity="24.84" occupancy="12.36" waitingTime="0.00" speed="19.59" departed="0" arrived="0" entered="29" left="29" laneChangedFrom="0" laneChangedTo="0"/>
        <edge id="7/1to8/1" sampledSeconds="1453.42" traveltime="50.00" overlapTraveltime="50.25" density="24.72" laneDensity="24.72" occupancy="12.30" waitingTime="0.00" speed="19.60" departed="0" arrived="0" entered="29" left="27" laneChangedFrom="0" laneChangedTo="0"/>
        <edge id="8/1to9/1" sampledSeconds="725.14" traveltime="50.00" overlapTraveltime="50.25" density="12.33" laneDensity="12.33" occupancy="6.14" waitingTime="0.00" speed="19.60" departed="0" arrived="0" entered="27" left="2" laneChangedFrom="0" laneChangedTo="0"/>
        <edge id="9/1to10/1" sampledSeconds="5.44" traveltime="50.00" overlapTraveltime="50.25" density="0.09" laneDensity="0.09" occupancy="0.04" waitingTime="0.00" speed="19.60" departed="0" arrived="0" entered="2" left="0" laneChangedFrom="0" laneChangedTo="0"/>
    </interval>
    <interval begin="360.00" end="420.00" id="dump_60">
        <edge id="1/1to2/1" sampledSeconds="1298.98" traveltime="54.77" overlapTraveltime="55.03" density="22.09" laneDensity="22.09" occupancy="10.80" waitingTime="0.00" speed="17.90" departed="23" arrived="0" entered="0" left="24" laneChangedFrom="0" laneChangedTo="0"/>
        <edge id="10/1to1/1" sampledSeconds="51.84" traveltime="50.00" overlapTraveltime="50.25" density="0.88" laneDensity="0.88" occupancy="0.43" waitingTime="0.00" speed="19.60" departed="0" arrived="0" entered="7" left="0" laneChangedFrom="0" laneChangedTo="0"/>
        <edge id="2/1to3/1" sampledSeconds="1186.15" traveltime="50.00" overlapTraveltime="50.25" density="20.17" laneDensity="20.17" occupancy="10.03" waitingTime="0.00" speed="19.60" departed="0" arrived="0" entered="24" left="24" laneChangedFrom="0" laneChangedTo="0"/>
        <edge id="3/1to4/1" sampledSeconds="1186.75" traveltime="50.00" overlapTraveltime="50.25" density="20.18" laneDensity="20.18" occupancy="10.04" waitingTime="0.00" speed="19.60" departed="0" arrived="0" entered="24" left="23" laneChangedFrom="0" laneChangedTo="0"/>
        <edge id="4/1to5/1" sampledSeconds="1187.17" traveltime="50.00" overlapTraveltime="50.25" density="20.19" laneDensity="20.19" occupancy="10.04" waitingTime="0.00" speed="19.60" departed="0" arrived="0" entered="23" left="24" laneChangedFrom="0" laneChangedTo="0"/>
        <edge id="5/1to6/1" sampledSeconds="1296.09" traveltime="50.52" overlapTraveltime="50.78" density="22.04" laneDensity="22.04" occupancy="10.96" waitingTime="0.00" speed="19.39" departed="0" arrived="0" entered="24" left="29" laneChangedFrom="0" laneChangedTo="0"/>
        <edge id="6/1to7/1" sampledSeconds="1489.68" traveltime="50.63" overlapTraveltime="50.89" density="25.34" laneDensity="25.34" occupancy="12.60" waitingTime="0.00" speed="19.35" departed="0" arrived="0" entered="29" left="29" laneChangedFrom="0" laneChangedTo="0"/>
        <edge id="7/1to8/1" sampledSeconds="1459.62" traveltime="50.00" overlapTraveltime="50.25" density="24.82" laneDensity="24.82" occupancy="12.35" waitingTime="0.00" speed="19.60" departed="0" arrived="0" entered="29" left="29" laneChangedFrom="0" laneChangedTo="0"/>
        <edge id="8/1to9/1" sampledSeconds="1459.72" traveltime="50.00" overlapTraveltime="50.25" density="24.83" laneDensity="24.83" occupancy="12.35" waitingTime="0.00" speed="19.60" departed="0" arrived="0" entered="29" left="29" laneChangedFrom="0" laneChangedTo="0"/>
        <edge id="9/1to10/1" sampledSeconds="959.24" traveltime="50.00" overlapTraveltime="50.25" density="16.31" laneDensity="16.31" occupancy="8.12" waitingTime="0.00" speed="19.60" departed="0" arrived="0" entered="29" left="7" laneChangedFrom="0" laneChangedTo="0"/>
    </interval>
    <interval begin="420.00" end="480.00" id="dump_60">
        <edge id="1/1to2/1" sampledSeconds="1279.09" traveltime="54.20" overlapTraveltime="54.45" density="21.75" laneDensity="21.75" occupancy="10.74" waitingTime="0.00" speed="18.09" departed="14" arrived="0" entered="11" left="23" laneChangedFrom="0" laneChangedTo="0"/>
        <edge id="10/1to1/1" sampledSeconds="1174.01" traveltime="50.98" overlapTraveltime="51.32" density="19.97" laneDensity="19.97" occupancy="9.93" waitingTime="0.00" speed="19.19" departed="0" arrived="0" entered="29" left="11" laneChangedFrom="0" laneChangedTo="0"/>
        <edge id="2/1to3/1" sampledSeconds="1187.07" traveltime="50.00" overlapTraveltime="50.25" density="20.19" laneDensity="20.19" occupancy="10.04" waitingTime="0.00" speed="19.60" departed="0" arrived="0" entered="23" left="24" laneChangedFrom="0" laneChangedTo="0"/>
        <edge id="3/1to4/1" sampledSeconds="1186.33" traveltime="50.00" overlapTraveltime="50.25" density="20.18" laneDensity="20.18" occupancy="10.04" waitingTime="0.00" speed="19.60" departed="0" arrived="0" entered="24" left="24" laneChangedFrom="0" laneChangedTo="0"/>
        <edge id="4/1to5/1" sampledSeconds="1186.37" traveltime="50.00" overlapTraveltime="50.25" density="20.18" laneDensity="20.18" occupancy="10.04" waitingTime="0.00" speed="19.60" departed="0" arrived="0" entered="24" left="23" laneChangedFrom="0" laneChangedTo="0"/>
        <edge id="5/1to6/1" sampledSeconds="1187.21" traveltime="50.00" overlapTraveltime="50.25" density="20.19" laneDensity="20.19" occupancy="10.05" waitingTime="0.00" speed="19.60" departed="0" arrived="0" entered="23" left="23" laneChangedFrom="0" laneChangedTo="0"/>
        <edge id="6/1to7/1" sampledSeconds="1279.02" traveltime="50.39" overlapTraveltime="50.65" density="21.75" laneDensity="21.75" occupancy="10.82" waitingTime="0.00" speed="19.45" departed="0" arrived="0" entered="23" left="28" laneChangedFrom="0" laneChangedTo="0"/>
        <edge id="7/1to8/1" sampledSeconds="1453.17" traveltime="50.09" overlapTraveltime="50.35" density="24.72" laneDensity="24.72" occupancy="12.30" waitingTime="0.00" speed="19.56" departed="0" arrived="0" entered="28" left="29" laneChangedFrom="0" laneChangedTo="0"/>
        <edge id="8/1to9/1" sampledSeconds="1459.74" traveltime="50.01" overlapTraveltime="50.26" density="24.83" laneDensity="24.83" occupancy="12.35" waitingTime="0.00" speed="19.60" departed="0" arrived="0" entered="29" left="29" laneChangedFrom="0" laneChangedTo="0"/>
        <edge id="9/1to10/1" sampledSeconds="1459.70" traveltime="50.01" overlapTraveltime="50.27" density="24.83" laneDensity="24.83" occupancy="12.35" waitingTime="0.00" speed="19.59" departed="0" arrived="0" entered="29" left="29" laneChangedFrom="0" laneChangedTo="0"/>
    </interval>
    <interval begin="480.00" end="540.00" id="dump_60">
        <edge id="1/1to2/1" sampledSeconds="1541.84" traveltime="52.26" overlapTraveltime="52.52" density="26.22" laneDensity="26.22" occupancy="13.05" waitingTime="0.00" speed="18.75" departed="0" arrived="0" entered="30" left="26" laneChangedFrom="0" laneChangedTo="0"/>
        <edge id="10/1to1/1" sampledSeconds="1478.49" traveltime="50.59" overlapTraveltime="50.88" density="25.15" laneDensity="25.15" occupancy="12.51" waitingTime="0.00" speed="19.36" departed="0" arrived="0" entered="29" left="30" laneChangedFrom="0" laneChangedTo="0"/>
        <edge id="2/1to3/1" sampledSeconds="1199.30" traveltime="50.02" overlapTraveltime="50.28" density="20.40" laneDensity="20.40" occupancy="10.15" waitingTime="0.00" speed="19.59" departed="0" arrived="0" entered="26" left="23" laneChangedFrom="0" laneChangedTo="0"/>
        <edge id="3/1to4/1" sampledSeconds="1187.21" traveltime="50.00" overlapTraveltime="50.25" density="20.19" laneDensity="20.19" occupancy="10.05" waitingTime="0.00" speed="19.60" departed="0" arrived="0" entered="23" left="24" laneChangedFrom="0" laneChangedTo="0"/>
        <edge id="4/1to5/1" sampledSeconds="1186.33" traveltime="50.00" overlapTraveltime="50.25" density="20.18" laneDensity="20.18" occupancy="10.04" waitingTime="0.00" speed="19.60" departed="0" arrived="0" entered="24" left="24" laneChangedFrom="0" laneChangedTo="0"/>
        <edge id="5/1to6/1" sampledSeconds="1186.15" traveltime="50.00" overlapTraveltime="50.25" density="20.17" laneDensity="20.17" occupancy="10.03" waitingTime="0.00" speed="19.60" departed="0" arrived="0" entered="24" left="24" laneChangedFrom="0" laneChangedTo="0"/>
        <edge id="6/1to7/1" sampledSeconds="1187.15" traveltime="50.00" overlapTraveltime="50.25" density="20.19" laneDensity="20.19" occupancy="10.04" waitingTime="0.00" speed="19.60" departed="0" arrived="0" entered="24" left="23" laneChangedFrom="0" laneChangedTo="0"/>
        <edge id="7/1to8/1" sampledSeconds="1245.88" traveltime="50.02" overlapTraveltime="50.27" density="21.19" laneDensity="21.19" occupancy="10.54" waitingTime="0.00" speed="19.59" departed="0" arrived="0" entered="23" left="27" laneChangedFrom="0" laneChangedTo="0"/>
        <edge id="8/1to9/1" sampledSeconds="1434.17" traveltime="50.05" overlapTraveltime="50.30" density="24.39" laneDensity="24.39" occupancy="12.14" waitingTime="0.00" speed="19.58" departed="0" arrived="0" entered="27" left="29" laneChangedFrom="0" laneChangedTo="0"/>
        <edge id="9/1to10/1" sampledSeconds="1459.82" traveltime="50.05" overlapTraveltime="50.31" density="24.83" laneDensity="24.83" occupancy="12.35" waitingTime="0.00" speed="19.58" departed="0" arrived="0" entered="29" left="29" laneChangedFrom="0" laneChangedTo="0"/>
    </interval>
    <interval begin="540.00" end="600.00" id="dump_60">
        <edge id="1/1to2/1" sampledSeconds="1537.78" traveltime="51.29" overlapTraveltime="51.55" density="26.15" laneDensity="26.15" occupancy="13.01" waitingTime="0.00" speed="19.11" departed="0" arrived="0" entered="29" left="31" laneChangedFrom="0" laneChangedTo="0"/>
        <edge id="10/1to1/1" sampledSeconds="1460.75" traveltime="50.07" overlapTraveltime="50.33" density="24.84" laneDensity="24.84" occupancy="12.36" waitingTime="0.00" speed="19.57" departed="0" arrived="0" entered="29" left="29" laneChangedFrom="0" laneChangedTo="0"/>
        <edge id="2/1to3/1" sampledSeconds="1511.39" traveltime="50.95" overlapTraveltime="51.21" density="25.71" laneDensity="25.71" occupancy="12.79" waitingTime="0.00" speed="19.23" departed="0" arrived="0" entered="31" left="27" laneChangedFrom="0" laneChangedTo="0"/>
        <edge id="3/1to4/1" sampledSeconds="1221.02" traveltime="50.00" overlapTraveltime="50.25" density="20.77" laneDensity="20.77" occupancy="10.33" waitingTime="0.00" speed="19.60" departed="0" arrived="0" entered="27" left="23" laneChangedFrom="0" laneChangedTo="0"/>
        <edge id="4/1to5/1" sampledSeconds="1187.03" traveltime="50.00" overlapTraveltime="50.25" density="20.19" laneDensity="20.19" occupancy="10.04" waitingTime="0.00" speed="19.60" departed="0" arrived="0" entered="23" left="23" laneChangedFrom="0" laneChangedTo="0"/>
        <edge id="5/1to6/1" sampledSeconds="1186.84" traveltime="50.00" overlapTraveltime="50.25" density="20.19" laneDensity="20.19" occupancy="10.04" waitingTime="0.00" speed="19.60" departed="0" arrived="0" entered="23" left="24" laneChangedFrom="0" laneChangedTo="0"/>
        <edge id="6/1to7/1" sampledSeconds="1186.15" traveltime="50.00" overlapTraveltime="50.25" density="20.17" laneDensity="20.17" occupancy="10.03" waitingTime="0.00" speed="19.60" departed="0" arrived="0" entered="24" left="24" laneChangedFrom="0" laneChangedTo="0"/>
        <edge id="7/1to8/1" sampledSeconds="1186.77" traveltime="50.00" overlapTraveltime="50.25" density="20.18" laneDensity="20.18" occupancy="10.04" waitingTime="0.00" speed="19.60" departed="0" arrived="0" entered="24" left="23" laneChangedFrom="0" laneChangedTo="0"/>
        <edge id="8/1to9/1" sampledSeconds="1218.90" traveltime="50.00" overlapTraveltime="50.26" density="20.73" laneDensity="20.73" occupancy="10.31" waitingTime="0.00" speed="19.60" departed="0" arrived="0" entered="23" left="26" laneChangedFrom="0" laneChangedTo="0"/>
        <edge id="9/1to10/1" sampledSeconds="1409.56" traveltime="50.04" overlapTraveltime="50.30" density="23.97" laneDensity="23.97" occupancy="11.93" waitingTime="0.00" speed="19.58" departed="0" arrived="0" entered="26" left="29" laneChangedFrom="0" laneChangedTo="0"/>
    </interval>
    <interval begin="600.00" end="660.00" id="dump_60">
        <edge id="1/1to2/1" sampledSeconds="1485.30" traveltime="50.68" overlapTraveltime="50.94" density="25.26" laneDensity="25.26" occupancy="12.57" waitingTime="0.00" speed="19.34" departed="0" arrived="0" entered="29" left="29" laneChangedFrom="0" laneChangedTo="0"/>
        <edge id="10/1to1/1" sampledSeconds="1376.71" traveltime="50.04" overlapTraveltime="50.29" density="23.41" laneDensity="23.41" occupancy="11.65" waitingTime="0.00" speed="19.58" departed="0" arrived="0" entered="25" left="29" laneChangedFrom="0" laneChangedTo="0"/>
        <edge id="2/1to3/1" sampledSeconds="1547.45" traveltime="51.46" overlapTraveltime="51.72" density="26.32" laneDensity="26.32" occupancy="13.09" waitingTime="0.00" speed="19.04" departed="0" arrived="0" entered="29" left="30" laneChangedFrom="0" laneChangedTo="0"/>
        <edge id="3/1to4/1" sampledSeconds="1496.40" traveltime="50.54" overlapTraveltime="50.80" density="25.45" laneDensity="25.45" occupancy="12.66" waitingTime="0.00" speed="19.39" departed="0" arrived="0" entered="30" left="28" laneChangedFrom="0" laneChangedTo="0"/>
        <edge id="4/1to5/1" sampledSeconds="1260.95" traveltime="50.00" overlapTraveltime="50.25" density="21.45" laneDensity="21.45" occupancy="10.67" waitingTime="0.00" speed="19.60" departed="0" arrived="0" entered="27" left="23" laneChangedFrom="0" laneChangedTo="0"/>
        <edge id="5/1to6/1" sampledSeconds="1179.29" traveltime="50.00" overlapTraveltime="50.25" density="20.06" laneDensity="20.06" occupancy="9.98" waitingTime="0.00" speed="19.60" departed="0" arrived="0" entered="23" left="23" laneChangedFrom="0" laneChangedTo="0"/>
        <edge id="6/1to7/1" sampledSeconds="1187.21" traveltime="50.00" overlapTraveltime="50.25" density="20.19" laneDensity="20.19" occupancy="10.05" waitingTime="0.00" speed="19.60" departed="0" arrived="0" entered="23" left="24" laneChangedFrom="0" laneChangedTo="0"/>
        <edge id="7/1to8/1" sampledSeconds="1186.15" traveltime="50.00" overlapTraveltime="50.25" density="20.17" laneDensity="20.17" occupancy="10.04" waitingTime="0.00" speed="19.60" departed="0" arrived="0" entered="24" left="24" laneChangedFrom="0" laneChangedTo="0"/>
        <edge id="8/1to9/1" sampledSeconds="1186.51" traveltime="50.00" overlapTraveltime="50.25" density="20.18" laneDensity="20.18" occupancy="10.04" waitingTime="0.00" speed="19.60" departed="0" arrived="0" entered="24" left="24" laneChangedFrom="0" laneChangedTo="0"/>
        <edge id="9/1to10/1" sampledSeconds="1200.11" traveltime="50.00" overlapTraveltime="50.25" density="20.41" laneDensity="20.41" occupancy="10.15" waitingTime="0.00" speed="19.60" departed="0" arrived="0" entered="24" left="25" laneChangedFrom="0" laneChangedTo="0"/>
    </interval>
    <interval begin="660.00" end="720.00" id="dump_60">
        <edge id="1/1to2/1" sampledSeconds="1345.57" traveltime="50.28" overlapTraveltime="50.54" density="22.89" laneDensity="22.89" occupancy="11.38" waitingTime="0.00" speed="19.49" departed="0" arrived="0" entered="24" left="30" laneChangedFrom="0" laneChangedTo="0"/>
        <edge id="10/1to1/1" sampledSeconds="1189.37" traveltime="50.00" overlapTraveltime="50.25" density="20.23" laneDensity="20.23" occupancy="10.06" waitingTime="0.00" speed="19.60" departed="0" arrived="0" entered="24" left="24" laneChangedFrom="0" laneChangedTo="0"/>
        <edge id="2/1to3/1" sampledSeconds="1506.27" traveltime="51.18" overlapTraveltime="51.45" density="25.62" laneDensity="25.62" occupancy="12.74" waitingTime="0.00" speed="19.15" departed="0" arrived="0" entered="29" left="30" laneChangedFrom="0" laneChangedTo="0"/>
        <edge id="3/1to4/1" sampledSeconds="1543.14" traveltime="51.41" overlapTraveltime="51.67" density="26.25" laneDensity="26.25" occupancy="13.06" waitingTime="0.00" speed="19.06" departed="0" arrived="0" entered="30" left="29" laneChangedFrom="0" laneChangedTo="0"/>
        <edge id="4/1to5/1" sampledSeconds="1472.72" traveltime="50.18" overlapTraveltime="50.43" density="25.05" laneDensity="25.05" occupancy="12.46" waitingTime="0.00" speed="19.53" departed="0" arrived="0" entered="30" left="29" laneChangedFrom="0" laneChangedTo="0"/>
        <edge id="5/1to6/1" sampledSeconds="1313.38" traveltime="50.00" overlapTraveltime="50.25" density="22.34" laneDensity="22.34" occupancy="11.11" waitingTime="0.00" speed="19.60" departed="0" arrived="0" entered="29" left="24" laneChangedFrom="0" laneChangedTo="0"/>
        <edge id="6/1to7/1" sampledSeconds="1175.73" traveltime="50.00" overlapTraveltime="50.25" density="20.00" laneDensity="20.00" occupancy="9.95" waitingTime="0.00" speed="19.60" departed="0" arrived="0" entered="24" left="23" laneChangedFrom="0" laneChangedTo="0"/>
        <edge id="7/1to8/1" sampledSeconds="1187.21" traveltime="50.00" overlapTraveltime="50.25" density="20.19" laneDensity="20.19" occupancy="10.05" waitingTime="0.00" speed="19.60" departed="0" arrived="0" entered="23" left="23" laneChangedFrom="0" laneChangedTo="0"/>
        <edge id="8/1to9/1" sampledSeconds="1186.44" traveltime="50.00" overlapTraveltime="50.25" density="20.18" laneDensity="20.18" occupancy="10.04" waitingTime="0.00" speed="19.60" departed="0" arrived="0" entered="23" left="24" laneChangedFrom="0" laneChangedTo="0"/>
        <edge id="9/1to10/1" sampledSeconds="1186.51" traveltime="50.00" overlapTraveltime="50.25" density="20.18" laneDensity="20.18" occupancy="10.04" waitingTime="0.00" speed="19.60" departed="0" arrived="0" entered="24" left="24" laneChangedFrom="0" laneChangedTo="0"/>
    </interval>
    <interval begin="720.00" end="780.00" id="dump_60">
        <edge id="1/1to2/1" sampledSeconds="1186.69" traveltime="50.00" overlapTraveltime="50.25" density="20.18" laneDensity="20.18" occupancy="10.04" waitingTime="0.00" speed="19.60" departed="0" arrived="0" entered="24" left="23" laneChangedFrom="0" laneChangedTo="0"/>
        <edge id="10/1to1/1" sampledSeconds="1186.33" traveltime="50.00" overlapTraveltime="50.25" density="20.18" laneDensity="20.18" occupancy="10.04" waitingTime="0.00" speed="19.60" departed="0" arrived="0" entered="24" left="24" laneChangedFrom="0" laneChangedTo="0"/>
        <edge id="2/1to3/1" sampledSeconds="1327.09" traveltime="50.55" overlapTraveltime="50.81" density="22.57" laneDensity="22.57" occupancy="11.23" waitingTime="0.00" speed="19.38" departed="0" arrived="0" entered="24" left="28" laneChangedFrom="0" laneChangedTo="0"/>
        <edge id="3/1to4/1" sampledSeconds="1507.44" traveltime="51.21" overlapTraveltime="51.48" density="25.64" laneDensity="25.64" occupancy="12.75" waitingTime="0.00" speed="19.13" departed="0" arrived="0" entered="28" left="30" laneChangedFrom="0" laneChangedTo="0"/>
        <edge id="4/1to5/1" sampledSeconds="1522.17" traveltime="51.16" overlapTraveltime="51.41" density="25.89" laneDensity="25.89" occupancy="12.88" waitingTime="0.00" speed="19.16" departed="0" arrived="0" entered="30" left="29" laneChangedFrom="0" laneChangedTo="0"/>
        <edge id="5/1to6/1" sampledSeconds="1459.92" traveltime="50.00" overlapTraveltime="50.26" density="24.83" laneDensity="24.83" occupancy="12.35" waitingTime="0.00" speed="19.60" departed="0" arrived="0" entered="29" left="29" laneChangedFrom="0" laneChangedTo="0"/>
        <edge id="6/1to7/1" sampledSeconds="1361.59" traveltime="50.00" overlapTraveltime="50.25" density="23.16" laneDensity="23.16" occupancy="11.52" waitingTime="0.00" speed="19.60" departed="0" arrived="0" entered="29" left="25" laneChangedFrom="0" laneChangedTo="0"/>