<?xml version="1.0" encoding="UTF-8"?>

<!-- generated on 2022-09-01 21:47:21 by Eclipse SUMO sumo Version v1_14_1+0775-edc6051
This data file and the accompanying materials
are made available under the terms of the Eclipse Public License v2.0
which accompanies this distribution, and is available at
http://www.eclipse.org/legal/epl-v20.html
This file may also be made available under the following Secondary
Licenses when the conditions for such availability set forth in the Eclipse
Public License 2.0 are satisfied: GNU General Public License, version 2
or later which is available at
https://www.gnu.org/licenses/old-licenses/gpl-2.0-standalone.html
SPDX-License-Identifier: EPL-2.0 OR GPL-2.0-or-later
<configuration xmlns:xsi="http://www.w3.org/2001/XMLSchema-instance" xsi:noNamespaceSchemaLocation="http://sumo.dlr.de/xsd/sumoConfiguration.xsd">

    <input>
        <net-file value="net.net.xml"/>
        <route-files value="input_routes.rou.xml"/>
        <additional-files value="input_additional.add.xml,input_additional2.add.xml"/>
    </input>

    <output>
        <write-license value="true"/>
        <tripinfo-output.write-unfinished value="true"/>
    </output>

    <time>
        <begin value="0"/>
        <end value="3000"/>
        <step-length value="0.25"/>
    </time>

    <processing>
        <default.speeddev value="0"/>
    </processing>

    <report>
        <xml-validation value="never"/>
        <duration-log.statistics value="true"/>
        <no-step-log value="true"/>
    </report>

</configuration>
-->

<meandata xmlns:xsi="http://www.w3.org/2001/XMLSchema-instance" xsi:noNamespaceSchemaLocation="http://sumo.dlr.de/xsd/meandata_file.xsd">
    <interval begin="0.00" end="60.00" id="dump_60">
        <edge id="1/1to2/1" sampledSeconds="1002.87" traveltime="274.63" overlapTraveltime="268.27" density="17.06" laneDensity="17.06" occupancy="8.48" waitingTime="595.50" timeLoss="815.02" speed="3.67" speedRelative="0.19" departed="60" arrived="0" entered="0" left="29" laneChangedFrom="0" laneChangedTo="0"/>
        <edge id="2/1to3/1" sampledSeconds="808.88" traveltime="51.95" overlapTraveltime="52.21" density="13.76" laneDensity="13.76" occupancy="6.83" waitingTime="0.00" timeLoss="30.40" speed="18.86" speedRelative="0.96" departed="0" arrived="0" entered="29" left="3" laneChangedFrom="0" laneChangedTo="0"/>
        <edge id="3/1to4/1" sampledSeconds="7.79" traveltime="50.00" overlapTraveltime="50.25" density="0.13" laneDensity="0.13" occupancy="0.06" waitingTime="0.00" timeLoss="0.00" speed="19.60" speedRelative="1.00" departed="0" arrived="0" entered="3" left="0" laneChangedFrom="0" laneChangedTo="0"/>
    </interval>
    <interval begin="60.00" end="120.00" id="dump_60">
        <edge id="1/1to2/1" sampledSeconds="2779.46" traveltime="233.10" overlapTraveltime="231.97" density="47.27" laneDensity="47.27" occupancy="23.60" waitingTime="1901.00" timeLoss="2177.34" speed="4.25" speedRelative="0.22" departed="60" arrived="0" entered="0" left="30" laneChangedFrom="0" laneChangedTo="0"/>
        <edge id="2/1to3/1" sampledSeconds="1584.00" traveltime="51.61" overlapTraveltime="51.87" density="26.94" laneDensity="26.94" occupancy="13.40" waitingTime="0.00" timeLoss="49.51" speed="18.99" speedRelative="0.97" departed="0" arrived="0" entered="30" left="30" laneChangedFrom="0" laneChangedTo="0"/>
        <edge id="3/1to4/1" sampledSeconds="1000.24" traveltime="50.42" overlapTraveltime="50.68" density="17.01" laneDensity="17.01" occupancy="8.46" waitingTime="0.00" timeLoss="8.45" speed="19.43" speedRelative="0.99" departed="0" arrived="0" entered="30" left="8" laneChangedFrom="0" laneChangedTo="0"/>
        <edge id="4/1to5/1" sampledSeconds="58.25" traveltime="50.00" overlapTraveltime="50.25" density="0.99" laneDensity="0.99" occupancy="0.49" waitingTime="0.00" timeLoss="0.00" speed="19.60" speedRelative="1.00" departed="0" arrived="0" entered="8" left="0" laneChangedFrom="0" laneChangedTo="0"/>
    </interval>
    <interval begin="120.00" end="180.00" id="dump_60">
        <edge id="1/1to2/1" sampledSeconds="3690.77" traveltime="181.44" overlapTraveltime="181.36" density="62.77" laneDensity="62.77" occupancy="31.13" waitingTime="2375.50" timeLoss="2668.10" speed="5.43" speedRelative="0.28" departed="19" arrived="0" entered="0" left="31" laneChangedFrom="0" laneChangedTo="0"/>
        <edge id="2/1to3/1" sampledSeconds="1592.09" traveltime="51.74" overlapTraveltime="52.01" density="27.08" laneDensity="27.08" occupancy="13.47" waitingTime="0.00" timeLoss="53.69" speed="18.94" speedRelative="0.97" departed="0" arrived="0" entered="31" left="31" laneChangedFrom="0" laneChangedTo="0"/>
        <edge id="3/1to4/1" sampledSeconds="1564.64" traveltime="51.44" overlapTraveltime="51.70" density="26.61" laneDensity="26.61" occupancy="13.24" waitingTime="0.00" timeLoss="43.71" speed="19.05" speedRelative="0.97" departed="0" arrived="0" entered="30" left="29" laneChangedFrom="0" laneChangedTo="0"/>
        <edge id="4/1to5/1" sampledSeconds="1171.32" traveltime="50.04" overlapTraveltime="50.30" density="19.92" laneDensity="19.92" occupancy="9.92" waitingTime="0.00" timeLoss="1.07" speed="19.58" speedRelative="1.00" departed="0" arrived="0" entered="29" left="12" laneChangedFrom="0" laneChangedTo="0"/>
        <edge id="5/1to6/1" sampledSeconds="155.98" traveltime="50.00" overlapTraveltime="50.25" density="2.65" laneDensity="2.65" occupancy="1.31" waitingTime="0.00" timeLoss="0.00" speed="19.60" speedRelative="1.00" departed="0" arrived="0" entered="12" left="0" laneChangedFrom="0" laneChangedTo="0"/>
    </interval>
    <interval begin="180.00" end="240.00" id="dump_60">
        <edge id="1/1to2/1" sampledSeconds="2120.44" traveltime="74.97" overlapTraveltime="75.23" density="36.06" laneDensity="36.06" occupancy="17.73" waitingTime="439.25" timeLoss="703.94" speed="13.09" speedRelative="0.67" departed="9" arrived="0" entered="0" left="31" laneChangedFrom="0" laneChangedTo="0"/>
        <edge id="2/1to3/1" sampledSeconds="1594.03" traveltime="51.77" overlapTraveltime="52.04" density="27.11" laneDensity="27.11" occupancy="13.49" waitingTime="0.00" timeLoss="54.72" speed="18.93" speedRelative="0.97" departed="0" arrived="0" entered="31" left="30" laneChangedFrom="0" laneChangedTo="0"/>
        <edge id="3/1to4/1" sampledSeconds="1591.12" traveltime="51.75" overlapTraveltime="52.02" density="27.06" laneDensity="27.06" occupancy="13.46" waitingTime="0.00" timeLoss="53.99" speed="18.93" speedRelative="0.97" departed="0" arrived="0" entered="31" left="31" laneChangedFrom="0" laneChangedTo="0"/>
        <edge id="4/1to5/1" sampledSeconds="1529.44" traveltime="50.89" overlapTraveltime="51.14" density="26.01" laneDensity="26.01" occupancy="12.94" waitingTime="0.00" timeLoss="26.65" speed="19.26" speedRelative="0.98" departed="0" arrived="0" entered="31" left="29" laneChangedFrom="0" laneChangedTo="0"/>
        <edge id="5/1to6/1" sampledSeconds="1309.96" traveltime="50.00" overlapTraveltime="50.25" density="22.28" laneDensity="22.28" occupancy="11.09" waitingTime="0.00" timeLoss="0.00" speed="19.60" speedRelative="1.00" departed="0" arrived="0" entered="29" left="17" laneChangedFrom="0" laneChangedTo="0"/>
        <edge id="6/1to7/1" sampledSeconds="300.60" traveltime="50.00" overlapTraveltime="50.25" density="5.11" laneDensity="5.11" occupancy="2.54" waitingTime="0.00" timeLoss="0.00" speed="19.60" speedRelative="1.00" departed="0" arrived="0" entered="17" left="0" laneChangedFrom="0" laneChangedTo="0"/>
    </interval>
    <interval begin="240.00" end="300.00" id="dump_60">
        <edge id="1/1to2/1" sampledSeconds="1420.63" traveltime="55.01" overlapTraveltime="55.27" density="24.16" laneDensity="24.16" occupancy="11.82" waitingTime="0.00" timeLoss="128.90" speed="17.82" speedRelative="0.91" departed="23" arrived="0" entered="0" left="29" laneChangedFrom="0" laneChangedTo="0"/>
        <edge id="2/1to3/1" sampledSeconds="1581.77" traveltime="51.66" overlapTraveltime="51.92" density="26.90" laneDensity="26.90" occupancy="13.38" waitingTime="0.00" timeLoss="50.90" speed="18.97" speedRelative="0.97" departed="0" arrived="0" entered="29" left="31" laneChangedFrom="0" laneChangedTo="0"/>
        <edge id="3/1to4/1" sampledSeconds="1595.61" traveltime="51.78" overlapTraveltime="52.05" density="27.14" laneDensity="27.14" occupancy="13.50" waitingTime="0.00" timeLoss="54.99" speed="18.92" speedRelative="0.97" departed="0" arrived="0" entered="31" left="30" laneChangedFrom="0" laneChangedTo="0"/>
        <edge id="4/1to5/1" sampledSeconds="1584.11" traveltime="51.64" overlapTraveltime="51.91" density="26.94" laneDensity="26.94" occupancy="13.40" waitingTime="0.00" timeLoss="50.57" speed="18.97" speedRelative="0.97" departed="0" arrived="0" entered="30" left="31" laneChangedFrom="0" laneChangedTo="0"/>
        <edge id="5/1to6/1" sampledSeconds="1497.15" traveltime="50.51" overlapTraveltime="50.77" density="25.46" laneDensity="25.46" occupancy="12.67" waitingTime="0.00" timeLoss="15.14" speed="19.40" speedRelative="0.99" departed="0" arrived="0" entered="31" left="29" laneChangedFrom="0" laneChangedTo="0"/>
        <edge id="6/1to7/1" sampledSeconds="1405.07" traveltime="50.00" overlapTraveltime="50.25" density="23.90" laneDensity="23.90" occupancy="11.89" waitingTime="0.00" timeLoss="0.00" speed="19.60" speedRelative="1.00" departed="0" arrived="0" entered="29" left="22" laneChangedFrom="0" laneChangedTo="0"/>
        <edge id="7/1to8/1" sampledSeconds="492.06" traveltime="50.00" overlapTraveltime="50.25" density="8.37" laneDensity="8.37" occupancy="4.16" waitingTime="0.00" timeLoss="0.00" speed="19.60" speedRelative="1.00" departed="0" arrived="0" entered="22" left="0" laneChangedFrom="0" laneChangedTo="0"/>
    </interval>
    <interval begin="300.00" end="360.00" id="dump_60">
        <edge id="1/1to2/1" sampledSeconds="1298.12" traveltime="54.77" overlapTraveltime="55.03" density="22.08" laneDensity="22.08" occupancy="10.80" waitingTime="0.00" timeLoss="112.65" speed="17.90" speedRelative="0.91" departed="24" arrived="0" entered="0" left="23" laneChangedFrom="0" laneChangedTo="0"/>
        <edge id="2/1to3/1" sampledSeconds="1295.59" traveltime="50.54" overlapTraveltime="50.80" density="22.04" laneDensity="22.04" occupancy="10.96" waitingTime="0.00" timeLoss="14.01" speed="19.39" speedRelative="0.99" departed="0" arrived="0" entered="23" left="28" laneChangedFrom="0" laneChangedTo="0"/>
        <edge id="3/1to4/1" sampledSeconds="1579.65" traveltime="51.74" overlapTraveltime="52.00" density="26.87" laneDensity="26.87" occupancy="13.37" waitingTime="0.00" timeLoss="53.11" speed="18.94" speedRelative="0.97" departed="0" arrived="0" entered="28" left="31" laneChangedFrom="0" laneChangedTo="0"/>
        <edge id="4/1to5/1" sampledSeconds="1597.39" traveltime="51.77" overlapTraveltime="52.04" density="27.17" laneDensity="27.17" occupancy="13.52" waitingTime="0.00" timeLoss="54.82" speed="18.93" speedRelative="0.97" departed="0" arrived="0" entered="31" left="30" laneChangedFrom="0" laneChangedTo="0"/>
        <edge id="5/1to6/1" sampledSeconds="1568.55" traveltime="51.49" overlapTraveltime="51.75" density="26.68" laneDensity="26.68" occupancy="13.27" waitingTime="0.00" timeLoss="45.31" speed="19.03" speedRelative="0.97" departed="0" arrived="0" entered="30" left="30" laneChangedFrom="0" laneChangedTo="0"/>
        <edge id="6/1to7/1" sampledSeconds="1472.27" traveltime="50.19" overlapTraveltime="50.44" density="25.04" laneDensity="25.04" occupancy="12.46" waitingTime="0.00" timeLoss="5.56" speed="19.53" speedRelative="1.00" departed="0" arrived="0" entered="30" left="29" laneChangedFrom="0" laneChangedTo="0"/>
        <edge id="7/1to8/1" sampledSeconds="1453.35" traveltime="50.00" overlapTraveltime="50.25" density="24.72" laneDensity="24.72" occupancy="12.30" waitingTime="0.00" timeLoss="0.00" speed="19.60" speedRelative="1.00" departed="0" arrived="0" entered="29" left="27" laneChangedFrom="0" laneChangedTo="0"/>
        <edge id="8/1to9/1" sampledSeconds="725.12" traveltime="50.00" overlapTraveltime="50.25" density="12.33" laneDensity="12.33" occupancy="6.13" waitingTime="0.00" timeLoss="0.00" speed="19.60" speedRelative="1.00" departed="0" arrived="0" entered="27" left="2" laneChangedFrom="0" laneChangedTo="0"/>
        <edge id="9/1to10/1" sampledSeconds="5.44" traveltime="50.00" overlapTraveltime="50.25" density="0.09" laneDensity="0.09" occupancy="0.04" waitingTime="0.00" timeLoss="0.00" speed="19.60" speedRelative="1.00" departed="0" arrived="0" entered="2" left="0" laneChangedFrom="0" laneChangedTo="0"/>
    </interval>
    <interval begin="360.00" end="420.00" id="dump_60">
        <edge id="1/1to2/1" sampledSeconds="1298.81" traveltime="54.78" overlapTraveltime="55.04" density="22.09" laneDensity="22.09" occupancy="10.80" waitingTime="0.00" timeLoss="112.94" speed="17.90" speedRelative="0.91" departed="23" arrived="0" entered="0" left="24" laneChangedFrom="0" laneChangedTo="0"/>
        <edge id="10/1to1/1" sampledSeconds="51.84" traveltime="50.00" overlapTraveltime="50.25" density="0.88" laneDensity="0.88" occupancy="0.43" waitingTime="0.00" timeLoss="0.00" speed="19.60" speedRelative="1.00" departed="0" arrived="0" entered="7" left="0" laneChangedFrom="0" laneChangedTo="0"/>
        <edge id="2/1to3/1" sampledSeconds="1186.15" traveltime="50.00" overlapTraveltime="50.25" density="20.17" laneDensity="20.17" occupancy="10.03" waitingTime="0.00" timeLoss="0.00" speed="19.60" speedRelative="1.00" departed="0" arrived="0" entered="24" left="24" laneChangedFrom="0" laneChangedTo="0"/>
        <edge id="3/1to4/1" sampledSeconds="1286.64" traveltime="50.53" overlapTraveltime="50.79" density="21.88" laneDensity="21.88" occupancy="10.88" waitingTime="0.00" timeLoss="13.75" speed="19.39" speedRelative="0.99" departed="0" arrived="0" entered="24" left="28" laneChangedFrom="0" laneChangedTo="0"/>
        <edge id="4/1to5/1" sampledSeconds="1571.91" traveltime="51.62" overlapTraveltime="51.88" density="26.73" laneDensity="26.73" occupancy="13.30" waitingTime="0.00" timeLoss="49.37" speed="18.98" speedRelative="0.97" departed="0" arrived="0" entered="28" left="31" laneChangedFrom="0" laneChangedTo="0"/>
        <edge id="5/1to6/1" sampledSeconds="1597.77" traveltime="51.68" overlapTraveltime="51.95" density="27.17" laneDensity="27.17" occupancy="13.52" waitingTime="0.00" timeLoss="52.09" speed="18.96" speedRelative="0.97" departed="0" arrived="0" entered="31" left="30" laneChangedFrom="0" laneChangedTo="0"/>
        <edge id="6/1to7/1" sampledSeconds="1543.21" traveltime="51.21" overlapTraveltime="51.46" density="26.25" laneDensity="26.25" occupancy="13.06" waitingTime="0.00" timeLoss="36.28" speed="19.14" speedRelative="0.98" departed="0" arrived="0" entered="30" left="29" laneChangedFrom="0" laneChangedTo="0"/>
        <edge id="7/1to8/1" sampledSeconds="1460.35" traveltime="50.01" overlapTraveltime="50.26" density="24.84" laneDensity="24.84" occupancy="12.36" waitingTime="0.00" timeLoss="0.28" speed="19.60" speedRelative="1.00" departed="0" arrived="0" entered="29" left="29" laneChangedFrom="0" laneChangedTo="0"/>
        <edge id="8/1to9/1" sampledSeconds="1459.65" traveltime="50.00" overlapTraveltime="50.25" density="24.83" laneDensity="24.83" occupancy="12.35" waitingTime="0.00" timeLoss="0.00" speed="19.60" speedRelative="1.00" departed="0" arrived="0" entered="29" left="29" laneChangedFrom="0" laneChangedTo="0"/>
        <edge id="9/1to10/1" sampledSeconds="959.21" traveltime="50.00" overlapTraveltime="50.25" density="16.31" laneDensity="16.31" occupancy="8.12" waitingTime="0.00" timeLoss="0.00" speed="19.60" speedRelative="1.00" departed="0" arrived="0" entered="29" left="7" laneChangedFrom="0" laneChangedTo="0"/>
    </interval>
    <interval begin="420.00" end="480.00" id="dump_60">
        <edge id="1/1to2/1" sampledSeconds="1296.44" traveltime="53.70" overlapTraveltime="53.95" density="22.05" laneDensity="22.05" occupancy="10.84" waitingTime="0.00" timeLoss="88.89" speed="18.26" speedRelative="0.93" departed="15" arrived="0" entered="10" left="23" laneChangedFrom="0" laneChangedTo="0"/>
        <edge id="10/1to1/1" sampledSeconds="1198.36" traveltime="52.23" overlapTraveltime="52.57" density="20.38" laneDensity="20.38" occupancy="10.14" waitingTime="0.00" timeLoss="52.86" speed="18.74" speedRelative="0.96" departed="0" arrived="0" entered="29" left="10" laneChangedFrom="0" laneChangedTo="0"/>
        <edge id="2/1to3/1" sampledSeconds="1186.90" traveltime="50.00" overlapTraveltime="50.25" density="20.19" laneDensity="20.19" occupancy="10.04" waitingTime="0.00" timeLoss="0.00" speed="19.60" speedRelative="1.00" departed="0" arrived="0" entered="23" left="24" laneChangedFrom="0" laneChangedTo="0"/>
        <edge id="3/1to4/1" sampledSeconds="1186.15" traveltime="50.00" overlapTraveltime="50.25" density="20.17" laneDensity="20.17" occupancy="10.03" waitingTime="0.00" timeLoss="0.00" speed="19.60" speedRelative="1.00" departed="0" arrived="0" entered="24" left="24" laneChangedFrom="0" laneChangedTo="0"/>
        <edge id="4/1to5/1" sampledSeconds="1274.94" traveltime="50.48" overlapTraveltime="50.74" density="21.68" laneDensity="21.68" occupancy="10.78" waitingTime="0.00" timeLoss="12.31" speed="19.41" speedRelative="0.99" departed="0" arrived="0" entered="24" left="28" laneChangedFrom="0" laneChangedTo="0"/>
        <edge id="5/1to6/1" sampledSeconds="1563.91" traveltime="51.57" overlapTraveltime="51.84" density="26.60" laneDensity="26.60" occupancy="13.23" waitingTime="0.00" timeLoss="47.77" speed="19.00" speedRelative="0.97" departed="0" arrived="0" entered="28" left="31" laneChangedFrom="0" laneChangedTo="0"/>
        <edge id="6/1to7/1" sampledSeconds="1601.51" traveltime="51.72" overlapTraveltime="51.98" density="27.24" laneDensity="27.24" occupancy="13.55" waitingTime="0.00" timeLoss="53.32" speed="18.95" speedRelative="0.97" departed="0" arrived="0" entered="31" left="31" laneChangedFrom="0" laneChangedTo="0"/>
        <edge id="7/1to8/1" sampledSeconds="1506.29" traveltime="50.67" overlapTraveltime="50.92" density="25.62" laneDensity="25.62" occupancy="12.74" waitingTime="0.00" timeLoss="19.90" speed="19.34" speedRelative="0.99" departed="0" arrived="0" entered="31" left="29" laneChangedFrom="0" laneChangedTo="0"/>
        <edge id="8/1to9/1" sampledSeconds="1459.77" traveltime="50.01" overlapTraveltime="50.27" density="24.83" laneDensity="24.83" occupancy="12.35" waitingTime="0.00" timeLoss="0.41" speed="19.59" speedRelative="1.00" departed="0" arrived="0" entered="29" left="29" laneChangedFrom="0" laneChangedTo="0"/>
        <edge id="9/1to10/1" sampledSeconds="1459.65" traveltime="50.02" overlapTraveltime="50.27" density="24.83" laneDensity="24.83" occupancy="12.35" waitingTime="0.00" timeLoss="0.59" speed="19.59" speedRelative="1.00" departed="0" arrived="0" entered="29" left="29" laneChangedFrom="0" laneChangedTo="0"/>
    </interval>
    <interval begin="480.00" end="540.00" id="dump_60">
        <edge id="1/1to2/1" sampledSeconds="1533.43" traveltime="51.68" overlapTraveltime="51.94" density="26.08" laneDensity="26.08" occupancy="12.97" waitingTime="0.00" timeLoss="49.81" speed="18.96" speedRelative="0.97" departed="0" arrived="0" entered="30" left="27" laneChangedFrom="0" laneChangedTo="0"/>
        <edge id="10/1to1/1" sampledSeconds="1522.14" traveltime="52.01" overlapTraveltime="52.33" density="25.89" laneDensity="25.89" occupancy="12.87" waitingTime="0.00" timeLoss="60.34" speed="18.82" speedRelative="0.96" departed="0" arrived="0" entered="29" left="31" laneChangedFrom="0" laneChangedTo="0"/>
        <edge id="2/1to3/1" sampledSeconds="1225.40" traveltime="50.01" overlapTraveltime="50.26" density="20.84" laneDensity="20.84" occupancy="10.37" waitingTime="0.00" timeLoss="0.26" speed="19.60" speedRelative="1.00" departed="0" arrived="0" entered="27" left="23" laneChangedFrom="0" laneChangedTo="0"/>
        <edge id="3/1to4/1" sampledSeconds="1187.39" traveltime="50.00" overlapTraveltime="50.25" density="20.19" laneDensity="20.19" occupancy="10.05" waitingTime="0.00" timeLoss="0.00" speed="19.60" speedRelative="1.00" departed="0" arrived="0" entered="23" left="24" laneChangedFrom="0" laneChangedTo="0"/>
        <edge id="4/1to5/1" sampledSeconds="1186.15" traveltime="50.00" overlapTraveltime="50.25" density="20.17" laneDensity="20.17" occupancy="10.04" waitingTime="0.00" timeLoss="0.00" speed="19.60" speedRelative="1.00" departed="0" arrived="0" entered="24" left="24" laneChangedFrom="0" laneChangedTo="0"/>
        <edge id="5/1to6/1" sampledSeconds="1264.74" traveltime="50.42" overlapTraveltime="50.68" density="21.51" laneDensity="21.51" occupancy="10.70" waitingTime="0.00" timeLoss="10.63" speed="19.44" speedRelative="0.99" departed="0" arrived="0" entered="24" left="28" laneChangedFrom="0" laneChangedTo="0"/>
        <edge id="6/1to7/1" sampledSeconds="1557.31" traveltime="51.65" overlapTraveltime="51.92" density="26.49" laneDensity="26.49" occupancy="13.18" waitingTime="0.00" timeLoss="49.94" speed="18.97" speedRelative="0.97" departed="0" arrived="0" entered="28" left="30" laneChangedFrom="0" laneChangedTo="0"/>
        <edge id="7/1to8/1" sampledSeconds="1595.14" traveltime="51.67" overlapTraveltime="51.94" density="27.13" laneDensity="27.13" occupancy="13.50" waitingTime="0.00" timeLoss="51.73" speed="18.96" speedRelative="0.97" departed="0" arrived="0" entered="30" left="30" laneChangedFrom="0" laneChangedTo="0"/>
        <edge id="8/1to9/1" sampledSeconds="1476.83" traveltime="50.26" overlapTraveltime="50.51" density="25.12" laneDensity="25.12" occupancy="12.49" waitingTime="0.00" timeLoss="7.69" speed="19.50" speedRelative="0.99" departed="0" arrived="0" entered="30" left="30" laneChangedFrom="0" laneChangedTo="0"/>
        <edge id="9/1to10/1" sampledSeconds="1459.88" traveltime="50.05" overlapTraveltime="50.31" density="24.83" laneDensity="24.83" occupancy="12.35" waitingTime="0.00" timeLoss="1.55" speed="19.58" speedRelative="1.00" departed="0" arrived="0" entered="29" left="29" laneChangedFrom="0" laneChangedTo="0"/>
    </interval>
    <interval begin="540.00" end="600.00" id="dump_60">
        <edge id="1/1to2/1" sampledSeconds="1559.90" traveltime="51.58" overlapTraveltime="51.85" density="26.53" laneDensity="26.53" occupancy="13.20" waitingTime="0.00" timeLoss="47.94" speed="19.00" speedRelative="0.97" departed="0" arrived="0" entered="30" left="31" laneChangedFrom="0" laneChangedTo="0"/>
        <edge id="10/1to1/1" sampledSeconds="1468.94" traveltime="50.26" overlapTraveltime="50.52" density="24.98" laneDensity="24.98" occupancy="12.43" waitingTime="0.00" timeLoss="7.77" speed="19.50" speedRelative="0.99" departed="0" arrived="0" entered="29" left="29" laneChangedFrom="0" laneChangedTo="0"/>
        <edge id="2/1to3/1" sampledSeconds="1508.83" traveltime="50.91" overlapTraveltime="51.17" density="25.66" laneDensity="25.66" occupancy="12.77" waitingTime="0.00" timeLoss="27.03" speed="19.25" speedRelative="0.98" departed="0" arrived="0" entered="30" left="27" laneChangedFrom="0" laneChangedTo="0"/>
        <edge id="3/1to4/1" sampledSeconds="1254.60" traveltime="50.00" overlapTraveltime="50.25" density="21.34" laneDensity="21.34" occupancy="10.61" waitingTime="0.00" timeLoss="0.00" speed="19.60" speedRelative="1.00" departed="0" arrived="0" entered="27" left="23" laneChangedFrom="0" laneChangedTo="0"/>
        <edge id="4/1to5/1" sampledSeconds="1187.21" traveltime="50.00" overlapTraveltime="50.25" density="20.19" laneDensity="20.19" occupancy="10.05" waitingTime="0.00" timeLoss="0.00" speed="19.60" speedRelative="1.00" departed="0" arrived="0" entered="23" left="23" laneChangedFrom="0" laneChangedTo="0"/>
        <edge id="5/1to6/1" sampledSeconds="1186.50" traveltime="50.00" overlapTraveltime="50.25" density="20.18" laneDensity="20.18" occupancy="10.04" waitingTime="0.00" timeLoss="0.00" speed="19.60" speedRelative="1.00" departed="0" arrived="0" entered="23" left="24" laneChangedFrom="0" laneChangedTo="0"/>
        <edge id="6/1to7/1" sampledSeconds="1255.59" traveltime="50.35" overlapTraveltime="50.61" density="21.35" laneDensity="21.35" occupancy="10.62" waitingTime="0.00" timeLoss="8.81" speed="19.46" speedRelative="0.99" departed="0" arrived="0" entered="24" left="28" laneChangedFrom="0" laneChangedTo="0"/>
        <edge id="7/1to8/1" sampledSeconds="1550.15" traveltime="51.59" overlapTraveltime="51.85" density="26.36" laneDensity="26.36" occupancy="13.12" waitingTime="0.00" timeLoss="47.84" speed="19.00" speedRelative="0.97" departed="0" arrived="0" entered="28" left="30" laneChangedFrom="0" laneChangedTo="0"/>
        <edge id="8/1to9/1" sampledSeconds="1571.87" traveltime="51.40" overlapTraveltime="51.65" density="26.73" laneDensity="26.73" occupancy="13.30" waitingTime="0.00" timeLoss="42.68" speed="19.07" speedRelative="0.97" departed="0" arrived="0" entered="30" left="29" laneChangedFrom="0" laneChangedTo="0"/>
        <edge id="9/1to10/1" sampledSeconds="1464.37" traveltime="50.07" overlapTraveltime="50.33" density="24.91" laneDensity="24.91" occupancy="12.39" waitingTime="0.00" timeLoss="2.26" speed="19.57" speedRelative="1.00" departed="0" arrived="0" entered="30" left="29" laneChangedFrom="0" laneChangedTo="0"/>
    </interval>
    <interval begin="600.00" end="660.00" id="dump_60">
        <edge id="1/1to2/1" sampledSeconds="1503.13" traveltime="51.04" overlapTraveltime="51.30" density="25.57" laneDensity="25.57" occupancy="12.72" waitingTime="0.00" timeLoss="30.76" speed="19.20" speedRelative="0.98" departed="0" arrived="0" entered="29" left="29" laneChangedFrom="0" laneChangedTo="0"/>
        <edge id="10/1to1/1" sampledSeconds="1462.61" traveltime="50.08" overlapTraveltime="50.34" density="24.88" laneDensity="24.88" occupancy="12.37" waitingTime="0.00" timeLoss="2.54" speed="19.57" speedRelative="1.00" departed="0" arrived="0" entered="29" left="29" laneChangedFrom="0" laneChangedTo="0"/>
        <edge id="2/1to3/1" sampledSeconds="1560.30" traveltime="51.56" overlapTraveltime="51.82" density="26.54" laneDensity="26.54" occupancy="13.20" waitingTime="0.00" timeLoss="47.21" speed="19.01" speedRelative="0.97" departed="0" arrived="0" entered="30" left="31" laneChangedFrom="0" laneChangedTo="0"/>
        <edge id="3/1to4/1" sampledSeconds="1486.57" traveltime="50.42" overlapTraveltime="50.67" density="25.28" laneDensity="25.28" occupancy="12.58" waitingTime="0.00" timeLoss="12.37" speed="19.44" speedRelative="0.99" departed="0" arrived="0" entered="31" left="28" laneChangedFrom="0" laneChangedTo="0"/>
        <edge id="4/1to5/1" sampledSeconds="1293.83" traveltime="50.00" overlapTraveltime="50.25" density="22.01" laneDensity="22.01" occupancy="10.95" waitingTime="0.00" timeLoss="0.00" speed="19.60" speedRelative="1.00" departed="0" arrived="0" entered="28" left="24" laneChangedFrom="0" laneChangedTo="0"/>
        <edge id="5/1to6/1" sampledSeconds="1186.86" traveltime="50.00" overlapTraveltime="50.25" density="20.19" laneDensity="20.19" occupancy="10.04" waitingTime="0.00" timeLoss="0.00" speed="19.60" speedRelative="1.00" departed="0" arrived="0" entered="24" left="23" laneChangedFrom="0" laneChangedTo="0"/>
        <edge id="6/1to7/1" sampledSeconds="1187.03" traveltime="50.00" overlapTraveltime="50.25" density="20.19" laneDensity="20.19" occupancy="10.04" waitingTime="0.00" timeLoss="0.00" speed="19.60" speedRelative="1.00" departed="0" arrived="0" entered="23" left="24" laneChangedFrom="0" laneChangedTo="0"/>
        <edge id="7/1to8/1" sampledSeconds="1247.03" traveltime="50.32" overlapTraveltime="50.58" density="21.21" laneDensity="21.21" occupancy="10.55" waitingTime="0.00" timeLoss="8.07" speed="19.47" speedRelative="0.99" departed="0" arrived="0" entered="24" left="28" laneChangedFrom="0" laneChangedTo="0"/>
        <edge id="8/1to9/1" sampledSeconds="1544.70" traveltime="51.56" overlapTraveltime="51.82" density="26.27" laneDensity="26.27" occupancy="13.07" waitingTime="0.00" timeLoss="46.77" speed="19.01" speedRelative="0.97" departed="0" arrived="0" entered="28" left="31" laneChangedFrom="0" laneChangedTo="0"/>
        <edge id="9/1to10/1" sampledSeconds="1535.98" traveltime="50.99" overlapTraveltime="51.25" density="26.12" laneDensity="26.12" occupancy="13.00" waitingTime="0.00" timeLoss="29.90" speed="19.22" speedRelative="0.98" departed="0" arrived="0" entered="31" left="29" laneChangedFrom="0" laneChangedTo="0"/>
    </interval>
    <interval begin="660.00" end="720.00" id="dump_60">
        <edge id="1/1to2/1" sampledSeconds="1482.35" traveltime="50.56" overlapTraveltime="50.82" density="25.21" laneDensity="25.21" occupancy="12.54" waitingTime="0.00" timeLoss="16.44" speed="19.38" speedRelative="0.99" departed="0" arrived="0" entered="29" left="30" laneChangedFrom="0" laneChangedTo="0"/>
        <edge id="10/1to1/1" sampledSeconds="1503.33" traveltime="50.63" overlapTraveltime="50.89" density="25.57" laneDensity="25.57" occupancy="12.72" waitingTime="0.00" timeLoss="18.74" speed="19.36" speedRelative="0.99" departed="0" arrived="0" entered="31" left="29" laneChangedFrom="0" laneChangedTo="0"/>
        <edge id="2/1to3/1" sampledSeconds="1518.04" traveltime="51.35" overlapTraveltime="51.61" density="25.82" laneDensity="25.82" occupancy="12.84" waitingTime="0.00" timeLoss="39.89" speed="19.08" speedRelative="0.97" departed="0" arrived="0" entered="29" left="29" laneChangedFrom="0" laneChangedTo="0"/>
        <edge id="3/1to4/1" sampledSeconds="1548.29" traveltime="51.53" overlapTraveltime="51.79" density="26.33" laneDensity="26.33" occupancy="13.10" waitingTime="0.00" timeLoss="46.02" speed="19.02" speedRelative="0.97" departed="0" arrived="0" entered="29" left="30" laneChangedFrom="0" laneChangedTo="0"/>