<?xml version="1.0" encoding="UTF-8"?>

<!-- generated on 2023-03-22 17:18:13 by Eclipse SUMO sumo Version v1_16_0+1570-ec89ba0
<configuration xmlns:xsi="http://www.w3.org/2001/XMLSchema-instance" xsi:noNamespaceSchemaLocation="http://sumo.dlr.de/xsd/sumoConfiguration.xsd">

    <input>
        <net-file value="input_net4.net.xml"/>
        <route-files value="input_routes.rou.xml"/>
    </input>

    <output>
        <tripinfo-output value="tripinfos.xml"/>
        <vehroute-output value="vehroutes.xml"/>
        <stop-output value="stops.xml"/>
    </output>

    <report>
        <no-step-log value="true"/>
    </report>

    <taxi_device>
        <device.taxi.dispatch-algorithm value="traci"/>
    </taxi_device>

    <traci_server>
        <remote-port value="55052"/>
    </traci_server>

</configuration>
-->

<stops xmlns:xsi="http://www.w3.org/2001/XMLSchema-instance" xsi:noNamespaceSchemaLocation="http://sumo.dlr.de/xsd/stopinfo_file.xsd">
    <stopinfo id="taxi_0" type="taxi" lane="A1B1_0" pos="4.97" parking="1" started="13.00" ended="14.00" initialPersons="0" loadedPersons="1" unloadedPersons="0" initialContainers="0" loadedContainers="0" unloadedContainers="0"/>
</stops>
