<?xml version="1.0" encoding="UTF-8"?>

<!-- generated on Sat Dec 23 16:44:34 2017 by SUMO Version v0_32_0+0022-bfb6dd8
<?xml version="1.0" encoding="UTF-8"?>

<configuration xmlns:xsi="http://www.w3.org/2001/XMLSchema-instance" xsi:noNamespaceSchemaLocation="http://sumo.dlr.de/xsd/sumoConfiguration.xsd">

    <input>
        <net-file value="input_net.net.xml"/>
        <route-files value="input_routes.rou.xml"/>
        <additional-files value="input_additional2.add.xml"/>
    </input>

    <output>
        <fcd-output value="fcd.xml"/>
    </output>

    <processing>
        <time-to-teleport value="-1"/>
    </processing>

    <report>
        <duration-log.disable value="true"/>
        <no-step-log value="true"/>
    </report>

    <traci_server>
        <remote-port value="46871"/>
    </traci_server>

    <gui_only>
        <window-size value="500,500"/>
        <window-pos value="50,50"/>
    </gui_only>

</configuration>
-->

<fcd-export xmlns:xsi="http://www.w3.org/2001/XMLSchema-instance" xsi:noNamespaceSchemaLocation="http://sumo.dlr.de/xsd/fcd_file.xsd">
    <timestep time="0.00">
        <person id="horiz" x="761.50" y="504.95" angle="270.00" speed="0.00" pos="238.50" edge="2fi" slope="0.00"/>
        <person id="detour2" x="511.55" y="466.55" angle="0.00" speed="0.00" pos="215.05" edge="3si" slope="0.00"/>
        <person id="detour" x="511.55" y="471.55" angle="0.00" speed="0.00" pos="220.05" edge="3si" slope="0.00"/>
        <person id="newPerson" x="511.55" y="476.55" angle="0.00" speed="0.00" pos="225.05" edge="3si" slope="0.00"/>
    </timestep>
    <timestep time="1.00">
        <person id="horiz" x="760.36" y="504.95" angle="270.00" speed="1.14" pos="239.64" edge="2fi" slope="0.00"/>
        <person id="detour2" x="511.55" y="467.80" angle="0.00" speed="1.25" pos="216.30" edge="3si" slope="0.00"/>
        <person id="detour" x="511.55" y="472.93" angle="0.00" speed="1.38" pos="221.43" edge="3si" slope="0.00"/>
        <person id="newPerson" x="511.55" y="477.58" angle="0.00" speed="1.03" pos="226.08" edge="3si" slope="0.00"/>
    </timestep>
    <timestep time="2.00">
        <person id="horiz" x="759.13" y="504.95" angle="270.00" speed="1.23" pos="240.87" edge="2fi" slope="0.00"/>
        <person id="detour2" x="511.55" y="469.12" angle="0.00" speed="1.32" pos="217.62" edge="3si" slope="0.00"/>
        <person id="detour" x="511.55" y="474.11" angle="0.00" speed="1.18" pos="222.61" edge="3si" slope="0.00"/>
        <person id="newPerson" x="511.55" y="478.77" angle="0.00" speed="1.19" pos="227.27" edge="3si" slope="0.00"/>
    </timestep>
    <timestep time="3.00">
        <person id="tripTest" x="760.34" y="504.95" angle="270.00" speed="1.16" pos="239.66" edge="2fi" slope="0.00"/>
        <person id="horiz" x="757.89" y="504.95" angle="270.00" speed="1.25" pos="242.11" edge="2fi" slope="0.00"/>
        <person id="detour2" x="511.55" y="470.38" angle="0.00" speed="1.26" pos="218.88" edge="3si" slope="0.00"/>
        <person id="detour" x="511.55" y="475.31" angle="0.00" speed="1.20" pos="223.81" edge="3si" slope="0.00"/>
        <person id="newPerson" x="511.55" y="479.97" angle="0.00" speed="1.20" pos="228.47" edge="3si" slope="0.00"/>
    </timestep>
    <timestep time="4.00">
        <person id="tripTest" x="759.11" y="504.95" angle="270.00" speed="1.23" pos="240.89" edge="2fi" slope="0.00"/>
        <person id="horiz" x="756.61" y="504.95" angle="270.00" speed="1.27" pos="243.39" edge="2fi" slope="0.00"/>
        <person id="detour2" x="511.55" y="471.53" angle="0.00" speed="1.15" pos="220.03" edge="3si" slope="0.00"/>
        <person id="detour" x="511.55" y="476.68" angle="0.00" speed="1.37" pos="225.18" edge="3si" slope="0.00"/>
        <person id="newPerson" x="511.55" y="481.10" angle="0.00" speed="1.14" pos="229.60" edge="3si" slope="0.00"/>
    </timestep>
    <timestep time="5.00">
        <person id="tripTest" x="757.91" y="504.95" angle="270.00" speed="1.20" pos="242.09" edge="2fi" slope="0.00"/>
        <person id="horiz" x="755.30" y="504.95" angle="270.00" speed="1.31" pos="244.70" edge="2fi" slope="0.00"/>
        <person id="detour2" x="511.55" y="472.83" angle="0.00" speed="1.30" pos="221.33" edge="3si" slope="0.00"/>
        <person id="detour" x="511.55" y="477.93" angle="0.00" speed="1.25" pos="226.43" edge="3si" slope="0.00"/>
        <person id="newPerson" x="511.55" y="482.29" angle="0.00" speed="1.19" pos="230.79" edge="3si" slope="0.00"/>
    </timestep>
    <timestep time="6.00">
        <person id="tripTest" x="756.79" y="504.95" angle="270.00" speed="1.13" pos="243.21" edge="2fi" slope="0.00"/>
        <person id="horiz" x="754.08" y="504.95" angle="270.00" speed="1.22" pos="245.92" edge="2fi" slope="0.00"/>
        <person id="detour2" x="511.55" y="474.11" angle="0.00" speed="1.28" pos="222.61" edge="3si" slope="0.00"/>
        <person id="detour" x="511.55" y="479.07" angle="0.00" speed="1.14" pos="227.57" edge="3si" slope="0.00"/>
        <person id="newPerson" x="511.55" y="483.29" angle="0.00" speed="1.00" pos="231.79" edge="3si" slope="0.00"/>
    </timestep>
    <timestep time="7.00">
        <vehicle id="veh0" x="508.25" y="481.50" angle="0.00" type="DEFAULT_VEHTYPE" speed="0.00" pos="230.00" lane="3si_1" slope="0.00"/>
        <person id="newPerson" x="508.25" y="481.50" angle="0.00" speed="0.00" pos="230.00" edge="3si" slope="0.00"/>
        <person id="tripTest" x="755.46" y="504.95" angle="270.00" speed="1.32" pos="244.54" edge="2fi" slope="0.00"/>
        <person id="horiz" x="752.83" y="504.95" angle="270.00" speed="1.25" pos="247.17" edge="2fi" slope="0.00"/>
        <person id="detour2" x="511.55" y="475.41" angle="0.00" speed="1.31" pos="223.91" edge="3si" slope="0.00"/>
        <person id="detour" x="511.55" y="480.45" angle="0.00" speed="1.38" pos="228.95" edge="3si" slope="0.00"/>
    </timestep>
    <timestep time="8.00">
        <vehicle id="veh0" x="504.95" y="483.21" angle="0.00" type="DEFAULT_VEHTYPE" speed="1.71" pos="231.71" lane="3si_2" slope="0.00"/>
        <person id="newPerson" x="504.95" y="483.21" angle="0.00" speed="1.71" pos="231.71" edge="3si" slope="0.00"/>
        <person id="tripTest" x="754.12" y="504.95" angle="270.00" speed="1.34" pos="245.88" edge="2fi" slope="0.00"/>
        <person id="horiz" x="751.65" y="504.95" angle="270.00" speed="1.19" pos="248.35" edge="2fi" slope="0.00"/>
        <person id="detour2" x="511.55" y="476.80" angle="0.00" speed="1.38" pos="225.30" edge="3si" slope="0.00"/>
        <person id="detour" x="511.55" y="481.57" angle="0.00" speed="1.12" pos="230.07" edge="3si" slope="0.00"/>
    </timestep>
    <timestep time="9.00">
        <vehicle id="veh0" x="504.95" y="485.25" angle="0.00" type="DEFAULT_VEHTYPE" speed="2.04" pos="233.75" lane="3si_2" slope="0.00"/>
        <person id="newPerson" x="504.95" y="485.25" angle="0.00" speed="2.04" pos="233.75" edge="3si" slope="0.00"/>
        <person id="horiz" x="751.07" y="504.60" angle="351.38" speed="1.31" pos="1.16" edge=":m2_w0" slope="0.00"/>
        <person id="tripTest" x="752.76" y="504.95" angle="270.00" speed="1.35" pos="247.24" edge="2fi" slope="0.00"/>
        <person id="detour2" x="511.55" y="478.07" angle="0.00" speed="1.27" pos="226.57" edge="3si" slope="0.00"/>
        <person id="detour" x="511.55" y="482.93" angle="0.00" speed="1.35" pos="231.43" edge="3si" slope="0.00"/>
    </timestep>
    <timestep time="10.00">
        <vehicle id="veh0" x="504.95" y="486.35" angle="0.00" type="DEFAULT_VEHTYPE" speed="1.10" pos="234.85" lane="3si_2" slope="0.00"/>
        <person id="newPerson" x="504.95" y="486.35" angle="0.00" speed="1.10" pos="234.85" edge="3si" slope="0.00"/>
        <person id="tripTest" x="751.44" y="504.95" angle="270.00" speed="1.33" pos="0.06" edge=":m2_w0" slope="0.00"/>
        <person id="horiz" x="750.87" y="505.91" angle="351.38" speed="1.33" pos="2.49" edge=":m2_w0" slope="0.00"/>
        <person id="detour2" x="511.55" y="479.30" angle="0.00" speed="1.23" pos="227.80" edge="3si" slope="0.00"/>
        <person id="detour" x="511.55" y="484.27" angle="0.00" speed="1.34" pos="232.77" edge="3si" slope="0.00"/>
    </timestep>
    <timestep time="11.00">
        <vehicle id="veh0" x="504.95" y="486.45" angle="0.00" type="DEFAULT_VEHTYPE" speed="0.11" pos="234.95" lane="3si_2" slope="0.00"/>
        <person id="newPerson" x="504.95" y="486.45" angle="0.00" speed="0.11" pos="234.95" edge="3si" slope="0.00"/>
        <person id="tripTest" x="751.04" y="504.82" angle="351.38" speed="1.32" pos="1.38" edge=":m2_w0" slope="0.00"/>
        <person id="horiz" x="750.69" y="507.07" angle="351.38" speed="1.17" pos="3.66" edge=":m2_w0" slope="0.00"/>
        <person id="detour2" x="511.55" y="480.49" angle="0.00" speed="1.19" pos="228.99" edge="3si" slope="0.00"/>
        <person id="detour" x="511.55" y="485.47" angle="0.00" speed="1.20" pos="233.97" edge="3si" slope="0.00"/>
    </timestep>
    <timestep time="12.00">
        <vehicle id="veh0" x="504.95" y="486.49" angle="0.00" type="DEFAULT_VEHTYPE" speed="0.03" pos="234.99" lane="3si_2" slope="0.00"/>
        <person id="newPerson" x="504.95" y="486.49" angle="0.00" speed="0.03" pos="234.99" edge="3si" slope="0.00"/>
        <person id="detour" x="511.19" y="486.60" angle="0.00" speed="1.12" pos="0.05" edge=":0_w2" slope="0.00"/>
        <person id="tripTest" x="750.89" y="505.78" angle="351.38" speed="0.97" pos="2.35" edge=":m2_w0" slope="0.00"/>
        <person id="horiz" x="750.51" y="508.26" angle="351.38" speed="1.21" pos="4.87" edge=":m2_w0" slope="0.00"/>
        <person id="detour2" x="511.55" y="481.79" angle="0.00" speed="1.30" pos="230.29" edge="3si" slope="0.00"/>
    </timestep>
    <timestep time="13.00">
        <vehicle id="veh0" x="504.95" y="486.49" angle="0.00" type="DEFAULT_VEHTYPE" speed="0.00" pos="234.99" lane="3si_2" slope="0.00"/>
        <person id="newPerson" x="504.95" y="486.49" angle="0.00" speed="0.00" pos="234.99" edge="3si" slope="0.00"/>
        <person id="detour" x="511.19" y="487.82" angle="0.00" speed="1.23" pos="1.27" edge=":0_w2" slope="0.00"/>
        <person id="tripTest" x="750.72" y="506.89" angle="351.38" speed="1.12" pos="3.48" edge=":m2_w0" slope="0.00"/>
        <person id="horiz" x="750.31" y="509.60" angle="351.38" speed="1.35" pos="6.22" edge=":m2_w0" slope="0.00"/>
        <person id="detour2" x="511.55" y="483.13" angle="0.00" speed="1.34" pos="231.63" edge="3si" slope="0.00"/>
    </timestep>
    <timestep time="14.00">
        <vehicle id="veh0" x="501.65" y="486.52" angle="0.00" type="DEFAULT_VEHTYPE" speed="0.03" pos="235.02" lane="3si_3" slope="0.00"/>
        <person id="newPerson" x="501.65" y="486.52" angle="0.00" speed="0.03" pos="235.02" edge="3si" slope="0.00"/>
        <person id="detour" x="511.24" y="489.15" angle="4.61" speed="1.35" pos="2.62" edge=":0_w2" slope="0.00"/>
        <person id="tripTest" x="750.53" y="508.19" angle="351.38" speed="1.31" pos="4.79" edge=":m2_w0" slope="0.00"/>
        <person id="horiz" x="750.10" y="510.98" angle="351.38" speed="1.39" pos="7.61" edge=":m2_w0" slope="0.00"/>
        <person id="detour2" x="511.55" y="484.37" angle="0.00" speed="1.24" pos="232.87" edge="3si" slope="0.00"/>
    </timestep>
    <timestep time="15.00">
        <vehicle id="veh0" x="501.35" y="488.69" angle="356.50" type="DEFAULT_VEHTYPE" speed="2.19" pos="2.16" lane=":0_10_0" slope="0.00"/>
        <person id="newPerson" x="501.35" y="488.69" angle="356.50" speed="2.19" pos="2.16" edge=":0_10" slope="0.00"/>
        <person id="detour" x="511.35" y="490.52" angle="4.61" speed="1.37" pos="3.99" edge=":0_w2" slope="0.00"/>
        <person id="tripTest" x="750.36" y="509.29" angle="351.38" speed="1.11" pos="5.90" edge=":m2_w0" slope="0.00"/>
        <person id="horiz" x="748.21" y="511.55" angle="270.00" speed="1.35" pos="0.29" edge="2si" slope="0.00"/>
        <person id="detour2" x="511.55" y="485.67" angle="0.00" speed="1.30" pos="234.17" edge="3si" slope="0.00"/>
    </timestep>
    <timestep time="16.00">
        <vehicle id="veh0" x="500.60" y="493.35" angle="350.93" type="DEFAULT_VEHTYPE" speed="4.73" pos="6.89" lane=":0_10_0" slope="0.00"/>
        <person id="newPerson" x="500.60" y="493.35" angle="350.93" speed="4.73" pos="6.89" edge=":0_10" slope="0.00"/>
        <person id="detour2" x="511.19" y="487.01" angle="0.00" speed="1.34" pos="0.46" edge=":0_w2" slope="0.00"/>
        <person id="detour" x="511.46" y="491.88" angle="4.61" speed="1.36" pos="5.36" edge=":0_w2" slope="0.00"/>
        <person id="tripTest" x="750.26" y="509.93" angle="351.38" speed="0.65" pos="6.55" edge=":m2_w0" slope="0.00"/>
        <person id="horiz" x="746.87" y="511.55" angle="270.00" speed="1.34" pos="1.63" edge="2si" slope="0.00"/>
    </timestep>
    <timestep time="17.00">
        <vehicle id="veh0" x="496.36" y="498.79" angle="319.15" type="DEFAULT_VEHTYPE" speed="7.05" pos="3.59" lane=":0_20_0" slope="0.00"/>
        <person id="newPerson" x="503.17" y="494.89" angle="238.98" speed="0.00" pos="6.89" edge=":0_10" slope="0.00"/>
        <person id="detour2" x="511.19" y="488.20" angle="0.00" speed="1.19" pos="1.65" edge=":0_w2" slope="0.00"/>
        <person id="detour" x="511.57" y="493.24" angle="4.61" speed="1.37" pos="6.72" edge=":0_w2" slope="0.00"/>
        <person id="tripTest" x="749.33" y="511.55" angle="270.00" speed="1.29" pos="7.84" edge=":m2_w0" slope="0.00"/>
        <person id="horiz" x="745.55" y="511.55" angle="270.00" speed="1.32" pos="2.95" edge="2si" slope="0.00"/>
    </timestep>
    <timestep time="18.00">
        <vehicle id="veh0" x="487.79" y="501.47" angle="278.09" type="DEFAULT_VEHTYPE" speed="9.15" pos="12.74" lane=":0_20_0" slope="0.00"/>
        <person id="newPerson" x="503.17" y="494.89" angle="238.98" speed="0.00" pos="6.89" edge=":0_10" slope="0.00"/>
        <person id="detour2" x="513.31" y="489.49" angle="356.31" speed="1.20" pos="2.85" edge=":0_w2" slope="0.00"/>
        <person id="detour" x="513.06" y="493.36" angle="356.31" speed="0.00" pos="6.72" edge=":0_w2" slope="0.00"/>
        <person id="tripTest" x="748.06" y="511.55" angle="270.00" speed="1.27" pos="0.44" edge="2si" slope="0.00"/>
        <person id="horiz" x="744.33" y="511.55" angle="270.00" speed="1.23" pos="4.17" edge="2si" slope="0.00"/>
    </timestep>
    <timestep time="19.00">
        <vehicle id="veh0" x="477.17" y="501.65" angle="270.00" type="DEFAULT_VEHTYPE" speed="10.64" pos="9.38" lane="1o_1" slope="0.00"/>
        <person id="newPerson" x="503.17" y="494.89" angle="238.98" speed="0.00" pos="6.89" edge=":0_10" slope="0.00"/>
        <person id="detour2" x="513.24" y="490.65" angle="356.31" speed="1.16" pos="4.01" edge=":0_w2" slope="0.00"/>
        <person id="detour" x="512.98" y="494.60" angle="356.31" speed="1.25" pos="7.97" edge=":0_w2" slope="0.00"/>
        <person id="tripTest" x="746.79" y="511.55" angle="270.00" speed="1.27" pos="1.71" edge="2si" slope="0.00"/>
        <person id="horiz" x="743.09" y="511.55" angle="270.00" speed="1.24" pos="5.41" edge="2si" slope="0.00"/>
    </timestep>
    <timestep time="20.00">
        <vehicle id="veh0" x="467.20" y="501.65" angle="270.00" type="DEFAULT_VEHTYPE" speed="9.97" pos="19.35" lane="1o_1" slope="0.00"/>
        <person id="newPerson" x="503.17" y="494.89" angle="238.98" speed="0.00" pos="6.89" edge=":0_10" slope="0.00"/>
        <person id="detour2" x="513.15" y="492.03" angle="356.31" speed="1.38" pos="5.39" edge=":0_w2" slope="0.00"/>
        <person id="detour" x="512.97" y="495.62" angle="0.00" speed="1.12" pos="9.09" edge=":0_w2" slope="0.00"/>
        <person id="tripTest" x="745.43" y="511.55" angle="270.00" speed="1.36" pos="3.07" edge="2si" slope="0.00"/>
        <person id="horiz" x="741.77" y="511.55" angle="270.00" speed="1.32" pos="6.73" edge="2si" slope="0.00"/>
    </timestep>
    <timestep time="21.00">
        <vehicle id="veh0" x="457.01" y="501.65" angle="270.00" type="DEFAULT_VEHTYPE" speed="10.19" pos="29.54" lane="1o_1" slope="0.00"/>
        <person id="newPerson" x="503.17" y="494.89" angle="238.98" speed="0.00" pos="6.89" edge=":0_10" slope="0.00"/>
        <person id="detour" x="512.97" y="496.84" angle="0.00" speed="1.22" pos="0.09" edge=":0_c1" slope="0.00"/>
        <person id="detour2" x="513.08" y="493.16" angle="356.31" speed="1.13" pos="6.52" edge=":0_w2" slope="0.00"/>
        <person id="tripTest" x="744.16" y="511.55" angle="270.00" speed="1.27" pos="4.34" edge="2si" slope="0.00"/>
        <person id="horiz" x="740.51" y="511.55" angle="270.00" speed="1.26" pos="7.99" edge="2si" slope="0.00"/>
    </timestep>
    <timestep time="22.00">
        <vehicle id="veh0" x="446.29" y="501.65" angle="270.00" type="DEFAULT_VEHTYPE" speed="10.72" pos="40.26" lane="1o_1" slope="0.00"/>
        <person id="newPerson" x="503.17" y="494.89" angle="238.98" speed="0.00" pos="6.89" edge=":0_10" slope="0.00"/>
        <person id="detour" x="512.97" y="498.10" angle="0.00" speed="1.26" pos="1.35" edge=":0_c1" slope="0.00"/>
        <person id="detour2" x="513.00" y="494.30" angle="356.31" speed="1.15" pos="7.67" edge=":0_w2" slope="0.00"/>
        <person id="tripTest" x="743.04" y="511.55" angle="270.00" speed="1.12" pos="5.46" edge="2si" slope="0.00"/>
        <person id="horiz" x="739.27" y="511.55" angle="270.00" speed="1.24" pos="9.23" edge="2si" slope="0.00"/>
    </timestep>
    <timestep time="23.00">
        <vehicle id="veh0" x="435.78" y="501.65" angle="270.00" type="DEFAULT_VEHTYPE" speed="10.50" pos="50.77" lane="1o_1" slope="0.00"/>
        <person id="newPerson" x="503.17" y="494.89" angle="238.98" speed="0.00" pos="6.89" edge=":0_10" slope="0.00"/>
        <person id="detour" x="512.97" y="499.38" angle="0.00" speed="1.27" pos="2.63" edge=":0_c1" slope="0.00"/>
        <person id="detour2" x="512.97" y="495.50" angle="0.00" speed="1.29" pos="8.96" edge=":0_w2" slope="0.00"/>
        <person id="tripTest" x="741.68" y="511.55" angle="270.00" speed="1.36" pos="6.82" edge="2si" slope="0.00"/>
        <person id="horiz" x="738.07" y="511.55" angle="270.00" speed="1.20" pos="10.43" edge="2si" slope="0.00"/>
    </timestep>
    <timestep time="24.00">
        <vehicle id="veh0" x="424.83" y="501.65" angle="270.00" type="DEFAULT_VEHTYPE" speed="10.95" pos="61.72" lane="1o_1" slope="0.00"/>
        <person id="newPerson" x="503.17" y="494.89" angle="238.98" speed="0.00" pos="6.89" edge=":0_10" slope="0.00"/>
        <person id="detour" x="512.97" y="500.58" angle="0.00" speed="1.21" pos="3.83" edge=":0_c1" slope="0.00"/>
        <person id="detour2" x="512.97" y="496.67" angle="0.00" speed="1.17" pos="10.13" edge=":0_w2" slope="0.00"/>
        <person id="tripTest" x="740.49" y="511.55" angle="270.00" speed="1.19" pos="8.01" edge="2si" slope="0.00"/>
        <person id="horiz" x="736.75" y="511.55" angle="270.00" speed="1.32" pos="11.75" edge="2si" slope="0.00"/>
    </timestep>
    <timestep time="25.00">
        <vehicle id="veh0" x="414.35" y="501.65" angle="270.00" type="DEFAULT_VEHTYPE" speed="10.49" pos="72.20" lane="1o_1" slope="0.00"/>
        <person id="newPerson" x="503.17" y="494.89" angle="238.98" speed="0.00" pos="6.89" edge=":0_10" slope="0.00"/>
        <person id="detour2" x="512.97" y="498.02" angle="0.00" speed="1.35" pos="1.27" edge=":0_c1" slope="0.00"/>
        <person id="detour" x="512.97" y="501.77" angle="0.00" speed="1.19" pos="5.02" edge=":0_c1" slope="0.00"/>
        <person id="tripTest" x="739.20" y="511.55" angle="270.00" speed="1.29" pos="9.30" edge="2si" slope="0.00"/>
        <person id="horiz" x="735.60" y="511.55" angle="270.00" speed="1.15" pos="12.90" edge="2si" slope="0.00"/>
    </timestep>
    <timestep time="26.00">
        <vehicle id="veh0" x="404.34" y="501.65" angle="270.00" type="DEFAULT_VEHTYPE" speed="10.01" pos="82.21" lane="1o_1" slope="0.00"/>
        <person id="newPerson" x="503.17" y="494.89" angle="238.98" speed="0.00" pos="6.89" edge=":0_10" slope="0.00"/>
        <person id="detour2" x="512.97" y="499.30" angle="0.00" speed="1.28" pos="2.55" edge=":0_c1" slope="0.00"/>
        <person id="detour" x="512.97" y="503.15" angle="0.00" speed="1.38" pos="6.40" edge=":0_c1" slope="0.00"/>
        <person id="tripTest" x="738.08" y="511.55" angle="270.00" speed="1.12" pos="10.42" edge="2si" slope="0.00"/>
        <person id="horiz" x="734.38" y="511.55" angle="270.00" speed="1.21" pos="14.12" edge="2si" slope="0.00"/>
    </timestep>
    <timestep time="27.00">
        <vehicle id="veh0" x="393.79" y="501.65" angle="270.00" type="DEFAULT_VEHTYPE" speed="10.55" pos="92.76" lane="1o_1" slope="0.00"/>
        <person id="detour2" x="512.97" y="500.44" angle="0.00" speed="1.14" pos="3.69" edge=":0_c1" slope="0.00"/>
        <person id="detour" x="512.97" y="504.50" angle="0.00" speed="1.35" pos="7.75" edge=":0_c1" slope="0.00"/>
        <person id="tripTest" x="736.88" y="511.55" angle="270.00" speed="1.20" pos="11.62" edge="2si" slope="0.00"/>
        <person id="horiz" x="733.08" y="511.55" angle="270.00" speed="1.30" pos="15.42" edge="2si" slope="0.00"/>
    </timestep>
    <timestep time="28.00">
        <vehicle id="veh0" x="383.45" y="501.65" angle="270.00" type="DEFAULT_VEHTYPE" speed="10.34" pos="103.10" lane="1o_1" slope="0.00"/>
        <person id="detour2" x="512.97" y="501.75" angle="0.00" speed="1.31" pos="5.00" edge=":0_c1" slope="0.00"/>
        <person id="detour" x="512.97" y="505.72" angle="0.00" speed="1.23" pos="8.97" edge=":0_c1" slope="0.00"/>
        <person id="tripTest" x="735.68" y="511.55" angle="270.00" speed="1.20" pos="12.82" edge="2si" slope="0.00"/>
        <person id="horiz" x="731.79" y="511.55" angle="270.00" speed="1.29" pos="16.71" edge="2si" slope="0.00"/>
    </timestep>
    <timestep time="29.00">
        <vehicle id="veh0" x="373.41" y="501.65" angle="270.00" type="DEFAULT_VEHTYPE" speed="10.04" pos="113.14" lane="1o_1" slope="0.00"/>
        <person id="detour2" x="512.97" y="503.11" angle="0.00" speed="1.36" pos="6.36" edge=":0_c1" slope="0.00"/>
        <person id="detour" x="512.97" y="506.95" angle="0.00" speed="1.23" pos="10.20" edge=":0_c1" slope="0.00"/>
        <person id="tripTest" x="734.47" y="511.55" angle="270.00" speed="1.21" pos="14.03" edge="2si" slope="0.00"/>
        <person id="horiz" x="730.63" y="511.55" angle="270.00" speed="1.16" pos="17.87" edge="2si" slope="0.00"/>
    </timestep>
    <timestep time="30.00">
        <vehicle id="veh0" x="363.45" y="501.65" angle="270.00" type="DEFAULT_VEHTYPE" speed="9.96" pos="123.10" lane="1o_1" slope="0.00"/>
        <person id="detour2" x="512.97" y="504.35" angle="0.00" speed="1.24" pos="7.60" edge=":0_c1" slope="0.00"/>
        <person id="detour" x="512.97" y="508.08" angle="0.00" speed="1.13" pos="11.33" edge=":0_c1" slope="0.00"/>
        <person id="tripTest" x="733.35" y="511.55" angle="270.00" speed="1.12" pos="15.15" edge="2si" slope="0.00"/>
        <person id="horiz" x="729.23" y="511.55" angle="270.00" speed="1.40" pos="19.27" edge="2si" slope="0.00"/>
    </timestep>
    <timestep time="31.00">
        <vehicle id="veh0" x="353.38" y="501.65" angle="270.00" type="DEFAULT_VEHTYPE" speed="10.07" pos="133.17" lane="1o_1" slope="0.00"/>
        <person id="detour2" x="512.97" y="505.48" angle="0.00" speed="1.14" pos="8.73" edge=":0_c1" slope="0.00"/>
        <person id="detour" x="512.97" y="509.33" angle="0.00" speed="1.25" pos="12.58" edge=":0_c1" slope="0.00"/>
        <person id="tripTest" x="732.06" y="511.55" angle="270.00" speed="1.29" pos="16.44" edge="2si" slope="0.00"/>
        <person id="horiz" x="727.88" y="511.55" angle="270.00" speed="1.35" pos="20.62" edge="2si" slope="0.00"/>
    </timestep>
    <timestep time="32.00">
        <vehicle id="veh0" x="343.46" y="501.65" angle="270.00" type="DEFAULT_VEHTYPE" speed="9.92" pos="143.09" lane="1o_1" slope="0.00"/>
        <person id="detour2" x="512.97" y="506.78" angle="0.00" speed="1.29" pos="10.03" edge=":0_c1" slope="0.00"/>
        <person id="detour" x="512.97" y="510.59" angle="0.00" speed="1.26" pos="0.74" edge=":0_w1" slope="0.00"/>
        <person id="tripTest" x="730.85" y="511.55" angle="270.00" speed="1.21" pos="17.65" edge="2si" slope="0.00"/>
        <person id="horiz" x="726.48" y="511.55" angle="270.00" speed="1.40" pos="22.02" edge="2si" slope="0.00"/>
    </timestep>
    <timestep time="33.00">
        <vehicle id="veh0" x="332.50" y="501.65" angle="270.00" type="DEFAULT_VEHTYPE" speed="10.96" pos="154.05" lane="1o_1" slope="0.00"/>
        <person id="detour2" x="512.41" y="508.17" angle="0.00" speed="1.39" pos="11.42" edge=":0_c1" slope="0.00"/>
        <person id="detour" x="512.97" y="511.84" angle="0.00" speed="1.25" pos="1.99" edge=":0_w1" slope="0.00"/>
        <person id="tripTest" x="729.58" y="511.55" angle="270.00" speed="1.27" pos="18.92" edge="2si" slope="0.00"/>
        <person id="horiz" x="725.33" y="511.55" angle="270.00" speed="1.15" pos="23.17" edge="2si" slope="0.00"/>
    </timestep>
    <timestep time="34.00">
        <vehicle id="veh0" x="322.02" y="501.65" angle="270.00" type="DEFAULT_VEHTYPE" speed="10.48" pos="164.53" lane="1o_1" slope="0.00"/>
        <person id="detour2" x="512.33" y="509.32" angle="0.00" speed="1.15" pos="12.57" edge=":0_c1" slope="0.00"/>
        <person id="detour" x="510.20" y="513.29" angle="266.31" speed="1.16" pos="3.15" edge=":0_w1" slope="0.00"/>
        <person id="tripTest" x="728.47" y="511.55" angle="270.00" speed="1.11" pos="20.03" edge="2si" slope="0.00"/>
        <person id="horiz" x="724.04" y="511.55" angle="270.00" speed="1.29" pos="24.46" edge="2si" slope="0.00"/>
    </timestep>
    <timestep time="35.00">
        <vehicle id="veh0" x="311.35" y="501.65" angle="270.00" type="DEFAULT_VEHTYPE" speed="10.68" pos="175.20" lane="1o_1" slope="0.00"/>
        <person id="detour2" x="512.33" y="510.45" angle="0.00" speed="1.13" pos="0.60" edge=":0_w1" slope="0.00"/>
        <person id="detour" x="509.03" y="513.22" angle="266.31" speed="1.17" pos="4.33" edge=":0_w1" slope="0.00"/>
        <person id="tripTest" x="727.31" y="511.55" angle="270.00" speed="1.15" pos="21.19" edge="2si" slope="0.00"/>
        <person id="horiz" x="722.77" y="511.55" angle="270.00" speed="1.27" pos="25.73" edge="2si" slope="0.00"/>
    </timestep>
    <timestep time="36.00">
        <vehicle id="veh0" x="301.18" y="501.65" angle="270.00" type="DEFAULT_VEHTYPE" speed="10.17" pos="185.37" lane="1o_1" slope="0.00"/>
        <person id="detour2" x="512.33" y="511.79" angle="0.00" speed="1.35" pos="1.94" edge=":0_w1" slope="0.00"/>
        <person id="detour" x="507.70" y="513.13" angle="266.31" speed="1.33" pos="5.66" edge=":0_w1" slope="0.00"/>
        <person id="tripTest" x="726.01" y="511.55" angle="270.00" speed="1.30" pos="22.49" edge="2si" slope="0.00"/>
        <person id="horiz" x="721.50" y="511.55" angle="270.00" speed="1.27" pos="27.00" edge="2si" slope="0.00"/>
    </timestep>
    <timestep time="37.00">
        <vehicle id="veh0" x="290.82" y="501.65" angle="270.00" type="DEFAULT_VEHTYPE" speed="10.36" pos="195.73" lane="1o_1" slope="0.00"/>
        <person id="detour2" x="510.17" y="512.65" angle="266.31" speed="1.29" pos="3.23" edge=":0_w1" slope="0.00"/>
        <person id="detour" x="506.44" y="513.05" angle="266.31" speed="1.27" pos="6.92" edge=":0_w1" slope="0.00"/>
        <person id="tripTest" x="724.67" y="511.55" angle="270.00" speed="1.35" pos="23.83" edge="2si" slope="0.00"/>
        <person id="horiz" x="720.32" y="511.55" angle="270.00" speed="1.18" pos="28.18" edge="2si" slope="0.00"/>
    </timestep>
    <timestep time="38.00">
        <vehicle id="veh0" x="280.00" y="501.65" angle="270.00" type="DEFAULT_VEHTYPE" speed="10.82" pos="206.55" lane="1o_1" slope="0.00"/>
        <person id="detour2" x="509.00" y="512.57" angle="266.31" speed="1.17" pos="4.40" edge=":0_w1" slope="0.00"/>
        <person id="detour" x="505.19" y="512.97" angle="270.00" speed="1.35" pos="8.28" edge=":0_w1" slope="0.00"/>
        <person id="tripTest" x="723.31" y="511.55" angle="270.00" speed="1.36" pos="25.19" edge="2si" slope="0.00"/>
        <person id="horiz" x="718.95" y="511.55" angle="270.00" speed="1.37" pos="29.55" edge="2si" slope="0.00"/>
    </timestep>
    <timestep time="39.00">
        <vehicle id="veh0" x="269.22" y="501.65" angle="270.00" type="DEFAULT_VEHTYPE" speed="10.78" pos="217.33" lane="1o_1" slope="0.00"/>
        <person id="detour2" x="507.67" y="512.49" angle="266.31" speed="1.33" pos="5.73" edge=":0_w1" slope="0.00"/>
        <person id="detour" x="503.86" y="512.97" angle="270.00" speed="1.33" pos="9.60" edge=":0_w1" slope="0.00"/>
        <person id="tripTest" x="722.01" y="511.55" angle="270.00" speed="1.30" pos="26.49" edge="2si" slope="0.00"/>
        <person id="horiz" x="717.81" y="511.55" angle="270.00" speed="1.14" pos="30.69" edge="2si" slope="0.00"/>
    </timestep>
    <timestep time="40.00">
        <vehicle id="veh0" x="259.33" y="501.65" angle="270.00" type="DEFAULT_VEHTYPE" speed="9.89" pos="227.22" lane="1o_1" slope="0.00"/>
        <person id="detour2" x="506.41" y="512.41" angle="266.31" speed="1.26" pos="6.99" edge=":0_w1" slope="0.00"/>
        <person id="detour" x="503.49" y="512.97" angle="270.00" speed="0.38" pos="9.98" edge=":0_w1" slope="0.00"/>
        <person id="tripTest" x="720.68" y="511.55" angle="270.00" speed="1.32" pos="27.82" edge="2si" slope="0.00"/>
        <person id="horiz" x="716.46" y="511.55" angle="270.00" speed="1.35" pos="32.04" edge="2si" slope="0.00"/>
    </timestep>
    <timestep time="41.00">
        <vehicle id="veh0" x="248.75" y="501.65" angle="270.00" type="DEFAULT_VEHTYPE" speed="10.59" pos="237.80" lane="1o_1" slope="0.00"/>
        <person id="detour2" x="505.28" y="512.33" angle="266.31" speed="1.13" pos="8.13" edge=":0_w1" slope="0.00"/>
        <person id="detour" x="503.31" y="512.97" angle="270.00" speed="0.18" pos="10.15" edge=":0_w1" slope="0.00"/>