<?xml version="1.0" encoding="UTF-8"?>

<!-- generated on 2025-11-18T16:34:02.713136+01:00 by Eclipse SUMO sumo v1_25_0+0086-b1f02afa5bd
This data file and the accompanying materials
are made available under the terms of the Eclipse Public License v2.0
which accompanies this distribution, and is available at
http://www.eclipse.org/legal/epl-v20.html
This file may also be made available under the following Secondary
Licenses when the conditions for such availability set forth in the Eclipse
Public License 2.0 are satisfied: GNU General Public License, version 2
or later which is available at
https://www.gnu.org/licenses/old-licenses/gpl-2.0-standalone.html
SPDX-License-Identifier: EPL-2.0 OR GPL-2.0-or-later
<sumoConfiguration xmlns:xsi="http://www.w3.org/2001/XMLSchema-instance" xsi:noNamespaceSchemaLocation="http://sumo.dlr.de/xsd/sumoConfiguration.xsd">

    <input>
        <net-file value="net.net.xml"/>
        <route-files value="input_routes.rou.xml"/>
        <additional-files value="input_additional.add.xml"/>
    </input>

    <output>
        <write-license value="true"/>
    </output>

    <processing>
        <lateral-resolution value="0.8"/>
        <default.speeddev value="0"/>
    </processing>

    <report>
        <xml-validation value="never"/>
        <duration-log.statistics value="true"/>
        <no-step-log value="true"/>
    </report>

</sumoConfiguration>
-->

<meandata xmlns:xsi="http://www.w3.org/2001/XMLSchema-instance" xsi:noNamespaceSchemaLocation="http://sumo.dlr.de/xsd/meandata_file.xsd">
    <interval begin="0.00" end="1094.00" id="cars">
        <edge id=":C_1" sampledSeconds="292.67" traveltime="2.50" overlapTraveltime="2.90" density="9.31" overlapDensity="10.79" laneDensity="4.66" occupancy="2.19" waitingTime="0.00" timeLoss="75.98" speed="10.28" speedRelative="0.74" departed="0" arrived="0" entered="101" left="101" laneChangedFrom="0" laneChangedTo="0" flow="332.36"/>
        <edge id=":C_9" sampledSeconds="220.49" traveltime="2.74" overlapTraveltime="3.15" density="7.08" overlapDensity="8.13" laneDensity="7.08" occupancy="3.27" waitingTime="1.00" timeLoss="70.31" speed="9.46" speedRelative="0.68" departed="0" arrived="0" entered="70" left="70" laneChangedFrom="0" laneChangedTo="0" flow="230.35"/>
        <edge id=":C_11" sampledSeconds="27.63" traveltime="27.21" overlapTraveltime="27.63" density="1.00" overlapDensity="1.02" laneDensity="1.00" occupancy="0.10" waitingTime="23.00" timeLoss="25.48" speed="1.08" speedRelative="0.08" departed="0" arrived="0" entered="1" left="1" laneChangedFrom="0" laneChangedTo="0" flow="3.29"/>
        <edge id=":C_12" sampledSeconds="878.89" traveltime="18.09" overlapTraveltime="19.11" density="95.11" overlapDensity="100.42" laneDensity="95.11" occupancy="28.40" waitingTime="727.00" timeLoss="835.84" speed="0.68" speedRelative="0.05" departed="0" arrived="0" entered="46" left="46" laneChangedFrom="0" laneChangedTo="0" flow="151.37"/>
        <edge id=":C_20" sampledSeconds="124.93" traveltime="2.26" overlapTraveltime="2.72" density="6.24" overlapDensity="7.52" laneDensity="6.24" occupancy="2.67" waitingTime="0.00" timeLoss="58.07" speed="7.43" speedRelative="0.54" departed="0" arrived="0" entered="46" left="46" laneChangedFrom="0" laneChangedTo="0" flow="151.37"/>
        <edge id="CN" sampledSeconds="482.97" traveltime="6.51" overlapTraveltime="6.87" density="4.82" overlapDensity="5.04" laneDensity="2.41" occupancy="1.20" waitingTime="0.00" timeLoss="14.30" speed="13.48" speedRelative="0.97" departed="0" arrived="71" entered="71" left="0" laneChangedFrom="0" laneChangedTo="0" flow="233.64"/>
        <edge id="CS" sampledSeconds="689.47" traveltime="6.54" overlapTraveltime="6.91" density="6.89" overlapDensity="7.19" laneDensity="3.45" occupancy="1.71" waitingTime="0.00" timeLoss="24.25" speed="13.40" speedRelative="0.96" departed="0" arrived="101" entered="101" left="0" laneChangedFrom="0" laneChangedTo="0" flow="332.36"/>
        <edge id="CW" sampledSeconds="315.76" traveltime="6.53" overlapTraveltime="6.89" density="3.13" overlapDensity="3.29" laneDensity="1.57" occupancy="0.78" waitingTime="0.00" timeLoss="10.14" speed="13.44" speedRelative="0.97" departed="0" arrived="46" entered="46" left="0" laneChangedFrom="0" laneChangedTo="0" flow="151.37"/>
        <edge id="NC" sampledSeconds="2484.47" traveltime="25.43" overlapTraveltime="26.03" density="25.24" overlapDensity="25.92" laneDensity="12.62" occupancy="6.40" waitingTime="1371.00" timeLoss="1848.22" speed="3.56" speedRelative="0.26" departed="101" arrived="0" entered="0" left="101" laneChangedFrom="41" laneChangedTo="41" flow="313.01"/>
        <edge id="SC" sampledSeconds="10423.75" traveltime="90.12" overlapTraveltime="94.28" density="103.62" overlapDensity="108.77" laneDensity="51.81" occupancy="26.98" waitingTime="8353.00" timeLoss="9686.71" speed="0.98" speedRelative="0.07" departed="117" arrived="0" entered="0" left="117" laneChangedFrom="69" laneChangedTo="69" flow="362.59"/>
    </interval>
    <interval begin="0.00" end="1094.00" id="scooters">
        <edge id=":C_1" sampledSeconds="355.40" traveltime="3.38" overlapTraveltime="3.59" density="12.32" overlapDensity="13.10" laneDensity="6.16" occupancy="1.25" waitingTime="0.00" timeLoss="163.67" speed="7.49" speedRelative="0.54" departed="0" arrived="0" entered="99" left="99" laneChangedFrom="4" laneChangedTo="4" flow="325.78"/>
        <edge id=":C_9" sampledSeconds="266.66" traveltime="3.49" overlapTraveltime="3.70" density="9.27" overlapDensity="9.83" laneDensity="9.27" occupancy="1.87" waitingTime="6.00" timeLoss="127.23" speed="7.26" speedRelative="0.52" departed="0" arrived="0" entered="72" left="72" laneChangedFrom="0" laneChangedTo="0" flow="236.93"/>
        <edge id=":C_10" sampledSeconds="1153.42" traveltime="29.44" overlapTraveltime="30.35" density="42.61" overlapDensity="43.93" laneDensity="42.61" occupancy="9.00" waitingTime="895.00" timeLoss="1082.01" speed="0.86" speedRelative="0.06" departed="0" arrived="0" entered="38" left="38" laneChangedFrom="0" laneChangedTo="0" flow="125.05"/>
        <edge id=":C_19" sampledSeconds="185.15" traveltime="4.57" overlapTraveltime="4.87" density="7.91" overlapDensity="8.45" laneDensity="7.91" occupancy="1.55" waitingTime="0.00" timeLoss="124.61" speed="4.54" speedRelative="0.33" departed="0" arrived="0" entered="38" left="38" laneChangedFrom="0" laneChangedTo="0" flow="125.05"/>
        <edge id="CN" sampledSeconds="509.68" traveltime="6.95" overlapTraveltime="7.11" density="5.22" overlapDensity="5.32" laneDensity="2.61" occupancy="0.55" waitingTime="0.00" timeLoss="46.55" speed="12.62" speedRelative="0.91" departed="0" arrived="72" entered="72" left="0" laneChangedFrom="1" laneChangedTo="1" flow="236.93"/>
        <edge id="CS" sampledSeconds="702.26" traveltime="6.97" overlapTraveltime="7.13" density="7.20" overlapDensity="7.33" laneDensity="3.60" occupancy="0.75" waitingTime="0.00" timeLoss="65.82" speed="12.59" speedRelative="0.91" departed="0" arrived="99" entered="99" left="0" laneChangedFrom="0" laneChangedTo="0" flow="325.78"/>
        <edge id="CW" sampledSeconds="305.82" traveltime="7.90" overlapTraveltime="8.05" density="3.13" overlapDensity="3.19" laneDensity="1.57" occupancy="0.33" waitingTime="0.00" timeLoss="60.54" speed="11.14" speedRelative="0.80" departed="0" arrived="38" entered="38" left="0" laneChangedFrom="9" laneChangedTo="9" flow="125.05"/>
        <edge id="NC" sampledSeconds="2863.33" traveltime="29.21" overlapTraveltime="29.65" density="29.42" overlapDensity="29.88" laneDensity="14.71" occupancy="3.11" waitingTime="1391.00" timeLoss="2239.68" speed="3.03" speedRelative="0.22" departed="99" arrived="0" entered="0" left="99" laneChangedFrom="32" laneChangedTo="32" flow="317.59"/>
        <edge id="SC" sampledSeconds="4431.59" traveltime="40.78" overlapTraveltime="41.30" density="45.64" overlapDensity="46.24" laneDensity="22.82" occupancy="4.82" waitingTime="2457.00" timeLoss="3738.65" speed="2.17" speedRelative="0.16" departed="110" arrived="0" entered="0" left="110" laneChangedFrom="14" laneChangedTo="14" flow="352.88"/>
    </interval>
</meandata>
