<?xml version="1.0"?>

<!-- generated on 03/25/10 08:19:08 by SUMO sumo Version dev-SVN-r8511
<configuration>

    <input>
        <net-file value="net.net.xml"/>
        <additional-files value="input_routes.rou.xml,input_additional.add.xml,input_additional2.add.xml"/>
    </input>

    <time>
        <begin value="0"/>
        <end value="100"/>
    </time>

    <report>
        <no-duration-log value="true"/>
        <no-step-log value="true"/>
    </report>

    <mesoscopic>
        <mesosim value="true"/>
    </mesoscopic>

</configuration>
-->

<detector>
    <interval begin="0.00" end="10.00" id="3/1to2/1" sampledSeconds="0.00" departed="0" arrived="0" entered="0" left="0"/>
    <interval begin="0.00" end="10.00" id="4/1to3/1" sampledSeconds="13.00" density="13.32" occupancy="6.66" waitingTime="0.00" speed="9.69" departed="2" arrived="0" entered="0" left="0"/>
    <interval begin="10.00" end="20.00" id="3/1to2/1" sampledSeconds="0.00" departed="0" arrived="0" entered="0" left="0"/>
    <interval begin="10.00" end="20.00" id="4/1to3/1" sampledSeconds="7.61" density="7.79" occupancy="3.90" waitingTime="0.00" speed="9.10" departed="0" arrived="0" entered="0" left="2"/>
    <interval begin="20.00" end="30.00" id="3/1to2/1" sampledSeconds="0.00" departed="0" arrived="0" entered="0" left="0"/>
    <interval begin="20.00" end="30.00" id="4/1to3/1" sampledSeconds="0.00" departed="0" arrived="0" entered="0" left="0"/>
    <interval begin="30.00" end="40.00" id="3/1to2/1" sampledSeconds="0.00" departed="0" arrived="0" entered="0" left="0"/>
    <interval begin="30.00" end="40.00" id="4/1to3/1" sampledSeconds="0.00" departed="0" arrived="0" entered="0" left="0"/>
    <interval begin="40.00" end="50.00" id="3/1to2/1" sampledSeconds="10.37" density="10.63" occupancy="5.31" waitingTime="0.00" speed="9.94" departed="0" arrived="0" entered="2" left="1"/>
    <interval begin="40.00" end="50.00" id="4/1to3/1" sampledSeconds="0.00" departed="0" arrived="0" entered="0" left="0"/>
    <interval begin="50.00" end="60.00" id="3/1to2/1" sampledSeconds="10.00" density="10.24" occupancy="5.12" waitingTime="0.00" speed="9.00" departed="0" arrived="0" entered="0" left="0"/>
    <interval begin="50.00" end="60.00" id="4/1to3/1" sampledSeconds="0.00" departed="0" arrived="0" entered="0" left="0"/>
    <interval begin="60.00" end="70.00" id="3/1to2/1" sampledSeconds="0.24" density="0.24" occupancy="0.12" waitingTime="0.00" speed="9.00" departed="0" arrived="0" entered="0" left="1"/>
    <interval begin="60.00" end="70.00" id="4/1to3/1" sampledSeconds="0.00" departed="0" arrived="0" entered="0" left="0"/>
    <interval begin="70.00" end="80.00" id="3/1to2/1" sampledSeconds="0.00" departed="0" arrived="0" entered="0" left="0"/>
    <interval begin="70.00" end="80.00" id="4/1to3/1" sampledSeconds="0.00" departed="0" arrived="0" entered="0" left="0"/>
    <interval begin="80.00" end="90.00" id="3/1to2/1" sampledSeconds="0.00" departed="0" arrived="0" entered="0" left="0"/>
    <interval begin="80.00" end="90.00" id="4/1to3/1" sampledSeconds="0.00" departed="0" arrived="0" entered="0" left="0"/>
    <interval begin="90.00" end="100.00" id="3/1to2/1" sampledSeconds="0.00" departed="0" arrived="0" entered="0" left="0"/>
    <interval begin="90.00" end="100.00" id="4/1to3/1" sampledSeconds="0.00" departed="0" arrived="0" entered="0" left="0"/>
</detector>
