<?xml version="1.0"?>

<!-- generated on Fri Nov  9 17:00:58 2012 by SUMO sumo Version dev-SVN-r12945
<?xml version="1.0" encoding="UTF-8"?>

<configuration xmlns:xsi="http://www.w3.org/2001/XMLSchema-instance" xsi:noNamespaceSchemaLocation="http://sumo.sf.net/xsd/sumoConfiguration.xsd">

    <input>
        <net-file value="net.net.xml"/>
        <route-files value="input_routes.rou.xml"/>
    </input>

    <output>
        <tripinfo-output value="tripinfos.xml"/>
    </output>

    <time>
        <begin value="0"/>
        <end value="1000"/>
    </time>

    <report>
        <no-duration-log value="true"/>
        <no-step-log value="true"/>
    </report>

</configuration>
-->

<tripinfos>
    <tripinfo id="0" depart="0.00" departLane="beg_0" departPos="5.10" departSpeed="0.00" departDelay="0.00" arrival="143.00" arrivalLane="rend_0" arrivalPos="508.42" arrivalSpeed="27.02" duration="143.00" routeLength="2490.92" waitSteps="0" rerouteNo="0" devices="tripinfo_0" vType="t1" vaporized=""/>
    <tripinfo id="1" depart="10.00" departLane="beg_0" departPos="5.10" departSpeed="0.00" departDelay="0.00" arrival="152.00" arrivalLane="rend_0" arrivalPos="509.81" arrivalSpeed="27.34" duration="142.00" routeLength="2492.31" waitSteps="0" rerouteNo="0" devices="tripinfo_1" vType="t1" vaporized=""/>
    <tripinfo id="2" depart="20.00" departLane="beg_0" departPos="5.10" departSpeed="0.00" departDelay="0.00" arrival="162.00" arrivalLane="rend_0" arrivalPos="525.74" arrivalSpeed="27.59" duration="142.00" routeLength="2508.24" waitSteps="0" rerouteNo="0" devices="tripinfo_2" vType="t1" vaporized=""/>
    <tripinfo id="3" depart="30.00" departLane="beg_0" departPos="5.10" departSpeed="0.00" departDelay="0.00" arrival="175.00" arrivalLane="rend_0" arrivalPos="525.08" arrivalSpeed="27.08" duration="145.00" routeLength="2507.58" waitSteps="0" rerouteNo="0" devices="tripinfo_3" vType="t1" vaporized=""/>
    <tripinfo id="4" depart="40.00" departLane="beg_0" departPos="5.10" departSpeed="0.00" departDelay="0.00" arrival="183.00" arrivalLane="rend_0" arrivalPos="514.63" arrivalSpeed="27.00" duration="143.00" routeLength="2497.13" waitSteps="0" rerouteNo="0" devices="tripinfo_4" vType="t1" vaporized=""/>
    <tripinfo id="5" depart="50.00" departLane="beg_0" departPos="5.10" departSpeed="0.00" departDelay="0.00" arrival="194.00" arrivalLane="rend_0" arrivalPos="519.10" arrivalSpeed="26.77" duration="144.00" routeLength="2501.60" waitSteps="0" rerouteNo="0" devices="tripinfo_5" vType="t1" vaporized=""/>
    <tripinfo id="6" depart="60.00" departLane="beg_0" departPos="5.10" departSpeed="0.00" departDelay="0.00" arrival="205.00" arrivalLane="rend_0" arrivalPos="514.39" arrivalSpeed="27.54" duration="145.00" routeLength="2496.89" waitSteps="0" rerouteNo="0" devices="tripinfo_6" vType="t1" vaporized=""/>
    <tripinfo id="7" depart="70.00" departLane="beg_0" departPos="5.10" departSpeed="0.00" departDelay="0.00" arrival="213.00" arrivalLane="rend_0" arrivalPos="512.42" arrivalSpeed="26.83" duration="143.00" routeLength="2494.92" waitSteps="0" rerouteNo="0" devices="tripinfo_7" vType="t1" vaporized=""/>
    <tripinfo id="8" depart="80.00" departLane="beg_0" departPos="5.10" departSpeed="0.00" departDelay="0.00" arrival="224.00" arrivalLane="rend_0" arrivalPos="523.11" arrivalSpeed="26.85" duration="144.00" routeLength="2505.61" waitSteps="0" rerouteNo="0" devices="tripinfo_8" vType="t1" vaporized=""/>
    <tripinfo id="9" depart="90.00" departLane="beg_0" departPos="5.10" departSpeed="0.00" departDelay="0.00" arrival="235.00" arrivalLane="rend_0" arrivalPos="512.57" arrivalSpeed="26.91" duration="145.00" routeLength="2495.07" waitSteps="0" rerouteNo="0" devices="tripinfo_9" vType="t1" vaporized=""/>
</tripinfos>
