<?xml version="1.0" encoding="UTF-8"?>

<!-- generated on Wed Jul  5 10:32:32 2017 by SUMO Version dev-SVN-r23112
<?xml version="1.0" encoding="UTF-8"?>

<configuration xmlns:xsi="http://www.w3.org/2001/XMLSchema-instance" xsi:noNamespaceSchemaLocation="http://sumo.dlr.de/xsd/sumoConfiguration.xsd">

    <input>
        <net-file value="net.net.xml"/>
        <route-files value="input_routes.rou.xml"/>
        <additional-files value="input_additional.add.xml,input_additional2.add.xml"/>
    </input>

    <time>
        <begin value="0"/>
        <end value="3000"/>
    </time>

    <report>
        <verbose value="true"/>
        <xml-validation value="never"/>
        <duration-log.statistics value="true"/>
        <no-step-log value="true"/>
    </report>

</configuration>
-->

<meandata xmlns:xsi="http://www.w3.org/2001/XMLSchema-instance" xsi:noNamespaceSchemaLocation="http://sumo.dlr.de/xsd/meandata_file.xsd">
    <interval begin="0.00" end="60.00" id="dump_60">
        <edge id="1/1to2/1" sampledSeconds="907.59" traveltime="204.14" overlapTraveltime="200.74" density="15.44" occupancy="7.67" waitingTime="452.00" speed="4.91" departed="60" arrived="0" entered="0" left="31" laneChangedFrom="0" laneChangedTo="0"/>
        <edge id="2/1to3/1" sampledSeconds="864.57" traveltime="52.65" overlapTraveltime="52.92" density="14.70" occupancy="7.30" waitingTime="0.00" speed="18.61" departed="0" arrived="0" entered="31" left="2" laneChangedFrom="0" laneChangedTo="0"/>
        <edge id="3/1to4/1" sampledSeconds="2.59" traveltime="52.42" overlapTraveltime="52.68" density="0.04" occupancy="0.02" waitingTime="0.00" speed="18.70" departed="0" arrived="0" entered="2" left="0" laneChangedFrom="0" laneChangedTo="0"/>
    </interval>
    <interval begin="60.00" end="120.00" id="dump_60">
        <edge id="1/1to2/1" sampledSeconds="2415.80" traveltime="148.78" overlapTraveltime="148.45" density="41.09" occupancy="20.50" waitingTime="1291.00" speed="6.63" departed="60" arrived="0" entered="0" left="36" laneChangedFrom="0" laneChangedTo="0"/>
        <edge id="2/1to3/1" sampledSeconds="1844.68" traveltime="52.13" overlapTraveltime="52.40" density="31.37" occupancy="15.61" waitingTime="0.00" speed="18.80" departed="0" arrived="0" entered="36" left="33" laneChangedFrom="0" laneChangedTo="0"/>
        <edge id="3/1to4/1" sampledSeconds="1082.65" traveltime="51.86" overlapTraveltime="52.12" density="18.41" occupancy="9.16" waitingTime="0.00" speed="18.90" departed="0" arrived="0" entered="33" left="6" laneChangedFrom="0" laneChangedTo="0"/>
        <edge id="4/1to5/1" sampledSeconds="34.73" traveltime="51.99" overlapTraveltime="52.25" density="0.59" occupancy="0.29" waitingTime="0.00" speed="18.85" departed="0" arrived="0" entered="6" left="0" laneChangedFrom="0" laneChangedTo="0"/>
    </interval>
    <interval begin="120.00" end="180.00" id="dump_60">
        <edge id="1/1to2/1" sampledSeconds="3076.71" traveltime="110.13" overlapTraveltime="110.31" density="52.33" occupancy="25.91" waitingTime="1336.00" speed="8.93" departed="19" arrived="0" entered="0" left="36" laneChangedFrom="0" laneChangedTo="0"/>
        <edge id="2/1to3/1" sampledSeconds="1852.67" traveltime="52.12" overlapTraveltime="52.38" density="31.51" occupancy="15.67" waitingTime="0.00" speed="18.80" departed="0" arrived="0" entered="35" left="37" laneChangedFrom="0" laneChangedTo="0"/>
        <edge id="3/1to4/1" sampledSeconds="1848.42" traveltime="52.08" overlapTraveltime="52.34" density="31.44" occupancy="15.64" waitingTime="0.00" speed="18.82" departed="0" arrived="0" entered="37" left="34" laneChangedFrom="0" laneChangedTo="0"/>
        <edge id="4/1to5/1" sampledSeconds="1279.75" traveltime="51.78" overlapTraveltime="52.04" density="21.77" occupancy="10.83" waitingTime="0.00" speed="18.93" departed="0" arrived="0" entered="34" left="11" laneChangedFrom="0" laneChangedTo="0"/>
        <edge id="5/1to6/1" sampledSeconds="104.69" traveltime="51.67" overlapTraveltime="51.93" density="1.78" occupancy="0.88" waitingTime="0.00" speed="18.97" departed="0" arrived="0" entered="11" left="0" laneChangedFrom="0" laneChangedTo="0"/>
    </interval>
    <interval begin="180.00" end="240.00" id="dump_60">
        <edge id="1/1to2/1" sampledSeconds="1709.47" traveltime="56.23" overlapTraveltime="56.49" density="29.07" occupancy="14.36" waitingTime="12.00" speed="17.44" departed="21" arrived="0" entered="0" left="35" laneChangedFrom="0" laneChangedTo="0"/>
        <edge id="2/1to3/1" sampledSeconds="1857.85" traveltime="51.88" overlapTraveltime="52.14" density="31.60" occupancy="15.72" waitingTime="0.00" speed="18.89" departed="0" arrived="0" entered="36" left="35" laneChangedFrom="0" laneChangedTo="0"/>
        <edge id="3/1to4/1" sampledSeconds="1854.50" traveltime="51.94" overlapTraveltime="52.21" density="31.54" occupancy="15.69" waitingTime="0.00" speed="18.87" departed="0" arrived="0" entered="35" left="36" laneChangedFrom="0" laneChangedTo="0"/>
        <edge id="4/1to5/1" sampledSeconds="1859.22" traveltime="52.07" overlapTraveltime="52.34" density="31.62" occupancy="15.73" waitingTime="0.00" speed="18.82" departed="0" arrived="0" entered="36" left="34" laneChangedFrom="0" laneChangedTo="0"/>
        <edge id="5/1to6/1" sampledSeconds="1442.64" traveltime="51.81" overlapTraveltime="52.08" density="24.54" occupancy="12.21" waitingTime="0.00" speed="18.91" departed="0" arrived="0" entered="34" left="15" laneChangedFrom="0" laneChangedTo="0"/>
        <edge id="6/1to7/1" sampledSeconds="211.62" traveltime="51.64" overlapTraveltime="51.91" density="3.60" occupancy="1.78" waitingTime="0.00" speed="18.98" departed="0" arrived="0" entered="15" left="0" laneChangedFrom="0" laneChangedTo="0"/>
    </interval>
    <interval begin="240.00" end="300.00" id="dump_60">
        <edge id="1/1to2/1" sampledSeconds="1313.80" traveltime="56.56" overlapTraveltime="56.83" density="22.34" occupancy="11.05" waitingTime="0.00" speed="17.33" departed="24" arrived="0" entered="0" left="23" laneChangedFrom="0" laneChangedTo="0"/>
        <edge id="2/1to3/1" sampledSeconds="1507.50" traveltime="51.82" overlapTraveltime="52.08" density="25.64" occupancy="12.76" waitingTime="0.00" speed="18.91" departed="0" arrived="0" entered="23" left="34" laneChangedFrom="0" laneChangedTo="0"/>
        <edge id="3/1to4/1" sampledSeconds="1852.55" traveltime="51.90" overlapTraveltime="52.17" density="31.51" occupancy="15.68" waitingTime="0.00" speed="18.88" departed="0" arrived="0" entered="34" left="36" laneChangedFrom="0" laneChangedTo="0"/>
        <edge id="4/1to5/1" sampledSeconds="1857.53" traveltime="51.89" overlapTraveltime="52.15" density="31.59" occupancy="15.72" waitingTime="0.00" speed="18.89" departed="0" arrived="0" entered="36" left="36" laneChangedFrom="0" laneChangedTo="0"/>
        <edge id="5/1to6/1" sampledSeconds="1869.12" traveltime="51.97" overlapTraveltime="52.23" density="31.79" occupancy="15.81" waitingTime="0.00" speed="18.86" departed="0" arrived="0" entered="36" left="35" laneChangedFrom="0" laneChangedTo="0"/>
        <edge id="6/1to7/1" sampledSeconds="1572.83" traveltime="51.76" overlapTraveltime="52.03" density="26.75" occupancy="13.31" waitingTime="0.00" speed="18.93" departed="0" arrived="0" entered="35" left="20" laneChangedFrom="0" laneChangedTo="0"/>
        <edge id="7/1to8/1" sampledSeconds="352.84" traveltime="51.74" overlapTraveltime="52.01" density="6.00" occupancy="2.98" waitingTime="0.00" speed="18.94" departed="0" arrived="0" entered="20" left="0" laneChangedFrom="0" laneChangedTo="0"/>
    </interval>
    <interval begin="300.00" end="360.00" id="dump_60">
        <edge id="1/1to2/1" sampledSeconds="1331.75" traveltime="56.36" overlapTraveltime="56.62" density="22.65" occupancy="11.15" waitingTime="1.00" speed="17.40" departed="23" arrived="0" entered="0" left="24" laneChangedFrom="0" laneChangedTo="0"/>
        <edge id="2/1to3/1" sampledSeconds="1212.30" traveltime="51.71" overlapTraveltime="51.97" density="20.62" occupancy="10.26" waitingTime="0.00" speed="18.95" departed="0" arrived="0" entered="24" left="23" laneChangedFrom="0" laneChangedTo="0"/>
        <edge id="3/1to4/1" sampledSeconds="1428.04" traveltime="51.85" overlapTraveltime="52.11" density="24.29" occupancy="12.08" waitingTime="0.00" speed="18.90" departed="0" arrived="0" entered="23" left="33" laneChangedFrom="0" laneChangedTo="0"/>
        <edge id="4/1to5/1" sampledSeconds="1834.77" traveltime="51.89" overlapTraveltime="52.16" density="31.21" occupancy="15.52" waitingTime="0.00" speed="18.88" departed="0" arrived="0" entered="33" left="36" laneChangedFrom="0" laneChangedTo="0"/>
        <edge id="5/1to6/1" sampledSeconds="1858.10" traveltime="51.94" overlapTraveltime="52.20" density="31.60" occupancy="15.72" waitingTime="0.00" speed="18.87" departed="0" arrived="0" entered="36" left="36" laneChangedFrom="0" laneChangedTo="0"/>
        <edge id="6/1to7/1" sampledSeconds="1875.26" traveltime="51.96" overlapTraveltime="52.23" density="31.89" occupancy="15.87" waitingTime="0.00" speed="18.86" departed="0" arrived="0" entered="36" left="34" laneChangedFrom="0" laneChangedTo="0"/>
        <edge id="7/1to8/1" sampledSeconds="1675.23" traveltime="51.78" overlapTraveltime="52.04" density="28.49" occupancy="14.18" waitingTime="0.00" speed="18.93" departed="0" arrived="0" entered="34" left="24" laneChangedFrom="0" laneChangedTo="0"/>
        <edge id="8/1to9/1" sampledSeconds="528.40" traveltime="51.78" overlapTraveltime="52.04" density="8.99" occupancy="4.47" waitingTime="0.00" speed="18.93" departed="0" arrived="0" entered="24" left="0" laneChangedFrom="0" laneChangedTo="0"/>
    </interval>
    <interval begin="360.00" end="420.00" id="dump_60">
        <edge id="1/1to2/1" sampledSeconds="1316.73" traveltime="56.58" overlapTraveltime="56.84" density="22.39" occupancy="11.04" waitingTime="4.00" speed="17.33" departed="24" arrived="0" entered="0" left="23" laneChangedFrom="0" laneChangedTo="0"/>
        <edge id="2/1to3/1" sampledSeconds="1217.61" traveltime="51.74" overlapTraveltime="52.01" density="20.71" occupancy="10.30" waitingTime="0.00" speed="18.94" departed="0" arrived="0" entered="23" left="25" laneChangedFrom="0" laneChangedTo="0"/>
        <edge id="3/1to4/1" sampledSeconds="1221.88" traveltime="51.73" overlapTraveltime="51.99" density="20.78" occupancy="10.34" waitingTime="0.00" speed="18.94" departed="0" arrived="0" entered="24" left="22" laneChangedFrom="0" laneChangedTo="0"/>
        <edge id="4/1to5/1" sampledSeconds="1356.24" traveltime="51.72" overlapTraveltime="51.98" density="23.07" occupancy="11.47" waitingTime="0.00" speed="18.95" departed="0" arrived="0" entered="22" left="31" laneChangedFrom="0" laneChangedTo="0"/>
        <edge id="5/1to6/1" sampledSeconds="1808.83" traveltime="51.86" overlapTraveltime="52.13" density="30.76" occupancy="15.31" waitingTime="0.00" speed="18.89" departed="0" arrived="0" entered="31" left="36" laneChangedFrom="0" laneChangedTo="0"/>
        <edge id="6/1to7/1" sampledSeconds="1856.64" traveltime="51.91" overlapTraveltime="52.17" density="31.58" occupancy="15.71" waitingTime="0.00" speed="18.88" departed="0" arrived="0" entered="35" left="36" laneChangedFrom="0" laneChangedTo="0"/>
        <edge id="7/1to8/1" sampledSeconds="1878.09" traveltime="51.88" overlapTraveltime="52.15" density="31.94" occupancy="15.89" waitingTime="0.00" speed="18.89" departed="0" arrived="0" entered="36" left="35" laneChangedFrom="0" laneChangedTo="0"/>
        <edge id="8/1to9/1" sampledSeconds="1744.42" traveltime="51.80" overlapTraveltime="52.06" density="29.67" occupancy="14.76" waitingTime="0.00" speed="18.92" departed="0" arrived="0" entered="35" left="29" laneChangedFrom="0" laneChangedTo="0"/>
        <edge id="9/1to10/1" sampledSeconds="741.05" traveltime="51.69" overlapTraveltime="51.95" density="12.60" occupancy="6.27" waitingTime="0.00" speed="18.96" departed="0" arrived="0" entered="29" left="1" laneChangedFrom="0" laneChangedTo="0"/>
    </interval>
    <interval begin="420.00" end="480.00" id="dump_60">
        <edge id="1/1to2/1" sampledSeconds="1321.26" traveltime="55.82" overlapTraveltime="56.08" density="22.47" occupancy="11.08" waitingTime="1.00" speed="17.56" departed="18" arrived="0" entered="4" left="24" laneChangedFrom="0" laneChangedTo="0"/>
        <edge id="10/1to1/1" sampledSeconds="974.11" traveltime="51.88" overlapTraveltime="52.16" density="16.57" occupancy="8.24" waitingTime="0.00" speed="18.88" departed="0" arrived="0" entered="33" left="4" laneChangedFrom="0" laneChangedTo="0"/>
        <edge id="2/1to3/1" sampledSeconds="1211.74" traveltime="51.70" overlapTraveltime="51.97" density="20.61" occupancy="10.25" waitingTime="0.00" speed="18.95" departed="0" arrived="0" entered="24" left="23" laneChangedFrom="0" laneChangedTo="0"/>
        <edge id="3/1to4/1" sampledSeconds="1209.49" traveltime="51.69" overlapTraveltime="51.95" density="20.57" occupancy="10.23" waitingTime="0.00" speed="18.96" departed="0" arrived="0" entered="23" left="24" laneChangedFrom="0" laneChangedTo="0"/>
        <edge id="4/1to5/1" sampledSeconds="1227.82" traveltime="51.69" overlapTraveltime="51.96" density="20.88" occupancy="10.39" waitingTime="0.00" speed="18.96" departed="0" arrived="0" entered="24" left="23" laneChangedFrom="0" laneChangedTo="0"/>
        <edge id="5/1to6/1" sampledSeconds="1300.49" traveltime="51.75" overlapTraveltime="52.01" density="22.12" occupancy="11.00" waitingTime="0.00" speed="18.94" departed="0" arrived="0" entered="23" left="29" laneChangedFrom="0" laneChangedTo="0"/>
        <edge id="6/1to7/1" sampledSeconds="1770.70" traveltime="51.91" overlapTraveltime="52.17" density="30.12" occupancy="14.98" waitingTime="0.00" speed="18.88" departed="0" arrived="0" entered="30" left="36" laneChangedFrom="0" laneChangedTo="0"/>
        <edge id="7/1to8/1" sampledSeconds="1854.12" traveltime="51.90" overlapTraveltime="52.17" density="31.53" occupancy="15.69" waitingTime="0.00" speed="18.88" departed="0" arrived="0" entered="36" left="36" laneChangedFrom="0" laneChangedTo="0"/>
        <edge id="8/1to9/1" sampledSeconds="1881.11" traveltime="51.95" overlapTraveltime="52.21" density="31.99" occupancy="15.92" waitingTime="0.00" speed="18.86" departed="0" arrived="0" entered="36" left="35" laneChangedFrom="0" laneChangedTo="0"/>
        <edge id="9/1to10/1" sampledSeconds="1776.16" traveltime="51.84" overlapTraveltime="52.10" density="30.21" occupancy="15.03" waitingTime="0.00" speed="18.90" departed="0" arrived="0" entered="35" left="32" laneChangedFrom="0" laneChangedTo="0"/>
    </interval>
    <interval begin="480.00" end="540.00" id="dump_60">
        <edge id="1/1to2/1" sampledSeconds="1570.82" traveltime="51.82" overlapTraveltime="52.08" density="26.72" occupancy="13.29" waitingTime="0.00" speed="18.91" departed="0" arrived="0" entered="34" left="26" laneChangedFrom="0" laneChangedTo="0"/>
        <edge id="10/1to1/1" sampledSeconds="1790.42" traveltime="51.83" overlapTraveltime="52.10" density="30.45" occupancy="15.15" waitingTime="0.00" speed="18.91" departed="0" arrived="0" entered="36" left="34" laneChangedFrom="0" laneChangedTo="0"/>
        <edge id="2/1to3/1" sampledSeconds="1241.31" traveltime="51.72" overlapTraveltime="51.98" density="21.11" occupancy="10.50" waitingTime="0.00" speed="18.95" departed="0" arrived="0" entered="26" left="23" laneChangedFrom="0" laneChangedTo="0"/>
        <edge id="3/1to4/1" sampledSeconds="1214.39" traveltime="51.70" overlapTraveltime="51.97" density="20.65" occupancy="10.27" waitingTime="0.00" speed="18.95" departed="0" arrived="0" entered="24" left="24" laneChangedFrom="0" laneChangedTo="0"/>
        <edge id="4/1to5/1" sampledSeconds="1208.07" traveltime="51.71" overlapTraveltime="51.98" density="20.55" occupancy="10.22" waitingTime="0.00" speed="18.95" departed="0" arrived="0" entered="24" left="24" laneChangedFrom="0" laneChangedTo="0"/>
        <edge id="5/1to6/1" sampledSeconds="1230.97" traveltime="51.78" overlapTraveltime="52.04" density="20.94" occupancy="10.42" waitingTime="0.00" speed="18.93" departed="0" arrived="0" entered="23" left="23" laneChangedFrom="0" laneChangedTo="0"/>
        <edge id="6/1to7/1" sampledSeconds="1259.89" traveltime="51.78" overlapTraveltime="52.04" density="21.43" occupancy="10.66" waitingTime="0.00" speed="18.93" departed="0" arrived="0" entered="23" left="28" laneChangedFrom="0" laneChangedTo="0"/>
        <edge id="7/1to8/1" sampledSeconds="1715.60" traveltime="51.87" overlapTraveltime="52.13" density="29.18" occupancy="14.52" waitingTime="0.00" speed="18.89" departed="0" arrived="0" entered="28" left="36" laneChangedFrom="0" laneChangedTo="0"/>
        <edge id="8/1to9/1" sampledSeconds="1855.70" traveltime="51.92" overlapTraveltime="52.18" density="31.56" occupancy="15.70" waitingTime="0.00" speed="18.87" departed="0" arrived="0" entered="36" left="36" laneChangedFrom="0" laneChangedTo="0"/>
        <edge id="9/1to10/1" sampledSeconds="1883.01" traveltime="51.99" overlapTraveltime="52.26" density="32.03" occupancy="15.93" waitingTime="0.00" speed="18.85" departed="0" arrived="0" entered="36" left="36" laneChangedFrom="0" laneChangedTo="0"/>
    </interval>
    <interval begin="540.00" end="600.00" id="dump_60">
        <edge id="1/1to2/1" sampledSeconds="1807.48" traveltime="51.86" overlapTraveltime="52.13" density="30.74" occupancy="15.29" waitingTime="0.00" speed="18.89" departed="0" arrived="0" entered="36" left="33" laneChangedFrom="0" laneChangedTo="0"/>
        <edge id="10/1to1/1" sampledSeconds="1878.97" traveltime="51.92" overlapTraveltime="52.18" density="31.96" occupancy="15.90" waitingTime="0.00" speed="18.87" departed="0" arrived="0" entered="35" left="36" laneChangedFrom="0" laneChangedTo="0"/>
        <edge id="2/1to3/1" sampledSeconds="1624.02" traveltime="51.77" overlapTraveltime="52.04" density="27.62" occupancy="13.74" waitingTime="0.00" speed="18.93" departed="0" arrived="0" entered="33" left="27" laneChangedFrom="0" laneChangedTo="0"/>
        <edge id="3/1to4/1" sampledSeconds="1264.70" traveltime="51.75" overlapTraveltime="52.01" density="21.51" occupancy="10.70" waitingTime="0.00" speed="18.94" departed="0" arrived="0" entered="27" left="23" laneChangedFrom="0" laneChangedTo="0"/>
        <edge id="4/1to5/1" sampledSeconds="1215.87" traveltime="51.70" overlapTraveltime="51.96" density="20.68" occupancy="10.29" waitingTime="0.00" speed="18.96" departed="0" arrived="0" entered="23" left="22" laneChangedFrom="0" laneChangedTo="0"/>
        <edge id="5/1to6/1" sampledSeconds="1208.29" traveltime="51.75" overlapTraveltime="52.01" density="20.55" occupancy="10.22" waitingTime="0.00" speed="18.94" departed="0" arrived="0" entered="23" left="24" laneChangedFrom="0" laneChangedTo="0"/>
        <edge id="6/1to7/1" sampledSeconds="1230.04" traveltime="51.76" overlapTraveltime="52.02" density="20.92" occupancy="10.41" waitingTime="0.00" speed="18.93" departed="0" arrived="0" entered="24" left="23" laneChangedFrom="0" laneChangedTo="0"/>
        <edge id="7/1to8/1" sampledSeconds="1231.79" traveltime="51.73" overlapTraveltime="51.99" density="20.95" occupancy="10.42" waitingTime="0.00" speed="18.94" departed="0" arrived="0" entered="23" left="26" laneChangedFrom="0" laneChangedTo="0"/>
        <edge id="8/1to9/1" sampledSeconds="1650.96" traveltime="51.85" overlapTraveltime="52.11" density="28.08" occupancy="13.97" waitingTime="0.00" speed="18.90" departed="0" arrived="0" entered="26" left="35" laneChangedFrom="0" laneChangedTo="0"/>
        <edge id="9/1to10/1" sampledSeconds="1857.50" traveltime="51.93" overlapTraveltime="52.19" density="31.59" occupancy="15.72" waitingTime="0.00" speed="18.87" departed="0" arrived="0" entered="35" left="35" laneChangedFrom="0" laneChangedTo="0"/>
    </interval>
    <interval begin="600.00" end="660.00" id="dump_60">
        <edge id="1/1to2/1" sampledSeconds="1876.53" traveltime="51.98" overlapTraveltime="52.24" density="31.92" occupancy="15.88" waitingTime="0.00" speed="18.85" departed="0" arrived="0" entered="35" left="37" laneChangedFrom="0" laneChangedTo="0"/>
        <edge id="10/1to1/1" sampledSeconds="1858.32" traveltime="51.94" overlapTraveltime="52.21" density="31.61" occupancy="15.72" waitingTime="0.00" speed="18.87" departed="0" arrived="0" entered="36" left="35" laneChangedFrom="0" laneChangedTo="0"/>
        <edge id="2/1to3/1" sampledSeconds="1819.38" traveltime="51.88" overlapTraveltime="52.15" density="30.94" occupancy="15.39" waitingTime="0.00" speed="18.89" departed="0" arrived="0" entered="36" left="34" laneChangedFrom="0" laneChangedTo="0"/>
        <edge id="3/1to4/1" sampledSeconds="1672.03" traveltime="51.82" overlapTraveltime="52.09" density="28.44" occupancy="14.15" waitingTime="0.00" speed="18.91" departed="0" arrived="0" entered="34" left="29" laneChangedFrom="0" laneChangedTo="0"/>
        <edge id="4/1to5/1" sampledSeconds="1296.41" traveltime="51.72" overlapTraveltime="51.99" density="22.05" occupancy="10.97" waitingTime="0.00" speed="18.95" departed="0" arrived="0" entered="29" left="24" laneChangedFrom="0" laneChangedTo="0"/>
        <edge id="5/1to6/1" sampledSeconds="1221.25" traveltime="51.75" overlapTraveltime="52.02" density="20.77" occupancy="10.33" waitingTime="0.00" speed="18.94" departed="0" arrived="0" entered="24" left="23" laneChangedFrom="0" laneChangedTo="0"/>
        <edge id="6/1to7/1" sampledSeconds="1207.40" traveltime="51.73" overlapTraveltime="51.99" density="20.54" occupancy="10.21" waitingTime="0.00" speed="18.94" departed="0" arrived="0" entered="23" left="24" laneChangedFrom="0" laneChangedTo="0"/>
        <edge id="7/1to8/1" sampledSeconds="1227.60" traveltime="51.70" overlapTraveltime="51.96" density="20.88" occupancy="10.39" waitingTime="0.00" speed="18.95" departed="0" arrived="0" entered="24" left="24" laneChangedFrom="0" laneChangedTo="0"/>
        <edge id="8/1to9/1" sampledSeconds="1214.52" traveltime="51.73" overlapTraveltime="52.00" density="20.66" occupancy="10.27" waitingTime="0.00" speed="18.94" departed="0" arrived="0" entered="24" left="25" laneChangedFrom="0" laneChangedTo="0"/>
        <edge id="9/1to10/1" sampledSeconds="1576.81" traveltime="51.81" overlapTraveltime="52.08" density="26.82" occupancy="13.34" waitingTime="0.00" speed="18.91" departed="0" arrived="0" entered="25" left="36" laneChangedFrom="0" laneChangedTo="0"/>
    </interval>
    <interval begin="660.00" end="720.00" id="dump_60">
        <edge id="1/1to2/1" sampledSeconds="1856.16" traveltime="51.97" overlapTraveltime="52.23" density="31.57" occupancy="15.71" waitingTime="0.00" speed="18.86" departed="0" arrived="0" entered="34" left="35" laneChangedFrom="0" laneChangedTo="0"/>
        <edge id="10/1to1/1" sampledSeconds="1495.36" traveltime="51.84" overlapTraveltime="52.10" density="25.43" occupancy="12.65" waitingTime="0.00" speed="18.90" departed="0" arrived="0" entered="23" left="35" laneChangedFrom="0" laneChangedTo="0"/>
        <edge id="2/1to3/1" sampledSeconds="1872.10" traveltime="51.95" overlapTraveltime="52.21" density="31.84" occupancy="15.84" waitingTime="0.00" speed="18.86" departed="0" arrived="0" entered="36" left="36" laneChangedFrom="0" laneChangedTo="0"/>
        <edge id="3/1to4/1" sampledSeconds="1831.40" traveltime="51.88" overlapTraveltime="52.14" density="31.15" occupancy="15.50" waitingTime="0.00" speed="18.89" departed="0" arrived="0" entered="36" left="34" laneChangedFrom="0" laneChangedTo="0"/>
        <edge id="4/1to5/1" sampledSeconds="1708.02" traveltime="51.79" overlapTraveltime="52.05" density="29.05" occupancy="14.45" waitingTime="0.00" speed="18.92" departed="0" arrived="0" entered="34" left="30" laneChangedFrom="0" laneChangedTo="0"/>
        <edge id="5/1to6/1" sampledSeconds="1338.84" traveltime="51.66" overlapTraveltime="51.92" density="22.77" occupancy="11.33" waitingTime="0.00" speed="18.97" departed="0" arrived="0" entered="30" left="23" laneChangedFrom="0" laneChangedTo="0"/>
        <edge id="6/1to7/1" sampledSeconds="1224.51" traveltime="51.72" overlapTraveltime="51.99" density="20.83" occupancy="10.36" waitingTime="0.00" speed="18.95" departed="0" arrived="0" entered="23" left="23" laneChangedFrom="0" laneChangedTo="0"/>
        <edge id="7/1to8/1" sampledSeconds="1205.52" traveltime="51.66" overlapTraveltime="51.92" density="20.50" occupancy="10.20" waitingTime="0.00" speed="18.97" departed="0" arrived="0" entered="23" left="23" laneChangedFrom="0" laneChangedTo="0"/>
        <edge id="8/1to9/1" sampledSeconds="1225.31" traveltime="51.70" overlapTraveltime="51.96" density="20.84" occupancy="10.37" waitingTime="0.00" speed="18.95" departed="0" arrived="0" entered="23" left="24" laneChangedFrom="0" laneChangedTo="0"/>
        <edge id="9/1to10/1" sampledSeconds="1212.53" traveltime="51.75" overlapTraveltime="52.02" density="20.62" occupancy="10.26" waitingTime="0.00" speed="18.94" departed="0" arrived="0" entered="24" left="23" laneChangedFrom="0" laneChangedTo="0"/>
    </interval>
    <interval begin="720.00" end="780.00" id="dump_60">
        <edge id="1/1to2/1" sampledSeconds="1552.67" traveltime="53.02" overlapTraveltime="53.28" density="26.41" occupancy="13.13" waitingTime="3.00" speed="18.49" departed="4" arrived="0" entered="23" left="33" laneChangedFrom="0" laneChangedTo="0"/>
        <edge id="10/1to1/1" sampledSeconds="1231.70" traveltime="52.18" overlapTraveltime="52.52" density="20.95" occupancy="10.41" waitingTime="0.00" speed="18.75" departed="0" arrived="0" entered="24" left="22" laneChangedFrom="0" laneChangedTo="0"/>
        <edge id="2/1to3/1" sampledSeconds="1842.33" traveltime="51.91" overlapTraveltime="52.18" density="31.33" occupancy="15.59" waitingTime="0.00" speed="18.88" departed="0" arrived="0" entered="33" left="36" laneChangedFrom="0" laneChangedTo="0"/>
        <edge id="3/1to4/1" sampledSeconds="1869.51" traveltime="51.99" overlapTraveltime="52.25" density="31.80" occupancy="15.82" waitingTime="0.00" speed="18.85" departed="0" arrived="0" entered="36" left="36" laneChangedFrom="0" laneChangedTo="0"/>
        <edge id="4/1to5/1" sampledSeconds="1839.53" traveltime="51.88" overlapTraveltime="52.15" density="31.29" occupancy="15.56" waitingTime="0.00" speed="18.89" departed="0" arrived="0" entered="36" left="35" laneChangedFrom="0" laneChangedTo="0"/>
        <edge id="5/1to6/1" sampledSeconds="1735.84" traveltime="51.75" overlapTraveltime="52.02" density="29.52" occupancy="14.69" waitingTime="0.00" speed="18.93" departed="0" arrived="0" entered="34" left="32" laneChangedFrom="0" laneChangedTo="0"/>
        <edge id="6/1to7/1" sampledSeconds="1396.21" traveltime="51.73" overlapTraveltime="51.99" density="23.75" occupancy="11.81" waitingTime="0.00" speed="18.94" departed="0" arrived="0" entered="32" left="24" laneChangedFrom="0" laneChangedTo="0"/>
        <edge id="7/1to8/1" sampledSeconds="1224.59" traveltime="51.69" overlapTraveltime="51.95" density="20.83" occupancy="10.36" waitingTime="0.00" speed="18.96" departed="0" arrived="0" entered="24" left="23" laneChangedFrom="0" laneChangedTo="0"/>
        <edge id="8/1to9/1" sampledSeconds="1207.25" traveltime="51.70" overlapTraveltime="51.96" density="20.53" occupancy="10.21" waitingTime="0.00" speed="18.96" departed="0" arrived="0" entered="23" left="23" laneChangedFrom="0" laneChangedTo="0"/>
        <edge id="9/1to10/1" sampledSeconds="1219.94" traveltime="51.71" overlapTraveltime="51.97" density="20.75" occupancy="10.32" waitingTime="0.00" speed="18.95" departed="0" arrived="0" entered="23" left="24" laneChangedFrom="0" laneChangedTo="0"/>
    </interval>
    <interval begin="780.00" end="840.00" id="dump_60">
        <edge id="1/1to2/1" sampledSeconds="1446.90" traveltime="52.88" overlapTraveltime="53.15" density="24.61" occupancy="12.24" waitingTime="0.00" speed="18.53" departed="4" arrived="0" entered="24" left="26" laneChangedFrom="0" laneChangedTo="0"/>
        <edge id="10/1to1/1" sampledSeconds="1224.71" traveltime="52.18" overlapTraveltime="52.50" density="20.83" occupancy="10.36" waitingTime="0.00" speed="18.76" departed="0" arrived="0" entered="23" left="24" laneChangedFrom="0" laneChangedTo="0"/>
        <edge id="2/1to3/1" sampledSeconds="1475.13" traveltime="51.87" overlapTraveltime="52.13" density="25.09" occupancy="12.48" waitingTime="0.00" speed="18.89" departed="0" arrived="0" entered="26" left="31" laneChangedFrom="0" laneChangedTo="0"/>
        <edge id="3/1to4/1" sampledSeconds="1818.90" traveltime="51.89" overlapTraveltime="52.16" density="30.94" occupancy="15.39" waitingTime="0.00" speed="18.88" departed="0" arrived="0" entered="31" left="35" laneChangedFrom="0" laneChangedTo="0"/>
        <edge id="4/1to5/1" sampledSeconds="1867.57" traveltime="51.94" overlapTraveltime="52.20" density="31.76" occupancy="15.80" waitingTime="0.00" speed="18.87" departed="0" arrived="0" entered="35" left="36" laneChangedFrom="0" laneChangedTo="0"/>
        <edge id="5/1to6/1" sampledSeconds="1844.76" traveltime="51.91" overlapTraveltime="52.18" density="31.38" occupancy="15.61" waitingTime="0.00" speed="18.88" departed="0" arrived="0" entered="36" left="34" laneChangedFrom="0" laneChangedTo="0"/>
        <edge id="6/1to7/1" sampledSeconds="1756.15" traveltime="51.76" overlapTraveltime="52.03" density="29.87" occupancy="14.86" waitingTime="0.00" speed="18.93" departed="0" arrived="0" entered="34" left="32" laneChangedFrom="0" laneChangedTo="0"/>
        <edge id="7/1to8/1" sampledSeconds="1461.39" traveltime="51.71" overlapTraveltime="51.98" density="24.86" occupancy="12.36" waitingTime="0.00" speed="18.95" departed="0" arrived="0" entered="32" left="24" laneChangedFrom="0" laneChangedTo="0"/>
        <edge id="8/1to9/1" sampledSeconds="1227.44" traveltime="51.73" overlapTraveltime="52.00" density="20.88" occupancy="10.38" waitingTime="0.00" speed="18.94" departed="0" arrived="0" entered="24" left="24" laneChangedFrom="0" laneChangedTo="0"/>