<?xml version="1.0"?>

<!-- generated on 12/05/11 10:30:04 by SUMO sumo Version dev-SVN-r11548
<?xml version="1.0" encoding="UTF-8"?>

<configuration xmlns:xsi="http://www.w3.org/2001/XMLSchema-instance" xsi:noNamespaceSchemaLocation="http://sumo.sf.net/xsd/sumoConfiguration.xsd">

    <input>
        <net-file value="net.net.xml"/>
        <route-files value="routes.rou.xml"/>
    </input>

    <output>
        <netstate-dump value="netstate_dump.xml"/>
        <vehroute-output value="vehroutes.xml"/>
    </output>

    <report>
        <no-step-log value="true"/>
    </report>

    <traci_server>
        <remote-port value="8815"/>
    </traci_server>

</configuration>
-->

<routes>
    <vehicle id="veh0" type="vType1" depart="0.00" arrival="77.00">
        <routeDistribution>
            <route replacedOnEdge="e_m5" replacedAtTime="30.00" probability="0" edges="e_m5 e_m6 e_shape1"/>
            <route edges="e_m5 e_m6 e_shape0"/>
        </routeDistribution>
    </vehicle>

</routes>
