<?xml version="1.0" encoding="UTF-8"?>

<!-- generated on Wed Nov 27 09:34:46 2019 by Eclipse SUMO Version v1_3_1+1129-34e3c4d
This data file and the accompanying materials
are made available under the terms of the Eclipse Public License v2.0
which accompanies this distribution, and is available at
http://www.eclipse.org/legal/epl-v20.html
SPDX-License-Identifier: EPL-2.0
<configuration xmlns:xsi="http://www.w3.org/2001/XMLSchema-instance" xsi:noNamespaceSchemaLocation="http://sumo.dlr.de/xsd/sumoConfiguration.xsd">

    <input>
        <net-file value="net.net.xml"/>
        <route-files value="input_routes.rou.xml"/>
    </input>

    <output>
        <write-license value="true"/>
        <tripinfo-output value="tripinfos.xml"/>
        <vehroute-output value="vehroutes.xml"/>
    </output>

    <processing>
        <default.speeddev value="0"/>
        <pedestrian.model value="nonInteracting"/>
    </processing>

    <report>
        <xml-validation value="never"/>
        <no-step-log value="true"/>
    </report>

    <mesoscopic>
        <mesosim value="true"/>
    </mesoscopic>

</configuration>
-->

<routes xmlns:xsi="http://www.w3.org/2001/XMLSchema-instance" xsi:noNamespaceSchemaLocation="http://sumo.dlr.de/xsd/routes_file.xsd">
    <vehicle id="veh0" type="v" depart="0.00" departSpeed="32.25" arrival="32.00">
        <route edges="beg end"/>
    </vehicle>

    <vehicle id="veh1" type="v" depart="2.00" departSpeed="13.90" speedFactor="0.50" arrival="74.00">
        <route edges="beg end"/>
    </vehicle>

    <vehicle id="trip0" type="v" depart="4.00" departSpeed="17.67" arrival="75.00">
        <route edges="beg end"/>
    </vehicle>

    <vehicle id="trip1" type="v" depart="6.00" departSpeed="19.46" speedFactor="0.70" arrival="75.00">
        <route edges="beg end"/>
    </vehicle>

</routes>
