<?xml version="1.0" encoding="UTF-8"?>

<!-- generated on 2026-04-21T16:35:22.131393+01:00 by Eclipse SUMO sumo v1_26_0+1306-105ed05321f
<sumoConfiguration xmlns:xsi="http://www.w3.org/2001/XMLSchema-instance" xsi:noNamespaceSchemaLocation="http://sumo.dlr.de/xsd/sumoConfiguration.xsd">

    <input>
        <net-file value="input_net4.net.xml"/>
        <route-files value="input_routes.rou.xml"/>
    </input>

    <output>
        <tripinfo-output value="tripinfos.xml"/>
        <vehroute-output value="vehroutes.xml"/>
        <vehroute-output.write-unfinished value="true"/>
        <stop-output value="stops.xml"/>
    </output>

    <processing>
        <default.departspeed value="0"/>
        <default.departlane value="first"/>
    </processing>

    <report>
        <no-step-log value="true"/>
    </report>

    <taxi_device>
        <device.taxi.dispatch-algorithm value="traci"/>
    </taxi_device>

    <traci_server>
        <remote-port value="34303"/>
    </traci_server>

</sumoConfiguration>
-->

<routes xmlns:xsi="http://www.w3.org/2001/XMLSchema-instance" xsi:noNamespaceSchemaLocation="http://sumo.dlr.de/xsd/routes_file.xsd">
    <person id="a" depart="0.00" arrival="2.00">
        <ride from="D2D3" to="D2D3" arrivalPos="0.00" lines="taxi"/>
    </person>

    <vehicle id="taxi_0" type="taxi" depart="10.00">
        <route edges="A0A1"/>
        <stop lane="A0A1_0" endPos="92.10" triggered="person" parking="1"/>
    </vehicle>

</routes>
