<?xml version="1.0" encoding="UTF-8"?>

<!-- generated on 2026-04-09T16:38:01.216217+01:00 by Eclipse SUMO sumo v1_26_0+1034-8d7c6592743
This data file and the accompanying materials
are made available under the terms of the Eclipse Public License v2.0
which accompanies this distribution, and is available at
http://www.eclipse.org/legal/epl-v20.html
This file may also be made available under the following Secondary
Licenses when the conditions for such availability set forth in the Eclipse
Public License 2.0 are satisfied: GNU General Public License, version 2
or later which is available at
https://www.gnu.org/licenses/old-licenses/gpl-2.0-standalone.html
SPDX-License-Identifier: EPL-2.0 OR GPL-2.0-or-later
<sumoConfiguration xmlns:xsi="http://www.w3.org/2001/XMLSchema-instance" xsi:noNamespaceSchemaLocation="http://sumo.dlr.de/xsd/sumoConfiguration.xsd">

    <input>
        <net-file value="net.net.xml"/>
        <route-files value="input_routes.rou.xml"/>
    </input>

    <output>
        <write-license value="true"/>
        <fcd-output value="fcd.xml"/>
    </output>

    <processing>
        <default.speeddev value="0"/>
    </processing>

    <report>
        <xml-validation value="never"/>
        <duration-log.disable value="true"/>
        <no-step-log value="true"/>
    </report>

    <mesoscopic>
        <mesosim value="true"/>
        <meso-junction-control value="true"/>
    </mesoscopic>

</sumoConfiguration>
-->

<fcd-export xmlns:xsi="http://www.w3.org/2001/XMLSchema-instance" xsi:noNamespaceSchemaLocation="http://sumo.dlr.de/xsd/fcd_file.xsd">
    <timestep time="0.00">
        <vehicle id="EW" x="200.00" y="101.60" angle="270.00" type="DEFAULT_VEHTYPE" speed="13.89" pos="0.00" edge="EC" slope="0.00"/>
        <vehicle id="NE" x="98.40" y="200.00" angle="180.00" type="DEFAULT_VEHTYPE" speed="13.89" pos="0.00" edge="NC" slope="0.00"/>
        <vehicle id="SN" x="101.60" y="0.00" angle="0.00" type="DEFAULT_VEHTYPE" speed="13.89" pos="0.00" edge="SC" slope="0.00"/>
    </timestep>
    <timestep time="1.00">
        <vehicle id="EW" x="200.00" y="101.60" angle="270.00" type="DEFAULT_VEHTYPE" speed="13.89" pos="0.00" edge="EC" slope="0.00"/>
        <vehicle id="NE" x="98.40" y="200.00" angle="180.00" type="DEFAULT_VEHTYPE" speed="13.89" pos="0.00" edge="NC" slope="0.00"/>
        <vehicle id="SN" x="101.60" y="0.00" angle="0.00" type="DEFAULT_VEHTYPE" speed="13.89" pos="0.00" edge="SC" slope="0.00"/>
    </timestep>
    <timestep time="2.00">
        <vehicle id="EW" x="200.00" y="101.60" angle="270.00" type="DEFAULT_VEHTYPE" speed="13.89" pos="0.00" edge="EC" slope="0.00"/>
        <vehicle id="NE" x="98.40" y="200.00" angle="180.00" type="DEFAULT_VEHTYPE" speed="13.89" pos="0.00" edge="NC" slope="0.00"/>
        <vehicle id="SN" x="101.60" y="0.00" angle="0.00" type="DEFAULT_VEHTYPE" speed="13.89" pos="0.00" edge="SC" slope="0.00"/>
    </timestep>
    <timestep time="3.00">
        <vehicle id="EW" x="200.00" y="101.60" angle="270.00" type="DEFAULT_VEHTYPE" speed="13.89" pos="0.00" edge="EC" slope="0.00"/>
        <vehicle id="NE" x="98.40" y="200.00" angle="180.00" type="DEFAULT_VEHTYPE" speed="13.89" pos="0.00" edge="NC" slope="0.00"/>
        <vehicle id="SN" x="101.60" y="0.00" angle="0.00" type="DEFAULT_VEHTYPE" speed="13.89" pos="0.00" edge="SC" slope="0.00"/>
    </timestep>
    <timestep time="4.00">
        <vehicle id="EW" x="200.00" y="101.60" angle="270.00" type="DEFAULT_VEHTYPE" speed="13.89" pos="0.00" edge="EC" slope="0.00"/>
        <vehicle id="NE" x="98.40" y="200.00" angle="180.00" type="DEFAULT_VEHTYPE" speed="13.89" pos="0.00" edge="NC" slope="0.00"/>
        <vehicle id="SN" x="101.60" y="0.00" angle="0.00" type="DEFAULT_VEHTYPE" speed="13.89" pos="0.00" edge="SC" slope="0.00"/>
    </timestep>
    <timestep time="5.00">
        <vehicle id="EW" x="200.00" y="101.60" angle="270.00" type="DEFAULT_VEHTYPE" speed="13.89" pos="0.00" edge="EC" slope="0.00"/>
        <vehicle id="NE" x="98.40" y="200.00" angle="180.00" type="DEFAULT_VEHTYPE" speed="13.89" pos="0.00" edge="NC" slope="0.00"/>
        <vehicle id="SN" x="101.60" y="0.00" angle="0.00" type="DEFAULT_VEHTYPE" speed="13.89" pos="0.00" edge="SC" slope="0.00"/>
    </timestep>
    <timestep time="6.00">
        <vehicle id="EW" x="200.00" y="101.60" angle="270.00" type="DEFAULT_VEHTYPE" speed="13.89" pos="0.00" edge="EC" slope="0.00"/>
        <vehicle id="NE" x="98.40" y="200.00" angle="180.00" type="DEFAULT_VEHTYPE" speed="13.89" pos="0.00" edge="NC" slope="0.00"/>
        <vehicle id="SN" x="101.60" y="0.00" angle="0.00" type="DEFAULT_VEHTYPE" speed="13.89" pos="0.00" edge="SC" slope="0.00"/>
    </timestep>
    <timestep time="7.00">
        <vehicle id="EW" x="200.00" y="101.60" angle="270.00" type="DEFAULT_VEHTYPE" speed="0.00" pos="0.00" edge="EC" slope="0.00"/>
        <vehicle id="NE" x="98.40" y="200.00" angle="180.00" type="DEFAULT_VEHTYPE" speed="0.00" pos="0.00" edge="NC" slope="0.00"/>
        <vehicle id="SN" x="101.60" y="0.00" angle="0.00" type="DEFAULT_VEHTYPE" speed="0.00" pos="0.00" edge="SC" slope="0.00"/>
    </timestep>
    <timestep time="8.00">
        <vehicle id="EW" x="200.00" y="101.60" angle="270.00" type="DEFAULT_VEHTYPE" speed="0.00" pos="0.00" edge="EC" slope="0.00"/>
        <vehicle id="NE" x="98.40" y="200.00" angle="180.00" type="DEFAULT_VEHTYPE" speed="0.00" pos="0.00" edge="NC" slope="0.00"/>
        <vehicle id="SN" x="101.60" y="0.00" angle="0.00" type="DEFAULT_VEHTYPE" speed="0.00" pos="0.00" edge="SC" slope="0.00"/>
    </timestep>
    <timestep time="9.00">
        <vehicle id="EW" x="200.00" y="101.60" angle="270.00" type="DEFAULT_VEHTYPE" speed="13.89" pos="0.00" edge=":C_4" slope="0.00"/>
        <vehicle id="NE" x="98.40" y="200.00" angle="180.00" type="DEFAULT_VEHTYPE" speed="13.88" pos="0.00" edge=":C_2" slope="0.00"/>
        <vehicle id="SN" x="101.60" y="0.00" angle="0.00" type="DEFAULT_VEHTYPE" speed="13.89" pos="0.00" edge=":C_7" slope="0.00"/>
    </timestep>
    <timestep time="10.00">
        <vehicle id="EW" x="92.80" y="101.60" angle="270.00" type="DEFAULT_VEHTYPE" speed="13.89" pos="0.00" edge="CW" slope="0.00"/>
        <vehicle id="NE" x="107.20" y="98.40" angle="90.00" type="DEFAULT_VEHTYPE" speed="13.89" pos="0.00" edge="CE" slope="0.00"/>
        <vehicle id="SN" x="101.60" y="107.20" angle="0.00" type="DEFAULT_VEHTYPE" speed="13.89" pos="0.00" edge="CN" slope="0.00"/>
    </timestep>
    <timestep time="11.00">
        <vehicle id="EW" x="92.80" y="101.60" angle="270.00" type="DEFAULT_VEHTYPE" speed="13.89" pos="0.00" edge="CW" slope="0.00"/>
        <vehicle id="NE" x="107.20" y="98.40" angle="90.00" type="DEFAULT_VEHTYPE" speed="13.89" pos="0.00" edge="CE" slope="0.00"/>
        <vehicle id="SN" x="101.60" y="107.20" angle="0.00" type="DEFAULT_VEHTYPE" speed="13.89" pos="0.00" edge="CN" slope="0.00"/>
    </timestep>
    <timestep time="12.00">
        <vehicle id="EW" x="92.80" y="101.60" angle="270.00" type="DEFAULT_VEHTYPE" speed="13.89" pos="0.00" edge="CW" slope="0.00"/>
        <vehicle id="NE" x="107.20" y="98.40" angle="90.00" type="DEFAULT_VEHTYPE" speed="13.89" pos="0.00" edge="CE" slope="0.00"/>
        <vehicle id="SN" x="101.60" y="107.20" angle="0.00" type="DEFAULT_VEHTYPE" speed="13.89" pos="0.00" edge="CN" slope="0.00"/>
    </timestep>
    <timestep time="13.00">
        <vehicle id="EW" x="92.80" y="101.60" angle="270.00" type="DEFAULT_VEHTYPE" speed="13.89" pos="0.00" edge="CW" slope="0.00"/>
        <vehicle id="NE" x="107.20" y="98.40" angle="90.00" type="DEFAULT_VEHTYPE" speed="13.89" pos="0.00" edge="CE" slope="0.00"/>
        <vehicle id="SN" x="101.60" y="107.20" angle="0.00" type="DEFAULT_VEHTYPE" speed="13.89" pos="0.00" edge="CN" slope="0.00"/>
    </timestep>
    <timestep time="14.00">
        <vehicle id="EW" x="92.80" y="101.60" angle="270.00" type="DEFAULT_VEHTYPE" speed="13.89" pos="0.00" edge="CW" slope="0.00"/>
        <vehicle id="NE" x="107.20" y="98.40" angle="90.00" type="DEFAULT_VEHTYPE" speed="13.89" pos="0.00" edge="CE" slope="0.00"/>
        <vehicle id="SN" x="101.60" y="107.20" angle="0.00" type="DEFAULT_VEHTYPE" speed="13.89" pos="0.00" edge="CN" slope="0.00"/>
    </timestep>
    <timestep time="15.00">
        <vehicle id="EW" x="92.80" y="101.60" angle="270.00" type="DEFAULT_VEHTYPE" speed="13.89" pos="0.00" edge="CW" slope="0.00"/>
        <vehicle id="NE" x="107.20" y="98.40" angle="90.00" type="DEFAULT_VEHTYPE" speed="13.89" pos="0.00" edge="CE" slope="0.00"/>
        <vehicle id="SN" x="101.60" y="107.20" angle="0.00" type="DEFAULT_VEHTYPE" speed="13.89" pos="0.00" edge="CN" slope="0.00"/>
    </timestep>
    <timestep time="16.00">
        <vehicle id="EW" x="92.80" y="101.60" angle="270.00" type="DEFAULT_VEHTYPE" speed="13.89" pos="0.00" edge="CW" slope="0.00"/>
        <vehicle id="NE" x="107.20" y="98.40" angle="90.00" type="DEFAULT_VEHTYPE" speed="13.89" pos="0.00" edge="CE" slope="0.00"/>
        <vehicle id="SN" x="101.60" y="107.20" angle="0.00" type="DEFAULT_VEHTYPE" speed="13.89" pos="0.00" edge="CN" slope="0.00"/>
    </timestep>
    <timestep time="17.00"/>
</fcd-export>
