<?xml version="1.0" encoding="UTF-8"?>

<!-- generated on Fri Oct 20 16:35:46 2017 by SUMO Version svn
<?xml version="1.0" encoding="UTF-8"?>

<configuration xmlns:xsi="http://www.w3.org/2001/XMLSchema-instance" xsi:noNamespaceSchemaLocation="http://sumo.dlr.de/xsd/sumoConfiguration.xsd">

    <input>
        <net-file value="net2.net.xml"/>
        <route-files value="input_routes.rou.xml"/>
    </input>

    <output>
        <tripinfo-output value="tripinfos.xml"/>
    </output>

    <time>
        <begin value="25"/>
    </time>

    <processing>
        <collision.stoptime value="5"/>
        <collision.check-junctions value="true"/>
    </processing>

    <report>
        <xml-validation value="never"/>
        <duration-log.disable value="true"/>
        <no-step-log value="true"/>
    </report>

</configuration>
-->

<tripinfos xmlns:xsi="http://www.w3.org/2001/XMLSchema-instance" xsi:noNamespaceSchemaLocation="http://sumo.dlr.de/xsd/tripinfo_file.xsd">
    <tripinfo id="ego" depart="42.00" departLane="SC_0" departPos="10.00" departSpeed="0.00" departDelay="0.00" arrival="63.00" arrivalLane="CN_0" arrivalPos="50.00" arrivalSpeed="13.89" duration="21.00" routeLength="148.05" waitSteps="3" timeLoss="9.57" rerouteNo="0" devices="tripinfo_ego" vType="egoType" speedFactor="1.00" vaporized=""/>
    <tripinfo id="foe.0" depart="40.00" departLane="EC_1" departPos="7.20" departSpeed="13.89" departDelay="0.00" arrival="63.00" arrivalLane="CW_1" arrivalPos="50.00" arrivalSpeed="13.00" duration="23.00" routeLength="150.85" waitSteps="0" timeLoss="6.38" rerouteNo="0" devices="tripinfo_foe.0" vType="foeType" speedFactor="1.00" vaporized=""/>
    <tripinfo id="foe.1" depart="42.00" departLane="EC_1" departPos="7.20" departSpeed="13.89" departDelay="0.00" arrival="75.00" arrivalLane="CW_1" arrivalPos="50.00" arrivalSpeed="13.00" duration="33.00" routeLength="150.85" waitSteps="5" timeLoss="16.38" rerouteNo="0" devices="tripinfo_foe.1" vType="foeType" speedFactor="1.00" vaporized=""/>
    <tripinfo id="foe.2" depart="44.00" departLane="EC_1" departPos="7.20" departSpeed="13.89" departDelay="0.00" arrival="87.00" arrivalLane="CW_1" arrivalPos="50.00" arrivalSpeed="13.00" duration="43.00" routeLength="150.85" waitSteps="11" timeLoss="26.38" rerouteNo="0" devices="tripinfo_foe.2" vType="foeType" speedFactor="1.00" vaporized=""/>
    <tripinfo id="foe.3" depart="46.00" departLane="EC_1" departPos="7.20" departSpeed="13.89" departDelay="0.00" arrival="152.00" arrivalLane="CW_1" arrivalPos="50.00" arrivalSpeed="13.00" duration="106.00" routeLength="150.85" waitSteps="70" timeLoss="89.38" rerouteNo="0" devices="tripinfo_foe.3" vType="foeType" speedFactor="1.00" vaporized=""/>
    <tripinfo id="foe.4" depart="48.00" departLane="EC_1" departPos="7.20" departSpeed="13.89" departDelay="0.00" arrival="164.00" arrivalLane="CW_1" arrivalPos="50.00" arrivalSpeed="13.00" duration="116.00" routeLength="150.85" waitSteps="76" timeLoss="99.37" rerouteNo="0" devices="tripinfo_foe.4" vType="foeType" speedFactor="1.00" vaporized=""/>
</tripinfos>
