<?xml version="1.0" encoding="UTF-8"?>

<!-- generated on Wed Oct 18 15:16:00 2017 by SUMO Version dev-SVN-r26551
<?xml version="1.0" encoding="UTF-8"?>

<configuration xmlns:xsi="http://www.w3.org/2001/XMLSchema-instance" xsi:noNamespaceSchemaLocation="http://sumo.dlr.de/xsd/sumoConfiguration.xsd">

    <input>
        <net-file value="net.net.xml"/>
        <route-files value="routes.rou.xml"/>
    </input>

    <output>
        <netstate-dump value="netstate_dump.xml"/>
        <lanechange-output value="lanechanges.xml"/>
    </output>

    <report>
        <xml-validation value="never"/>
        <no-step-log value="true"/>
    </report>

    <traci_server>
        <remote-port value="48451"/>
    </traci_server>

</configuration>
-->

<lanechanges>
    <change id="veh0" type="SUMO_DEFAULT_TYPE" time="32.00" from="1si_1" to="1si_0" dir="-1" speed="10.00" pos="10.41" reason="traci|urgent" leaderGap="None" leaderSecureGap="None" followerGap="None" followerSecureGap="None" origLeaderGap="None" origLeaderSecureGap="None"/>
</lanechanges>
