<?xml version="1.0" encoding="UTF-8"?>

<!-- generated on 2025-07-09 09:01:59 by Eclipse SUMO sumo Version v1_23_1+0953-fd1a9fac310
<sumoConfiguration xmlns:xsi="http://www.w3.org/2001/XMLSchema-instance" xsi:noNamespaceSchemaLocation="http://sumo.dlr.de/xsd/sumoConfiguration.xsd">

    <input>
        <net-file value="input_net.net.xml"/>
        <route-files value="input_routes.rou.xml"/>
    </input>

    <output>
        <vehroute-output value="vehroutes.xml"/>
        <save-state.times value="500"/>
        <save-state.files value="state.xml"/>
        <save-state.rng value="true"/>
    </output>

    <routing>
        <weights.random-factor value="5"/>
        <device.rerouting.period value="30"/>
    </routing>

    <report>
        <duration-log.disable value="true"/>
        <no-step-log value="true"/>
    </report>

</sumoConfiguration>
-->

<snapshot type="micro" version="v1_23_1+0953-fd1a9fac310" time="500.00" xmlns:xsi="http://www.w3.org/2001/XMLSchema-instance" xsi:noNamespaceSchemaLocation="http://sumo.dlr.de/xsd/state_file.xsd">
    <rngState default="14844" routeHandler="256" insertionControl="0" device="0" device.btreceiver="0" driverState="0" device.toc="0">
        <rngLane index="0" state="341"/>
        <rngLane index="1" state="523"/>
        <rngLane index="2" state="525"/>
        <rngLane index="3" state="128"/>
        <rngLane index="4" state="765"/>
        <rngLane index="5" state="277"/>
        <rngLane index="6" state="253"/>
        <rngLane index="7" state="253"/>
        <rngLane index="8" state="611"/>
        <rngLane index="9" state="746"/>
        <rngLane index="10" state="457"/>
        <rngLane index="11" state="457"/>
        <rngLane index="12" state="503"/>
        <rngLane index="13" state="804"/>
        <rngLane index="14" state="284"/>
        <rngLane index="15" state="380"/>
        <rngLane index="16" state="447"/>
        <rngLane index="17" state="615"/>
        <rngLane index="18" state="439"/>
        <rngLane index="19" state="354"/>
        <rngLane index="20" state="885"/>
        <rngLane index="21" state="301"/>
        <rngLane index="22" state="468"/>
        <rngLane index="23" state="771"/>
        <rngLane index="24" state="313"/>
        <rngLane index="25" state="447"/>
        <rngLane index="26" state="236"/>
        <rngLane index="27" state="497"/>
        <rngLane index="28" state="587"/>
        <rngLane index="29" state="389"/>
        <rngLane index="30" state="919"/>
        <rngLane index="31" state="467"/>
        <rngLane index="32" state="543"/>
        <rngLane index="33" state="509"/>
        <rngLane index="34" state="295"/>
        <rngLane index="35" state="391"/>
        <rngLane index="36" state="174"/>
        <rngLane index="37" state="530"/>
        <rngLane index="38" state="518"/>
        <rngLane index="39" state="774"/>
        <rngLane index="40" state="483"/>
        <rngLane index="41" state="319"/>
        <rngLane index="42" state="326"/>
        <rngLane index="43" state="125"/>
        <rngLane index="44" state="0"/>
        <rngLane index="45" state="0"/>
        <rngLane index="46" state="0"/>
        <rngLane index="47" state="0"/>
        <rngLane index="48" state="0"/>
        <rngLane index="49" state="0"/>
        <rngLane index="50" state="0"/>
        <rngLane index="51" state="0"/>
        <rngLane index="52" state="0"/>
        <rngLane index="53" state="0"/>
        <rngLane index="54" state="0"/>
        <rngLane index="55" state="0"/>
        <rngLane index="56" state="0"/>
        <rngLane index="57" state="0"/>
        <rngLane index="58" state="0"/>
        <rngLane index="59" state="0"/>
        <rngLane index="60" state="0"/>
        <rngLane index="61" state="0"/>
        <rngLane index="62" state="0"/>
        <rngLane index="63" state="0"/>
    </rngState>
    <edgeControl lanes="1/1to2/1_0 3/1to2/1_0 2/1to3/1_0 1/0to1/1_0 1/1to0/1_0 1/1to1/2_0 4/1to4/2_0 2/0to2/1_0 2/1to2/0_0 0/0to0/1_0 1/2to1/1_0 2/2to1/2_0 2/0to3/0_0 3/2to4/2_0 1/1to1/0_0 2/1to2/2_0 3/1to4/1_0 3/1to3/2_0 4/2to3/2_0 2/0to1/0_0 0/1to0/0_0 2/2to2/1_0 4/0to4/1_0"/>
    <route id="!10!var#1" state="0" edges="0/2to1/2 1/2to1/1 1/1to2/1 2/1to3/1 3/1to3/2"/>
    <route id="!13!var#1" state="0" edges="1/2to1/1 1/1to1/2 1/2to2/2 2/2to3/2 3/2to4/2 4/2to4/1"/>
    <route id="!21!var#2" state="0" edges="3/0to4/0 4/0to3/0 3/0to2/0 2/0to2/1 2/1to1/1 1/1to0/1 0/1to0/2 0/2to0/1"/>
    <route id="!23!var#2" state="0" edges="3/1to4/1 4/1to4/2 4/2to3/2 3/2to2/2 2/2to1/2 1/2to0/2"/>
    <route id="!31!var#2" state="0" edges="1/0to0/0 0/0to1/0 1/0to2/0 2/0to3/0 3/0to4/0 4/0to4/1 4/1to4/2"/>
    <route id="!40!var#1" state="0" edges="0/2to0/1 0/1to0/0 0/0to1/0 1/0to2/0 2/0to3/0 3/0to4/0"/>
    <route id="!41!var#1" state="0" edges="4/1to4/2 4/2to3/2 3/2to3/1 3/1to3/0 3/0to2/0 2/0to1/0 1/0to0/0"/>
    <route id="!42!var#2" state="0" edges="2/1to3/1 3/1to2/1 2/1to2/2 2/2to3/2"/>
    <route id="!46!var#2" state="0" edges="3/0to4/0 4/0to3/0 3/0to2/0 2/0to1/0 1/0to1/1 1/1to1/2 1/2to2/2"/>
    <route id="!49!var#2" state="0" edges="0/0to0/1 0/1to0/2 0/2to1/2 1/2to2/2 2/2to1/2"/>
    <route id="!51!var#1" state="0" edges="3/1to3/0 3/0to2/0 2/0to1/0 1/0to0/0 0/0to0/1 0/1to0/0"/>
    <route id="!57!var#1" state="0" edges="1/1to0/1 0/1to1/1 1/1to2/1 2/1to1/1"/>
    <route id="!58!var#2" state="0" edges="2/0to1/0 1/0to1/1 1/1to0/1 0/1to1/1"/>
    <route id="!59!var#2" state="0" edges="3/0to3/1 3/1to2/1 2/1to1/1 1/1to1/2 1/2to1/1"/>
    <route id="!60!var#2" state="0" edges="2/0to2/1 2/1to3/1 3/1to4/1 4/1to4/0 4/0to4/1"/>
    <route id="!61!var#1" state="0" edges="0/1to0/0 0/0to1/0 1/0to2/0 2/0to3/0 3/0to3/1"/>
    <route id="!64!var#1" state="0" edges="0/1to1/1 1/1to1/0 1/0to1/1"/>
    <route id="!65!var#1" state="0" edges="2/1to3/1 3/1to2/1 2/1to2/2 2/2to1/2 1/2to0/2 0/2to1/2"/>
    <route id="!67!var#2" state="0" edges="4/0to4/1 4/1to3/1 3/1to3/2 3/2to2/2 2/2to2/1 2/1to1/1 1/1to0/1 0/1to0/2"/>
    <route id="!69!var#2" state="0" edges="0/1to1/1 1/1to2/1 2/1to2/0 2/0to3/0 3/0to3/1"/>
    <route id="!70!var#1" state="0" edges="2/1to3/1 3/1to2/1 2/1to1/1 1/1to0/1 0/1to0/0 0/0to0/1"/>
    <route id="!71!var#1" state="0" edges="0/1to1/1 1/1to2/1 2/1to3/1 3/1to4/1"/>
    <route id="!72!var#2" state="0" edges="1/1to0/1 0/1to1/1 1/1to1/0 1/0to2/0 2/0to1/0"/>
    <route id="!74!var#2" state="0" edges="4/1to3/1 3/1to2/1 2/1to1/1 1/1to1/0 1/0to0/0"/>
    <route id="!77!var#2" state="0" edges="1/1to1/2 1/2to2/2 2/2to2/1 2/1to3/1 3/1to2/1"/>
    <route id="!79!var#1" state="0" edges="3/0to4/0 4/0to4/1 4/1to3/1 3/1to2/1 2/1to2/0"/>
    <route id="!81!var#2" state="0" edges="0/1to0/0 0/0to1/0 1/0to1/1 1/1to2/1 2/1to3/1 3/1to3/2"/>
    <route id="!83!var#1" state="0" edges="0/1to0/0 0/0to1/0 1/0to1/1 1/1to2/1 2/1to1/1"/>
    <route id="!84!var#1" state="0" edges="4/1to4/0 4/0to3/0 3/0to2/0 2/0to2/1 2/1to3/1"/>
    <route id="!86!var#2" state="0" edges="4/0to3/0 3/0to3/1 3/1to2/1 2/1to1/1 1/1to0/1 0/1to0/2"/>
    <route id="!87!var#1" state="0" edges="0/1to0/0 0/0to1/0 1/0to2/0 2/0to3/0 3/0to4/0 4/0to3/0"/>
    <route id="!88!var#2" state="0" edges="2/0to1/0 1/0to2/0 2/0to3/0 3/0to4/0 4/0to4/1 4/1to4/2"/>
    <route id="!90!var#2" state="0" edges="0/0to1/0 1/0to0/0 0/0to0/1 0/1to0/2"/>
    <route id="!92!var#1" state="0" edges="1/1to2/1 2/1to1/1 1/1to1/0"/>
    <route id="!93!var#1" state="0" edges="3/0to4/0 4/0to4/1 4/1to4/2 4/2to3/2 3/2to2/2 2/2to1/2 1/2to1/1 1/1to2/1"/>
    <route id="!94!var#1" state="0" edges="1/1to1/0 1/0to1/1 1/1to1/2 1/2to0/2 0/2to0/1"/>
    <route id="!96!var#1" state="0" edges="4/1to4/0 4/0to4/1 4/1to4/2"/>
    <route id="!97!var#2" state="0" edges="0/0to0/1 0/1to1/1 1/1to1/0 1/0to2/0 2/0to3/0 3/0to2/0"/>
    <route id="!99!var#1" state="0" edges="2/1to3/1 3/1to2/1 2/1to2/2"/>
    <delay number="38" begin="100" end="61" depart="830.00" time="12398.00"/>
    <vType id="DEFAULT_VEHTYPE"/>
    <vehicle id="31" depart="103.00" route="!31!var#2" distance="2400 6" speedFactor="0.8784" reroute="1" state="262144 103000 6 5.10 0 109.35 499000 0 0" pos="122.99 117.99 7.55" speed="7.55 7.94" angle="0.00" posLat="0.00" waitingTime="100000 0">
        <device id="vehroute_31" state="0 0.00 0.00 5.10 6 !NULL 103000 !31 device.rerouting -1 0 1/0to0/0 133000 !31!var#1 device.rerouting 0 0 1/0to0/0 163000 !31!var#2 device.rerouting 0 0 0/0to1/0 193000 !31!var#1 device.rerouting 1 1 1/0to2/0 253000 !31!var#2 device.rerouting 2 2 1/0to2/0 283000 !31!var#1 device.rerouting 2 2"/>
        <device id="routing_31" state="30000 493000"/>
    </vehicle>
    <vehicle id="41" depart="135.00" route="!41!var#1" distance="2000 5" speedFactor="0.8257" reroute="1" state="262144 135000 5 5.10 0 105.98 499000 0 0" pos="135.61 130.61 7.86" speed="7.86 7.46" angle="270.00" posLat="0.00" waitingTime="100000 1 72000 98000">
        <device id="vehroute_41" state="0 0.00 0.00 5.10 5 !NULL 135000 !41 device.rerouting -1 0 4/1to4/2 165000 !41!var#1 device.rerouting 0 0 4/2to3/2 195000 !41!var#2 device.rerouting 1 1 3/2to3/1 255000 !41!var#1 device.rerouting 2 2 3/2to3/1 315000 !41!var#2 device.rerouting 2 2"/>
        <device id="routing_41" state="30000 495000"/>
    </vehicle>
    <vehicle id="67" depart="170.00" route="!67!var#2" distance="2400 8" speedFactor="1.0052" reroute="1" state="262144 170000 6 5.10 0 81.32 499000 0 0" pos="94.75 89.75 9.76" speed="9.76 9.54" angle="270.00" posLat="0.00" waitingTime="100000 0">
        <device id="vehroute_67" state="0 0.00 0.00 5.10 8 !NULL 170000 !67 device.rerouting -1 0 4/0to4/1 230000 !67!var#1 device.rerouting 0 0 4/1to3/1 260000 !67!var#2 device.rerouting 1 1 4/1to3/1 290000 !67!var#1 device.rerouting 1 1 3/1to3/2 320000 !67!var#2 device.rerouting 2 2 3/1to3/2 350000 !67!var#1 device.rerouting 2 2 3/2to2/2 380000 !67!var#2 device.rerouting 3 3 2/2to2/1 410000 !67!var#1 device.rerouting 4 4"/>
        <device id="routing_67" state="30000 470000"/>
    </vehicle>
    <vehicle id="65" depart="179.00" route="!65!var#1" distance="800 3" speedFactor="1.0197" reroute="1" state="262144 309000 2 5.10 0 88.99 499000 0 0" pos="235.07 230.07 9.75" speed="9.75 9.87" angle="0.00" posLat="0.00" waitingTime="100000 1 27000 62000">
        <device id="vehroute_65" state="0 0.00 0.00 5.10 3 !NULL 179000 !65 device.rerouting -1 0 2/1to3/1 339000 !65!var#1 device.rerouting 0 0 3/1to2/1 399000 !65!var#2 device.rerouting 1 1"/>
        <device id="routing_65" state="30000 489000"/>
    </vehicle>
    <vehicle id="13" depart="197.00" route="!13!var#1" distance="1600 1" speedFactor="1.0304" reroute="1" state="262144 197000 4 5.10 0 113.64 499000 0 0" pos="345.99 340.99 9.19" speed="9.19 9.56" angle="90.00" posLat="0.00" waitingTime="100000 1 38000 69000">
        <device id="vehroute_13" state="0 0.00 0.00 5.10 1 !NULL 197000 !13 device.rerouting -1 0"/>
        <device id="routing_13" state="30000 497000"/>
    </vehicle>
    <vehicle id="86" depart="197.00" route="!86!var#2" distance="1600 2" speedFactor="0.9571" reroute="1" state="262144 206000 4 5.10 0 105.38 499000 0 0" pos="200.80 195.80 8.47" speed="8.47 9.54" angle="270.00" posLat="0.00" waitingTime="100000 1 26000 61000">
        <device id="vehroute_86" state="0 0.00 0.00 5.10 2 !NULL 197000 !86 device.rerouting -1 0 4/0to3/0 236000 !86!var#1 device.rerouting 0 0"/>
        <device id="routing_86" state="30000 476000"/>
    </vehicle>
    <vehicle id="10" depart="210.00" route="!10!var#1" distance="1600 5" speedFactor="0.9005" reroute="1" state="262144 210000 4 5.10 0 91.27 499000 0 0" pos="185.68 180.68 8.10" speed="8.10 8.17" angle="0.00" posLat="0.00" waitingTime="100000 2 26000 33000 87000 105000">
        <device id="vehroute_10" state="0 0.00 0.00 5.10 5 !NULL 210000 !10 device.rerouting -1 0 0/2to1/2 240000 !10!var#1 device.rerouting 0 0 1/2to1/1 270000 !10!var#2 device.rerouting 1 1 1/2to1/1 300000 !10!var#1 device.rerouting 1 1 1/2to1/1 330000 !10!var#2 device.rerouting 1 1"/>
        <device id="routing_10" state="30000 480000"/>
    </vehicle>
    <vehicle id="21" depart="213.00" route="!21!var#2" distance="2000 8" speedFactor="0.8769" reroute="1" state="262144 213000 5 5.10 0 41.07 499000 0 0" pos="152.91 147.91 8.71" speed="8.71 8.67" angle="270.00" posLat="0.00" waitingTime="100000 1 70000 86000">
        <device id="vehroute_21" state="0 0.00 0.00 5.10 8 !NULL 213000 !21 device.rerouting -1 0 3/0to4/0 243000 !21!var#1 device.rerouting 0 0 4/0to3/0 273000 !21!var#2 device.rerouting 1 1 4/0to3/0 303000 !21!var#1 device.rerouting 1 1 2/0to2/1 363000 !21!var#2 device.rerouting 3 3 2/0to2/1 393000 !21!var#1 device.rerouting 3 3 2/0to2/1 423000 !21!var#2 device.rerouting 3 3 2/1to1/1 453000 !21!var#1 device.rerouting 4 4"/>
        <device id="routing_21" state="30000 483000"/>
    </vehicle>
    <vehicle id="59" depart="215.00" route="!59!var#2" distance="1600 4" speedFactor="0.8549" reroute="1" state="262144 215000 4 5.10 0 53.37 499000 0 0" pos="376.75 371.75 8.28" speed="8.28 8.14" angle="180.00" posLat="0.00" waitingTime="100000 0">
        <device id="vehroute_59" state="0 0.00 0.00 5.10 4 !NULL 215000 !59 device.rerouting -1 0 3/0to3/1 245000 !59!var#1 device.rerouting 0 0 3/1to2/1 275000 !59!var#2 device.rerouting 1 1 3/1to2/1 305000 !59!var#1 device.rerouting 1 1"/>
        <device id="routing_59" state="30000 485000"/>
    </vehicle>
    <vehicle id="46" depart="224.00" route="!46!var#2" distance="1600 4" speedFactor="1.1425" reroute="1" state="262144 228000 4 5.10 30000 96.48 499000 0 0" pos="399.00 394.00 0.00" speed="0.00 0.00" angle="0.00" posLat="0.00" waitingTime="100000 2 0 30000 72000 73000">
        <device id="vehroute_46" state="0 0.00 0.00 5.10 4 !NULL 224000 !46 device.rerouting -1 0 3/0to4/0 258000 !46!var#1 device.rerouting 0 0 4/0to3/0 288000 !46!var#2 device.rerouting 1 1 3/0to2/0 318000 !46!var#1 device.rerouting 2 2"/>
        <device id="routing_46" state="30000 498000"/>
    </vehicle>
    <vehicle id="51" depart="226.00" route="!51!var#1" distance="2000 5" speedFactor="1.0236" reroute="1" state="262144 228000 5 5.10 0 63.68 499000 0 0" pos="127.25 122.25 9.17" speed="9.17 9.97" angle="180.00" posLat="0.00" waitingTime="100000 1 58000 59000">
        <device id="vehroute_51" state="0 0.00 0.00 5.10 5 !NULL 226000 !51 device.rerouting -1 0 3/1to3/0 258000 !51!var#1 device.rerouting 0 0 3/0to2/0 288000 !51!var#2 device.rerouting 1 1 3/0to2/0 318000 !51!var#1 device.rerouting 1 1 2/0to1/0 378000 !51!var#2 device.rerouting 2 2"/>
        <device id="routing_51" state="30000 498000"/>
    </vehicle>
    <vehicle id="71" depart="226.00" route="!71!var#1" distance="1200 1" speedFactor="0.9695" reroute="1" state="262144 234000 3 5.10 0 118.64 499000 0 0" pos="224.07 219.07 8.76" speed="8.76 8.87" angle="90.00" posLat="0.00" waitingTime="100000 2 27000 38000 88000 110000">
        <device id="vehroute_71" state="0 0.00 0.00 5.10 1 !NULL 226000 !71 device.rerouting -1 0"/>
        <device id="routing_71" state="30000 474000"/>
    </vehicle>
    <vehicle id="49" depart="229.00" route="!49!var#2" distance="1600 2" speedFactor="1.0825" reroute="1" state="262144 229000 4 5.10 0 89.29 499000 0 0" pos="361.26 356.26 10.25" speed="10.25 10.26" angle="270.00" posLat="0.00" waitingTime="100000 1 38000 70000">
        <device id="vehroute_49" state="0 0.00 0.00 5.10 2 !NULL 229000 !49 device.rerouting -1 0 0/0to0/1 259000 !49!var#1 device.rerouting 0 0"/>
        <device id="routing_49" state="30000 499000"/>
    </vehicle>
    <vehicle id="40" depart="231.00" route="!40!var#1" distance="1600 1" speedFactor="1.1193" reroute="1" state="262144 231000 4 5.10 0 91.93 499000 0 0" pos="375.90 370.90 10.31" speed="10.31 11.15" angle="90.00" posLat="0.00" waitingTime="100000 1 38000 74000">
        <device id="vehroute_40" state="0 0.00 0.00 5.10 1 !NULL 231000 !40 device.rerouting -1 0"/>
        <device id="routing_40" state="30000 471000"/>
    </vehicle>
    <vehicle id="74" depart="234.00" route="!74!var#2" distance="1200 6" speedFactor="0.9870" reroute="1" state="262144 234000 3 5.10 0 120.35 499000 0 0" pos="232.75 227.75 9.66" speed="9.66 9.01" angle="180.00" posLat="0.00" waitingTime="100000 1 27000 64000">
        <device id="vehroute_74" state="0 0.00 0.00 5.10 6 !NULL 234000 !74 device.rerouting -1 0 4/1to3/1 264000 !74!var#1 device.rerouting 0 0 4/1to3/1 294000 !74!var#2 device.rerouting 0 0 3/1to2/1 324000 !74!var#1 device.rerouting 1 1 3/1to2/1 354000 !74!var#2 device.rerouting 1 1 3/1to2/1 384000 !74!var#1 device.rerouting 1 1"/>
        <device id="routing_74" state="30000 474000"/>
    </vehicle>
    <vehicle id="84" depart="253.00" route="!84!var#1" distance="1200 1" speedFactor="0.8823" reroute="1" state="262144 255000 3 5.10 13000 63.35 499000 0 0" pos="399.00 394.00 0.00" speed="0.00 0.00" angle="0.00" posLat="0.00" waitingTime="100000 1 0 13000">
        <device id="vehroute_84" state="0 0.00 0.00 5.10 1 !NULL 253000 !84 device.rerouting -1 0"/>
        <device id="routing_84" state="30000 495000"/>
    </vehicle>
    <vehicle id="79" depart="255.00" route="!79!var#1" distance="1200 3" speedFactor="0.9068" reroute="1" state="262144 255000 3 5.10 0 88.43 499000 0 0" pos="215.85 210.85 8.66" speed="8.66 8.96" angle="270.00" posLat="0.00" waitingTime="100000 1 27000 64000">
        <device id="vehroute_79" state="0 0.00 0.00 5.10 3 !NULL 255000 !79 device.rerouting -1 0 3/0to4/0 285000 !79!var#1 device.rerouting 0 0 3/0to4/0 315000 !79!var#2 device.rerouting 0 0"/>
        <device id="routing_79" state="30000 495000"/>
    </vehicle>
    <vehicle id="60" depart="271.00" route="!60!var#2" distance="1600 4" speedFactor="0.9146" reroute="1" state="262144 271000 4 5.10 0 48.44 499000 0 0" pos="47.39 42.39 8.53" speed="8.53 7.88" angle="0.00" posLat="0.00" waitingTime="100000 0">
        <device id="vehroute_60" state="0 0.00 0.00 5.10 4 !NULL 271000 !60 device.rerouting -1 0 2/0to2/1 301000 !60!var#1 device.rerouting 0 0 2/1to3/1 361000 !60!var#2 device.rerouting 1 1 2/1to3/1 391000 !60!var#1 device.rerouting 1 1"/>
        <device id="routing_60" state="30000 481000"/>
    </vehicle>
    <vehicle id="97" depart="279.00" route="!97!var#2" distance="1600 2" speedFactor="1.0221" reroute="1" state="262144 279000 4 5.10 0 42.48 499000 0 0" pos="219.50 214.50 9.85" speed="9.85 9.39" angle="90.00" posLat="0.00" waitingTime="100000 0">
        <device id="vehroute_97" state="0 0.00 0.00 5.10 2 !NULL 279000 !97 device.rerouting -1 0 0/0to0/1 309000 !97!var#1 device.rerouting 0 0"/>
        <device id="routing_97" state="30000 489000"/>
    </vehicle>
    <vehicle id="88" depart="295.00" route="!88!var#2" distance="800 6" speedFactor="1.0230" reroute="1" state="262144 310000 2 5.10 0 79.82 499000 0 0" pos="322.01 317.01 10.04" speed="10.04 9.36" angle="90.00" posLat="0.00" waitingTime="100000 1 37000 69000">
        <device id="vehroute_88" state="0 0.00 0.00 5.10 6 !NULL 295000 !88 device.rerouting -1 0 2/0to1/0 340000 !88!var#1 device.rerouting 0 0 2/0to1/0 370000 !88!var#2 device.rerouting 0 0 1/0to2/0 400000 !88!var#1 device.rerouting 1 1 1/0to2/0 430000 !88!var#2 device.rerouting 1 1 2/0to3/0 490000 !88!var#1 device.rerouting 2 2"/>
        <device id="routing_88" state="30000 490000"/>
    </vehicle>
    <vehicle id="58" depart="298.00" route="!58!var#2" distance="800 2" speedFactor="0.9729" reroute="1" state="262144 317000 2 5.10 17000 59.28 499000 0 0" pos="399.00 394.00 0.00" speed="0.00 0.00" angle="270.00" posLat="0.00" waitingTime="100000 1 0 17000">
        <device id="vehroute_58" state="0 0.00 0.00 5.10 2 !NULL 298000 !58 device.rerouting -1 0 2/0to1/0 377000 !58!var#1 device.rerouting 0 0"/>
        <device id="routing_58" state="30000 497000"/>
    </vehicle>
    <vehicle id="72" depart="302.00" route="!72!var#2" distance="1600 4" speedFactor="1.0557" reroute="1" state="262144 302000 4 5.10 0 26.68 499000 0 0" pos="203.18 198.18 9.63" speed="9.63 10.49" angle="270.00" posLat="0.00" waitingTime="100000 0">
        <device id="vehroute_72" state="0 0.00 0.00 5.10 4 !NULL 302000 !72 device.rerouting -1 0 1/1to0/1 332000 !72!var#1 device.rerouting 0 0 0/1to1/1 362000 !72!var#2 device.rerouting 1 1 0/1to1/1 392000 !72!var#1 device.rerouting 1 1"/>
        <device id="routing_72" state="30000 482000"/>
    </vehicle>
    <vehicle id="94" depart="302.00" route="!94!var#1" distance="800 3" speedFactor="0.9551" reroute="1" state="262144 302000 2 5.10 21000 72.00 499000 0 0" pos="399.00 394.00 0.00" speed="0.00 0.00" angle="0.00" posLat="0.00" waitingTime="100000 2 0 21000 70000 98000">
        <device id="vehroute_94" state="0 0.00 0.00 5.10 3 !NULL 302000 !94 device.rerouting -1 0 1/1to1/0 332000 !94!var#1 device.rerouting 0 0 1/0to1/1 362000 !94!var#2 device.rerouting 1 1"/>
        <device id="routing_94" state="30000 482000"/>
    </vehicle>
    <vehicle id="23" depart="305.00" route="!23!var#2" distance="800 2" speedFactor="0.9849" reroute="1" state="262144 388000 2 5.10 0 10.01 499000 0 0" pos="199.77 194.77 9.33" speed="9.33 9.00" angle="270.00" posLat="0.00" waitingTime="100000 0">
        <device id="vehroute_23" state="0 0.00 0.00 5.10 2 !NULL 305000 !23 device.rerouting -1 0 3/1to4/1 388000 !23!var#1 device.rerouting 0 0"/>
        <device id="routing_23" state="30000 478000"/>
    </vehicle>
    <vehicle id="42" depart="305.00" route="!42!var#2" distance="800 2" speedFactor="1.0325" reroute="1" state="262144 312000 2 5.10 0 89.20 499000 0 0" pos="214.84 209.84 9.52" speed="9.52 10.00" angle="0.00" posLat="0.00" waitingTime="100000 1 26000 60000">
        <device id="vehroute_42" state="0 0.00 0.00 5.10 2 !NULL 305000 !42 device.rerouting -1 0 2/1to3/1 372000 !42!var#1 device.rerouting 0 0"/>
        <device id="routing_42" state="30000 492000"/>
    </vehicle>
    <vehicle id="87" depart="310.00" route="!87!var#1" distance="1200 1" speedFactor="1.0169" reroute="1" state="262144 313000 3 5.10 0 41.10 499000 0 0" pos="278.56 273.56 9.12" speed="9.12 9.37" angle="90.00" posLat="0.00" waitingTime="100000 1 35000 52000">
        <device id="vehroute_87" state="0 0.00 0.00 5.10 1 !NULL 310000 !87 device.rerouting -1 0"/>
        <device id="routing_87" state="30000 493000"/>
    </vehicle>
    <vehicle id="61" depart="313.00" route="!61!var#1" distance="1200 1" speedFactor="0.9670" reroute="1" state="262144 316000 3 5.10 0 34.16 499000 0 0" pos="244.36 239.36 9.47" speed="9.47 8.57" angle="90.00" posLat="0.00" waitingTime="100000 1 34000 48000">
        <device id="vehroute_61" state="0 0.00 0.00 5.10 1 !NULL 313000 !61 device.rerouting -1 0"/>
        <device id="routing_61" state="30000 496000"/>
    </vehicle>
    <vehicle id="64" depart="323.00" route="!64!var#1" distance="800 1" speedFactor="1.0017" reroute="1" state="262144 324000 2 5.10 21000 56.56 499000 0 0" pos="391.50 386.50 0.00" speed="0.00 0.00" angle="0.00" posLat="0.00" waitingTime="100000 1 0 21000">
        <device id="vehroute_64" state="0 0.00 0.00 5.10 1 !NULL 323000 !64 device.rerouting -1 0"/>
        <device id="routing_64" state="30000 474000"/>
    </vehicle>
    <vehicle id="81" depart="324.00" route="!81!var#2" distance="1600 2" speedFactor="1.0428" reroute="1" state="262144 324000 4 5.10 0 16.10 499000 0 0" pos="62.13 57.13 9.32" speed="9.32 9.79" angle="90.00" posLat="0.00" waitingTime="100000 0">
        <device id="vehroute_81" state="0 0.00 0.00 5.10 2 !NULL 324000 !81 device.rerouting -1 0 0/1to0/0 354000 !81!var#1 device.rerouting 0 0"/>
        <device id="routing_81" state="30000 474000"/>
    </vehicle>
    <vehicle id="69" depart="341.00" route="!69!var#2" distance="800 4" speedFactor="1.0220" reroute="1" state="262144 341000 2 5.10 0 56.14 499000 0 0" pos="246.14 241.14 10.02" speed="10.02 10.18" angle="180.00" posLat="0.00" waitingTime="100000 1 27000 62000">
        <device id="vehroute_69" state="0 0.00 0.00 5.10 4 !NULL 341000 !69 device.rerouting -1 0 0/1to1/1 371000 !69!var#1 device.rerouting 0 0 1/1to2/1 401000 !69!var#2 device.rerouting 1 1 1/1to2/1 431000 !69!var#1 device.rerouting 1 1"/>
        <device id="routing_69" state="30000 491000"/>
    </vehicle>
    <vehicle id="57" depart="347.00" route="!57!var#1" distance="800 1" speedFactor="1.0167" reroute="1" state="262144 391000 2 5.10 0 11.19 499000 0 0" pos="189.34 184.34 9.53" speed="9.53 9.06" angle="90.00" posLat="0.00" waitingTime="100000 0">
        <device id="vehroute_57" state="0 0.00 0.00 5.10 1 !NULL 347000 !57 device.rerouting -1 0"/>
        <device id="routing_57" state="30000 481000"/>
    </vehicle>
    <vehicle id="77" depart="347.00" route="!77!var#2" distance="800 4" speedFactor="0.8918" reroute="1" state="262144 391000 2 5.10 0 9.89 499000 0 0" pos="80.02 75.02 7.68" speed="7.68 8.39" angle="180.00" posLat="0.00" waitingTime="100000 0">
        <device id="vehroute_77" state="0 0.00 0.00 5.10 4 !NULL 347000 !77 device.rerouting -1 0 1/1to1/2 421000 !77!var#1 device.rerouting 0 0 1/2to2/2 451000 !77!var#2 device.rerouting 1 1 1/2to2/2 481000 !77!var#1 device.rerouting 1 1"/>
        <device id="routing_77" state="30000 481000"/>
    </vehicle>
    <vehicle id="90" depart="347.00" route="!90!var#2" distance="800 2" speedFactor="0.8336" reroute="1" state="262144 350000 2 5.10 0 13.25 499000 0 0" pos="336.69 331.69 7.17" speed="7.17 7.79" angle="0.00" posLat="0.00" waitingTime="100000 0">
        <device id="vehroute_90" state="0 0.00 0.00 5.10 2 !NULL 347000 !90 device.rerouting -1 0 0/0to1/0 380000 !90!var#1 device.rerouting 0 0"/>
        <device id="routing_90" state="30000 470000"/>
    </vehicle>
    <vehicle id="83" depart="353.00" route="!83!var#1" distance="800 3" speedFactor="0.9214" reroute="1" state="262144 353000 2 5.10 0 26.20 499000 0 0" pos="308.92 303.92 8.95" speed="8.95 7.99" angle="0.00" posLat="0.00" waitingTime="100000 1 38000 49000">
        <device id="vehroute_83" state="0 0.00 0.00 5.10 3 !NULL 353000 !83 device.rerouting -1 0 0/1to0/0 383000 !83!var#1 device.rerouting 0 0 0/0to1/0 413000 !83!var#2 device.rerouting 1 1"/>
        <device id="routing_83" state="30000 473000"/>
    </vehicle>
    <vehicle id="96" depart="355.00" route="!96!var#1" distance="800 1" speedFactor="1.0910" reroute="1" state="262144 355000 2 5.10 0 37.28 499000 0 0" pos="369.37 364.37 9.91" speed="9.91 10.53" angle="0.00" posLat="0.00" waitingTime="100000 2 38000 48000 92000 100000">
        <device id="vehroute_96" state="0 0.00 0.00 5.10 1 !NULL 355000 !96 device.rerouting -1 0"/>
        <device id="routing_96" state="30000 475000"/>
    </vehicle>
    <vehicle id="93" depart="389.00" route="!93!var#1" distance="800 3" speedFactor="1.0099" reroute="1" state="262144 389000 2 5.10 0 20.73 499000 0 0" pos="106.59 101.59 8.37" speed="8.37 7.52" angle="0.00" posLat="0.00" waitingTime="100000 0">
        <device id="vehroute_93" state="0 0.00 0.00 5.10 3 !NULL 389000 !93 device.rerouting -1 0 3/0to4/0 419000 !93!var#1 device.rerouting 0 0 4/0to4/1 479000 !93!var#2 device.rerouting 1 1"/>
        <device id="routing_93" state="30000 479000"/>
    </vehicle>
    <vehicle id="70" depart="401.00" route="!70!var#1" distance="0 1" speedFactor="0.9065" reroute="1" state="262144 474000 0 5.10 0 3.41 499000 0 0" pos="200.79 195.79 7.82" speed="7.82 8.76" angle="90.00" posLat="0.00" waitingTime="100000 0">
        <device id="vehroute_70" state="0 0.00 0.00 5.10 1 !NULL 401000 !70 device.rerouting -1 0"/>
        <device id="routing_70" state="30000 401000"/>
    </vehicle>
    <vehicle id="99" depart="407.00" route="!99!var#1" distance="0 1" speedFactor="1.1216" reroute="1" state="262144 477000 0 5.10 0 6.10 499000 0 0" pos="183.48 178.48 7.97" speed="7.97 9.12" angle="90.00" posLat="0.00" waitingTime="100000 0">
        <device id="vehroute_99" state="0 0.00 0.00 5.10 1 !NULL 407000 !99 device.rerouting -1 0"/>
        <device id="routing_99" state="30000 407000"/>
    </vehicle>
    <vehicle id="92" depart="434.00" route="!92!var#1" distance="0 1" speedFactor="1.0972" reroute="1" state="262144 9223372036854774807 0 -1.00 0 0.00 0 0 0" pos="5.10 0.10 0.00" speed="0.00 0.00" angle="90.00" posLat="0.00" waitingTime="100000 0">
        <device id="vehroute_92" state="-1 0.00 -1.00 -1.00 1 !NULL 434000 !92 device.rerouting -1 0"/>
        <device id="routing_92" state="30000 434000"/>
    </vehicle>
    <lane id="0/0to0/1_0">
        <vehicles value="90"/>
    </lane>
    <lane id="0/1to0/0_0">
        <vehicles value="51"/>
    </lane>
    <lane id="1/0to1/1_0">
        <vehicles value="83 64 46"/>
    </lane>
    <lane id="1/1to0/1_0">
        <vehicles value="67 21 86 58"/>
    </lane>
    <lane id="1/1to1/0_0">
        <vehicles value="74"/>
    </lane>
    <lane id="1/1to1/2_0">
        <vehicles value="94"/>
    </lane>
    <lane id="1/1to2/1_0">
        <vehicles value="57"/>
    </lane>
    <lane id="1/2to1/1_0">
        <vehicles value="59"/>
    </lane>
    <lane id="2/0to1/0_0">
        <vehicles value="41 72"/>
    </lane>
    <lane id="2/0to2/1_0">
        <vehicles value="84"/>
    </lane>
    <lane id="2/0to3/0_0">
        <vehicles value="97 61 87 88 40"/>
    </lane>
    <lane id="2/1to2/0_0">
        <vehicles value="69"/>
    </lane>
    <lane id="2/1to2/2_0">
        <vehicles value="42 65"/>
    </lane>
    <lane id="2/1to3/1_0">
        <vehicles value="81 99 70"/>
    </lane>
    <lane id="2/2to1/2_0">
        <vehicles value="49"/>
    </lane>
    <lane id="2/2to2/1_0">
        <vehicles value="77"/>
    </lane>
    <lane id="3/1to2/1_0">
        <vehicles value="79"/>
    </lane>
    <lane id="3/1to3/2_0">
        <vehicles value="10"/>
    </lane>
    <lane id="3/1to4/1_0">
        <vehicles value="71"/>
    </lane>
    <lane id="3/2to4/2_0">
        <vehicles value="13"/>
    </lane>
    <lane id="4/0to4/1_0">
        <vehicles value="60"/>
    </lane>
    <lane id="4/1to4/2_0">
        <vehicles value="93 31 96"/>
    </lane>
    <lane id="4/2to3/2_0">
        <vehicles value="23"/>
    </lane>
    <tlLogic id="0/0" programID="0" phase="0" duration="24000"/>