<?xml version="1.0" encoding="UTF-8"?>

<!-- generated on 2025-07-09 09:01:17 by Eclipse SUMO sumo Version v1_23_1+0953-aaf198e2eb9
<sumoConfiguration xmlns:xsi="http://www.w3.org/2001/XMLSchema-instance" xsi:noNamespaceSchemaLocation="http://sumo.dlr.de/xsd/sumoConfiguration.xsd">

    <input>
        <net-file value="input_net.net.xml"/>
        <route-files value="input_routes.rou.xml"/>
    </input>

    <output>
        <vehroute-output value="vehroutes.xml"/>
        <save-state.times value="500"/>
        <save-state.files value="state.xml"/>
        <save-state.rng value="true"/>
    </output>

    <routing>
        <weights.random-factor value="5"/>
        <device.rerouting.period value="30"/>
    </routing>

    <report>
        <duration-log.disable value="true"/>
        <no-step-log value="true"/>
    </report>

</sumoConfiguration>
-->

<snapshot type="micro" version="v1_23_1+0953-aaf198e2eb9" time="500.00" xmlns:xsi="http://www.w3.org/2001/XMLSchema-instance" xsi:noNamespaceSchemaLocation="http://sumo.dlr.de/xsd/state_file.xsd">
    <rngState default="14796" routeHandler="256" insertionControl="0" device="0" device.btreceiver="0" driverState="0" device.toc="0">
        <rngLane index="0" state="450"/>
        <rngLane index="1" state="378"/>
        <rngLane index="2" state="557"/>
        <rngLane index="3" state="71"/>
        <rngLane index="4" state="930"/>
        <rngLane index="5" state="169"/>
        <rngLane index="6" state="217"/>
        <rngLane index="7" state="319"/>
        <rngLane index="8" state="446"/>
        <rngLane index="9" state="681"/>
        <rngLane index="10" state="511"/>
        <rngLane index="11" state="475"/>
        <rngLane index="12" state="525"/>
        <rngLane index="13" state="676"/>
        <rngLane index="14" state="278"/>
        <rngLane index="15" state="357"/>
        <rngLane index="16" state="384"/>
        <rngLane index="17" state="767"/>
        <rngLane index="18" state="456"/>
        <rngLane index="19" state="349"/>
        <rngLane index="20" state="583"/>
        <rngLane index="21" state="339"/>
        <rngLane index="22" state="551"/>
        <rngLane index="23" state="915"/>
        <rngLane index="24" state="412"/>
        <rngLane index="25" state="323"/>
        <rngLane index="26" state="292"/>
        <rngLane index="27" state="665"/>
        <rngLane index="28" state="542"/>
        <rngLane index="29" state="427"/>
        <rngLane index="30" state="949"/>
        <rngLane index="31" state="523"/>
        <rngLane index="32" state="497"/>
        <rngLane index="33" state="571"/>
        <rngLane index="34" state="287"/>
        <rngLane index="35" state="440"/>
        <rngLane index="36" state="90"/>
        <rngLane index="37" state="657"/>
        <rngLane index="38" state="460"/>
        <rngLane index="39" state="760"/>
        <rngLane index="40" state="516"/>
        <rngLane index="41" state="310"/>
        <rngLane index="42" state="280"/>
        <rngLane index="43" state="133"/>
        <rngLane index="44" state="0"/>
        <rngLane index="45" state="0"/>
        <rngLane index="46" state="0"/>
        <rngLane index="47" state="0"/>
        <rngLane index="48" state="0"/>
        <rngLane index="49" state="0"/>
        <rngLane index="50" state="0"/>
        <rngLane index="51" state="0"/>
        <rngLane index="52" state="0"/>
        <rngLane index="53" state="0"/>
        <rngLane index="54" state="0"/>
        <rngLane index="55" state="0"/>
        <rngLane index="56" state="0"/>
        <rngLane index="57" state="0"/>
        <rngLane index="58" state="0"/>
        <rngLane index="59" state="0"/>
        <rngLane index="60" state="0"/>
        <rngLane index="61" state="0"/>
        <rngLane index="62" state="0"/>
        <rngLane index="63" state="0"/>
    </rngState>
    <edgeControl lanes="3/1to2/1_0 2/1to2/2_0 1/1to2/1_0 2/1to3/1_0 2/0to1/0_0 1/0to2/0_0 3/2to2/2_0 2/1to2/0_0 2/2to1/2_0 1/1to0/1_0 1/1to1/2_0 0/0to0/1_0 4/1to4/2_0 1/0to0/0_0 1/2to1/1_0 2/0to3/0_0 3/2to4/2_0 3/1to4/1_0 0/1to0/2_0 2/2to3/2_0 3/1to3/2_0 3/0to2/0_0 4/0to4/1_0"/>
    <route id="!13!var#1" state="0" edges="1/2to1/1 1/1to1/2 1/2to2/2 2/2to3/2 3/2to4/2 4/2to4/1"/>
    <route id="!21!var#2" state="0" edges="3/0to4/0 4/0to4/1 4/1to3/1 3/1to2/1 2/1to2/2 2/2to1/2 1/2to0/2 0/2to0/1"/>
    <route id="!23!var#1" state="0" edges="3/1to4/1 4/1to4/2 4/2to3/2 3/2to2/2 2/2to1/2 1/2to0/2"/>
    <route id="!31!var#1" state="0" edges="1/0to0/0 0/0to0/1 0/1to1/1 1/1to2/1 2/1to3/1 3/1to4/1 4/1to4/2"/>
    <route id="!40!var#1" state="0" edges="0/2to0/1 0/1to1/1 1/1to1/0 1/0to2/0 2/0to3/0 3/0to4/0"/>
    <route id="!41!var#1" state="0" edges="4/1to4/2 4/2to4/1 4/1to4/0 4/0to3/0 3/0to2/0 2/0to1/0 1/0to0/0"/>
    <route id="!42!var#2" state="0" edges="2/1to3/1 3/1to3/2 3/2to2/2 2/2to3/2"/>
    <route id="!46!var#1" state="0" edges="3/0to4/0 4/0to4/1 4/1to4/2 4/2to3/2 3/2to2/2 2/2to1/2 1/2to2/2"/>
    <route id="!57!var#1" state="0" edges="1/1to0/1 0/1to1/1 1/1to2/1 2/1to1/1"/>
    <route id="!58!var#2" state="0" edges="2/0to1/0 1/0to1/1 1/1to0/1 0/1to1/1"/>
    <route id="!59!var#2" state="0" edges="3/0to3/1 3/1to3/2 3/2to2/2 2/2to1/2 1/2to1/1"/>
    <route id="!60!var#2" state="0" edges="2/0to2/1 2/1to3/1 3/1to4/1 4/1to4/0 4/0to4/1"/>
    <route id="!61!var#1" state="0" edges="0/1to0/0 0/0to1/0 1/0to2/0 2/0to3/0 3/0to3/1"/>
    <route id="!62!var#2" state="0" edges="3/0to3/1 3/1to3/0 3/0to2/0 2/0to1/0 1/0to0/0 0/0to0/1 0/1to0/0"/>
    <route id="!65!var#1" state="0" edges="2/1to3/1 3/1to2/1 2/1to2/2 2/2to1/2 1/2to0/2 0/2to1/2"/>
    <route id="!67!var#1" state="0" edges="4/0to4/1 4/1to3/1 3/1to2/1 2/1to1/1 1/1to0/1 0/1to0/2"/>
    <route id="!69!var#2" state="0" edges="0/1to1/1 1/1to2/1 2/1to2/0 2/0to3/0 3/0to3/1"/>
    <route id="!70!var#1" state="0" edges="2/1to3/1 3/1to3/2 3/2to2/2 2/2to1/2 1/2to1/1 1/1to1/0 1/0to0/0 0/0to0/1"/>
    <route id="!71!var#1" state="0" edges="0/1to1/1 1/1to2/1 2/1to3/1 3/1to4/1"/>
    <route id="!72!var#1" state="0" edges="1/1to0/1 0/1to1/1 1/1to1/0 1/0to2/0 2/0to1/0"/>
    <route id="!74!var#1" state="0" edges="4/1to3/1 3/1to3/0 3/0to2/0 2/0to1/0 1/0to0/0"/>
    <route id="!77!var#1" state="0" edges="1/1to1/2 1/2to2/2 2/2to2/1 2/1to3/1 3/1to2/1"/>
    <route id="!79!var#2" state="0" edges="3/0to4/0 4/0to3/0 3/0to3/1 3/1to2/1 2/1to2/0"/>
    <route id="!81!var#1" state="0" edges="0/1to0/0 0/0to1/0 1/0to2/0 2/0to3/0 3/0to3/1 3/1to3/2"/>
    <route id="!83!var#2" state="0" edges="0/1to0/0 0/0to1/0 1/0to2/0 2/0to2/1 2/1to1/1"/>
    <route id="!84!var#2" state="0" edges="4/1to4/0 4/0to3/0 3/0to3/1 3/1to2/1 2/1to3/1"/>
    <route id="!86!var#1" state="0" edges="4/0to3/0 3/0to2/0 2/0to1/0 1/0to0/0 0/0to0/1 0/1to0/2"/>
    <route id="!87!var#1" state="0" edges="0/1to0/0 0/0to1/0 1/0to2/0 2/0to3/0 3/0to4/0 4/0to3/0"/>
    <route id="!88!var#1" state="0" edges="2/0to1/0 1/0to1/1 1/1to2/1 2/1to2/0 2/0to3/0 3/0to3/1 3/1to4/1 4/1to4/2"/>
    <route id="!90!var#1" state="0" edges="0/0to1/0 1/0to0/0 0/0to0/1 0/1to0/2"/>
    <route id="!92!var#1" state="0" edges="1/1to2/1 2/1to1/1 1/1to1/0"/>
    <route id="!93!var#2" state="0" edges="3/0to4/0 4/0to3/0 3/0to2/0 2/0to1/0 1/0to1/1 1/1to2/1"/>
    <route id="!94!var#1" state="0" edges="1/1to1/0 1/0to1/1 1/1to1/2 1/2to0/2 0/2to0/1"/>
    <route id="!96!var#1" state="0" edges="4/1to4/0 4/0to4/1 4/1to4/2"/>
    <route id="!97!var#1" state="0" edges="0/0to0/1 0/1to0/0 0/0to1/0 1/0to2/0 2/0to3/0 3/0to2/0"/>
    <route id="!99!var#1" state="0" edges="2/1to3/1 3/1to2/1 2/1to2/2"/>
    <delay number="36" begin="100" end="64" depart="638.00" time="13036.00"/>
    <vType id="DEFAULT_VEHTYPE"/>
    <vehicle id="31" depart="103.00" route="!31!var#1" distance="2000 3" speedFactor="0.8784" reroute="1" state="262144 103000 5 5.10 0 145.12 499000 0 0" pos="208.83 203.83 8.48" speed="8.48 8.72" angle="90.00" posLat="0.00" waitingTime="100000 1 27000 61000">
        <device id="vehroute_31" state="0 0.00 0.00 5.10 3 !NULL 103000 !31 device.rerouting -1 0 1/0to0/0 133000 !31!var#1 device.rerouting 0 0 1/0to0/0 163000 !31!var#2 device.rerouting 0 0"/>
        <device id="routing_31" state="30000 493000"/>
    </vehicle>
    <vehicle id="41" depart="135.00" route="!41!var#1" distance="2000 5" speedFactor="0.8257" reroute="1" state="262144 135000 5 5.10 0 89.50 499000 0 0" pos="271.68 266.68 8.18" speed="8.18 7.16" angle="270.00" posLat="0.00" waitingTime="100000 1 38000 59000">
        <device id="vehroute_41" state="0 0.00 0.00 5.10 5 !NULL 135000 !41 device.rerouting -1 0 4/1to4/2 165000 !41!var#1 device.rerouting 0 0 4/1to4/2 195000 !41!var#2 device.rerouting 0 0 4/2to4/1 225000 !41!var#1 device.rerouting 1 1 4/2to4/1 255000 !41!var#2 device.rerouting 1 1"/>
        <device id="routing_41" state="30000 495000"/>
    </vehicle>
    <vehicle id="67" depart="170.00" route="!67!var#1" distance="1600 3" speedFactor="1.0052" reroute="1" state="262144 170000 4 5.10 0 146.63 499000 0 0" pos="238.27 233.27 9.22" speed="9.22 9.82" angle="270.00" posLat="0.00" waitingTime="100000 1 27000 60000">
        <device id="vehroute_67" state="0 0.00 0.00 5.10 3 !NULL 170000 !67 device.rerouting -1 0 3/1to2/1 320000 !67!var#1 device.rerouting 2 2 3/1to2/1 350000 !67!var#2 device.rerouting 2 2"/>
        <device id="routing_67" state="30000 470000"/>
    </vehicle>
    <vehicle id="65" depart="179.00" route="!65!var#1" distance="800 7" speedFactor="1.0197" reroute="1" state="262144 305000 2 5.10 0 97.62 499000 0 0" pos="187.91 182.91 8.13" speed="8.13 9.24" angle="0.00" posLat="0.00" waitingTime="100000 1 26000 58000">
        <device id="vehroute_65" state="0 0.00 0.00 5.10 7 !NULL 179000 !65 device.rerouting -1 0 2/1to3/1 305000 !65!var#1 device.rerouting 0 0 2/1to3/1 335000 !65!var#2 device.rerouting 0 0 2/1to3/1 365000 !65!var#1 device.rerouting 0 0 3/1to2/1 395000 !65!var#2 device.rerouting 1 1 3/1to2/1 425000 !65!var#1 device.rerouting 1 1 3/1to2/1 455000 !65!var#2 device.rerouting 1 1"/>
        <device id="routing_65" state="30000 485000"/>
    </vehicle>
    <vehicle id="13" depart="197.00" route="!13!var#1" distance="1600 3" speedFactor="1.0304" reroute="1" state="262144 197000 4 5.10 0 113.29 499000 0 0" pos="349.52 344.52 10.28" speed="10.28 9.54" angle="90.00" posLat="0.00" waitingTime="100000 1 38000 70000">
        <device id="vehroute_13" state="0 0.00 0.00 5.10 3 !NULL 197000 !13 device.rerouting -1 0 1/2to1/1 227000 !13!var#1 device.rerouting 0 0 1/2to1/1 257000 !13!var#2 device.rerouting 0 0"/>
        <device id="routing_13" state="30000 497000"/>
    </vehicle>
    <vehicle id="86" depart="197.00" route="!86!var#1" distance="2000 3" speedFactor="0.9571" reroute="1" state="262144 200000 5 5.10 0 68.40 499000 0 0" pos="212.16 207.16 8.55" speed="8.55 8.79" angle="0.00" posLat="0.00" waitingTime="100000 0">
        <device id="vehroute_86" state="0 0.00 0.00 5.10 3 !NULL 197000 !86 device.rerouting -1 0 3/0to2/0 290000 !86!var#1 device.rerouting 1 1 2/0to1/0 320000 !86!var#2 device.rerouting 2 2"/>
        <device id="routing_86" state="30000 470000"/>
    </vehicle>
    <vehicle id="62" depart="199.00" route="!62!var#2" distance="1600 6" speedFactor="1.0378" reroute="1" state="262144 199000 4 5.10 0 113.03 499000 0 0" pos="345.52 340.52 9.10" speed="9.10 9.24" angle="270.00" posLat="0.00" waitingTime="100000 1 38000 69000">
        <device id="vehroute_62" state="0 0.00 0.00 5.10 6 !NULL 199000 !62 device.rerouting -1 0 3/0to3/1 229000 !62!var#1 device.rerouting 0 0 3/0to3/1 259000 !62!var#2 device.rerouting 0 0 3/0to2/0 319000 !62!var#1 device.rerouting 2 2 3/0to2/0 349000 !62!var#2 device.rerouting 2 2 3/0to2/0 379000 !62!var#1 device.rerouting 2 2"/>
        <device id="routing_62" state="30000 499000"/>
    </vehicle>
    <vehicle id="21" depart="213.00" route="!21!var#2" distance="1600 8" speedFactor="0.8769" reroute="1" state="262144 213000 4 5.10 0 80.63 499000 0 0" pos="206.01 201.01 8.66" speed="8.66 8.53" angle="0.00" posLat="0.00" waitingTime="100000 1 27000 60000">
        <device id="vehroute_21" state="0 0.00 0.00 5.10 8 !NULL 213000 !21 device.rerouting -1 0 3/0to4/0 243000 !21!var#1 device.rerouting 0 0 4/0to4/1 273000 !21!var#2 device.rerouting 1 1 4/0to4/1 303000 !21!var#1 device.rerouting 1 1 4/1to3/1 333000 !21!var#2 device.rerouting 2 2 3/1to2/1 393000 !21!var#1 device.rerouting 3 3 3/1to2/1 423000 !21!var#2 device.rerouting 3 3 3/1to2/1 453000 !21!var#1 device.rerouting 3 3"/>
        <device id="routing_21" state="30000 483000"/>
    </vehicle>
    <vehicle id="59" depart="215.00" route="!59!var#2" distance="1600 2" speedFactor="0.8549" reroute="1" state="262144 215000 4 5.10 0 64.08 499000 0 0" pos="285.19 280.19 7.28" speed="7.28 8.21" angle="180.00" posLat="0.00" waitingTime="100000 1 38000 43000">
        <device id="vehroute_59" state="0 0.00 0.00 5.10 2 !NULL 215000 !59 device.rerouting -1 0 3/0to3/1 245000 !59!var#1 device.rerouting 0 0"/>
        <device id="routing_59" state="30000 485000"/>
    </vehicle>
    <vehicle id="46" depart="224.00" route="!46!var#1" distance="2000 3" speedFactor="1.1425" reroute="1" state="262144 232000 5 5.10 0 58.99 499000 0 0" pos="381.56 376.56 10.22" speed="10.22 10.80" angle="270.00" posLat="0.00" waitingTime="100000 1 38000 69000">
        <device id="vehroute_46" state="0 0.00 0.00 5.10 3 !NULL 224000 !46 device.rerouting -1 0 3/0to4/0 262000 !46!var#1 device.rerouting 0 0 4/0to4/1 292000 !46!var#2 device.rerouting 1 1"/>
        <device id="routing_46" state="30000 472000"/>
    </vehicle>
    <vehicle id="71" depart="226.00" route="!71!var#1" distance="1200 1" speedFactor="0.9695" reroute="1" state="262144 226000 3 5.10 0 129.99 499000 0 0" pos="191.55 186.55 8.93" speed="8.93 9.01" angle="90.00" posLat="0.00" waitingTime="100000 1 26000 58000">
        <device id="vehroute_71" state="0 0.00 0.00 5.10 1 !NULL 226000 !71 device.rerouting -1 0"/>
        <device id="routing_71" state="30000 496000"/>
    </vehicle>
    <vehicle id="40" depart="231.00" route="!40!var#1" distance="1600 3" speedFactor="1.1193" reroute="1" state="262144 231000 4 5.10 0 102.87 499000 0 0" pos="253.40 248.40 9.28" speed="9.28 8.24" angle="90.00" posLat="0.00" waitingTime="100000 0">
        <device id="vehroute_40" state="0 0.00 0.00 5.10 3 !NULL 231000 !40 device.rerouting -1 0 0/2to0/1 291000 !40!var#1 device.rerouting 0 0 0/1to1/1 321000 !40!var#2 device.rerouting 1 1"/>
        <device id="routing_40" state="30000 471000"/>
    </vehicle>
    <vehicle id="74" depart="234.00" route="!74!var#1" distance="1600 3" speedFactor="0.9870" reroute="1" state="262144 234000 4 5.10 0 71.82 499000 0 0" pos="311.82 306.82 9.72" speed="9.72 9.30" angle="270.00" posLat="0.00" waitingTime="100000 1 37000 56000">
        <device id="vehroute_74" state="0 0.00 0.00 5.10 3 !NULL 234000 !74 device.rerouting -1 0 4/1to3/1 264000 !74!var#1 device.rerouting 0 0 4/1to3/1 294000 !74!var#2 device.rerouting 0 0"/>
        <device id="routing_74" state="30000 474000"/>
    </vehicle>
    <vehicle id="84" depart="253.00" route="!84!var#2" distance="1600 4" speedFactor="0.8823" reroute="1" state="262144 253000 4 5.10 0 48.10 499000 0 0" pos="151.20 146.20 8.01" speed="8.01 8.23" angle="90.00" posLat="0.00" waitingTime="100000 1 70000 93000">
        <device id="vehroute_84" state="0 0.00 0.00 5.10 4 !NULL 253000 !84 device.rerouting -1 0 4/1to4/0 283000 !84!var#1 device.rerouting 0 0 4/0to3/0 313000 !84!var#2 device.rerouting 1 1 4/0to3/0 343000 !84!var#1 device.rerouting 1 1"/>
        <device id="routing_84" state="30000 493000"/>
    </vehicle>
    <vehicle id="79" depart="255.00" route="!79!var#2" distance="1600 4" speedFactor="0.9068" reroute="1" state="262144 255000 4 5.10 0 54.49 499000 0 0" pos="123.59 118.59 8.56" speed="8.56 8.72" angle="180.00" posLat="0.00" waitingTime="100000 0">
        <device id="vehroute_79" state="0 0.00 0.00 5.10 4 !NULL 255000 !79 device.rerouting -1 0 3/0to4/0 285000 !79!var#1 device.rerouting 0 0 4/0to3/0 345000 !79!var#2 device.rerouting 1 1 4/0to3/0 375000 !79!var#1 device.rerouting 1 1"/>
        <device id="routing_79" state="30000 495000"/>
    </vehicle>
    <vehicle id="60" depart="271.00" route="!60!var#2" distance="1600 4" speedFactor="0.9146" reroute="1" state="262144 271000 4 5.10 0 46.49 499000 0 0" pos="65.20 60.20 8.62" speed="8.62 8.64" angle="0.00" posLat="0.00" waitingTime="100000 0">
        <device id="vehroute_60" state="0 0.00 0.00 5.10 4 !NULL 271000 !60 device.rerouting -1 0 2/0to2/1 301000 !60!var#1 device.rerouting 0 0 2/0to2/1 331000 !60!var#2 device.rerouting 0 0 2/1to3/1 361000 !60!var#1 device.rerouting 1 1"/>
        <device id="routing_60" state="30000 481000"/>
    </vehicle>
    <vehicle id="97" depart="279.00" route="!97!var#1" distance="1600 1" speedFactor="1.0221" reroute="1" state="262144 279000 4 5.10 0 35.58 499000 0 0" pos="290.03 285.03 8.59" speed="8.59 8.86" angle="90.00" posLat="0.00" waitingTime="100000 1 36000 48000">
        <device id="vehroute_97" state="0 0.00 0.00 5.10 1 !NULL 279000 !97 device.rerouting -1 0"/>
        <device id="routing_97" state="30000 489000"/>
    </vehicle>
    <vehicle id="88" depart="295.00" route="!88!var#1" distance="1200 5" speedFactor="1.0230" reroute="1" state="262144 311000 3 5.10 0 49.95 499000 0 0" pos="217.32 212.32 10.07" speed="10.07 9.99" angle="180.00" posLat="0.00" waitingTime="100000 0">
        <device id="vehroute_88" state="0 0.00 0.00 5.10 5 !NULL 295000 !88 device.rerouting -1 0 2/0to1/0 341000 !88!var#1 device.rerouting 0 0 2/0to1/0 371000 !88!var#2 device.rerouting 0 0 1/1to2/1 461000 !88!var#1 device.rerouting 2 2 2/1to2/0 491000 !88!var#2 device.rerouting 3 3"/>
        <device id="routing_88" state="30000 491000"/>
    </vehicle>
    <vehicle id="58" depart="298.00" route="!58!var#2" distance="800 2" speedFactor="0.9729" reroute="1" state="262144 314000 2 5.10 18000 63.06 499000 0 0" pos="391.50 386.50 0.00" speed="0.00 0.00" angle="270.00" posLat="0.00" waitingTime="100000 1 0 18000">
        <device id="vehroute_58" state="0 0.00 0.00 5.10 2 !NULL 298000 !58 device.rerouting -1 0 2/0to1/0 344000 !58!var#1 device.rerouting 0 0"/>
        <device id="routing_58" state="30000 494000"/>
    </vehicle>
    <vehicle id="72" depart="302.00" route="!72!var#1" distance="1600 1" speedFactor="1.0557" reroute="1" state="262144 302000 4 5.10 0 26.60 499000 0 0" pos="203.96 198.96 10.27" speed="10.27 9.80" angle="270.00" posLat="0.00" waitingTime="100000 0">
        <device id="vehroute_72" state="0 0.00 0.00 5.10 1 !NULL 302000 !72 device.rerouting -1 0"/>
        <device id="routing_72" state="30000 482000"/>
    </vehicle>
    <vehicle id="94" depart="302.00" route="!94!var#1" distance="800 3" speedFactor="0.9551" reroute="1" state="262144 302000 2 5.10 22000 72.00 499000 0 0" pos="399.00 394.00 0.00" speed="0.00 0.00" angle="0.00" posLat="0.00" waitingTime="100000 2 0 22000 70000 99000">
        <device id="vehroute_94" state="0 0.00 0.00 5.10 3 !NULL 302000 !94 device.rerouting -1 0 1/1to1/0 332000 !94!var#1 device.rerouting 0 0 1/0to1/1 422000 !94!var#2 device.rerouting 1 1"/>
        <device id="routing_94" state="30000 482000"/>
    </vehicle>
    <vehicle id="23" depart="305.00" route="!23!var#1" distance="1200 1" speedFactor="0.9849" reroute="1" state="262144 305000 3 5.10 0 38.97 499000 0 0" pos="332.01 327.01 9.68" speed="9.68 8.73" angle="270.00" posLat="0.00" waitingTime="100000 1 38000 57000">
        <device id="vehroute_23" state="0 0.00 0.00 5.10 1 !NULL 305000 !23 device.rerouting -1 0"/>
        <device id="routing_23" state="30000 485000"/>
    </vehicle>
    <vehicle id="42" depart="305.00" route="!42!var#2" distance="1200 2" speedFactor="1.0325" reroute="1" state="262144 308000 3 5.10 0 54.23 499000 0 0" pos="217.24 212.24 9.79" speed="9.79 9.75" angle="90.00" posLat="0.00" waitingTime="100000 0">
        <device id="vehroute_42" state="0 0.00 0.00 5.10 2 !NULL 305000 !42 device.rerouting -1 0 2/1to3/1 338000 !42!var#1 device.rerouting 0 0"/>
        <device id="routing_42" state="30000 488000"/>
    </vehicle>
    <vehicle id="87" depart="310.00" route="!87!var#1" distance="1200 1" speedFactor="1.0169" reroute="1" state="262144 310000 3 5.10 0 37.76 499000 0 0" pos="343.05 338.05 10.13" speed="10.13 9.41" angle="90.00" posLat="0.00" waitingTime="100000 1 38000 53000">
        <device id="vehroute_87" state="0 0.00 0.00 5.10 1 !NULL 310000 !87 device.rerouting -1 0"/>
        <device id="routing_87" state="30000 490000"/>
    </vehicle>
    <vehicle id="61" depart="313.00" route="!61!var#1" distance="1200 1" speedFactor="0.9670" reroute="1" state="262144 313000 3 5.10 0 30.57 499000 0 0" pos="308.16 303.16 8.80" speed="8.80 8.77" angle="90.00" posLat="0.00" waitingTime="100000 1 37000 49000">
        <device id="vehroute_61" state="0 0.00 0.00 5.10 1 !NULL 313000 !61 device.rerouting -1 0"/>
        <device id="routing_61" state="30000 493000"/>
    </vehicle>
    <vehicle id="81" depart="324.00" route="!81!var#1" distance="1200 1" speedFactor="1.0428" reroute="1" state="262144 324000 3 5.10 0 34.38 499000 0 0" pos="271.45 266.45 8.52" speed="8.52 9.51" angle="90.00" posLat="0.00" waitingTime="100000 1 35000 46000">
        <device id="vehroute_81" state="0 0.00 0.00 5.10 1 !NULL 324000 !81 device.rerouting -1 0"/>
        <device id="routing_81" state="30000 474000"/>
    </vehicle>
    <vehicle id="69" depart="341.00" route="!69!var#2" distance="800 4" speedFactor="1.0220" reroute="1" state="262144 341000 2 5.10 0 57.08 499000 0 0" pos="236.51 231.51 9.99" speed="9.99 9.29" angle="180.00" posLat="0.00" waitingTime="100000 1 27000 61000">
        <device id="vehroute_69" state="0 0.00 0.00 5.10 4 !NULL 341000 !69 device.rerouting -1 0 0/1to1/1 371000 !69!var#1 device.rerouting 0 0 1/1to2/1 431000 !69!var#2 device.rerouting 1 1 1/1to2/1 461000 !69!var#1 device.rerouting 1 1"/>
        <device id="routing_69" state="30000 491000"/>
    </vehicle>
    <vehicle id="57" depart="347.00" route="!57!var#1" distance="0 3" speedFactor="1.0167" reroute="1" state="262144 431000 0 5.10 23000 29.26 499000 0 0" pos="399.00 394.00 0.00" speed="0.00 0.00" angle="270.00" posLat="0.00" waitingTime="100000 1 0 23000">
        <device id="vehroute_57" state="0 0.00 0.00 5.10 3 !NULL 347000 !57 device.rerouting -1 0 1/1to0/1 431000 !57!var#1 device.rerouting 0 0 1/1to0/1 461000 !57!var#2 device.rerouting 0 0"/>
        <device id="routing_57" state="30000 491000"/>
    </vehicle>
    <vehicle id="77" depart="347.00" route="!77!var#1" distance="0 1" speedFactor="0.8918" reroute="1" state="262144 474000 0 5.10 0 2.97 499000 0 0" pos="201.56 196.56 8.21" speed="8.21 8.51" angle="0.00" posLat="0.00" waitingTime="100000 0">
        <device id="vehroute_77" state="0 0.00 0.00 5.10 1 !NULL 347000 !77 device.rerouting -1 0"/>
        <device id="routing_77" state="30000 347000"/>
    </vehicle>
    <vehicle id="90" depart="347.00" route="!90!var#1" distance="800 1" speedFactor="0.8336" reroute="1" state="262144 347000 2 5.10 0 14.15 499000 0 0" pos="354.21 349.21 7.56" speed="7.56 7.67" angle="0.00" posLat="0.00" waitingTime="100000 0">
        <device id="vehroute_90" state="0 0.00 0.00 5.10 1 !NULL 347000 !90 device.rerouting -1 0"/>
        <device id="routing_90" state="30000 497000"/>
    </vehicle>
    <vehicle id="83" depart="353.00" route="!83!var#2" distance="800 2" speedFactor="0.9214" reroute="1" state="262144 353000 2 5.10 0 26.46 499000 0 0" pos="306.57 301.57 8.26" speed="8.26 8.90" angle="90.00" posLat="0.00" waitingTime="100000 1 38000 52000">
        <device id="vehroute_83" state="0 0.00 0.00 5.10 2 !NULL 353000 !83 device.rerouting -1 0 0/1to0/0 383000 !83!var#1 device.rerouting 0 0"/>
        <device id="routing_83" state="30000 473000"/>
    </vehicle>
    <vehicle id="96" depart="355.00" route="!96!var#1" distance="800 1" speedFactor="1.0910" reroute="1" state="262144 355000 2 5.10 0 37.83 499000 0 0" pos="363.44 358.44 9.83" speed="9.83 10.40" angle="0.00" posLat="0.00" waitingTime="100000 2 38000 48000 92000 98000">
        <device id="vehroute_96" state="0 0.00 0.00 5.10 1 !NULL 355000 !96 device.rerouting -1 0"/>
        <device id="routing_96" state="30000 475000"/>
    </vehicle>
    <vehicle id="93" depart="389.00" route="!93!var#2" distance="800 4" speedFactor="1.0099" reroute="1" state="262144 389000 2 5.10 0 18.02 499000 0 0" pos="133.99 128.99 9.31" speed="9.31 9.86" angle="270.00" posLat="0.00" waitingTime="100000 1 58000 65000">
        <device id="vehroute_93" state="0 0.00 0.00 5.10 4 !NULL 389000 !93 device.rerouting -1 0 3/0to4/0 419000 !93!var#1 device.rerouting 0 0 4/0to3/0 449000 !93!var#2 device.rerouting 1 1 4/0to3/0 479000 !93!var#1 device.rerouting 1 1"/>
        <device id="routing_93" state="30000 479000"/>
    </vehicle>
    <vehicle id="70" depart="401.00" route="!70!var#1" distance="400 3" speedFactor="0.9065" reroute="1" state="262144 404000 1 5.10 0 35.35 499000 0 0" pos="145.85 140.85 8.41" speed="8.41 8.24" angle="0.00" posLat="0.00" waitingTime="100000 1 24000 47000">
        <device id="vehroute_70" state="0 0.00 0.00 5.10 3 !NULL 401000 !70 device.rerouting -1 0 2/1to3/1 464000 !70!var#1 device.rerouting 0 0 3/1to3/2 494000 !70!var#2 device.rerouting 1 1"/>
        <device id="routing_70" state="30000 494000"/>
    </vehicle>
    <vehicle id="99" depart="407.00" route="!99!var#1" distance="400 1" speedFactor="1.1216" reroute="1" state="262144 407000 1 5.10 0 42.11 499000 0 0" pos="164.67 159.67 10.07" speed="10.07 11.21" angle="270.00" posLat="0.00" waitingTime="100000 1 23000 45000">
        <device id="vehroute_99" state="0 0.00 0.00 5.10 1 !NULL 407000 !99 device.rerouting -1 0"/>
        <device id="routing_99" state="30000 497000"/>
    </vehicle>
    <vehicle id="92" depart="434.00" route="!92!var#1" distance="0 1" speedFactor="1.0972" reroute="1" state="262144 474000 0 5.10 0 3.99 499000 0 0" pos="235.66 230.66 10.25" speed="10.25 10.67" angle="90.00" posLat="0.00" waitingTime="100000 0">
        <device id="vehroute_92" state="0 0.00 0.00 5.10 1 !NULL 434000 !92 device.rerouting -1 0"/>
        <device id="routing_92" state="30000 434000"/>
    </vehicle>
    <lane id="0/0to0/1_0">
        <vehicles value="90"/>
    </lane>
    <lane id="0/1to0/2_0">
        <vehicles value="86"/>
    </lane>
    <lane id="1/0to0/0_0">
        <vehicles value="74 62"/>
    </lane>
    <lane id="1/0to2/0_0">
        <vehicles value="83"/>
    </lane>
    <lane id="1/1to0/1_0">
        <vehicles value="67 58 57"/>
    </lane>
    <lane id="1/1to1/2_0">
        <vehicles value="77 94"/>
    </lane>
    <lane id="1/1to2/1_0">
        <vehicles value="92"/>
    </lane>
    <lane id="1/2to1/1_0">
        <vehicles value="59"/>
    </lane>
    <lane id="2/0to1/0_0">
        <vehicles value="72 41"/>
    </lane>
    <lane id="2/0to3/0_0">
        <vehicles value="40 81 97 61 87"/>
    </lane>
    <lane id="2/1to2/0_0">
        <vehicles value="79 88 69"/>
    </lane>
    <lane id="2/1to2/2_0">
        <vehicles value="65 21"/>
    </lane>
    <lane id="2/1to3/1_0">
        <vehicles value="84"/>
    </lane>
    <lane id="2/2to1/2_0">
        <vehicles value="46"/>
    </lane>
    <lane id="2/2to3/2_0">
        <vehicles value="42"/>
    </lane>
    <lane id="3/0to2/0_0">
        <vehicles value="93"/>
    </lane>
    <lane id="3/1to2/1_0">
        <vehicles value="99"/>
    </lane>
    <lane id="3/1to3/2_0">
        <vehicles value="70"/>
    </lane>
    <lane id="3/1to4/1_0">
        <vehicles value="71 31"/>
    </lane>
    <lane id="3/2to2/2_0">
        <vehicles value="23"/>
    </lane>
    <lane id="3/2to4/2_0">
        <vehicles value="13"/>
    </lane>
    <lane id="4/0to4/1_0">
        <vehicles value="60"/>
    </lane>
    <lane id="4/1to4/2_0">
        <vehicles value="96"/>
    </lane>
    <tlLogic id="0/0" programID="0" phase="0" duration="24000"/>
    <tlLogic id="0/1" programID="0" phase="2" duration="4000"/>
    <tlLogic id="0/2" programID="0" phase="0" duration="24000"/>
    <tlLogic id="1/0" programID="0" phase="2" duration="4000"/>
    <tlLogic id="1/1" programID="0" phase="4" duration="27000"/>
    <tlLogic id="1/2" programID="0" phase="2" duration="4000"/>
    <tlLogic id="2/0" programID="0" phase="2" duration="4000"/>
    <tlLogic id="2/1" programID="0" phase="4" duration="27000"/>
    <tlLogic id="2/2" programID="0" phase="2" duration="4000"/>
    <tlLogic id="3/0" programID="0" phase="2" duration="4000"/>
    <tlLogic id="3/1" programID="0" phase="4" duration="27000"/>
    <tlLogic id="3/2" programID="0" phase="2" duration="4000"/>
    <tlLogic id="4/0" programID="0" phase="0" duration="24000"/>
    <tlLogic id="4/1" programID="0" phase="2" duration="4000"/>
    <tlLogic id="4/2" programID="0" phase="0" duration="24000"/>
    <routingEngine last="500000">
        <edge id="0/0to0/1" speed="8.95" pastSpeed="9.07 8.91 8.60 9.12 9.16 9.16 9.00 8.18 8.72 8.10 8.00 9.19 8.12 8.58 9.11 8.59 8.80 8.16 8.92 8.71 8.96 8.97 8.05 8.01 8.48 8.16 7.98 10.00 10.00 10.00 10.00 10.00 10.00 10.00 10.00 10.00 10.00 10.00 10.00 10.00 10.00 10.00 10.00 10.00 10.00 10.00 10.00 10.00 10.00 10.00 10.00 10.00 10.00 10.00 10.00 8.71 8.90 8.77 9.56 8.87 8.44 8.62 9.14 8.47 9.38 8.83 9.55 9.42 8.58 8.52 9.52 9.39 9.50 8.31 8.34 8.73 8.69 8.28 8.47 7.91 8.40 8.28 8.50 8.32 8.26 8.71 7.74 8.47 8.80 8.23 8.32 8.64 8.17 7.78 8.24 8.14 7.95 8.08 7.96 8.77 7.32 7.79 7.06 8.03 8.13 7.76 7.57 7.94 7.70 8.03 7.29 7.56 7.66 7.82 7.21 7.21 7.90 7.38 7.67 8.08 8.31 7.25 7.67 7.56 10.12 9.11 6.32 10.00 10.00 10.00 10.00 10.00 10.00 10.00 10.00 10.00 10.00 10.00 10.00 10.00 10.00 10.00 10.00 10.00 10.00 10.00 10.00 10.00 10.00 10.00 10.00 10.00 10.00 10.00 10.00 10.00 10.00 10.00 10.00 10.00 8.87 7.98 8.16 9.08 9.19 9.19 8.94 9.21 8.57 8.38 8.35 8.11 8.98 8.28 8.10 8.49 8.93 8.39 8.77 8.21"/>