<?xml version="1.0" encoding="UTF-8"?>

<!-- generated on 2025-07-09 09:01:17 by Eclipse SUMO sumo Version v1_23_1+0953-aaf198e2eb9
<sumoConfiguration xmlns:xsi="http://www.w3.org/2001/XMLSchema-instance" xsi:noNamespaceSchemaLocation="http://sumo.dlr.de/xsd/sumoConfiguration.xsd">

    <input>
        <net-file value="input_net.net.xml"/>
        <load-state value="state.xml"/>
    </input>

    <output>
        <vehroute-output value="vehroutes2.xml"/>
    </output>

    <time>
        <begin value="500"/>
    </time>

    <routing>
        <weights.random-factor value="5"/>
        <device.rerouting.period value="30"/>
    </routing>

    <report>
        <duration-log.disable value="true"/>
        <no-step-log value="true"/>
    </report>

</sumoConfiguration>
-->

<routes xmlns:xsi="http://www.w3.org/2001/XMLSchema-instance" xsi:noNamespaceSchemaLocation="http://sumo.dlr.de/xsd/routes_file.xsd">
    <vehicle id="96" depart="355.00" arrival="503.00">
        <route edges="4/1to4/0 4/0to4/1 4/1to4/2"/>
    </vehicle>

    <vehicle id="74" depart="234.00" arrival="509.00">
        <routeDistribution>
            <route replacedOnEdge="4/1to3/1" reason="device.rerouting" replacedAtTime="264.00" probability="0" edges="4/1to3/1 3/1to3/0 3/0to2/0 2/0to1/0 1/0to0/0"/>
            <route edges="4/1to3/1 3/1to3/0 3/0to2/0 2/0to1/0 1/0to0/0"/>
        </routeDistribution>
    </vehicle>

    <vehicle id="59" depart="215.00" arrival="514.00">
        <route edges="3/0to3/1 3/1to3/2 3/2to2/2 2/2to1/2 1/2to1/1"/>
    </vehicle>

    <vehicle id="42" depart="308.00" arrival="518.00">
        <route edges="2/1to3/1 3/1to3/2 3/2to2/2 2/2to3/2"/>
    </vehicle>

    <vehicle id="86" depart="200.00" arrival="521.00">
        <routeDistribution>
            <route replacedOnEdge="3/0to2/0" replacedOnIndex="1" reason="device.rerouting" replacedAtTime="290.00" probability="0" edges="4/0to3/0 3/0to2/0 2/0to1/0 1/0to0/0 0/0to0/1 0/1to0/2"/>
            <route edges="4/0to3/0 3/0to2/0 2/0to1/0 1/0to0/0 0/0to0/1 0/1to0/2"/>
        </routeDistribution>
    </vehicle>

    <vehicle id="71" depart="226.00" arrival="525.00">
        <route edges="0/1to1/1 1/1to2/1 2/1to3/1 3/1to4/1"/>
    </vehicle>

    <vehicle id="84" depart="253.00" arrival="530.00">
        <routeDistribution>
            <route replacedOnEdge="4/0to3/0" replacedOnIndex="1" reason="device.rerouting" replacedAtTime="313.00" probability="0" edges="4/1to4/0 4/0to3/0 3/0to3/1 3/1to2/1 2/1to3/1"/>
            <route edges="4/1to4/0 4/0to3/0 3/0to3/1 3/1to2/1 2/1to3/1"/>
        </routeDistribution>
    </vehicle>

    <vehicle id="79" depart="255.00" arrival="532.00">
        <routeDistribution>
            <route replacedOnEdge="4/0to3/0" replacedOnIndex="1" reason="device.rerouting" replacedAtTime="345.00" probability="0" edges="3/0to4/0 4/0to3/0 3/0to3/1 3/1to2/1 2/1to2/0"/>
            <route edges="3/0to4/0 4/0to3/0 3/0to3/1 3/1to2/1 2/1to2/0"/>
        </routeDistribution>
    </vehicle>

    <vehicle id="46" depart="232.00" arrival="538.00">
        <routeDistribution>
            <route replacedOnEdge="3/0to4/0" reason="device.rerouting" replacedAtTime="262.00" probability="0" edges="3/0to4/0 4/0to4/1 4/1to4/2 4/2to3/2 3/2to2/2 2/2to1/2 1/2to2/2"/>
            <route edges="3/0to4/0 4/0to4/1 4/1to4/2 4/2to3/2 3/2to2/2 2/2to1/2 1/2to2/2"/>
        </routeDistribution>
    </vehicle>

    <vehicle id="60" depart="271.00" arrival="539.00">
        <routeDistribution>
            <route replacedOnEdge="2/0to2/1" reason="device.rerouting" replacedAtTime="331.00" probability="0" edges="2/0to2/1 2/1to3/1 3/1to4/1 4/1to4/0 4/0to4/1"/>
            <route edges="2/0to2/1 2/1to3/1 3/1to4/1 4/1to4/0 4/0to4/1"/>
        </routeDistribution>
    </vehicle>

    <vehicle id="72" depart="302.00" arrival="542.00">
        <route edges="1/1to0/1 0/1to1/1 1/1to1/0 1/0to2/0 2/0to1/0"/>
    </vehicle>

    <vehicle id="13" depart="197.00" arrival="546.00">
        <routeDistribution>
            <route replacedOnEdge="1/2to1/1" reason="device.rerouting" replacedAtTime="227.00" probability="0" edges="1/2to1/1 1/1to1/2 1/2to2/2 2/2to3/2 3/2to4/2 4/2to4/1"/>
            <route edges="1/2to1/1 1/1to1/2 1/2to2/2 2/2to3/2 3/2to4/2 4/2to4/1"/>
        </routeDistribution>
    </vehicle>

    <vehicle id="67" depart="170.00" arrival="559.00">
        <routeDistribution>
            <route replacedOnEdge="3/1to2/1" replacedOnIndex="2" reason="device.rerouting" replacedAtTime="320.00" probability="0" edges="4/0to4/1 4/1to3/1 3/1to2/1 2/1to1/1 1/1to0/1 0/1to0/2"/>
            <route edges="4/0to4/1 4/1to3/1 3/1to2/1 2/1to1/1 1/1to0/1 0/1to0/2"/>
        </routeDistribution>
    </vehicle>

    <vehicle id="58" depart="314.00" arrival="563.00">
        <route edges="2/0to1/0 1/0to1/1 1/1to0/1 0/1to1/1"/>
    </vehicle>

    <vehicle id="31" depart="103.00" arrival="572.00">
        <routeDistribution>
            <route replacedOnEdge="1/0to0/0" reason="device.rerouting" replacedAtTime="133.00" probability="0" edges="1/0to0/0 0/0to0/1 0/1to1/1 1/1to2/1 2/1to3/1 3/1to4/1 4/1to4/2"/>
            <route edges="1/0to0/0 0/0to0/1 0/1to1/1 1/1to2/1 2/1to3/1 3/1to4/1 4/1to4/2"/>
        </routeDistribution>
    </vehicle>

    <vehicle id="40" depart="231.00" arrival="587.00">
        <routeDistribution>
            <route replacedOnEdge="0/2to0/1" reason="device.rerouting" replacedAtTime="291.00" probability="0" edges="0/2to0/1 0/1to1/1 1/1to1/0 1/0to2/0 2/0to3/0 3/0to4/0"/>
            <route edges="0/2to0/1 0/1to1/1 1/1to1/0 1/0to2/0 2/0to3/0 3/0to4/0"/>
        </routeDistribution>
    </vehicle>

    <vehicle id="97" depart="279.00" arrival="587.00">
        <route edges="0/0to0/1 0/1to0/0 0/0to1/0 1/0to2/0 2/0to3/0 3/0to2/0"/>
    </vehicle>

    <vehicle id="61" depart="313.00" arrival="587.00">
        <route edges="0/1to0/0 0/0to1/0 1/0to2/0 2/0to3/0 3/0to3/1"/>
    </vehicle>

    <vehicle id="62" depart="199.00" arrival="588.00">
        <routeDistribution>
            <route replacedOnEdge="3/0to3/1" reason="device.rerouting" replacedAtTime="259.00" probability="0" edges="3/0to3/1 3/1to3/0 3/0to2/0 2/0to1/0 1/0to0/0 0/0to0/1 0/1to0/0"/>
            <route replacedOnEdge="3/0to2/0" replacedOnIndex="2" reason="device.rerouting" replacedAtTime="349.00" probability="0" edges="3/0to3/1 3/1to3/0 3/0to2/0 2/0to1/0 1/0to0/0 0/0to0/1 0/1to0/0"/>
            <route edges="3/0to3/1 3/1to3/0 3/0to2/0 2/0to1/0 1/0to0/0 0/0to0/1 0/1to0/0"/>
        </routeDistribution>
    </vehicle>

    <vehicle id="90" depart="347.00" arrival="592.00">
        <route edges="0/0to1/0 1/0to0/0 0/0to0/1 0/1to0/2"/>
    </vehicle>

    <vehicle id="41" depart="135.00" arrival="593.00">
        <routeDistribution>
            <route replacedOnEdge="4/1to4/2" reason="device.rerouting" replacedAtTime="165.00" probability="0" edges="4/1to4/2 4/2to4/1 4/1to4/0 4/0to3/0 3/0to2/0 2/0to1/0 1/0to0/0"/>
            <route replacedOnEdge="4/2to4/1" replacedOnIndex="1" reason="device.rerouting" replacedAtTime="225.00" probability="0" edges="4/1to4/2 4/2to4/1 4/1to4/0 4/0to3/0 3/0to2/0 2/0to1/0 1/0to0/0"/>
            <route edges="4/1to4/2 4/2to4/1 4/1to4/0 4/0to3/0 3/0to2/0 2/0to1/0 1/0to0/0"/>
        </routeDistribution>
    </vehicle>

    <vehicle id="94" depart="302.00" arrival="596.00">
        <routeDistribution>
            <route replacedOnEdge="1/1to1/0" reason="device.rerouting" replacedAtTime="332.00" probability="0" edges="1/1to1/0 1/0to1/1 1/1to1/2 1/2to0/2 0/2to0/1"/>
            <route edges="1/1to1/0 1/0to1/1 1/1to1/2 1/2to0/2 0/2to0/1"/>
        </routeDistribution>
    </vehicle>

    <vehicle id="99" depart="407.00" arrival="599.00">
        <route edges="2/1to3/1 3/1to2/1 2/1to2/2"/>
    </vehicle>

    <vehicle id="69" depart="341.00" arrival="605.00">
        <routeDistribution>
            <route replacedOnEdge="1/1to2/1" replacedOnIndex="1" reason="device.rerouting" replacedAtTime="431.00" probability="0" edges="0/1to1/1 1/1to2/1 2/1to2/0 2/0to3/0 3/0to3/1"/>
            <route edges="0/1to1/1 1/1to2/1 2/1to2/0 2/0to3/0 3/0to3/1"/>
        </routeDistribution>
    </vehicle>

    <vehicle id="87" depart="310.00" arrival="625.00">
        <route edges="0/1to0/0 0/0to1/0 1/0to2/0 2/0to3/0 3/0to4/0 4/0to3/0"/>
    </vehicle>

    <vehicle id="81" depart="324.00" arrival="645.00">
        <route edges="0/1to0/0 0/0to1/0 1/0to2/0 2/0to3/0 3/0to3/1 3/1to3/2"/>
    </vehicle>

    <vehicle id="83" depart="353.00" arrival="652.00">
        <route edges="0/1to0/0 0/0to1/0 1/0to2/0 2/0to2/1 2/1to1/1"/>
    </vehicle>

    <vehicle id="23" depart="305.00" arrival="683.00">
        <route edges="3/1to4/1 4/1to4/2 4/2to3/2 3/2to2/2 2/2to1/2 1/2to0/2"/>
    </vehicle>

    <vehicle id="92" depart="474.00" arrival="685.00">
        <route edges="1/1to2/1 2/1to1/1 1/1to1/0"/>
    </vehicle>

    <vehicle id="88" depart="311.00" arrival="686.00">
        <routeDistribution>
            <route replacedOnEdge="2/0to1/0" reason="device.rerouting" replacedAtTime="341.00" probability="0" edges="2/0to1/0 1/0to1/1 1/1to2/1 2/1to2/0 2/0to3/0 3/0to3/1 3/1to4/1 4/1to4/2"/>
            <route replacedOnEdge="1/1to2/1" replacedOnIndex="2" reason="device.rerouting" replacedAtTime="461.00" probability="0" edges="2/0to1/0 1/0to1/1 1/1to2/1 2/1to2/0 2/0to3/0 3/0to3/1 3/1to4/1 4/1to4/2"/>
            <route replacedOnEdge="2/0to3/0" replacedOnIndex="4" reason="device.rerouting" replacedAtTime="521.00" probability="0" edges="2/0to1/0 1/0to1/1 1/1to2/1 2/1to2/0 2/0to3/0 3/0to3/1 3/1to4/1 4/1to4/2"/>
            <route edges="2/0to1/0 1/0to1/1 1/1to2/1 2/1to2/0 2/0to3/0 3/0to4/0 4/0to4/1 4/1to4/2"/>
        </routeDistribution>
    </vehicle>

    <vehicle id="57" depart="431.00" arrival="688.00">
        <routeDistribution>
            <route replacedOnEdge="1/1to0/1" reason="device.rerouting" replacedAtTime="431.00" probability="0" edges="1/1to0/1 0/1to1/1 1/1to2/1 2/1to1/1"/>
            <route edges="1/1to0/1 0/1to1/1 1/1to2/1 2/1to1/1"/>
        </routeDistribution>
    </vehicle>

    <vehicle id="93" depart="389.00" arrival="691.00">
        <routeDistribution>
            <route replacedOnEdge="4/0to3/0" replacedOnIndex="1" reason="device.rerouting" replacedAtTime="449.00" probability="0" edges="3/0to4/0 4/0to3/0 3/0to2/0 2/0to1/0 1/0to1/1 1/1to2/1"/>
            <route replacedOnEdge="3/0to2/0" replacedOnIndex="2" reason="device.rerouting" replacedAtTime="509.00" probability="0" edges="3/0to4/0 4/0to3/0 3/0to2/0 2/0to1/0 1/0to1/1 1/1to2/1"/>
            <route edges="3/0to4/0 4/0to3/0 3/0to2/0 2/0to2/1 2/1to1/1 1/1to2/1"/>
        </routeDistribution>
    </vehicle>

    <vehicle id="21" depart="213.00" arrival="717.00">
        <routeDistribution>
            <route replacedOnEdge="4/0to4/1" replacedOnIndex="1" reason="device.rerouting" replacedAtTime="273.00" probability="0" edges="3/0to4/0 4/0to4/1 4/1to3/1 3/1to2/1 2/1to2/2 2/2to1/2 1/2to0/2 0/2to0/1"/>
            <route replacedOnEdge="4/1to3/1" replacedOnIndex="2" reason="device.rerouting" replacedAtTime="333.00" probability="0" edges="3/0to4/0 4/0to4/1 4/1to3/1 3/1to2/1 2/1to2/2 2/2to1/2 1/2to0/2 0/2to0/1"/>
            <route replacedOnEdge="3/1to2/1" replacedOnIndex="3" reason="device.rerouting" replacedAtTime="423.00" probability="0" edges="3/0to4/0 4/0to4/1 4/1to3/1 3/1to2/1 2/1to2/2 2/2to1/2 1/2to0/2 0/2to0/1"/>
            <route edges="3/0to4/0 4/0to4/1 4/1to3/1 3/1to2/1 2/1to2/2 2/2to1/2 1/2to0/2 0/2to0/1"/>
        </routeDistribution>
    </vehicle>

    <vehicle id="65" depart="305.00" arrival="723.00">
        <routeDistribution>
            <route replacedOnEdge="2/1to3/1" reason="device.rerouting" replacedAtTime="305.00" probability="0" edges="2/1to3/1 3/1to2/1 2/1to2/2 2/2to1/2 1/2to0/2 0/2to1/2"/>
            <route replacedOnEdge="2/1to3/1" reason="device.rerouting" replacedAtTime="365.00" probability="0" edges="2/1to3/1 3/1to2/1 2/1to2/2 2/2to1/2 1/2to0/2 0/2to1/2"/>
            <route replacedOnEdge="3/1to2/1" replacedOnIndex="1" reason="device.rerouting" replacedAtTime="425.00" probability="0" edges="2/1to3/1 3/1to2/1 2/1to2/2 2/2to1/2 1/2to0/2 0/2to1/2"/>
            <route edges="2/1to3/1 3/1to2/1 2/1to2/2 2/2to1/2 1/2to0/2 0/2to1/2"/>
        </routeDistribution>
    </vehicle>

    <vehicle id="77" depart="474.00" arrival="762.00">
        <routeDistribution>
            <route replacedOnEdge="1/1to1/2" reason="device.rerouting" replacedAtTime="504.00" probability="0" edges="1/1to1/2 1/2to2/2 2/2to2/1 2/1to3/1 3/1to2/1"/>
            <route replacedOnEdge="1/2to2/2" replacedOnIndex="1" reason="device.rerouting" replacedAtTime="534.00" probability="0" edges="1/1to1/2 1/2to2/2 2/2to3/2 3/2to3/1 3/1to2/1"/>
            <route replacedOnEdge="1/2to2/2" replacedOnIndex="1" reason="device.rerouting" replacedAtTime="564.00" probability="0" edges="1/1to1/2 1/2to2/2 2/2to2/1 2/1to3/1 3/1to2/1"/>
            <route edges="1/1to1/2 1/2to2/2 2/2to3/2 3/2to3/1 3/1to2/1"/>
        </routeDistribution>
    </vehicle>

    <vehicle id="70" depart="404.00" arrival="814.00">
        <routeDistribution>
            <route replacedOnEdge="2/1to3/1" reason="device.rerouting" replacedAtTime="464.00" probability="0" edges="2/1to3/1 3/1to3/2 3/2to2/2 2/2to1/2 1/2to1/1 1/1to1/0 1/0to0/0 0/0to0/1"/>
            <route replacedOnEdge="3/1to3/2" replacedOnIndex="1" reason="device.rerouting" replacedAtTime="524.00" probability="0" edges="2/1to3/1 3/1to3/2 3/2to2/2 2/2to1/2 1/2to1/1 1/1to1/0 1/0to0/0 0/0to0/1"/>
            <route replacedOnEdge="3/2to2/2" replacedOnIndex="2" reason="device.rerouting" replacedAtTime="554.00" probability="0" edges="2/1to3/1 3/1to3/2 3/2to2/2 2/2to1/2 1/2to0/2 0/2to0/1 0/1to0/0 0/0to0/1"/>
            <route replacedOnEdge="2/2to2/1" replacedOnIndex="3" reason="device.rerouting" replacedAtTime="584.00" probability="0" edges="2/1to3/1 3/1to3/2 3/2to2/2 2/2to2/1 2/1to2/0 2/0to1/0 1/0to0/0 0/0to0/1"/>
            <route replacedOnEdge="2/2to2/1" replacedOnIndex="3" reason="device.rerouting" replacedAtTime="614.00" probability="0" edges="2/1to3/1 3/1to3/2 3/2to2/2 2/2to2/1 2/1to1/1 1/1to1/0 1/0to0/0 0/0to0/1"/>
            <route edges="2/1to3/1 3/1to3/2 3/2to2/2 2/2to2/1 2/1to2/0 2/0to1/0 1/0to0/0 0/0to0/1"/>
        </routeDistribution>
    </vehicle>

</routes>
