<?xml version="1.0" encoding="UTF-8"?>

<!-- generated on Tue Sep  1 21:18:45 2020 by Eclipse SUMO sumo Version v1_6_0+1894-be791e0c5a
This data file and the accompanying materials
are made available under the terms of the Eclipse Public License v2.0
which accompanies this distribution, and is available at
http://www.eclipse.org/legal/epl-v20.html
SPDX-License-Identifier: EPL-2.0
<configuration xmlns:xsi="http://www.w3.org/2001/XMLSchema-instance" xsi:noNamespaceSchemaLocation="http://sumo.dlr.de/xsd/sumoConfiguration.xsd">

    <input>
        <net-file value="net.net.xml"/>
        <route-files value="input_routes.rou.xml"/>
        <additional-files value="input_additional.add.xml"/>
    </input>

    <output>
        <write-license value="true"/>
        <tripinfo-output value="tripinfos.xml"/>
        <railsignal-block-output value="railsignal_blocks.xml"/>
    </output>

    <processing>
        <default.speeddev value="0"/>
    </processing>

    <report>
        <xml-validation value="never"/>
        <xml-validation.routes value="never"/>
        <duration-log.disable value="true"/>
        <no-step-log value="true"/>
    </report>

</configuration>
-->

<tripinfos xmlns:xsi="http://www.w3.org/2001/XMLSchema-instance" xsi:noNamespaceSchemaLocation="http://sumo.dlr.de/xsd/tripinfo_file.xsd">
    <tripinfo id="t1" depart="0.00" departLane="d_0" departPos="50.10" departSpeed="13.89" departDelay="0.00" arrival="65.00" arrivalLane="c_0" arrivalPos="400.00" arrivalSpeed="13.89" duration="65.00" routeLength="891.19" waitingTime="0.00" waitingCount="0" stopTime="0.00" timeLoss="0.00" rerouteNo="1" devices="tripinfo_t1 routing_t1" vType="train" speedFactor="1.00" vaporized=""/>
    <tripinfo id="t2" depart="100.00" departLane="d_0" departPos="50.10" departSpeed="13.89" departDelay="0.00" arrival="165.00" arrivalLane="c_0" arrivalPos="400.00" arrivalSpeed="13.89" duration="65.00" routeLength="891.19" waitingTime="0.00" waitingCount="0" stopTime="0.00" timeLoss="0.00" rerouteNo="1" devices="tripinfo_t2 routing_t2" vType="train" speedFactor="1.00" vaporized=""/>
    <tripinfo id="t3" depart="200.00" departLane="d_0" departPos="50.10" departSpeed="13.89" departDelay="0.00" arrival="265.00" arrivalLane="c_0" arrivalPos="400.00" arrivalSpeed="13.89" duration="65.00" routeLength="891.19" waitingTime="0.00" waitingCount="0" stopTime="0.00" timeLoss="0.00" rerouteNo="1" devices="tripinfo_t3 routing_t3" vType="train" speedFactor="1.00" vaporized=""/>
    <tripinfo id="t0" depart="0.00" departLane="a_0" departPos="50.10" departSpeed="13.89" departDelay="0.00" arrival="329.00" arrivalLane="c_0" arrivalPos="400.00" arrivalSpeed="13.89" duration="329.00" routeLength="849.90" waitingTime="235.00" waitingCount="1" stopTime="0.00" timeLoss="267.16" rerouteNo="1" devices="tripinfo_t0 routing_t0" vType="train" speedFactor="1.00" vaporized=""/>
</tripinfos>
