<?xml version="1.0" encoding="UTF-8"?>

<!-- generated on 2024-06-26 13:47:06 by Eclipse SUMO sumo Version v1_20_0+0840-6edfc792969
<sumoConfiguration xmlns:xsi="http://www.w3.org/2001/XMLSchema-instance" xsi:noNamespaceSchemaLocation="http://sumo.dlr.de/xsd/sumoConfiguration.xsd">

    <input>
        <net-file value="input_net4.net.xml"/>
        <route-files value="input_routes.rou.xml"/>
    </input>

    <output>
        <tripinfo-output value="tripinfos.xml"/>
        <vehroute-output value="vehroutes.xml"/>
        <stop-output value="stops.xml"/>
    </output>

    <report>
        <no-step-log value="true"/>
    </report>

    <taxi_device>
        <device.taxi.dispatch-algorithm value="traci"/>
    </taxi_device>

    <traci_server>
        <remote-port value="49987"/>
    </traci_server>

</sumoConfiguration>
-->

<stops xmlns:xsi="http://www.w3.org/2001/XMLSchema-instance" xsi:noNamespaceSchemaLocation="http://sumo.dlr.de/xsd/stopinfo_file.xsd">
    <stopinfo id="taxi_0" type="taxi" lane="A1B1_0" pos="4.97" parking="1" started="13.00" ended="14.00" initialPersons="0" loadedPersons="1" unloadedPersons="0" initialContainers="0" loadedContainers="0" unloadedContainers="0"/>
    <stopinfo id="taxi_0" type="taxi" lane="D2D3_0" pos="92.10" parking="1" started="61.00" ended="122.00" initialPersons="1" loadedPersons="0" unloadedPersons="1" initialContainers="0" loadedContainers="0" unloadedContainers="0"/>
    <stopinfo id="taxi_0" type="taxi" lane="B1C1_0" pos="4.99" parking="1" started="160.00" ended="161.00" initialPersons="0" loadedPersons="1" unloadedPersons="0" initialContainers="0" loadedContainers="0" unloadedContainers="0"/>
    <stopinfo id="taxi_0" type="taxi" lane="C1D1_0" pos="50.00" parking="1" started="182.00" ended="242.00" initialPersons="1" loadedPersons="1" unloadedPersons="1" initialContainers="0" loadedContainers="0" unloadedContainers="0"/>
</stops>
