<?xml version="1.0" encoding="UTF-8"?>

<!-- generated on Fri Jun  3 17:08:38 2016 by SUMO Version dev-SVN-r20868
<?xml version="1.0" encoding="UTF-8"?>

<configuration xmlns:xsi="http://www.w3.org/2001/XMLSchema-instance" xsi:noNamespaceSchemaLocation="http://sumo.dlr.de/xsd/sumoConfiguration.xsd">

    <input>
        <net-file value="net.net.xml"/>
        <route-files value="input_routes.rou.xml"/>
    </input>

    <output>
        <tripinfo-output value="tripinfos.xml"/>
        <vehroute-output value="vehroutes.xml"/>
    </output>

    <routing>
        <routing-algorithm value="astar"/>
        <device.rerouting.probability value="1"/>
        <device.rerouting.period value="240"/>
        <device.rerouting.adaptation-interval value="1"/>
    </routing>

    <report>
        <xml-validation value="never"/>
        <no-step-log value="true"/>
    </report>

</configuration>
-->

<tripinfos xmlns:xsi="http://www.w3.org/2001/XMLSchema-instance" xsi:noNamespaceSchemaLocation="http://sumo.dlr.de/xsd/tripinfo_file.xsd">
    <tripinfo id="type1.0" depart="0.00" departLane="gneE0_0" departPos="5.10" departSpeed="0.00" departDelay="0.00" arrival="116.00" arrivalLane="gneE1_1" arrivalPos="100.00" arrivalSpeed="13.89" duration="116.00" routeLength="985.35" waitSteps="33" timeLoss="43.78" rerouteNo="1" devices="vehroute_type1.0 tripinfo_type1.0 routing_type1.0" vType="car" vaporized=""/>
    <tripinfo id="type1.7" depart="15.00" departLane="gneE0_0" departPos="5.10" departSpeed="0.00" departDelay="8.00" arrival="117.00" arrivalLane="gneE1_1" arrivalPos="100.00" arrivalSpeed="13.89" duration="102.00" routeLength="992.56" waitSteps="21" timeLoss="29.98" rerouteNo="2" devices="vehroute_type1.7 tripinfo_type1.7 routing_type1.7" vType="car" vaporized=""/>
    <tripinfo id="type1.1" depart="3.00" departLane="gneE0_0" departPos="5.10" departSpeed="0.00" departDelay="2.00" arrival="186.00" arrivalLane="gneE1_1" arrivalPos="100.00" arrivalSpeed="13.89" duration="183.00" routeLength="985.35" waitSteps="90" timeLoss="110.71" rerouteNo="1" devices="vehroute_type1.1 tripinfo_type1.1 routing_type1.1" vType="car" vaporized=""/>
    <tripinfo id="type1.2" depart="5.00" departLane="gneE0_0" departPos="5.10" departSpeed="0.00" departDelay="3.00" arrival="187.00" arrivalLane="gneE1_1" arrivalPos="100.00" arrivalSpeed="13.89" duration="182.00" routeLength="985.35" waitSteps="82" timeLoss="110.17" rerouteNo="1" devices="vehroute_type1.2 tripinfo_type1.2 routing_type1.2" vType="car" vaporized=""/>
    <tripinfo id="type1.3" depart="7.00" departLane="gneE0_0" departPos="5.10" departSpeed="0.00" departDelay="4.00" arrival="189.00" arrivalLane="gneE1_1" arrivalPos="100.00" arrivalSpeed="13.89" duration="182.00" routeLength="985.35" waitSteps="81" timeLoss="109.56" rerouteNo="1" devices="vehroute_type1.3 tripinfo_type1.3 routing_type1.3" vType="car" vaporized=""/>
    <tripinfo id="type1.4" depart="9.00" departLane="gneE0_0" departPos="5.10" departSpeed="0.00" departDelay="5.00" arrival="190.00" arrivalLane="gneE1_1" arrivalPos="100.00" arrivalSpeed="13.89" duration="181.00" routeLength="985.35" waitSteps="81" timeLoss="109.04" rerouteNo="1" devices="vehroute_type1.4 tripinfo_type1.4 routing_type1.4" vType="car" vaporized=""/>
    <tripinfo id="type1.5" depart="11.00" departLane="gneE0_0" departPos="5.10" departSpeed="0.00" departDelay="6.00" arrival="191.00" arrivalLane="gneE1_1" arrivalPos="100.00" arrivalSpeed="13.89" duration="180.00" routeLength="985.35" waitSteps="79" timeLoss="108.46" rerouteNo="1" devices="vehroute_type1.5 tripinfo_type1.5 routing_type1.5" vType="car" vaporized=""/>
    <tripinfo id="type1.6" depart="13.00" departLane="gneE0_0" departPos="5.10" departSpeed="0.00" departDelay="7.00" arrival="193.00" arrivalLane="gneE1_1" arrivalPos="100.00" arrivalSpeed="13.89" duration="180.00" routeLength="985.35" waitSteps="79" timeLoss="107.84" rerouteNo="1" devices="vehroute_type1.6 tripinfo_type1.6 routing_type1.6" vType="car" vaporized=""/>
    <tripinfo id="type1.8" depart="18.00" departLane="gneE0_0" departPos="5.10" departSpeed="0.00" departDelay="10.00" arrival="194.00" arrivalLane="gneE1_1" arrivalPos="100.00" arrivalSpeed="13.89" duration="176.00" routeLength="992.56" waitSteps="85" timeLoss="104.08" rerouteNo="2" devices="vehroute_type1.8 tripinfo_type1.8 routing_type1.8" vType="car" vaporized=""/>
    <tripinfo id="type1.9" depart="21.00" departLane="gneE0_0" departPos="5.10" departSpeed="0.00" departDelay="12.00" arrival="196.00" arrivalLane="gneE1_1" arrivalPos="100.00" arrivalSpeed="13.89" duration="175.00" routeLength="992.56" waitSteps="82" timeLoss="102.50" rerouteNo="2" devices="vehroute_type1.9 tripinfo_type1.9 routing_type1.9" vType="car" vaporized=""/>
    <tripinfo id="type1.10" depart="24.00" departLane="gneE0_0" departPos="5.10" departSpeed="0.00" departDelay="14.00" arrival="197.00" arrivalLane="gneE1_1" arrivalPos="100.00" arrivalSpeed="13.89" duration="173.00" routeLength="992.56" waitSteps="80" timeLoss="100.98" rerouteNo="2" devices="vehroute_type1.10 tripinfo_type1.10 routing_type1.10" vType="car" vaporized=""/>
    <tripinfo id="type1.11" depart="27.00" departLane="gneE0_0" departPos="5.10" departSpeed="0.00" departDelay="16.00" arrival="199.00" arrivalLane="gneE1_1" arrivalPos="100.00" arrivalSpeed="13.89" duration="172.00" routeLength="992.56" waitSteps="75" timeLoss="99.41" rerouteNo="1" devices="vehroute_type1.11 tripinfo_type1.11 routing_type1.11" vType="car" vaporized=""/>
    <tripinfo id="type1.19" depart="51.00" departLane="gneE0_0" departPos="5.10" departSpeed="0.00" departDelay="32.00" arrival="200.00" arrivalLane="gneE1_1" arrivalPos="100.00" arrivalSpeed="13.89" duration="149.00" routeLength="996.75" waitSteps="58" timeLoss="76.76" rerouteNo="5" devices="vehroute_type1.19 tripinfo_type1.19 routing_type1.19" vType="car" vaporized=""/>
    <tripinfo id="type1.20" depart="54.00" departLane="gneE0_0" departPos="5.10" departSpeed="0.00" departDelay="34.00" arrival="201.00" arrivalLane="gneE1_1" arrivalPos="100.00" arrivalSpeed="13.89" duration="147.00" routeLength="996.75" waitSteps="56" timeLoss="75.18" rerouteNo="5" devices="vehroute_type1.20 tripinfo_type1.20 routing_type1.20" vType="car" vaporized=""/>
    <tripinfo id="type1.21" depart="56.00" departLane="gneE0_0" departPos="5.10" departSpeed="0.00" departDelay="35.00" arrival="203.00" arrivalLane="gneE1_1" arrivalPos="100.00" arrivalSpeed="13.89" duration="147.00" routeLength="996.75" waitSteps="56" timeLoss="74.65" rerouteNo="5" devices="vehroute_type1.21 tripinfo_type1.21 routing_type1.21" vType="car" vaporized=""/>
    <tripinfo id="type1.22" depart="58.00" departLane="gneE0_0" departPos="5.10" departSpeed="0.00" departDelay="36.00" arrival="204.00" arrivalLane="gneE1_1" arrivalPos="100.00" arrivalSpeed="13.89" duration="146.00" routeLength="996.75" waitSteps="54" timeLoss="74.07" rerouteNo="5" devices="vehroute_type1.22 tripinfo_type1.22 routing_type1.22" vType="car" vaporized=""/>
    <tripinfo id="type1.23" depart="60.00" departLane="gneE0_0" departPos="5.10" departSpeed="0.00" departDelay="37.00" arrival="206.00" arrivalLane="gneE1_1" arrivalPos="100.00" arrivalSpeed="13.89" duration="146.00" routeLength="996.75" waitSteps="54" timeLoss="73.47" rerouteNo="5" devices="vehroute_type1.23 tripinfo_type1.23 routing_type1.23" vType="car" vaporized=""/>
    <tripinfo id="type1.24" depart="62.00" departLane="gneE0_0" departPos="5.10" departSpeed="0.00" departDelay="38.00" arrival="207.00" arrivalLane="gneE1_1" arrivalPos="100.00" arrivalSpeed="13.89" duration="145.00" routeLength="996.75" waitSteps="52" timeLoss="72.94" rerouteNo="5" devices="vehroute_type1.24 tripinfo_type1.24 routing_type1.24" vType="car" vaporized=""/>
    <tripinfo id="type1.25" depart="64.00" departLane="gneE0_0" departPos="5.10" departSpeed="0.00" departDelay="39.00" arrival="209.00" arrivalLane="gneE1_1" arrivalPos="100.00" arrivalSpeed="13.89" duration="145.00" routeLength="996.75" waitSteps="52" timeLoss="72.35" rerouteNo="5" devices="vehroute_type1.25 tripinfo_type1.25 routing_type1.25" vType="car" vaporized=""/>
    <tripinfo id="type1.26" depart="66.00" departLane="gneE0_0" departPos="5.10" departSpeed="0.00" departDelay="40.00" arrival="210.00" arrivalLane="gneE1_1" arrivalPos="100.00" arrivalSpeed="13.89" duration="144.00" routeLength="996.75" waitSteps="50" timeLoss="71.80" rerouteNo="1" devices="vehroute_type1.26 tripinfo_type1.26 routing_type1.26" vType="car" vaporized=""/>
    <tripinfo id="type1.27" depart="67.00" departLane="gneE0_0" departPos="5.10" departSpeed="0.00" departDelay="40.00" arrival="211.00" arrivalLane="gneE1_1" arrivalPos="100.00" arrivalSpeed="13.89" duration="144.00" routeLength="996.75" waitSteps="47" timeLoss="72.22" rerouteNo="1" devices="vehroute_type1.27 tripinfo_type1.27 routing_type1.27" vType="car" vaporized=""/>
    <tripinfo id="type1.35" depart="83.00" departLane="gneE0_0" departPos="5.10" departSpeed="0.00" departDelay="48.00" arrival="214.00" arrivalLane="gneE1_1" arrivalPos="100.00" arrivalSpeed="13.89" duration="131.00" routeLength="996.75" waitSteps="43" timeLoss="59.10" rerouteNo="1" devices="vehroute_type1.35 tripinfo_type1.35 routing_type1.35" vType="car" vaporized=""/>
    <tripinfo id="type1.36" depart="86.00" departLane="gneE0_0" departPos="5.10" departSpeed="0.00" departDelay="50.00" arrival="220.00" arrivalLane="gneE1_0" arrivalPos="100.00" arrivalSpeed="13.89" duration="134.00" routeLength="998.85" waitSteps="43" timeLoss="61.15" rerouteNo="2" devices="vehroute_type1.36 tripinfo_type1.36 routing_type1.36" vType="car" vaporized=""/>
    <tripinfo id="type1.17" depart="45.00" departLane="gneE0_0" departPos="5.10" departSpeed="0.00" departDelay="28.00" arrival="230.00" arrivalLane="gneE1_0" arrivalPos="100.00" arrivalSpeed="13.89" duration="185.00" routeLength="984.27" waitSteps="88" timeLoss="112.87" rerouteNo="4" devices="vehroute_type1.17 tripinfo_type1.17 routing_type1.17" vType="car" vaporized=""/>
    <tripinfo id="type1.18" depart="48.00" departLane="gneE0_0" departPos="5.10" departSpeed="0.00" departDelay="30.00" arrival="231.00" arrivalLane="gneE1_0" arrivalPos="100.00" arrivalSpeed="13.89" duration="183.00" routeLength="984.27" waitSteps="86" timeLoss="111.30" rerouteNo="4" devices="vehroute_type1.18 tripinfo_type1.18 routing_type1.18" vType="car" vaporized=""/>
    <tripinfo id="type1.42" depart="104.00" departLane="gneE0_0" departPos="5.10" departSpeed="0.00" departDelay="62.00" arrival="233.00" arrivalLane="gneE1_0" arrivalPos="100.00" arrivalSpeed="13.89" duration="129.00" routeLength="987.88" waitSteps="42" timeLoss="56.77" rerouteNo="5" devices="vehroute_type1.42 tripinfo_type1.42 routing_type1.42" vType="car" vaporized=""/>
    <tripinfo id="type1.43" depart="105.00" departLane="gneE0_0" departPos="5.10" departSpeed="0.00" departDelay="62.00" arrival="234.00" arrivalLane="gneE1_0" arrivalPos="100.00" arrivalSpeed="13.89" duration="129.00" routeLength="987.88" waitSteps="42" timeLoss="57.16" rerouteNo="5" devices="vehroute_type1.43 tripinfo_type1.43 routing_type1.43" vType="car" vaporized=""/>
    <tripinfo id="type1.44" depart="108.00" departLane="gneE0_0" departPos="5.10" departSpeed="0.00" departDelay="64.00" arrival="236.00" arrivalLane="gneE1_0" arrivalPos="100.00" arrivalSpeed="13.89" duration="128.00" routeLength="987.88" waitSteps="42" timeLoss="55.59" rerouteNo="5" devices="vehroute_type1.44 tripinfo_type1.44 routing_type1.44" vType="car" vaporized=""/>
    <tripinfo id="type1.45" depart="109.00" departLane="gneE0_0" departPos="5.10" departSpeed="0.00" departDelay="64.00" arrival="237.00" arrivalLane="gneE1_0" arrivalPos="100.00" arrivalSpeed="13.89" duration="128.00" routeLength="987.88" waitSteps="40" timeLoss="56.02" rerouteNo="5" devices="vehroute_type1.45 tripinfo_type1.45 routing_type1.45" vType="car" vaporized=""/>
    <tripinfo id="type1.46" depart="112.00" departLane="gneE0_0" departPos="5.10" departSpeed="0.00" departDelay="66.00" arrival="239.00" arrivalLane="gneE1_0" arrivalPos="100.00" arrivalSpeed="13.89" duration="127.00" routeLength="987.88" waitSteps="37" timeLoss="54.49" rerouteNo="5" devices="vehroute_type1.46 tripinfo_type1.46 routing_type1.46" vType="car" vaporized=""/>
    <tripinfo id="type1.61" depart="141.00" departLane="gneE0_0" departPos="5.10" departSpeed="0.00" departDelay="80.00" arrival="240.00" arrivalLane="gneE1_0" arrivalPos="100.00" arrivalSpeed="13.89" duration="99.00" routeLength="987.88" waitSteps="10" timeLoss="26.92" rerouteNo="5" devices="vehroute_type1.61 tripinfo_type1.61 routing_type1.61" vType="car" vaporized=""/>
    <tripinfo id="type1.47" depart="113.00" departLane="gneE0_0" departPos="5.10" departSpeed="0.00" departDelay="66.00" arrival="241.00" arrivalLane="gneE1_0" arrivalPos="100.00" arrivalSpeed="13.89" duration="128.00" routeLength="987.88" waitSteps="39" timeLoss="56.35" rerouteNo="5" devices="vehroute_type1.47 tripinfo_type1.47 routing_type1.47" vType="car" vaporized=""/>
    <tripinfo id="type1.63" depart="145.00" departLane="gneE0_0" departPos="5.10" departSpeed="0.00" departDelay="82.00" arrival="243.00" arrivalLane="gneE1_0" arrivalPos="100.00" arrivalSpeed="13.89" duration="98.00" routeLength="987.88" waitSteps="9" timeLoss="25.79" rerouteNo="5" devices="vehroute_type1.63 tripinfo_type1.63 routing_type1.63" vType="car" vaporized=""/>
    <tripinfo id="type1.48" depart="116.00" departLane="gneE0_0" departPos="5.10" departSpeed="0.00" departDelay="68.00" arrival="244.00" arrivalLane="gneE1_0" arrivalPos="100.00" arrivalSpeed="13.89" duration="128.00" routeLength="987.88" waitSteps="38" timeLoss="56.22" rerouteNo="5" devices="vehroute_type1.48 tripinfo_type1.48 routing_type1.48" vType="car" vaporized=""/>
    <tripinfo id="type1.12" depart="30.00" departLane="gneE0_0" departPos="5.10" departSpeed="0.00" departDelay="18.00" arrival="256.00" arrivalLane="gneE1_1" arrivalPos="100.00" arrivalSpeed="13.89" duration="226.00" routeLength="992.56" waitSteps="127" timeLoss="153.43" rerouteNo="1" devices="vehroute_type1.12 tripinfo_type1.12 routing_type1.12" vType="car" vaporized=""/>
    <tripinfo id="type1.13" depart="33.00" departLane="gneE0_0" departPos="5.10" departSpeed="0.00" departDelay="20.00" arrival="257.00" arrivalLane="gneE1_1" arrivalPos="100.00" arrivalSpeed="13.89" duration="224.00" routeLength="992.56" waitSteps="124" timeLoss="151.84" rerouteNo="1" devices="vehroute_type1.13 tripinfo_type1.13 routing_type1.13" vType="car" vaporized=""/>
    <tripinfo id="type1.14" depart="36.00" departLane="gneE0_0" departPos="5.10" departSpeed="0.00" departDelay="22.00" arrival="259.00" arrivalLane="gneE1_1" arrivalPos="100.00" arrivalSpeed="13.89" duration="223.00" routeLength="992.56" waitSteps="123" timeLoss="150.33" rerouteNo="3" devices="vehroute_type1.14 tripinfo_type1.14 routing_type1.14" vType="car" vaporized=""/>
    <tripinfo id="type1.15" depart="39.00" departLane="gneE0_0" departPos="5.10" departSpeed="0.00" departDelay="24.00" arrival="260.00" arrivalLane="gneE1_1" arrivalPos="100.00" arrivalSpeed="13.89" duration="221.00" routeLength="992.56" waitSteps="120" timeLoss="148.76" rerouteNo="3" devices="vehroute_type1.15 tripinfo_type1.15 routing_type1.15" vType="car" vaporized=""/>
    <tripinfo id="type1.16" depart="42.00" departLane="gneE0_0" departPos="5.10" departSpeed="0.00" departDelay="26.00" arrival="261.00" arrivalLane="gneE1_1" arrivalPos="100.00" arrivalSpeed="13.89" duration="219.00" routeLength="992.56" waitSteps="118" timeLoss="147.19" rerouteNo="3" devices="vehroute_type1.16 tripinfo_type1.16 routing_type1.16" vType="car" vaporized=""/>
    <tripinfo id="type1.37" depart="89.00" departLane="gneE0_0" departPos="5.10" departSpeed="0.00" departDelay="52.00" arrival="265.00" arrivalLane="gneE1_0" arrivalPos="100.00" arrivalSpeed="13.89" duration="176.00" routeLength="998.85" waitSteps="87" timeLoss="103.52" rerouteNo="2" devices="vehroute_type1.37 tripinfo_type1.37 routing_type1.37" vType="car" vaporized=""/>
    <tripinfo id="type1.28" depart="70.00" departLane="gneE0_0" departPos="5.10" departSpeed="0.00" departDelay="42.00" arrival="265.00" arrivalLane="gneE1_1" arrivalPos="100.00" arrivalSpeed="13.89" duration="195.00" routeLength="996.75" waitSteps="98" timeLoss="122.81" rerouteNo="1" devices="vehroute_type1.28 tripinfo_type1.28 routing_type1.28" vType="car" vaporized=""/>
    <tripinfo id="type1.40" depart="98.00" departLane="gneE0_0" departPos="5.10" departSpeed="0.00" departDelay="58.00" arrival="266.00" arrivalLane="gneE1_0" arrivalPos="100.00" arrivalSpeed="13.89" duration="168.00" routeLength="998.85" waitSteps="81" timeLoss="95.96" rerouteNo="4" devices="vehroute_type1.40 tripinfo_type1.40 routing_type1.40" vType="car" vaporized=""/>
    <tripinfo id="type1.29" depart="71.00" departLane="gneE0_0" departPos="5.10" departSpeed="0.00" departDelay="42.00" arrival="267.00" arrivalLane="gneE1_1" arrivalPos="100.00" arrivalSpeed="13.89" duration="196.00" routeLength="996.75" waitSteps="97" timeLoss="123.20" rerouteNo="1" devices="vehroute_type1.29 tripinfo_type1.29 routing_type1.29" vType="car" vaporized=""/>
    <tripinfo id="type1.41" depart="101.00" departLane="gneE0_0" departPos="5.10" departSpeed="0.00" departDelay="60.00" arrival="268.00" arrivalLane="gneE1_0" arrivalPos="100.00" arrivalSpeed="13.89" duration="167.00" routeLength="998.85" waitSteps="78" timeLoss="94.39" rerouteNo="4" devices="vehroute_type1.41 tripinfo_type1.41 routing_type1.41" vType="car" vaporized=""/>
    <tripinfo id="type1.30" depart="74.00" departLane="gneE0_0" departPos="5.10" departSpeed="0.00" departDelay="44.00" arrival="268.00" arrivalLane="gneE1_1" arrivalPos="100.00" arrivalSpeed="13.89" duration="194.00" routeLength="996.75" waitSteps="96" timeLoss="121.63" rerouteNo="1" devices="vehroute_type1.30 tripinfo_type1.30 routing_type1.30" vType="car" vaporized=""/>
    <tripinfo id="type1.31" depart="75.00" departLane="gneE0_0" departPos="5.10" departSpeed="0.00" departDelay="44.00" arrival="269.00" arrivalLane="gneE1_1" arrivalPos="100.00" arrivalSpeed="13.89" duration="194.00" routeLength="996.75" waitSteps="95" timeLoss="122.05" rerouteNo="1" devices="vehroute_type1.31 tripinfo_type1.31 routing_type1.31" vType="car" vaporized=""/>
    <tripinfo id="type1.32" depart="78.00" departLane="gneE0_0" departPos="5.10" departSpeed="0.00" departDelay="46.00" arrival="271.00" arrivalLane="gneE1_1" arrivalPos="100.00" arrivalSpeed="13.89" duration="193.00" routeLength="996.75" waitSteps="95" timeLoss="120.53" rerouteNo="1" devices="vehroute_type1.32 tripinfo_type1.32 routing_type1.32" vType="car" vaporized=""/>
    <tripinfo id="type1.33" depart="79.00" departLane="gneE0_0" departPos="5.10" departSpeed="0.00" departDelay="46.00" arrival="272.00" arrivalLane="gneE1_1" arrivalPos="100.00" arrivalSpeed="13.89" duration="193.00" routeLength="996.75" waitSteps="95" timeLoss="120.97" rerouteNo="1" devices="vehroute_type1.33 tripinfo_type1.33 routing_type1.33" vType="car" vaporized=""/>
    <tripinfo id="type1.34" depart="82.00" departLane="gneE0_0" departPos="5.10" departSpeed="0.00" departDelay="48.00" arrival="274.00" arrivalLane="gneE1_1" arrivalPos="100.00" arrivalSpeed="13.89" duration="192.00" routeLength="996.75" waitSteps="95" timeLoss="119.36" rerouteNo="1" devices="vehroute_type1.34 tripinfo_type1.34 routing_type1.34" vType="car" vaporized=""/>
    <tripinfo id="type1.38" depart="92.00" departLane="gneE0_0" departPos="5.10" departSpeed="0.00" departDelay="54.00" arrival="310.00" arrivalLane="gneE1_0" arrivalPos="100.00" arrivalSpeed="13.89" duration="218.00" routeLength="984.27" waitSteps="126" timeLoss="145.84" rerouteNo="3" devices="vehroute_type1.38 tripinfo_type1.38 routing_type1.38" vType="car" vaporized=""/>
    <tripinfo id="type1.39" depart="95.00" departLane="gneE0_0" departPos="5.10" departSpeed="0.00" departDelay="56.00" arrival="311.00" arrivalLane="gneE1_0" arrivalPos="100.00" arrivalSpeed="13.89" duration="216.00" routeLength="984.27" waitSteps="124" timeLoss="144.28" rerouteNo="3" devices="vehroute_type1.39 tripinfo_type1.39 routing_type1.39" vType="car" vaporized=""/>
    <tripinfo id="type1.64" depart="148.00" departLane="gneE0_0" departPos="5.10" departSpeed="0.00" departDelay="84.00" arrival="313.00" arrivalLane="gneE1_0" arrivalPos="100.00" arrivalSpeed="13.89" duration="165.00" routeLength="987.88" waitSteps="65" timeLoss="92.76" rerouteNo="5" devices="vehroute_type1.64 tripinfo_type1.64 routing_type1.64" vType="car" vaporized=""/>
    <tripinfo id="type1.49" depart="117.00" departLane="gneE0_0" departPos="5.10" departSpeed="0.00" departDelay="68.00" arrival="314.00" arrivalLane="gneE1_0" arrivalPos="100.00" arrivalSpeed="13.89" duration="197.00" routeLength="987.88" waitSteps="95" timeLoss="125.15" rerouteNo="5" devices="vehroute_type1.49 tripinfo_type1.49 routing_type1.49" vType="car" vaporized=""/>
    <tripinfo id="type1.50" depart="120.00" departLane="gneE0_0" departPos="5.10" departSpeed="0.00" departDelay="70.00" arrival="316.00" arrivalLane="gneE1_0" arrivalPos="100.00" arrivalSpeed="13.89" duration="196.00" routeLength="987.88" waitSteps="94" timeLoss="123.58" rerouteNo="5" devices="vehroute_type1.50 tripinfo_type1.50 routing_type1.50" vType="car" vaporized=""/>
    <tripinfo id="type1.51" depart="121.00" departLane="gneE0_0" departPos="5.10" departSpeed="0.00" departDelay="70.00" arrival="317.00" arrivalLane="gneE1_0" arrivalPos="100.00" arrivalSpeed="13.89" duration="196.00" routeLength="987.88" waitSteps="94" timeLoss="123.97" rerouteNo="5" devices="vehroute_type1.51 tripinfo_type1.51 routing_type1.51" vType="car" vaporized=""/>
    <tripinfo id="type1.65" depart="151.00" departLane="gneE0_0" departPos="5.10" departSpeed="0.00" departDelay="86.00" arrival="319.00" arrivalLane="gneE1_0" arrivalPos="100.00" arrivalSpeed="13.89" duration="168.00" routeLength="987.88" waitSteps="70" timeLoss="95.87" rerouteNo="5" devices="vehroute_type1.65 tripinfo_type1.65 routing_type1.65" vType="car" vaporized=""/>
    <tripinfo id="type1.52" depart="124.00" departLane="gneE0_0" departPos="5.10" departSpeed="0.00" departDelay="72.00" arrival="325.00" arrivalLane="gneE1_0" arrivalPos="100.00" arrivalSpeed="13.89" duration="201.00" routeLength="987.88" waitSteps="94" timeLoss="128.79" rerouteNo="5" devices="vehroute_type1.52 tripinfo_type1.52 routing_type1.52" vType="car" vaporized=""/>
    <tripinfo id="type1.66" depart="154.00" departLane="gneE0_0" departPos="5.10" departSpeed="0.00" departDelay="88.00" arrival="326.00" arrivalLane="gneE1_0" arrivalPos="100.00" arrivalSpeed="13.89" duration="172.00" routeLength="987.88" waitSteps="67" timeLoss="100.22" rerouteNo="1" devices="vehroute_type1.66 tripinfo_type1.66 routing_type1.66" vType="car" vaporized=""/>
    <tripinfo id="type1.68" depart="160.00" departLane="gneE0_0" departPos="5.10" departSpeed="0.00" departDelay="92.00" arrival="328.00" arrivalLane="gneE1_0" arrivalPos="100.00" arrivalSpeed="13.89" duration="168.00" routeLength="987.88" waitSteps="61" timeLoss="95.65" rerouteNo="1" devices="vehroute_type1.68 tripinfo_type1.68 routing_type1.68" vType="car" vaporized=""/>
    <tripinfo id="type1.67" depart="157.00" departLane="gneE0_0" departPos="5.10" departSpeed="0.00" departDelay="90.00" arrival="329.00" arrivalLane="gneE1_0" arrivalPos="100.00" arrivalSpeed="13.89" duration="172.00" routeLength="987.88" waitSteps="70" timeLoss="100.09" rerouteNo="1" devices="vehroute_type1.67 tripinfo_type1.67 routing_type1.67" vType="car" vaporized=""/>
    <tripinfo id="type1.53" depart="125.00" departLane="gneE0_0" departPos="5.10" departSpeed="0.00" departDelay="72.00" arrival="331.00" arrivalLane="gneE1_0" arrivalPos="100.00" arrivalSpeed="13.89" duration="206.00" routeLength="987.88" waitSteps="99" timeLoss="133.51" rerouteNo="5" devices="vehroute_type1.53 tripinfo_type1.53 routing_type1.53" vType="car" vaporized=""/>
    <tripinfo id="type1.54" depart="128.00" departLane="gneE0_0" departPos="5.10" departSpeed="0.00" departDelay="74.00" arrival="332.00" arrivalLane="gneE1_0" arrivalPos="100.00" arrivalSpeed="13.89" duration="204.00" routeLength="987.88" waitSteps="98" timeLoss="131.99" rerouteNo="5" devices="vehroute_type1.54 tripinfo_type1.54 routing_type1.54" vType="car" vaporized=""/>
    <tripinfo id="type1.55" depart="129.00" departLane="gneE0_0" departPos="5.10" departSpeed="0.00" departDelay="74.00" arrival="334.00" arrivalLane="gneE1_0" arrivalPos="100.00" arrivalSpeed="13.89" duration="205.00" routeLength="987.88" waitSteps="98" timeLoss="132.38" rerouteNo="5" devices="vehroute_type1.55 tripinfo_type1.55 routing_type1.55" vType="car" vaporized=""/>
    <tripinfo id="type1.56" depart="132.00" departLane="gneE0_0" departPos="5.10" departSpeed="0.00" departDelay="76.00" arrival="335.00" arrivalLane="gneE1_0" arrivalPos="100.00" arrivalSpeed="13.89" duration="203.00" routeLength="987.88" waitSteps="98" timeLoss="130.81" rerouteNo="5" devices="vehroute_type1.56 tripinfo_type1.56 routing_type1.56" vType="car" vaporized=""/>
    <tripinfo id="type1.57" depart="133.00" departLane="gneE0_0" departPos="5.10" departSpeed="0.00" departDelay="76.00" arrival="336.00" arrivalLane="gneE1_0" arrivalPos="100.00" arrivalSpeed="13.89" duration="203.00" routeLength="987.88" waitSteps="97" timeLoss="131.29" rerouteNo="5" devices="vehroute_type1.57 tripinfo_type1.57 routing_type1.57" vType="car" vaporized=""/>
    <tripinfo id="type1.58" depart="136.00" departLane="gneE0_0" departPos="5.10" departSpeed="0.00" departDelay="78.00" arrival="338.00" arrivalLane="gneE1_0" arrivalPos="100.00" arrivalSpeed="13.89" duration="202.00" routeLength="987.88" waitSteps="96" timeLoss="129.64" rerouteNo="5" devices="vehroute_type1.58 tripinfo_type1.58 routing_type1.58" vType="car" vaporized=""/>
    <tripinfo id="type1.59" depart="137.00" departLane="gneE0_0" departPos="5.10" departSpeed="0.00" departDelay="78.00" arrival="339.00" arrivalLane="gneE1_0" arrivalPos="100.00" arrivalSpeed="13.89" duration="202.00" routeLength="987.88" waitSteps="95" timeLoss="130.10" rerouteNo="5" devices="vehroute_type1.59 tripinfo_type1.59 routing_type1.59" vType="car" vaporized=""/>
    <tripinfo id="type1.60" depart="140.00" departLane="gneE0_0" departPos="5.10" departSpeed="0.00" departDelay="80.00" arrival="341.00" arrivalLane="gneE1_0" arrivalPos="100.00" arrivalSpeed="13.89" duration="201.00" routeLength="987.88" waitSteps="94" timeLoss="128.53" rerouteNo="5" devices="vehroute_type1.60 tripinfo_type1.60 routing_type1.60" vType="car" vaporized=""/>
    <tripinfo id="type1.62" depart="144.00" departLane="gneE0_0" departPos="5.10" departSpeed="0.00" departDelay="82.00" arrival="342.00" arrivalLane="gneE1_0" arrivalPos="100.00" arrivalSpeed="13.89" duration="198.00" routeLength="987.88" waitSteps="93" timeLoss="125.98" rerouteNo="5" devices="vehroute_type1.62 tripinfo_type1.62 routing_type1.62" vType="car" vaporized=""/>
    <tripinfo id="type1.81" depart="200.00" departLane="gneE0_0" departPos="5.10" departSpeed="0.00" departDelay="119.00" arrival="344.00" arrivalLane="gneE1_0" arrivalPos="100.00" arrivalSpeed="13.89" duration="144.00" routeLength="987.88" waitSteps="47" timeLoss="71.45" rerouteNo="4" devices="vehroute_type1.81 tripinfo_type1.81 routing_type1.81" vType="car" vaporized=""/>
    <tripinfo id="type1.71" depart="169.00" departLane="gneE0_0" departPos="5.10" departSpeed="0.00" departDelay="98.00" arrival="345.00" arrivalLane="gneE1_0" arrivalPos="100.00" arrivalSpeed="13.89" duration="176.00" routeLength="998.85" waitSteps="81" timeLoss="103.89" rerouteNo="3" devices="vehroute_type1.71 tripinfo_type1.71 routing_type1.71" vType="car" vaporized=""/>
    <tripinfo id="type1.72" depart="172.00" departLane="gneE0_0" departPos="5.10" departSpeed="0.00" departDelay="100.00" arrival="347.00" arrivalLane="gneE1_0" arrivalPos="100.00" arrivalSpeed="13.89" duration="175.00" routeLength="998.85" waitSteps="80" timeLoss="102.40" rerouteNo="3" devices="vehroute_type1.72 tripinfo_type1.72 routing_type1.72" vType="car" vaporized=""/>
    <tripinfo id="type1.73" depart="175.00" departLane="gneE0_0" departPos="5.10" departSpeed="0.00" departDelay="102.00" arrival="348.00" arrivalLane="gneE1_0" arrivalPos="100.00" arrivalSpeed="13.89" duration="173.00" routeLength="998.85" waitSteps="77" timeLoss="100.78" rerouteNo="3" devices="vehroute_type1.73 tripinfo_type1.73 routing_type1.73" vType="car" vaporized=""/>
    <tripinfo id="type1.74" depart="178.00" departLane="gneE0_0" departPos="5.10" departSpeed="0.00" departDelay="104.00" arrival="350.00" arrivalLane="gneE1_0" arrivalPos="100.00" arrivalSpeed="13.89" duration="172.00" routeLength="998.85" waitSteps="75" timeLoss="99.18" rerouteNo="3" devices="vehroute_type1.74 tripinfo_type1.74 routing_type1.74" vType="car" vaporized=""/>
    <tripinfo id="type1.75" depart="181.00" departLane="gneE0_0" departPos="5.10" departSpeed="0.00" departDelay="106.00" arrival="351.00" arrivalLane="gneE1_0" arrivalPos="100.00" arrivalSpeed="13.89" duration="170.00" routeLength="998.85" waitSteps="74" timeLoss="97.62" rerouteNo="3" devices="vehroute_type1.75 tripinfo_type1.75 routing_type1.75" vType="car" vaporized=""/>
    <tripinfo id="type1.76" depart="184.00" departLane="gneE0_0" departPos="5.10" departSpeed="0.00" departDelay="108.00" arrival="353.00" arrivalLane="gneE1_0" arrivalPos="100.00" arrivalSpeed="13.89" duration="169.00" routeLength="998.85" waitSteps="73" timeLoss="96.09" rerouteNo="3" devices="vehroute_type1.76 tripinfo_type1.76 routing_type1.76" vType="car" vaporized=""/>
    <tripinfo id="type1.77" depart="187.00" departLane="gneE0_0" departPos="5.10" departSpeed="0.00" departDelay="110.00" arrival="354.00" arrivalLane="gneE1_0" arrivalPos="100.00" arrivalSpeed="13.89" duration="167.00" routeLength="998.85" waitSteps="72" timeLoss="94.90" rerouteNo="3" devices="vehroute_type1.77 tripinfo_type1.77 routing_type1.77" vType="car" vaporized=""/>