<?xml version="1.0" encoding="UTF-8"?>

<!-- generated on Thu Nov 17 09:46:58 2016 by SUMO Version dev-SVN-r22023
<?xml version="1.0" encoding="UTF-8"?>

<configuration xmlns:xsi="http://www.w3.org/2001/XMLSchema-instance" xsi:noNamespaceSchemaLocation="http://sumo.dlr.de/xsd/sumoConfiguration.xsd">

    <input>
        <net-file value="net.net.xml"/>
        <route-files value="input_routes.rou.xml"/>
    </input>

    <output>
        <tripinfo-output value="tripinfos.xml"/>
        <vehroute-output value="vehroutes.xml"/>
    </output>

    <routing>
        <routing-algorithm value="astar"/>
        <device.rerouting.probability value="1"/>
        <device.rerouting.period value="240"/>
        <device.rerouting.adaptation-interval value="1"/>
    </routing>

    <report>
        <xml-validation value="never"/>
        <no-step-log value="true"/>
    </report>

</configuration>
-->

<routes xmlns:xsi="http://www.w3.org/2001/XMLSchema-instance" xsi:noNamespaceSchemaLocation="http://sumo.dlr.de/xsd/routes_file.xsd">
    <vehicle id="type1.0" type="car" depart="0.00" arrival="116.00">
        <routeDistribution>
            <route replacedOnEdge="" replacedAtTime="0.00" probability="0" edges="gneE0 gneE1"/>
            <route edges="gneE0 0/0to0/1 0/1to1/1 1/1to1/2 1/2to2/2 gneE1"/>
        </routeDistribution>
    </vehicle>

    <vehicle id="type1.7" type="car" depart="15.00" arrival="117.00">
        <routeDistribution>
            <route replacedOnEdge="" replacedAtTime="7.00" probability="0" edges="gneE0 gneE1"/>
            <route replacedOnEdge="" replacedAtTime="14.00" probability="0" edges="gneE0 0/0to0/1 0/1to1/1 1/1to1/2 1/2to2/2 gneE1"/>
            <route edges="gneE0 0/0to1/0 1/0to1/1 1/1to1/2 1/2to2/2 gneE1"/>
        </routeDistribution>
    </vehicle>

    <vehicle id="type1.1" type="car" depart="3.00" arrival="186.00">
        <routeDistribution>
            <route replacedOnEdge="" replacedAtTime="1.00" probability="0" edges="gneE0 gneE1"/>
            <route edges="gneE0 0/0to0/1 0/1to1/1 1/1to1/2 1/2to2/2 gneE1"/>
        </routeDistribution>
    </vehicle>

    <vehicle id="type1.2" type="car" depart="5.00" arrival="187.00">
        <routeDistribution>
            <route replacedOnEdge="" replacedAtTime="2.00" probability="0" edges="gneE0 gneE1"/>
            <route edges="gneE0 0/0to0/1 0/1to1/1 1/1to1/2 1/2to2/2 gneE1"/>
        </routeDistribution>
    </vehicle>

    <vehicle id="type1.3" type="car" depart="7.00" arrival="189.00">
        <routeDistribution>
            <route replacedOnEdge="" replacedAtTime="3.00" probability="0" edges="gneE0 gneE1"/>
            <route edges="gneE0 0/0to0/1 0/1to1/1 1/1to1/2 1/2to2/2 gneE1"/>
        </routeDistribution>
    </vehicle>

    <vehicle id="type1.4" type="car" depart="9.00" arrival="190.00">
        <routeDistribution>
            <route replacedOnEdge="" replacedAtTime="4.00" probability="0" edges="gneE0 gneE1"/>
            <route edges="gneE0 0/0to0/1 0/1to1/1 1/1to1/2 1/2to2/2 gneE1"/>
        </routeDistribution>
    </vehicle>

    <vehicle id="type1.5" type="car" depart="11.00" arrival="191.00">
        <routeDistribution>
            <route replacedOnEdge="" replacedAtTime="5.00" probability="0" edges="gneE0 gneE1"/>
            <route edges="gneE0 0/0to0/1 0/1to1/1 1/1to1/2 1/2to2/2 gneE1"/>
        </routeDistribution>
    </vehicle>

    <vehicle id="type1.6" type="car" depart="13.00" arrival="193.00">
        <routeDistribution>
            <route replacedOnEdge="" replacedAtTime="6.00" probability="0" edges="gneE0 gneE1"/>
            <route edges="gneE0 0/0to0/1 0/1to1/1 1/1to1/2 1/2to2/2 gneE1"/>
        </routeDistribution>
    </vehicle>

    <vehicle id="type1.8" type="car" depart="18.00" arrival="194.00">
        <routeDistribution>
            <route replacedOnEdge="" replacedAtTime="8.00" probability="0" edges="gneE0 gneE1"/>
            <route replacedOnEdge="" replacedAtTime="14.00" probability="0" edges="gneE0 0/0to0/1 0/1to1/1 1/1to1/2 1/2to2/2 gneE1"/>
            <route edges="gneE0 0/0to1/0 1/0to1/1 1/1to1/2 1/2to2/2 gneE1"/>
        </routeDistribution>
    </vehicle>

    <vehicle id="type1.9" type="car" depart="21.00" arrival="196.00">
        <routeDistribution>
            <route replacedOnEdge="" replacedAtTime="9.00" probability="0" edges="gneE0 gneE1"/>
            <route replacedOnEdge="" replacedAtTime="14.00" probability="0" edges="gneE0 0/0to0/1 0/1to1/1 1/1to1/2 1/2to2/2 gneE1"/>
            <route edges="gneE0 0/0to1/0 1/0to1/1 1/1to1/2 1/2to2/2 gneE1"/>
        </routeDistribution>
    </vehicle>

    <vehicle id="type1.10" type="car" depart="24.00" arrival="197.00">
        <routeDistribution>
            <route replacedOnEdge="" replacedAtTime="10.00" probability="0" edges="gneE0 gneE1"/>
            <route replacedOnEdge="" replacedAtTime="14.00" probability="0" edges="gneE0 0/0to0/1 0/1to1/1 1/1to1/2 1/2to2/2 gneE1"/>
            <route edges="gneE0 0/0to1/0 1/0to1/1 1/1to1/2 1/2to2/2 gneE1"/>
        </routeDistribution>
    </vehicle>

    <vehicle id="type1.11" type="car" depart="27.00" arrival="199.00">
        <routeDistribution>
            <route replacedOnEdge="" replacedAtTime="11.00" probability="0" edges="gneE0 gneE1"/>
            <route replacedOnEdge="" replacedAtTime="14.00" probability="0" edges="gneE0 0/0to0/1 0/1to1/1 1/1to1/2 1/2to2/2 gneE1"/>
            <route edges="gneE0 0/0to1/0 1/0to1/1 1/1to1/2 1/2to2/2 gneE1"/>
        </routeDistribution>
    </vehicle>

    <vehicle id="type1.19" type="car" depart="51.00" arrival="200.00">
        <routeDistribution>
            <route replacedOnEdge="" replacedAtTime="19.00" probability="0" edges="gneE0 gneE1"/>
            <route replacedOnEdge="" replacedAtTime="34.00" probability="0" edges="gneE0 0/0to1/0 1/0to1/1 1/1to1/2 1/2to2/2 gneE1"/>
            <route replacedOnEdge="" replacedAtTime="36.00" probability="0" edges="gneE0 0/0to0/1 0/1to0/2 0/2to1/2 1/2to2/2 gneE1"/>
            <route replacedOnEdge="" replacedAtTime="43.00" probability="0" edges="gneE0 0/0to1/0 1/0to1/1 1/1to1/2 1/2to2/2 gneE1"/>
            <route replacedOnEdge="" replacedAtTime="50.00" probability="0" edges="gneE0 0/0to1/0 1/0to1/1 1/1to2/1 2/1to2/2 gneE1"/>
            <route edges="gneE0 0/0to0/1 0/1to0/2 0/2to1/2 1/2to2/2 gneE1"/>
        </routeDistribution>
    </vehicle>

    <vehicle id="type1.20" type="car" depart="54.00" arrival="201.00">
        <routeDistribution>
            <route replacedOnEdge="" replacedAtTime="20.00" probability="0" edges="gneE0 gneE1"/>
            <route replacedOnEdge="" replacedAtTime="34.00" probability="0" edges="gneE0 0/0to1/0 1/0to1/1 1/1to1/2 1/2to2/2 gneE1"/>
            <route replacedOnEdge="" replacedAtTime="36.00" probability="0" edges="gneE0 0/0to0/1 0/1to0/2 0/2to1/2 1/2to2/2 gneE1"/>
            <route replacedOnEdge="" replacedAtTime="43.00" probability="0" edges="gneE0 0/0to1/0 1/0to1/1 1/1to1/2 1/2to2/2 gneE1"/>
            <route replacedOnEdge="" replacedAtTime="50.00" probability="0" edges="gneE0 0/0to1/0 1/0to1/1 1/1to2/1 2/1to2/2 gneE1"/>
            <route edges="gneE0 0/0to0/1 0/1to0/2 0/2to1/2 1/2to2/2 gneE1"/>
        </routeDistribution>
    </vehicle>

    <vehicle id="type1.21" type="car" depart="56.00" arrival="203.00">
        <routeDistribution>
            <route replacedOnEdge="" replacedAtTime="21.00" probability="0" edges="gneE0 gneE1"/>
            <route replacedOnEdge="" replacedAtTime="34.00" probability="0" edges="gneE0 0/0to1/0 1/0to1/1 1/1to1/2 1/2to2/2 gneE1"/>
            <route replacedOnEdge="" replacedAtTime="36.00" probability="0" edges="gneE0 0/0to0/1 0/1to0/2 0/2to1/2 1/2to2/2 gneE1"/>
            <route replacedOnEdge="" replacedAtTime="43.00" probability="0" edges="gneE0 0/0to1/0 1/0to1/1 1/1to1/2 1/2to2/2 gneE1"/>
            <route replacedOnEdge="" replacedAtTime="50.00" probability="0" edges="gneE0 0/0to1/0 1/0to1/1 1/1to2/1 2/1to2/2 gneE1"/>
            <route edges="gneE0 0/0to0/1 0/1to0/2 0/2to1/2 1/2to2/2 gneE1"/>
        </routeDistribution>
    </vehicle>

    <vehicle id="type1.22" type="car" depart="58.00" arrival="204.00">
        <routeDistribution>
            <route replacedOnEdge="" replacedAtTime="22.00" probability="0" edges="gneE0 gneE1"/>
            <route replacedOnEdge="" replacedAtTime="34.00" probability="0" edges="gneE0 0/0to1/0 1/0to1/1 1/1to1/2 1/2to2/2 gneE1"/>
            <route replacedOnEdge="" replacedAtTime="36.00" probability="0" edges="gneE0 0/0to0/1 0/1to0/2 0/2to1/2 1/2to2/2 gneE1"/>
            <route replacedOnEdge="" replacedAtTime="43.00" probability="0" edges="gneE0 0/0to1/0 1/0to1/1 1/1to1/2 1/2to2/2 gneE1"/>
            <route replacedOnEdge="" replacedAtTime="50.00" probability="0" edges="gneE0 0/0to1/0 1/0to1/1 1/1to2/1 2/1to2/2 gneE1"/>
            <route edges="gneE0 0/0to0/1 0/1to0/2 0/2to1/2 1/2to2/2 gneE1"/>
        </routeDistribution>
    </vehicle>

    <vehicle id="type1.23" type="car" depart="60.00" arrival="206.00">
        <routeDistribution>
            <route replacedOnEdge="" replacedAtTime="23.00" probability="0" edges="gneE0 gneE1"/>
            <route replacedOnEdge="" replacedAtTime="34.00" probability="0" edges="gneE0 0/0to1/0 1/0to1/1 1/1to1/2 1/2to2/2 gneE1"/>
            <route replacedOnEdge="" replacedAtTime="36.00" probability="0" edges="gneE0 0/0to0/1 0/1to0/2 0/2to1/2 1/2to2/2 gneE1"/>
            <route replacedOnEdge="" replacedAtTime="43.00" probability="0" edges="gneE0 0/0to1/0 1/0to1/1 1/1to1/2 1/2to2/2 gneE1"/>
            <route replacedOnEdge="" replacedAtTime="50.00" probability="0" edges="gneE0 0/0to1/0 1/0to1/1 1/1to2/1 2/1to2/2 gneE1"/>
            <route edges="gneE0 0/0to0/1 0/1to0/2 0/2to1/2 1/2to2/2 gneE1"/>
        </routeDistribution>
    </vehicle>

    <vehicle id="type1.24" type="car" depart="62.00" arrival="207.00">
        <routeDistribution>
            <route replacedOnEdge="" replacedAtTime="24.00" probability="0" edges="gneE0 gneE1"/>
            <route replacedOnEdge="" replacedAtTime="34.00" probability="0" edges="gneE0 0/0to1/0 1/0to1/1 1/1to1/2 1/2to2/2 gneE1"/>
            <route replacedOnEdge="" replacedAtTime="36.00" probability="0" edges="gneE0 0/0to0/1 0/1to0/2 0/2to1/2 1/2to2/2 gneE1"/>
            <route replacedOnEdge="" replacedAtTime="43.00" probability="0" edges="gneE0 0/0to1/0 1/0to1/1 1/1to1/2 1/2to2/2 gneE1"/>
            <route replacedOnEdge="" replacedAtTime="50.00" probability="0" edges="gneE0 0/0to1/0 1/0to1/1 1/1to2/1 2/1to2/2 gneE1"/>
            <route edges="gneE0 0/0to0/1 0/1to0/2 0/2to1/2 1/2to2/2 gneE1"/>
        </routeDistribution>
    </vehicle>

    <vehicle id="type1.25" type="car" depart="64.00" arrival="209.00">
        <routeDistribution>
            <route replacedOnEdge="" replacedAtTime="25.00" probability="0" edges="gneE0 gneE1"/>
            <route replacedOnEdge="" replacedAtTime="34.00" probability="0" edges="gneE0 0/0to1/0 1/0to1/1 1/1to1/2 1/2to2/2 gneE1"/>
            <route replacedOnEdge="" replacedAtTime="36.00" probability="0" edges="gneE0 0/0to0/1 0/1to0/2 0/2to1/2 1/2to2/2 gneE1"/>
            <route replacedOnEdge="" replacedAtTime="43.00" probability="0" edges="gneE0 0/0to1/0 1/0to1/1 1/1to1/2 1/2to2/2 gneE1"/>
            <route replacedOnEdge="" replacedAtTime="50.00" probability="0" edges="gneE0 0/0to1/0 1/0to1/1 1/1to2/1 2/1to2/2 gneE1"/>
            <route edges="gneE0 0/0to0/1 0/1to0/2 0/2to1/2 1/2to2/2 gneE1"/>
        </routeDistribution>
    </vehicle>

    <vehicle id="type1.26" type="car" depart="66.00" arrival="210.00">
        <routeDistribution>
            <route replacedOnEdge="" replacedAtTime="26.00" probability="0" edges="gneE0 gneE1"/>
            <route replacedOnEdge="" replacedAtTime="34.00" probability="0" edges="gneE0 0/0to1/0 1/0to1/1 1/1to1/2 1/2to2/2 gneE1"/>
            <route replacedOnEdge="" replacedAtTime="36.00" probability="0" edges="gneE0 0/0to0/1 0/1to0/2 0/2to1/2 1/2to2/2 gneE1"/>
            <route replacedOnEdge="" replacedAtTime="43.00" probability="0" edges="gneE0 0/0to1/0 1/0to1/1 1/1to1/2 1/2to2/2 gneE1"/>
            <route replacedOnEdge="" replacedAtTime="50.00" probability="0" edges="gneE0 0/0to1/0 1/0to1/1 1/1to2/1 2/1to2/2 gneE1"/>
            <route edges="gneE0 0/0to0/1 0/1to0/2 0/2to1/2 1/2to2/2 gneE1"/>
        </routeDistribution>
    </vehicle>

    <vehicle id="type1.27" type="car" depart="67.00" arrival="211.00">
        <routeDistribution>
            <route replacedOnEdge="" replacedAtTime="27.00" probability="0" edges="gneE0 gneE1"/>
            <route replacedOnEdge="" replacedAtTime="34.00" probability="0" edges="gneE0 0/0to1/0 1/0to1/1 1/1to1/2 1/2to2/2 gneE1"/>
            <route replacedOnEdge="" replacedAtTime="36.00" probability="0" edges="gneE0 0/0to0/1 0/1to0/2 0/2to1/2 1/2to2/2 gneE1"/>
            <route replacedOnEdge="" replacedAtTime="43.00" probability="0" edges="gneE0 0/0to1/0 1/0to1/1 1/1to1/2 1/2to2/2 gneE1"/>
            <route replacedOnEdge="" replacedAtTime="50.00" probability="0" edges="gneE0 0/0to1/0 1/0to1/1 1/1to2/1 2/1to2/2 gneE1"/>
            <route edges="gneE0 0/0to0/1 0/1to0/2 0/2to1/2 1/2to2/2 gneE1"/>
        </routeDistribution>
    </vehicle>

    <vehicle id="type1.35" type="car" depart="83.00" arrival="214.00">
        <routeDistribution>
            <route replacedOnEdge="" replacedAtTime="35.00" probability="0" edges="gneE0 gneE1"/>
            <route replacedOnEdge="" replacedAtTime="36.00" probability="0" edges="gneE0 0/0to0/1 0/1to0/2 0/2to1/2 1/2to2/2 gneE1"/>
            <route replacedOnEdge="" replacedAtTime="43.00" probability="0" edges="gneE0 0/0to1/0 1/0to1/1 1/1to1/2 1/2to2/2 gneE1"/>
            <route replacedOnEdge="" replacedAtTime="50.00" probability="0" edges="gneE0 0/0to1/0 1/0to1/1 1/1to2/1 2/1to2/2 gneE1"/>
            <route edges="gneE0 0/0to0/1 0/1to0/2 0/2to1/2 1/2to2/2 gneE1"/>
        </routeDistribution>
    </vehicle>

    <vehicle id="type1.36" type="car" depart="86.00" arrival="220.00">
        <routeDistribution>
            <route replacedOnEdge="" replacedAtTime="36.00" probability="0" edges="gneE0 gneE1"/>
            <route replacedOnEdge="" replacedAtTime="43.00" probability="0" edges="gneE0 0/0to1/0 1/0to1/1 1/1to1/2 1/2to2/2 gneE1"/>
            <route replacedOnEdge="" replacedAtTime="50.00" probability="0" edges="gneE0 0/0to1/0 1/0to1/1 1/1to2/1 2/1to2/2 gneE1"/>
            <route replacedOnEdge="" replacedAtTime="84.00" probability="0" edges="gneE0 0/0to0/1 0/1to0/2 0/2to1/2 1/2to2/2 gneE1"/>
            <route edges="gneE0 0/0to1/0 1/0to2/0 2/0to2/1 2/1to2/2 gneE1"/>
        </routeDistribution>
    </vehicle>

    <vehicle id="type1.17" type="car" depart="45.00" arrival="230.00">
        <routeDistribution>
            <route replacedOnEdge="" replacedAtTime="17.00" probability="0" edges="gneE0 gneE1"/>
            <route replacedOnEdge="" replacedAtTime="34.00" probability="0" edges="gneE0 0/0to1/0 1/0to1/1 1/1to1/2 1/2to2/2 gneE1"/>
            <route replacedOnEdge="" replacedAtTime="36.00" probability="0" edges="gneE0 0/0to0/1 0/1to0/2 0/2to1/2 1/2to2/2 gneE1"/>
            <route replacedOnEdge="" replacedAtTime="43.00" probability="0" edges="gneE0 0/0to1/0 1/0to1/1 1/1to1/2 1/2to2/2 gneE1"/>
            <route edges="gneE0 0/0to1/0 1/0to1/1 1/1to2/1 2/1to2/2 gneE1"/>
        </routeDistribution>
    </vehicle>

    <vehicle id="type1.18" type="car" depart="48.00" arrival="231.00">
        <routeDistribution>
            <route replacedOnEdge="" replacedAtTime="18.00" probability="0" edges="gneE0 gneE1"/>
            <route replacedOnEdge="" replacedAtTime="34.00" probability="0" edges="gneE0 0/0to1/0 1/0to1/1 1/1to1/2 1/2to2/2 gneE1"/>
            <route replacedOnEdge="" replacedAtTime="36.00" probability="0" edges="gneE0 0/0to0/1 0/1to0/2 0/2to1/2 1/2to2/2 gneE1"/>
            <route replacedOnEdge="" replacedAtTime="43.00" probability="0" edges="gneE0 0/0to1/0 1/0to1/1 1/1to1/2 1/2to2/2 gneE1"/>
            <route edges="gneE0 0/0to1/0 1/0to1/1 1/1to2/1 2/1to2/2 gneE1"/>
        </routeDistribution>
    </vehicle>

    <vehicle id="type1.42" type="car" depart="104.00" arrival="233.00">
        <routeDistribution>
            <route replacedOnEdge="" replacedAtTime="42.00" probability="0" edges="gneE0 gneE1"/>
            <route replacedOnEdge="" replacedAtTime="43.00" probability="0" edges="gneE0 0/0to1/0 1/0to1/1 1/1to1/2 1/2to2/2 gneE1"/>
            <route replacedOnEdge="" replacedAtTime="50.00" probability="0" edges="gneE0 0/0to1/0 1/0to1/1 1/1to2/1 2/1to2/2 gneE1"/>
            <route replacedOnEdge="" replacedAtTime="84.00" probability="0" edges="gneE0 0/0to0/1 0/1to0/2 0/2to1/2 1/2to2/2 gneE1"/>
            <route replacedOnEdge="" replacedAtTime="92.00" probability="0" edges="gneE0 0/0to1/0 1/0to2/0 2/0to2/1 2/1to2/2 gneE1"/>
            <route replacedOnEdge="" replacedAtTime="97.00" probability="0" edges="gneE0 0/0to1/0 1/0to1/1 1/1to2/1 2/1to2/2 gneE1"/>
            <route replacedOnEdge="" replacedAtTime="104.00" probability="0" edges="gneE0 0/0to1/0 1/0to2/0 2/0to2/1 2/1to2/2 gneE1"/>
            <route edges="gneE0 0/0to0/1 0/1to1/1 1/1to2/1 2/1to2/2 gneE1"/>
        </routeDistribution>
    </vehicle>

    <vehicle id="type1.43" type="car" depart="105.00" arrival="234.00">
        <routeDistribution>
            <route replacedOnEdge="" replacedAtTime="43.00" probability="0" edges="gneE0 gneE1"/>
            <route replacedOnEdge="" replacedAtTime="50.00" probability="0" edges="gneE0 0/0to1/0 1/0to1/1 1/1to2/1 2/1to2/2 gneE1"/>
            <route replacedOnEdge="" replacedAtTime="84.00" probability="0" edges="gneE0 0/0to0/1 0/1to0/2 0/2to1/2 1/2to2/2 gneE1"/>
            <route replacedOnEdge="" replacedAtTime="92.00" probability="0" edges="gneE0 0/0to1/0 1/0to2/0 2/0to2/1 2/1to2/2 gneE1"/>
            <route replacedOnEdge="" replacedAtTime="97.00" probability="0" edges="gneE0 0/0to1/0 1/0to1/1 1/1to2/1 2/1to2/2 gneE1"/>
            <route replacedOnEdge="" replacedAtTime="104.00" probability="0" edges="gneE0 0/0to1/0 1/0to2/0 2/0to2/1 2/1to2/2 gneE1"/>
            <route edges="gneE0 0/0to0/1 0/1to1/1 1/1to2/1 2/1to2/2 gneE1"/>
        </routeDistribution>
    </vehicle>

    <vehicle id="type1.44" type="car" depart="108.00" arrival="236.00">
        <routeDistribution>
            <route replacedOnEdge="" replacedAtTime="44.00" probability="0" edges="gneE0 gneE1"/>
            <route replacedOnEdge="" replacedAtTime="50.00" probability="0" edges="gneE0 0/0to1/0 1/0to1/1 1/1to2/1 2/1to2/2 gneE1"/>
            <route replacedOnEdge="" replacedAtTime="84.00" probability="0" edges="gneE0 0/0to0/1 0/1to0/2 0/2to1/2 1/2to2/2 gneE1"/>
            <route replacedOnEdge="" replacedAtTime="92.00" probability="0" edges="gneE0 0/0to1/0 1/0to2/0 2/0to2/1 2/1to2/2 gneE1"/>
            <route replacedOnEdge="" replacedAtTime="97.00" probability="0" edges="gneE0 0/0to1/0 1/0to1/1 1/1to2/1 2/1to2/2 gneE1"/>
            <route replacedOnEdge="" replacedAtTime="104.00" probability="0" edges="gneE0 0/0to1/0 1/0to2/0 2/0to2/1 2/1to2/2 gneE1"/>
            <route edges="gneE0 0/0to0/1 0/1to1/1 1/1to2/1 2/1to2/2 gneE1"/>
        </routeDistribution>
    </vehicle>

    <vehicle id="type1.45" type="car" depart="109.00" arrival="237.00">
        <routeDistribution>
            <route replacedOnEdge="" replacedAtTime="45.00" probability="0" edges="gneE0 gneE1"/>
            <route replacedOnEdge="" replacedAtTime="50.00" probability="0" edges="gneE0 0/0to1/0 1/0to1/1 1/1to2/1 2/1to2/2 gneE1"/>
            <route replacedOnEdge="" replacedAtTime="84.00" probability="0" edges="gneE0 0/0to0/1 0/1to0/2 0/2to1/2 1/2to2/2 gneE1"/>
            <route replacedOnEdge="" replacedAtTime="92.00" probability="0" edges="gneE0 0/0to1/0 1/0to2/0 2/0to2/1 2/1to2/2 gneE1"/>
            <route replacedOnEdge="" replacedAtTime="97.00" probability="0" edges="gneE0 0/0to1/0 1/0to1/1 1/1to2/1 2/1to2/2 gneE1"/>
            <route replacedOnEdge="" replacedAtTime="104.00" probability="0" edges="gneE0 0/0to1/0 1/0to2/0 2/0to2/1 2/1to2/2 gneE1"/>
            <route edges="gneE0 0/0to0/1 0/1to1/1 1/1to2/1 2/1to2/2 gneE1"/>
        </routeDistribution>
    </vehicle>

    <vehicle id="type1.46" type="car" depart="112.00" arrival="239.00">
        <routeDistribution>
            <route replacedOnEdge="" replacedAtTime="46.00" probability="0" edges="gneE0 gneE1"/>
            <route replacedOnEdge="" replacedAtTime="50.00" probability="0" edges="gneE0 0/0to1/0 1/0to1/1 1/1to2/1 2/1to2/2 gneE1"/>
            <route replacedOnEdge="" replacedAtTime="84.00" probability="0" edges="gneE0 0/0to0/1 0/1to0/2 0/2to1/2 1/2to2/2 gneE1"/>
            <route replacedOnEdge="" replacedAtTime="92.00" probability="0" edges="gneE0 0/0to1/0 1/0to2/0 2/0to2/1 2/1to2/2 gneE1"/>
            <route replacedOnEdge="" replacedAtTime="97.00" probability="0" edges="gneE0 0/0to1/0 1/0to1/1 1/1to2/1 2/1to2/2 gneE1"/>
            <route replacedOnEdge="" replacedAtTime="104.00" probability="0" edges="gneE0 0/0to1/0 1/0to2/0 2/0to2/1 2/1to2/2 gneE1"/>
            <route edges="gneE0 0/0to0/1 0/1to1/1 1/1to2/1 2/1to2/2 gneE1"/>
        </routeDistribution>
    </vehicle>

    <vehicle id="type1.61" type="car" depart="141.00" arrival="240.00">
        <routeDistribution>
            <route replacedOnEdge="" replacedAtTime="61.00" probability="0" edges="gneE0 gneE1"/>
            <route replacedOnEdge="" replacedAtTime="84.00" probability="0" edges="gneE0 0/0to0/1 0/1to0/2 0/2to1/2 1/2to2/2 gneE1"/>
            <route replacedOnEdge="" replacedAtTime="92.00" probability="0" edges="gneE0 0/0to1/0 1/0to2/0 2/0to2/1 2/1to2/2 gneE1"/>
            <route replacedOnEdge="" replacedAtTime="97.00" probability="0" edges="gneE0 0/0to1/0 1/0to1/1 1/1to2/1 2/1to2/2 gneE1"/>
            <route replacedOnEdge="" replacedAtTime="104.00" probability="0" edges="gneE0 0/0to1/0 1/0to2/0 2/0to2/1 2/1to2/2 gneE1"/>
            <route edges="gneE0 0/0to0/1 0/1to1/1 1/1to2/1 2/1to2/2 gneE1"/>
        </routeDistribution>
    </vehicle>

    <vehicle id="type1.47" type="car" depart="113.00" arrival="241.00">
        <routeDistribution>
            <route replacedOnEdge="" replacedAtTime="47.00" probability="0" edges="gneE0 gneE1"/>
            <route replacedOnEdge="" replacedAtTime="50.00" probability="0" edges="gneE0 0/0to1/0 1/0to1/1 1/1to2/1 2/1to2/2 gneE1"/>
            <route replacedOnEdge="" replacedAtTime="84.00" probability="0" edges="gneE0 0/0to0/1 0/1to0/2 0/2to1/2 1/2to2/2 gneE1"/>
            <route replacedOnEdge="" replacedAtTime="92.00" probability="0" edges="gneE0 0/0to1/0 1/0to2/0 2/0to2/1 2/1to2/2 gneE1"/>
            <route replacedOnEdge="" replacedAtTime="97.00" probability="0" edges="gneE0 0/0to1/0 1/0to1/1 1/1to2/1 2/1to2/2 gneE1"/>
            <route replacedOnEdge="" replacedAtTime="104.00" probability="0" edges="gneE0 0/0to1/0 1/0to2/0 2/0to2/1 2/1to2/2 gneE1"/>
            <route edges="gneE0 0/0to0/1 0/1to1/1 1/1to2/1 2/1to2/2 gneE1"/>
        </routeDistribution>
    </vehicle>

    <vehicle id="type1.63" type="car" depart="145.00" arrival="243.00">
        <routeDistribution>
            <route replacedOnEdge="" replacedAtTime="63.00" probability="0" edges="gneE0 gneE1"/>
            <route replacedOnEdge="" replacedAtTime="84.00" probability="0" edges="gneE0 0/0to0/1 0/1to0/2 0/2to1/2 1/2to2/2 gneE1"/>
            <route replacedOnEdge="" replacedAtTime="92.00" probability="0" edges="gneE0 0/0to1/0 1/0to2/0 2/0to2/1 2/1to2/2 gneE1"/>
            <route replacedOnEdge="" replacedAtTime="97.00" probability="0" edges="gneE0 0/0to1/0 1/0to1/1 1/1to2/1 2/1to2/2 gneE1"/>
            <route replacedOnEdge="" replacedAtTime="104.00" probability="0" edges="gneE0 0/0to1/0 1/0to2/0 2/0to2/1 2/1to2/2 gneE1"/>
            <route edges="gneE0 0/0to0/1 0/1to1/1 1/1to2/1 2/1to2/2 gneE1"/>
        </routeDistribution>
    </vehicle>

    <vehicle id="type1.48" type="car" depart="116.00" arrival="244.00">
        <routeDistribution>
            <route replacedOnEdge="" replacedAtTime="48.00" probability="0" edges="gneE0 gneE1"/>
            <route replacedOnEdge="" replacedAtTime="50.00" probability="0" edges="gneE0 0/0to1/0 1/0to1/1 1/1to2/1 2/1to2/2 gneE1"/>
            <route replacedOnEdge="" replacedAtTime="84.00" probability="0" edges="gneE0 0/0to0/1 0/1to0/2 0/2to1/2 1/2to2/2 gneE1"/>
            <route replacedOnEdge="" replacedAtTime="92.00" probability="0" edges="gneE0 0/0to1/0 1/0to2/0 2/0to2/1 2/1to2/2 gneE1"/>
            <route replacedOnEdge="" replacedAtTime="97.00" probability="0" edges="gneE0 0/0to1/0 1/0to1/1 1/1to2/1 2/1to2/2 gneE1"/>
            <route replacedOnEdge="" replacedAtTime="104.00" probability="0" edges="gneE0 0/0to1/0 1/0to2/0 2/0to2/1 2/1to2/2 gneE1"/>
            <route edges="gneE0 0/0to0/1 0/1to1/1 1/1to2/1 2/1to2/2 gneE1"/>
        </routeDistribution>
    </vehicle>

    <vehicle id="type1.64" type="car" depart="148.00" arrival="246.00">
        <routeDistribution>
            <route replacedOnEdge="" replacedAtTime="64.00" probability="0" edges="gneE0 gneE1"/>
            <route replacedOnEdge="" replacedAtTime="84.00" probability="0" edges="gneE0 0/0to0/1 0/1to0/2 0/2to1/2 1/2to2/2 gneE1"/>
            <route replacedOnEdge="" replacedAtTime="92.00" probability="0" edges="gneE0 0/0to1/0 1/0to2/0 2/0to2/1 2/1to2/2 gneE1"/>
            <route replacedOnEdge="" replacedAtTime="97.00" probability="0" edges="gneE0 0/0to1/0 1/0to1/1 1/1to2/1 2/1to2/2 gneE1"/>
            <route replacedOnEdge="" replacedAtTime="104.00" probability="0" edges="gneE0 0/0to1/0 1/0to2/0 2/0to2/1 2/1to2/2 gneE1"/>
            <route edges="gneE0 0/0to0/1 0/1to1/1 1/1to2/1 2/1to2/2 gneE1"/>
        </routeDistribution>
    </vehicle>

    <vehicle id="type1.49" type="car" depart="117.00" arrival="247.00">
        <routeDistribution>
            <route replacedOnEdge="" replacedAtTime="49.00" probability="0" edges="gneE0 gneE1"/>
            <route replacedOnEdge="" replacedAtTime="50.00" probability="0" edges="gneE0 0/0to1/0 1/0to1/1 1/1to2/1 2/1to2/2 gneE1"/>
            <route replacedOnEdge="" replacedAtTime="84.00" probability="0" edges="gneE0 0/0to0/1 0/1to0/2 0/2to1/2 1/2to2/2 gneE1"/>
            <route replacedOnEdge="" replacedAtTime="92.00" probability="0" edges="gneE0 0/0to1/0 1/0to2/0 2/0to2/1 2/1to2/2 gneE1"/>
            <route replacedOnEdge="" replacedAtTime="97.00" probability="0" edges="gneE0 0/0to1/0 1/0to1/1 1/1to2/1 2/1to2/2 gneE1"/>
            <route replacedOnEdge="" replacedAtTime="104.00" probability="0" edges="gneE0 0/0to1/0 1/0to2/0 2/0to2/1 2/1to2/2 gneE1"/>
            <route edges="gneE0 0/0to0/1 0/1to1/1 1/1to2/1 2/1to2/2 gneE1"/>
        </routeDistribution>
    </vehicle>

    <vehicle id="type1.12" type="car" depart="30.00" arrival="256.00">
        <routeDistribution>
            <route replacedOnEdge="" replacedAtTime="12.00" probability="0" edges="gneE0 gneE1"/>
            <route replacedOnEdge="" replacedAtTime="14.00" probability="0" edges="gneE0 0/0to0/1 0/1to1/1 1/1to1/2 1/2to2/2 gneE1"/>
            <route edges="gneE0 0/0to1/0 1/0to1/1 1/1to1/2 1/2to2/2 gneE1"/>
        </routeDistribution>
    </vehicle>

    <vehicle id="type1.13" type="car" depart="33.00" arrival="257.00">
        <routeDistribution>
            <route replacedOnEdge="" replacedAtTime="13.00" probability="0" edges="gneE0 gneE1"/>
            <route replacedOnEdge="" replacedAtTime="14.00" probability="0" edges="gneE0 0/0to0/1 0/1to1/1 1/1to1/2 1/2to2/2 gneE1"/>
            <route edges="gneE0 0/0to1/0 1/0to1/1 1/1to1/2 1/2to2/2 gneE1"/>
        </routeDistribution>
    </vehicle>

    <vehicle id="type1.14" type="car" depart="36.00" arrival="259.00">
        <routeDistribution>
            <route replacedOnEdge="" replacedAtTime="14.00" probability="0" edges="gneE0 gneE1"/>
            <route replacedOnEdge="" replacedAtTime="34.00" probability="0" edges="gneE0 0/0to1/0 1/0to1/1 1/1to1/2 1/2to2/2 gneE1"/>
            <route replacedOnEdge="" replacedAtTime="36.00" probability="0" edges="gneE0 0/0to0/1 0/1to0/2 0/2to1/2 1/2to2/2 gneE1"/>
            <route edges="gneE0 0/0to1/0 1/0to1/1 1/1to1/2 1/2to2/2 gneE1"/>
        </routeDistribution>
    </vehicle>

    <vehicle id="type1.15" type="car" depart="39.00" arrival="260.00">
        <routeDistribution>
            <route replacedOnEdge="" replacedAtTime="15.00" probability="0" edges="gneE0 gneE1"/>
            <route replacedOnEdge="" replacedAtTime="34.00" probability="0" edges="gneE0 0/0to1/0 1/0to1/1 1/1to1/2 1/2to2/2 gneE1"/>
            <route replacedOnEdge="" replacedAtTime="36.00" probability="0" edges="gneE0 0/0to0/1 0/1to0/2 0/2to1/2 1/2to2/2 gneE1"/>
            <route edges="gneE0 0/0to1/0 1/0to1/1 1/1to1/2 1/2to2/2 gneE1"/>
        </routeDistribution>
    </vehicle>

    <vehicle id="type1.16" type="car" depart="42.00" arrival="261.00">
        <routeDistribution>
            <route replacedOnEdge="" replacedAtTime="16.00" probability="0" edges="gneE0 gneE1"/>
            <route replacedOnEdge="" replacedAtTime="34.00" probability="0" edges="gneE0 0/0to1/0 1/0to1/1 1/1to1/2 1/2to2/2 gneE1"/>
            <route replacedOnEdge="" replacedAtTime="36.00" probability="0" edges="gneE0 0/0to0/1 0/1to0/2 0/2to1/2 1/2to2/2 gneE1"/>
            <route edges="gneE0 0/0to1/0 1/0to1/1 1/1to1/2 1/2to2/2 gneE1"/>
        </routeDistribution>
    </vehicle>

    <vehicle id="type1.37" type="car" depart="89.00" arrival="265.00">
        <routeDistribution>
            <route replacedOnEdge="" replacedAtTime="37.00" probability="0" edges="gneE0 gneE1"/>
            <route replacedOnEdge="" replacedAtTime="43.00" probability="0" edges="gneE0 0/0to1/0 1/0to1/1 1/1to1/2 1/2to2/2 gneE1"/>
            <route replacedOnEdge="" replacedAtTime="50.00" probability="0" edges="gneE0 0/0to1/0 1/0to1/1 1/1to2/1 2/1to2/2 gneE1"/>
            <route replacedOnEdge="" replacedAtTime="84.00" probability="0" edges="gneE0 0/0to0/1 0/1to0/2 0/2to1/2 1/2to2/2 gneE1"/>