<?xml version="1.0" encoding="UTF-8"?>

<!-- generated on 2026-03-14T07:29:00.761913+01:00 by Eclipse SUMO sumo v1_26_0+0586-69dd46f7418
This data file and the accompanying materials
are made available under the terms of the Eclipse Public License v2.0
which accompanies this distribution, and is available at
http://www.eclipse.org/legal/epl-v20.html
This file may also be made available under the following Secondary
Licenses when the conditions for such availability set forth in the Eclipse
Public License 2.0 are satisfied: GNU General Public License, version 2
or later which is available at
https://www.gnu.org/licenses/old-licenses/gpl-2.0-standalone.html
SPDX-License-Identifier: EPL-2.0 OR GPL-2.0-or-later
<sumoConfiguration xmlns:xsi="http://www.w3.org/2001/XMLSchema-instance" xsi:noNamespaceSchemaLocation="http://sumo.dlr.de/xsd/sumoConfiguration.xsd">

    <input>
        <net-file value="net3.net.xml"/>
        <additional-files value="input_additional.add.xml,input_additional2.add.xml"/>
    </input>

    <output>
        <write-license value="true"/>
        <fcd-output value="fcd.xml"/>
        <fcd-output.attributes value="angle,pos,edge,stage"/>
    </output>

    <processing>
        <default.speeddev value="0"/>
        <pedestrian.model value="nonInteracting"/>
    </processing>

    <report>
        <xml-validation value="never"/>
        <no-step-log value="true"/>
    </report>

</sumoConfiguration>
-->

<fcd-export xmlns:xsi="http://www.w3.org/2001/XMLSchema-instance" xsi:noNamespaceSchemaLocation="http://sumo.dlr.de/xsd/fcd_file.xsd">
    <timestep time="0.00">
        <person id="p0" angle="0.00" pos="20.00" edge="CS" stage="walking"/>
    </timestep>
    <timestep time="1.00">
        <person id="p0" angle="0.00" pos="18.70" edge="CS" stage="walking"/>
    </timestep>
    <timestep time="2.00">
        <person id="p0" angle="0.00" pos="17.40" edge="CS" stage="walking"/>
    </timestep>
    <timestep time="3.00">
        <person id="p0" angle="0.00" pos="16.10" edge="CS" stage="walking"/>
    </timestep>
    <timestep time="4.00">
        <person id="p0" angle="0.00" pos="14.81" edge="CS" stage="walking"/>
    </timestep>
    <timestep time="5.00">
        <person id="p0" angle="0.00" pos="13.51" edge="CS" stage="walking"/>
    </timestep>
    <timestep time="6.00">
        <person id="p0" angle="0.00" pos="12.21" edge="CS" stage="walking"/>
    </timestep>
    <timestep time="7.00">
        <person id="p0" angle="0.00" pos="10.91" edge="CS" stage="walking"/>
    </timestep>
    <timestep time="8.00">
        <person id="p0" angle="0.00" pos="9.61" edge="CS" stage="walking"/>
    </timestep>
    <timestep time="9.00">
        <person id="p0" angle="0.00" pos="8.31" edge="CS" stage="walking"/>
    </timestep>
    <timestep time="10.00">
        <person id="p0" angle="0.00" pos="7.01" edge="CS" stage="walking"/>
    </timestep>
    <timestep time="11.00">
        <person id="p0" angle="0.00" pos="5.71" edge="CS" stage="walking"/>
    </timestep>
    <timestep time="12.00">
        <person id="p0" angle="0.00" pos="4.42" edge="CS" stage="walking"/>
    </timestep>
    <timestep time="13.00">
        <person id="p0" angle="0.00" pos="3.12" edge="CS" stage="walking"/>
    </timestep>
    <timestep time="14.00">
        <person id="p0" angle="0.00" pos="1.82" edge="CS" stage="walking"/>
    </timestep>
    <timestep time="15.00">
        <person id="p0" angle="90.00" pos="0.00" edge="CE" stage="walking"/>
    </timestep>
    <timestep time="16.00">
        <person id="p0" angle="90.00" pos="1.30" edge="CE" stage="walking"/>
    </timestep>
    <timestep time="17.00">
        <person id="p0" angle="90.00" pos="2.60" edge="CE" stage="walking"/>
    </timestep>
    <timestep time="18.00">
        <person id="p0" angle="90.00" pos="3.90" edge="CE" stage="walking"/>
    </timestep>
    <timestep time="19.00">
        <person id="p0" angle="90.00" pos="5.19" edge="CE" stage="walking"/>
    </timestep>
    <timestep time="20.00">
        <person id="p0" angle="90.00" pos="6.49" edge="CE" stage="walking"/>
    </timestep>
    <timestep time="21.00">
        <person id="p0" angle="90.00" pos="7.79" edge="CE" stage="walking"/>
    </timestep>
    <timestep time="22.00">
        <person id="p0" angle="90.00" pos="9.09" edge="CE" stage="walking"/>
    </timestep>
    <timestep time="23.00">
        <person id="p0" angle="90.00" pos="10.39" edge="CE" stage="walking"/>
    </timestep>
    <timestep time="24.00">
        <person id="p0" angle="90.00" pos="11.69" edge="CE" stage="walking"/>
    </timestep>
    <timestep time="25.00">
        <person id="p0" angle="90.00" pos="12.99" edge="CE" stage="walking"/>
    </timestep>
    <timestep time="26.00">
        <person id="p0" angle="90.00" pos="14.29" edge="CE" stage="walking"/>
    </timestep>
    <timestep time="27.00">
        <person id="p0" angle="90.00" pos="15.58" edge="CE" stage="walking"/>
    </timestep>
    <timestep time="28.00">
        <person id="p0" angle="90.00" pos="16.88" edge="CE" stage="walking"/>
    </timestep>
    <timestep time="29.00">
        <person id="p0" angle="90.00" pos="18.18" edge="CE" stage="walking"/>
    </timestep>
    <timestep time="30.00"/>
</fcd-export>
