<?xml version="1.0" encoding="UTF-8"?>

<!-- generated on Fri Feb 22 13:12:19 2019 by Eclipse SUMO Version v1_0_1+0645-93703db
This data file and the accompanying materials
are made available under the terms of the Eclipse Public License v2.0
which accompanies this distribution, and is available at
http://www.eclipse.org/legal/epl-v20.html
SPDX-License-Identifier: EPL-2.0
<configuration xmlns:xsi="http://www.w3.org/2001/XMLSchema-instance" xsi:noNamespaceSchemaLocation="http://sumo.dlr.de/xsd/sumoConfiguration.xsd">

    <input>
        <net-file value="net.net.xml"/>
        <route-files value="input_routes.rou.xml"/>
        <additional-files value="input_additional.add.xml,input_additional2.add.xml"/>
    </input>

    <output>
        <write-license value="true"/>
        <tripinfo-output value="tripinfos.xml"/>
        <vehroute-output value="vehroutes.xml"/>
        <railsignal-block-output value="railsignal_blocks.xml"/>
        <stop-output value="stopinfos.xml"/>
    </output>

    <processing>
        <default.speeddev value="0"/>
    </processing>

    <routing>
        <device.rerouting.period value="10"/>
        <device.rerouting.adaptation-steps value="10"/>
    </routing>

    <report>
        <verbose value="true"/>
        <xml-validation value="never"/>
        <duration-log.statistics value="true"/>
        <no-step-log value="true"/>
    </report>

</configuration>
-->

<railsignal-block-output>
    <railSignal id="s1">
        <link linkIndex="0" from="T2_1_0" to=":s1_0_0">
            <forwardBlock lanes=":s1_0_0 T1_1_0"/>
            <bidiBlock lanes=":s1_1_0 T1_0_0 :s3_1_0 TleftLoop_0_0 :s16_0_0 T20_1_0 :s17_0_0 T21_1_0 :s18_0_0 T22_1_0 :s19_0_0 T23_1_0 :s20_0_0 T24_1_0 :s21_0_0 T25_1_0"/>
            <backwardBlock lanes=""/>
            <conflictLinks logicIndex=""/>
        </link>
    </railSignal>
    <railSignal id="s10">
        <link linkIndex="0" from="T13_1_0" to=":s10_0_0">
            <forwardBlock lanes=":s10_0_0 T12_1_0 :w1_0_0 T11_1_0"/>
            <bidiBlock lanes=":s10_1_0 T12_0_0"/>
            <backwardBlock lanes=":w1_1_0 T41_1_0 :w4_0_0 T44_1_0 :w5_0_0 :w5_1_0 T36_1_0 :s29_0_0 T27_1_0 :s23_0_0 T28_1_0"/>
            <conflictLinks logicIndex="s29_0">
                <conflictLink logicIndex="s29_0" lanes="T37_1_0 :w9_3_0 Tdepot_1_0 :w9_0_0 T38_0_0 :s30_0_0 T39_1_0"/>
            </conflictLinks>
        </link>
    </railSignal>
    <railSignal id="s11">
        <link linkIndex="0" from="T14_1_0" to=":s11_0_0">
            <forwardBlock lanes=":s11_0_0 T13_1_0"/>
            <bidiBlock lanes=":s11_1_0 T13_0_0 :s10_1_0 T12_0_0"/>
            <backwardBlock lanes=""/>
            <conflictLinks logicIndex=""/>
        </link>
    </railSignal>
    <railSignal id="s12">
        <link linkIndex="0" from="T15_1_0" to=":s12_0_0">
            <forwardBlock lanes=":s12_0_0 T14_1_0"/>
            <bidiBlock lanes=":s12_1_0 T14_0_0 :s11_1_0 T13_0_0 :s10_1_0 T12_0_0"/>
            <backwardBlock lanes=""/>
            <conflictLinks logicIndex=""/>
        </link>
    </railSignal>
    <railSignal id="s13">
        <link linkIndex="0" from="T17_1_0" to=":s13_0_0">
            <forwardBlock lanes=":s13_0_0 T16_1_0 :w2_0_0 T15_1_0"/>
            <bidiBlock lanes=":w2_2_0 T15_0_0 :s12_1_0 T14_0_0 :s11_1_0 T13_0_0 :s10_1_0 T12_0_0"/>
            <backwardBlock lanes=":w2_1_0 T42_1_0 :w7_0_0 T31_1_0 :s25_0_0 T32_1_0 :w8_0_0 :w8_1_0 T33_1_0 :s26_0_0 T34_1_0 :s27_0_0 T35_1_0 :s28_0_0 T6_1_0 :s4_1_0 TrightLoop_0_0 :s2_1_0 T3_0_0 :s15_1_0 T19_0_0 :s14_1_0 T18_0_0 :w3_2_0 T43_0_0 :w8_4_0 :w8_3_0 T32_0_0 :s25_1_0 T43_1_0 :w3_1_0 T18_1_0 :s14_0_0"/>
            <conflictLinks logicIndex="s25_0 s14_0">
                <conflictLink logicIndex="s25_0" lanes="T31_0_0 :w7_3_0 T42_0_0 :w2_2_0 :w7_2_0 T30_0_0 :s24_1_0" links="s24_0"/>
                <conflictLink logicIndex="s14_0" lanes="T19_1_0 :s15_0_0 T3_1_0 :s2_0_0 TrightLoop_1_0 :s4_0_0 T6_0_0 :s28_1_0 T35_0_0 :s27_1_0 T34_0_0 :s26_1_0 T33_0_0 :w8_2_0"/>
            </conflictLinks>
        </link>
    </railSignal>
    <railSignal id="s14">
        <link linkIndex="0" from="T19_1_0" to=":s14_0_0">
            <forwardBlock lanes=":s14_0_0 T18_1_0 :w3_1_0 T43_1_0 :w8_0_0 T32_1_0 :s25_0_0 T31_1_0 :w7_1_0 T30_1_0 :w7_0_0 T42_1_0 :w2_1_0 T15_1_0 :w3_0_0 T17_1_0"/>
            <bidiBlock lanes=":s14_1_0 T18_0_0 :w3_2_0 T43_0_0 :w8_4_0 :w8_3_0 T32_0_0 :s25_1_0"/>
            <backwardBlock lanes=":w8_1_0 T33_1_0 :s26_0_0 T34_1_0 :s27_0_0 T35_1_0 :s28_0_0 T6_1_0 :s4_1_0 TrightLoop_0_0 :s2_1_0 T3_0_0 :s15_1_0 :w2_0_0 T16_1_0 :s13_0_0"/>
            <conflictLinks logicIndex="s25_0">
                <conflictLink logicIndex="s25_0" lanes="T31_0_0 :w7_3_0 T42_0_0 :w2_2_0 T15_0_0 :s12_1_0 T14_0_0 :s11_1_0 T13_0_0 :s10_1_0 T12_0_0 :w7_2_0 T30_0_0 :s24_1_0" links="s24_0"/>
            </conflictLinks>
        </link>
    </railSignal>
    <railSignal id="s15">
        <link linkIndex="0" from="T3_1_0" to=":s15_0_0">
            <forwardBlock lanes=":s15_0_0 T19_1_0"/>
            <bidiBlock lanes=":s15_1_0 T19_0_0 :s14_1_0 T18_0_0 :w3_2_0 T43_0_0 :w8_4_0 :w8_3_0 T32_0_0 :s25_1_0"/>
            <backwardBlock lanes=""/>
            <conflictLinks logicIndex="s25_0">
                <conflictLink logicIndex="s25_0" lanes="T31_0_0 :w7_3_0 T42_0_0 :w2_2_0 T15_0_0 :s12_1_0 T14_0_0 :s11_1_0 T13_0_0 :s10_1_0 T12_0_0 :w7_2_0 T30_0_0 :s24_1_0" links="s24_0"/>
            </conflictLinks>
        </link>
    </railSignal>
    <railSignal id="s16">
        <link linkIndex="0" from="TleftLoop_1_0" to=":s16_1_0">
            <forwardBlock lanes=":s16_1_0 T20_0_0"/>
            <bidiBlock lanes=":s16_0_0 T20_1_0 :s17_0_0 T21_1_0 :s18_0_0 T22_1_0 :s19_0_0 T23_1_0 :s20_0_0 T24_1_0 :s21_0_0 T25_1_0"/>
            <backwardBlock lanes=""/>
            <conflictLinks logicIndex=""/>
        </link>
    </railSignal>
    <railSignal id="s17">
        <link linkIndex="0" from="T20_0_0" to=":s17_1_0">
            <forwardBlock lanes=":s17_1_0 T21_0_0"/>
            <bidiBlock lanes=":s17_0_0 T21_1_0 :s18_0_0 T22_1_0 :s19_0_0 T23_1_0 :s20_0_0 T24_1_0 :s21_0_0 T25_1_0"/>
            <backwardBlock lanes=""/>
            <conflictLinks logicIndex=""/>
        </link>
    </railSignal>
    <railSignal id="s18">
        <link linkIndex="0" from="T21_0_0" to=":s18_1_0">
            <forwardBlock lanes=":s18_1_0 T22_0_0"/>
            <bidiBlock lanes=":s18_0_0 T22_1_0 :s19_0_0 T23_1_0 :s20_0_0 T24_1_0 :s21_0_0 T25_1_0"/>
            <backwardBlock lanes=""/>
            <conflictLinks logicIndex=""/>
        </link>
    </railSignal>
    <railSignal id="s19">
        <link linkIndex="0" from="T22_0_0" to=":s19_1_0">
            <forwardBlock lanes=":s19_1_0 T23_0_0"/>
            <bidiBlock lanes=":s19_0_0 T23_1_0 :s20_0_0 T24_1_0 :s21_0_0 T25_1_0"/>
            <backwardBlock lanes=""/>
            <conflictLinks logicIndex=""/>
        </link>
    </railSignal>
    <railSignal id="s2">
        <link linkIndex="0" from="TrightLoop_1_0" to=":s2_0_0">
            <forwardBlock lanes=":s2_0_0 T3_1_0"/>
            <bidiBlock lanes=":s2_1_0 T3_0_0 :s15_1_0 T19_0_0 :s14_1_0 T18_0_0 :w3_2_0 T43_0_0 :w8_4_0 :w8_3_0 T32_0_0 :s25_1_0"/>
            <backwardBlock lanes=""/>
            <conflictLinks logicIndex="s25_0">
                <conflictLink logicIndex="s25_0" lanes="T31_0_0 :w7_3_0 T42_0_0 :w2_2_0 T15_0_0 :s12_1_0 T14_0_0 :s11_1_0 T13_0_0 :s10_1_0 T12_0_0 :w7_2_0 T30_0_0 :s24_1_0" links="s24_0"/>
            </conflictLinks>
        </link>
    </railSignal>
    <railSignal id="s20">
        <link linkIndex="0" from="T23_0_0" to=":s20_1_0">
            <forwardBlock lanes=":s20_1_0 T24_0_0"/>
            <bidiBlock lanes=":s20_0_0 T24_1_0 :s21_0_0 T25_1_0"/>
            <backwardBlock lanes=""/>
            <conflictLinks logicIndex=""/>
        </link>
    </railSignal>
    <railSignal id="s21">
        <link linkIndex="0" from="T24_0_0" to=":s21_1_0">
            <forwardBlock lanes=":s21_1_0 T25_0_0"/>
            <bidiBlock lanes=":s21_0_0 T25_1_0"/>
            <backwardBlock lanes=""/>
            <conflictLinks logicIndex=""/>
        </link>
    </railSignal>
    <railSignal id="s22">
        <link linkIndex="0" from="T25_0_0" to=":s22_0_0">
            <forwardBlock lanes=":s22_0_0 T26_0_0 :w4_1_0 T44_0_0 :w5_3_0 T27_0_0 :w5_2_0 T36_0_0 :s29_1_0 T37_0_0 :w9_5_0 T38_1_0 :w9_4_0 Tdepot_0_0"/>
            <bidiBlock lanes=":w4_0_0 T44_1_0 :w5_1_0 T36_1_0 :s29_0_0 :w5_0_0 T27_1_0 :s23_0_0 T28_1_0"/>
            <backwardBlock lanes=":w4_2_0 T41_0_0 :w9_2_0 Tdepot_1_0 :w9_1_0 T38_0_0 :s30_0_0 T39_1_0"/>
            <conflictLinks logicIndex="s29_0">
                <conflictLink logicIndex="s29_0" lanes="T37_1_0 :w9_3_0 :w9_0_0"/>
            </conflictLinks>
        </link>
    </railSignal>
    <railSignal id="s23">
        <link linkIndex="0" from="T27_0_0" to=":s23_1_0">
            <forwardBlock lanes=":s23_1_0 T28_0_0 :w6_1_0 T29_0_0"/>
            <bidiBlock lanes=":s23_0_0 T28_1_0"/>
            <backwardBlock lanes=":w6_0_0 T39_0_0 :s30_1_0"/>
            <conflictLinks logicIndex="s30_0">
                <conflictLink logicIndex="s30_0" lanes="T38_1_0 :w9_5_0 T37_0_0 :s29_1_0 T36_0_0 :w5_2_0 T44_0_0 :w4_2_0 T41_0_0 :w4_1_0 T26_0_0 :s22_0_0 :w9_2_0 Tdepot_1_0" links="s22_0"/>
            </conflictLinks>
        </link>
    </railSignal>
    <railSignal id="s24">
        <link linkIndex="0" from="T29_0_0" to=":s24_1_0">
            <forwardBlock lanes=":s24_1_0 T30_0_0 :w7_2_0 T31_0_0"/>
            <bidiBlock lanes=":s24_0_0 T30_1_0 :w7_1_0 T31_1_0 :s25_0_0 T32_1_0 :w8_1_0 T33_1_0 :s26_0_0 T34_1_0 :s27_0_0 T35_1_0 :s28_0_0 T6_1_0 :s4_1_0 TrightLoop_0_0 :s2_1_0 T3_0_0 :s15_1_0 T19_0_0 :s14_1_0 T18_0_0 :w3_2_0 T43_0_0 :w8_4_0 :w8_3_0 T32_0_0 :s25_1_0 :w8_0_0 T43_1_0 :w3_1_0 T18_1_0 :s14_0_0"/>
            <backwardBlock lanes=":w7_3_0 T42_0_0 :w2_2_0 T15_0_0 :s12_1_0 T14_0_0 :s11_1_0 T13_0_0 :s10_1_0 T12_0_0"/>
            <conflictLinks logicIndex="s14_0">
                <conflictLink logicIndex="s14_0" lanes="T19_1_0 :s15_0_0 T3_1_0 :s2_0_0 TrightLoop_1_0 :s4_0_0 T6_0_0 :s28_1_0 T35_0_0 :s27_1_0 T34_0_0 :s26_1_0 T33_0_0 :w8_2_0"/>
            </conflictLinks>
        </link>
    </railSignal>
    <railSignal id="s25">
        <link linkIndex="0" from="T31_0_0" to=":s25_1_0">
            <forwardBlock lanes=":s25_1_0 T32_0_0 :w8_3_0 :w8_4_0 T43_0_0 :w3_2_0 T18_0_0 :s14_1_0 T19_0_0 :s15_1_0 T3_0_0 :s2_1_0 TrightLoop_0_0 :s4_1_0 T6_1_0 :s28_0_0 T35_1_0 :s27_0_0 T34_1_0 :s26_0_0 T33_1_0 :w8_1_0 T32_1_0 :s25_0_0 :w8_2_0 T33_0_0"/>
            <bidiBlock lanes=""/>
            <backwardBlock lanes=":w8_0_0 T43_1_0 :w3_1_0 T18_1_0 :s14_0_0"/>
            <conflictLinks logicIndex="s14_0">
                <conflictLink logicIndex="s14_0" lanes="T19_1_0 :s15_0_0 T3_1_0 :s2_0_0 TrightLoop_1_0 :s4_0_0 T6_0_0 :s28_1_0 T35_0_0 :s27_1_0 T34_0_0 :s26_1_0"/>
            </conflictLinks>
        </link>
    </railSignal>
    <railSignal id="s26">
        <link linkIndex="0" from="T33_0_0" to=":s26_1_0">
            <forwardBlock lanes=":s26_1_0 T34_0_0"/>
            <bidiBlock lanes=":s26_0_0 T34_1_0 :s27_0_0 T35_1_0 :s28_0_0 T6_1_0 :s4_1_0 TrightLoop_0_0 :s2_1_0 T3_0_0 :s15_1_0 T19_0_0 :s14_1_0 T18_0_0 :w3_2_0 T43_0_0 :w8_4_0 :w8_3_0 T32_0_0 :s25_1_0"/>
            <backwardBlock lanes=""/>
            <conflictLinks logicIndex="s25_0">
                <conflictLink logicIndex="s25_0" lanes="T31_0_0 :w7_3_0 T42_0_0 :w2_2_0 T15_0_0 :s12_1_0 T14_0_0 :s11_1_0 T13_0_0 :s10_1_0 T12_0_0 :w7_2_0 T30_0_0 :s24_1_0" links="s24_0"/>
            </conflictLinks>
        </link>
    </railSignal>
    <railSignal id="s27">
        <link linkIndex="0" from="T34_0_0" to=":s27_1_0">
            <forwardBlock lanes=":s27_1_0 T35_0_0"/>
            <bidiBlock lanes=":s27_0_0 T35_1_0 :s28_0_0 T6_1_0 :s4_1_0 TrightLoop_0_0 :s2_1_0 T3_0_0 :s15_1_0 T19_0_0 :s14_1_0 T18_0_0 :w3_2_0 T43_0_0 :w8_4_0 :w8_3_0 T32_0_0 :s25_1_0"/>
            <backwardBlock lanes=""/>
            <conflictLinks logicIndex="s25_0">
                <conflictLink logicIndex="s25_0" lanes="T31_0_0 :w7_3_0 T42_0_0 :w2_2_0 T15_0_0 :s12_1_0 T14_0_0 :s11_1_0 T13_0_0 :s10_1_0 T12_0_0 :w7_2_0 T30_0_0 :s24_1_0" links="s24_0"/>
            </conflictLinks>
        </link>
    </railSignal>
    <railSignal id="s28">
        <link linkIndex="0" from="T35_0_0" to=":s28_1_0">
            <forwardBlock lanes=":s28_1_0 T6_0_0"/>
            <bidiBlock lanes=":s28_0_0 T6_1_0 :s4_1_0 TrightLoop_0_0 :s2_1_0 T3_0_0 :s15_1_0 T19_0_0 :s14_1_0 T18_0_0 :w3_2_0 T43_0_0 :w8_4_0 :w8_3_0 T32_0_0 :s25_1_0"/>
            <backwardBlock lanes=""/>
            <conflictLinks logicIndex="s25_0">
                <conflictLink logicIndex="s25_0" lanes="T31_0_0 :w7_3_0 T42_0_0 :w2_2_0 T15_0_0 :s12_1_0 T14_0_0 :s11_1_0 T13_0_0 :s10_1_0 T12_0_0 :w7_2_0 T30_0_0 :s24_1_0" links="s24_0"/>
            </conflictLinks>
        </link>
    </railSignal>
    <railSignal id="s29">
        <link linkIndex="0" from="T37_1_0" to=":s29_0_0">
            <forwardBlock lanes=":s29_0_0 T36_1_0 :w5_1_0 T44_1_0 :w4_0_0 T41_1_0 :w1_1_0 T11_1_0"/>
            <bidiBlock lanes=":s29_1_0 T36_0_0 :w5_2_0 T44_0_0 :w4_2_0 T41_0_0 :w4_1_0 T26_0_0 :s22_0_0"/>
            <backwardBlock lanes=":w5_0_0 T27_1_0 :s23_0_0 T28_1_0 :w1_0_0 T12_1_0 :s10_0_0"/>
            <conflictLinks logicIndex="s10_0 s22_0">
                <conflictLink logicIndex="s10_0" lanes="T13_1_0 :s11_0_0 T14_1_0 :s12_0_0 T15_1_0 :w2_1_0 T42_1_0 :w7_0_0 T31_1_0 :s25_0_0 T32_1_0 :w8_1_0 T33_1_0 :s26_0_0 T34_1_0 :s27_0_0 T35_1_0 :s28_0_0 T6_1_0 :s4_1_0 TrightLoop_0_0 :s2_1_0 T3_0_0 :s15_1_0 T19_0_0 :s14_1_0 T18_0_0 :w3_2_0 T43_0_0 :w8_4_0 :w8_3_0 T32_0_0 :s25_1_0 :w8_0_0 T43_1_0 :w3_1_0 T18_1_0 :s14_0_0 :w2_0_0 T16_1_0 :s13_0_0" links="s25_0 s14_0 s13_0"/>
                <conflictLink logicIndex="s22_0" lanes="T25_0_0 :s21_1_0 T24_0_0 :s20_1_0 T23_0_0 :s19_1_0 T22_0_0 :s18_1_0 T21_0_0 :s17_1_0 T20_0_0 :s16_1_0 TleftLoop_1_0 :s3_0_0 T1_1_0 :s1_0_0 T2_1_0 :s5_0_0 T7_1_0 :s6_0_0 T8_1_0 :s7_0_0 T9_1_0 :s8_0_0 T10_1_0 :s9_0_0"/>
            </conflictLinks>
        </link>
    </railSignal>
    <railSignal id="s3">
        <link linkIndex="0" from="T1_1_0" to=":s3_0_0">
            <forwardBlock lanes=":s3_0_0 TleftLoop_1_0"/>
            <bidiBlock lanes=":s3_1_0 TleftLoop_0_0 :s16_0_0 T20_1_0 :s17_0_0 T21_1_0 :s18_0_0 T22_1_0 :s19_0_0 T23_1_0 :s20_0_0 T24_1_0 :s21_0_0 T25_1_0"/>
            <backwardBlock lanes=""/>
            <conflictLinks logicIndex=""/>
        </link>
    </railSignal>
    <railSignal id="s30">
        <link linkIndex="0" from="T38_1_0" to=":s30_1_0">
            <forwardBlock lanes=":s30_1_0 T39_0_0 :w6_0_0 T29_0_0"/>
            <bidiBlock lanes=":s30_0_0 T39_1_0"/>
            <backwardBlock lanes=":w6_1_0 T28_0_0 :s23_1_0"/>
            <conflictLinks logicIndex="s23_0">
                <conflictLink logicIndex="s23_0" lanes="T27_0_0 :w5_3_0 T44_0_0 :w4_2_0 T41_0_0 :w4_1_0 T26_0_0 :s22_0_0" links="s22_0"/>
            </conflictLinks>
        </link>
    </railSignal>
    <railSignal id="s4">
        <link linkIndex="0" from="T6_0_0" to=":s4_0_0">
            <forwardBlock lanes=":s4_0_0 TrightLoop_1_0"/>
            <bidiBlock lanes=":s4_1_0 TrightLoop_0_0 :s2_1_0 T3_0_0 :s15_1_0 T19_0_0 :s14_1_0 T18_0_0 :w3_2_0 T43_0_0 :w8_4_0 :w8_3_0 T32_0_0 :s25_1_0"/>
            <backwardBlock lanes=""/>
            <conflictLinks logicIndex="s25_0">
                <conflictLink logicIndex="s25_0" lanes="T31_0_0 :w7_3_0 T42_0_0 :w2_2_0 T15_0_0 :s12_1_0 T14_0_0 :s11_1_0 T13_0_0 :s10_1_0 T12_0_0 :w7_2_0 T30_0_0 :s24_1_0" links="s24_0"/>
            </conflictLinks>
        </link>
    </railSignal>
    <railSignal id="s5">
        <link linkIndex="0" from="T7_1_0" to=":s5_0_0">
            <forwardBlock lanes=":s5_0_0 T2_1_0"/>
            <bidiBlock lanes=":s5_1_0 T2_0_0 :s1_1_0 T1_0_0 :s3_1_0 TleftLoop_0_0 :s16_0_0 T20_1_0 :s17_0_0 T21_1_0 :s18_0_0 T22_1_0 :s19_0_0 T23_1_0 :s20_0_0 T24_1_0 :s21_0_0 T25_1_0"/>
            <backwardBlock lanes=""/>
            <conflictLinks logicIndex=""/>
        </link>
    </railSignal>
    <railSignal id="s6">
        <link linkIndex="0" from="T8_1_0" to=":s6_0_0">
            <forwardBlock lanes=":s6_0_0 T7_1_0"/>
            <bidiBlock lanes=":s6_1_0 T7_0_0 :s5_1_0 T2_0_0 :s1_1_0 T1_0_0 :s3_1_0 TleftLoop_0_0 :s16_0_0 T20_1_0 :s17_0_0 T21_1_0 :s18_0_0 T22_1_0 :s19_0_0 T23_1_0 :s20_0_0 T24_1_0 :s21_0_0 T25_1_0"/>
            <backwardBlock lanes=""/>
            <conflictLinks logicIndex=""/>
        </link>
    </railSignal>
    <railSignal id="s7">
        <link linkIndex="0" from="T9_1_0" to=":s7_0_0">
            <forwardBlock lanes=":s7_0_0 T8_1_0"/>
            <bidiBlock lanes=":s7_1_0 T8_0_0 :s6_1_0 T7_0_0 :s5_1_0 T2_0_0 :s1_1_0 T1_0_0 :s3_1_0 TleftLoop_0_0 :s16_0_0 T20_1_0 :s17_0_0 T21_1_0 :s18_0_0 T22_1_0 :s19_0_0 T23_1_0 :s20_0_0 T24_1_0 :s21_0_0 T25_1_0"/>
            <backwardBlock lanes=""/>
            <conflictLinks logicIndex=""/>
        </link>
    </railSignal>
    <railSignal id="s8">
        <link linkIndex="0" from="T10_1_0" to=":s8_0_0">
            <forwardBlock lanes=":s8_0_0 T9_1_0"/>
            <bidiBlock lanes=":s8_1_0 T9_0_0 :s7_1_0 T8_0_0 :s6_1_0 T7_0_0 :s5_1_0 T2_0_0 :s1_1_0 T1_0_0 :s3_1_0 TleftLoop_0_0 :s16_0_0 T20_1_0 :s17_0_0 T21_1_0 :s18_0_0 T22_1_0 :s19_0_0 T23_1_0 :s20_0_0 T24_1_0 :s21_0_0 T25_1_0"/>
            <backwardBlock lanes=""/>
            <conflictLinks logicIndex=""/>
        </link>
    </railSignal>
    <railSignal id="s9">
        <link linkIndex="0" from="T11_1_0" to=":s9_0_0">
            <forwardBlock lanes=":s9_0_0 T10_1_0"/>
            <bidiBlock lanes=":s9_1_0 T10_0_0 :s8_1_0 T9_0_0 :s7_1_0 T8_0_0 :s6_1_0 T7_0_0 :s5_1_0 T2_0_0 :s1_1_0 T1_0_0 :s3_1_0 TleftLoop_0_0 :s16_0_0 T20_1_0 :s17_0_0 T21_1_0 :s18_0_0 T22_1_0 :s19_0_0 T23_1_0 :s20_0_0 T24_1_0 :s21_0_0 T25_1_0"/>
            <backwardBlock lanes=""/>
            <conflictLinks logicIndex=""/>
        </link>
    </railSignal>
</railsignal-block-output>
