<?xml version="1.0" encoding="UTF-8"?>

<!-- generated on Fri Feb 22 12:40:18 2019 by Eclipse SUMO Version v1_0_1+0645-93703db
This data file and the accompanying materials
are made available under the terms of the Eclipse Public License v2.0
which accompanies this distribution, and is available at
http://www.eclipse.org/legal/epl-v20.html
SPDX-License-Identifier: EPL-2.0
<configuration xmlns:xsi="http://www.w3.org/2001/XMLSchema-instance" xsi:noNamespaceSchemaLocation="http://sumo.dlr.de/xsd/sumoConfiguration.xsd">

    <input>
        <net-file value="net.net.xml"/>
        <route-files value="input_routes.rou.xml"/>
        <additional-files value="input_additional.add.xml,input_additional2.add.xml"/>
    </input>

    <output>
        <write-license value="true"/>
        <tripinfo-output value="tripinfos.xml"/>
        <vehroute-output value="vehroutes.xml"/>
        <railsignal-block-output value="railsignal_blocks.xml"/>
        <stop-output value="stopinfos.xml"/>
    </output>

    <processing>
        <default.speeddev value="0"/>
    </processing>

    <routing>
        <device.rerouting.period value="10"/>
        <device.rerouting.adaptation-steps value="10"/>
    </routing>

    <report>
        <verbose value="true"/>
        <xml-validation value="never"/>
        <duration-log.statistics value="true"/>
        <no-step-log value="true"/>
    </report>

</configuration>
-->

<tripinfos xmlns:xsi="http://www.w3.org/2001/XMLSchema-instance" xsi:noNamespaceSchemaLocation="http://sumo.dlr.de/xsd/tripinfo_file.xsd">
    <tripinfo id="tram3" depart="10.00" departLane="TrightLoop_1_0" departPos="46.10" departSpeed="21.21" departDelay="0.00" arrival="703.00" arrivalLane="TleftLoop_1_0" arrivalPos="400.00" arrivalSpeed="16.02" duration="693.00" routeLength="10318.12" waitingTime="95.00" waitingCount="3" stopTime="0.00" timeLoss="382.01" rerouteNo="1" devices="vehroute_tram3 tripinfo_tram3 routing_tram3" vType="RB628" speedFactor="1.00" vaporized=""/>
    <tripinfo id="tram8" depart="210.00" departLane="Tdepot_1_0" departPos="46.10" departSpeed="9.68" departDelay="0.00" arrival="2504.00" arrivalLane="Tdepot_1_0" arrivalPos="150.00" arrivalSpeed="7.35" duration="2294.00" routeLength="31030.79" waitingTime="379.00" waitingCount="11" stopTime="63.00" timeLoss="1292.24" rerouteNo="5" devices="vehroute_tram8 tripinfo_tram8 routing_tram8" vType="RB628" speedFactor="1.00" vaporized=""/>
    <tripinfo id="tram5" depart="100.00" departLane="Tdepot_1_0" departPos="46.10" departSpeed="12.38" departDelay="0.00" arrival="2836.00" arrivalLane="Tdepot_1_0" arrivalPos="150.00" arrivalSpeed="7.35" duration="2736.00" routeLength="40292.86" waitingTime="268.00" waitingCount="11" stopTime="84.00" timeLoss="1425.43" rerouteNo="7" devices="vehroute_tram5 tripinfo_tram5 routing_tram5" vType="RB628" speedFactor="1.00" vaporized=""/>
    <tripinfo id="tram7" depart="200.00" departLane="Tdepot_1_0" departPos="46.10" departSpeed="12.38" departDelay="0.00" arrival="3010.00" arrivalLane="Tdepot_1_0" arrivalPos="150.00" arrivalSpeed="7.35" duration="2810.00" routeLength="40292.86" waitingTime="361.00" waitingCount="13" stopTime="84.00" timeLoss="1499.44" rerouteNo="7" devices="vehroute_tram7 tripinfo_tram7 routing_tram7" vType="RB628" speedFactor="1.00" vaporized=""/>
    <tripinfo id="tram9" depart="300.00" departLane="Tdepot_1_0" departPos="46.10" departSpeed="12.38" departDelay="0.00" arrival="3184.00" arrivalLane="Tdepot_1_0" arrivalPos="150.00" arrivalSpeed="7.35" duration="2884.00" routeLength="40292.86" waitingTime="438.00" waitingCount="12" stopTime="84.00" timeLoss="1573.64" rerouteNo="7" devices="vehroute_tram9 tripinfo_tram9 routing_tram9" vType="RB628" speedFactor="1.00" vaporized=""/>
    <tripinfo id="tram1" depart="1.00" departLane="Tdepot_1_0" departPos="46.10" departSpeed="12.45" departDelay="0.00" arrival="3283.00" arrivalLane="Tdepot_1_0" arrivalPos="150.00" arrivalSpeed="6.81" duration="3282.00" routeLength="50970.45" waitingTime="380.00" waitingCount="12" stopTime="105.00" timeLoss="1639.91" rerouteNo="7" devices="vehroute_tram1 tripinfo_tram1 routing_tram1" vType="RB628" speedFactor="1.00" vaporized=""/>
    <tripinfo id="tram4" depart="13.00" departLane="Tdepot_1_0" departPos="46.10" departSpeed="5.98" departDelay="2.00" arrival="3473.00" arrivalLane="Tdepot_1_0" arrivalPos="150.00" arrivalSpeed="7.35" duration="3460.00" routeLength="50970.45" waitingTime="410.00" waitingCount="13" stopTime="105.00" timeLoss="1814.79" rerouteNo="9" devices="vehroute_tram4 tripinfo_tram4 routing_tram4" vType="RB628" speedFactor="1.00" vaporized=""/>
    <tripinfo id="tram6" depart="110.00" departLane="Tdepot_1_0" departPos="46.10" departSpeed="9.68" departDelay="0.00" arrival="3572.00" arrivalLane="Tdepot_1_0" arrivalPos="150.00" arrivalSpeed="6.81" duration="3462.00" routeLength="50970.45" waitingTime="441.00" waitingCount="14" stopTime="105.00" timeLoss="1818.13" rerouteNo="7" devices="vehroute_tram6 tripinfo_tram6 routing_tram6" vType="RB628" speedFactor="1.00" vaporized=""/>
    <tripinfo id="tram2" depart="6.00" departLane="Tdepot_1_0" departPos="46.10" departSpeed="9.76" departDelay="4.00" arrival="3726.00" arrivalLane="Tdepot_1_0" arrivalPos="150.00" arrivalSpeed="7.35" duration="3720.00" routeLength="60232.52" waitingTime="280.00" waitingCount="8" stopTime="126.00" timeLoss="1768.83" rerouteNo="13" devices="vehroute_tram2 tripinfo_tram2 routing_tram2" vType="RB628" speedFactor="1.00" vaporized=""/>
</tripinfos>
