<?xml version="1.0"?>

<!-- generated on 11/03/08 14:06:01 by SUMO sumo Version dev-SVN-r6273
<configuration>

   <input>
      <net-file>three_split.net.xml</net-file>
      <additional-files>input_routes.rou.xml,input_additional.add.xml</additional-files>
   </input>

   <output>
      <vehroute-output>vehroutes.xml</vehroute-output>
   </output>

   <processing>
      <no-duration-log>true</no-duration-log>
      <no-step-log>true</no-step-log>
   </processing>

</configuration>
-->

<routes>
   <vehicle id="0" depart="0" arrival="77">
      <route>beg middle end rend</route>
   </vehicle>

   <vehicle id="1" depart="20" arrival="97">
      <route>beg middle end rend</route>
   </vehicle>

   <vehicle id="2" depart="40" arrival="117">
      <route>beg middle end rend</route>
   </vehicle>

   <vehicle id="3" depart="60" arrival="137">
      <route>beg middle end rend</route>
   </vehicle>

   <vehicle id="4" depart="80" arrival="157">
      <route>beg middle end rend</route>
   </vehicle>

   <vehicle id="5" depart="100" arrival="268">
      <replaced_route replacedOnEdge="beg"  replacedAtTime="100">beg middle end rend</replaced_route>

      <route>beg beg2left left left2end end</route>
   </vehicle>

   <vehicle id="6" depart="120" arrival="289">
      <replaced_route replacedOnEdge="beg"  replacedAtTime="120">beg middle end rend</replaced_route>

      <route>beg beg2right right right2end end</route>
   </vehicle>

   <vehicle id="7" depart="140" arrival="308">
      <replaced_route replacedOnEdge="beg"  replacedAtTime="140">beg middle end rend</replaced_route>

      <route>beg beg2left left left2end end</route>
   </vehicle>

   <vehicle id="8" depart="160" arrival="328">
      <replaced_route replacedOnEdge="beg"  replacedAtTime="160">beg middle end rend</replaced_route>

      <route>beg beg2left left left2end end</route>
   </vehicle>

   <vehicle id="9" depart="180" arrival="349">
      <replaced_route replacedOnEdge="beg"  replacedAtTime="180">beg middle end rend</replaced_route>

      <route>beg beg2right right right2end end</route>
   </vehicle>

</routes>
