<?xml version="1.0"?>

<!-- generated on 12/22/09 11:40:26 by SUMO sumo Version dev-SVN-r8086
<configuration>

    <input>
        <net-file value="net.net.xml"/>
        <route-files value="input_routes.rou.xml"/>
    </input>

    <output>
        <vehroute-output value="vehroutes.xml"/>
    </output>

    <report>
        <no-duration-log value="true"/>
        <no-step-log value="true"/>
    </report>

</configuration>
-->

<routes>
    <vehicle id="0" depart="0" arrival="123">
        <route edges="beg middle end rend"/>
   </vehicle>

    <vehicle id="0_0" depart="10" arrival="131">
        <route edges="beg middle end rend"/>
   </vehicle>

    <vehicle id="0_1" depart="20" arrival="142">
        <route edges="beg middle end rend"/>
   </vehicle>

    <vehicle id="0_2" depart="30" arrival="152">
        <route edges="beg middle end rend"/>
   </vehicle>

    <vehicle id="0_3" depart="40" arrival="162">
        <route edges="beg middle end rend"/>
   </vehicle>

    <vehicle id="0_4" depart="50" arrival="172">
        <route edges="beg middle end rend"/>
   </vehicle>

    <vehicle id="0_5" depart="60" arrival="182">
        <route edges="beg middle end rend"/>
   </vehicle>

    <vehicle id="0_6" depart="70" arrival="192">
        <route edges="beg middle end rend"/>
   </vehicle>

    <vehicle id="0_7" depart="80" arrival="202">
        <route edges="beg middle end rend"/>
   </vehicle>

    <vehicle id="0_8" depart="90" arrival="212">
        <route edges="beg middle end rend"/>
   </vehicle>

    <vehicle id="0_9" depart="100" arrival="222">
        <route edges="beg middle end rend"/>
   </vehicle>

    <vehicle id="0_10" depart="110" arrival="232">
        <route edges="beg middle end rend"/>
   </vehicle>

    <vehicle id="0_11" depart="120" arrival="242">
        <route edges="beg middle end rend"/>
   </vehicle>

    <vehicle id="0_12" depart="130" arrival="251">
        <route edges="beg middle end rend"/>
   </vehicle>

    <vehicle id="0_13" depart="140" arrival="262">
        <route edges="beg middle end rend"/>
   </vehicle>

    <vehicle id="0_14" depart="150" arrival="272">
        <route edges="beg middle end rend"/>
   </vehicle>

    <vehicle id="0_15" depart="160" arrival="282">
        <route edges="beg middle end rend"/>
   </vehicle>

    <vehicle id="0_16" depart="170" arrival="292">
        <route edges="beg middle end rend"/>
   </vehicle>

    <vehicle id="0_17" depart="180" arrival="301">
        <route edges="beg middle end rend"/>
   </vehicle>

    <vehicle id="0_18" depart="190" arrival="312">
        <route edges="beg middle end rend"/>
   </vehicle>

    <vehicle id="0_19" depart="200" arrival="322">
        <route edges="beg middle end rend"/>
   </vehicle>

    <vehicle id="0_20" depart="210" arrival="332">
        <route edges="beg middle end rend"/>
   </vehicle>

    <vehicle id="0_21" depart="220" arrival="342">
        <route edges="beg middle end rend"/>
   </vehicle>

    <vehicle id="0_22" depart="230" arrival="352">
        <route edges="beg middle end rend"/>
   </vehicle>

    <vehicle id="0_23" depart="240" arrival="363">
        <route edges="beg middle end rend"/>
   </vehicle>

    <vehicle id="0_24" depart="250" arrival="372">
        <route edges="beg middle end rend"/>
   </vehicle>

    <vehicle id="0_25" depart="260" arrival="382">
        <route edges="beg middle end rend"/>
   </vehicle>

    <vehicle id="0_26" depart="270" arrival="393">
        <route edges="beg middle end rend"/>
   </vehicle>

    <vehicle id="0_27" depart="280" arrival="402">
        <route edges="beg middle end rend"/>
   </vehicle>

    <vehicle id="0_28" depart="290" arrival="412">
        <route edges="beg middle end rend"/>
   </vehicle>

    <vehicle id="0_29" depart="300" arrival="422">
        <route edges="beg middle end rend"/>
   </vehicle>

    <vehicle id="0_30" depart="310" arrival="432">
        <route edges="beg middle end rend"/>
   </vehicle>

    <vehicle id="0_31" depart="320" arrival="442">
        <route edges="beg middle end rend"/>
   </vehicle>

    <vehicle id="0_32" depart="330" arrival="452">
        <route edges="beg middle end rend"/>
   </vehicle>

    <vehicle id="0_33" depart="340" arrival="462">
        <route edges="beg middle end rend"/>
   </vehicle>

    <vehicle id="0_34" depart="350" arrival="472">
        <route edges="beg middle end rend"/>
   </vehicle>

    <vehicle id="0_35" depart="360" arrival="482">
        <route edges="beg middle end rend"/>
   </vehicle>

    <vehicle id="0_36" depart="370" arrival="492">
        <route edges="beg middle end rend"/>
   </vehicle>

    <vehicle id="0_37" depart="380" arrival="503">
        <route edges="beg middle end rend"/>
   </vehicle>

    <vehicle id="0_38" depart="390" arrival="512">
        <route edges="beg middle end rend"/>
   </vehicle>

    <vehicle id="0_39" depart="400" arrival="521">
        <route edges="beg middle end rend"/>
   </vehicle>

    <vehicle id="0_40" depart="410" arrival="532">
        <route edges="beg middle end rend"/>
   </vehicle>

    <vehicle id="0_41" depart="420" arrival="543">
        <route edges="beg middle end rend"/>
   </vehicle>

    <vehicle id="0_42" depart="430" arrival="552">
        <route edges="beg middle end rend"/>
   </vehicle>

    <vehicle id="0_43" depart="440" arrival="562">
        <route edges="beg middle end rend"/>
   </vehicle>

    <vehicle id="0_44" depart="450" arrival="572">
        <route edges="beg middle end rend"/>
   </vehicle>

    <vehicle id="0_45" depart="460" arrival="581">
        <route edges="beg middle end rend"/>
   </vehicle>

    <vehicle id="0_46" depart="470" arrival="591">
        <route edges="beg middle end rend"/>
   </vehicle>

    <vehicle id="0_47" depart="480" arrival="603">
        <route edges="beg middle end rend"/>
   </vehicle>

    <vehicle id="0_48" depart="490" arrival="611">
        <route edges="beg middle end rend"/>
   </vehicle>

    <vehicle id="0_49" depart="500" arrival="622">
        <route edges="beg middle end rend"/>
   </vehicle>

    <vehicle id="0_50" depart="510" arrival="632">
        <route edges="beg middle end rend"/>
   </vehicle>

    <vehicle id="0_51" depart="520" arrival="642">
        <route edges="beg middle end rend"/>
   </vehicle>

    <vehicle id="0_52" depart="530" arrival="653">
        <route edges="beg middle end rend"/>
   </vehicle>

    <vehicle id="0_53" depart="540" arrival="662">
        <route edges="beg middle end rend"/>
   </vehicle>

    <vehicle id="0_54" depart="550" arrival="672">
        <route edges="beg middle end rend"/>
   </vehicle>

    <vehicle id="0_55" depart="560" arrival="682">
        <route edges="beg middle end rend"/>
   </vehicle>

    <vehicle id="0_56" depart="570" arrival="693">
        <route edges="beg middle end rend"/>
   </vehicle>

    <vehicle id="0_57" depart="580" arrival="702">
        <route edges="beg middle end rend"/>
   </vehicle>

    <vehicle id="0_58" depart="590" arrival="712">
        <route edges="beg middle end rend"/>
   </vehicle>

    <vehicle id="0_59" depart="600" arrival="721">
        <route edges="beg middle end rend"/>
   </vehicle>

    <vehicle id="0_60" depart="610" arrival="733">
        <route edges="beg middle end rend"/>
   </vehicle>

    <vehicle id="0_61" depart="620" arrival="742">
        <route edges="beg middle end rend"/>
   </vehicle>

    <vehicle id="0_62" depart="630" arrival="753">
        <route edges="beg middle end rend"/>
   </vehicle>

    <vehicle id="0_63" depart="640" arrival="763">
        <route edges="beg middle end rend"/>
   </vehicle>

    <vehicle id="0_64" depart="650" arrival="773">
        <route edges="beg middle end rend"/>
   </vehicle>

    <vehicle id="0_65" depart="660" arrival="781">
        <route edges="beg middle end rend"/>
   </vehicle>

    <vehicle id="0_66" depart="670" arrival="791">
        <route edges="beg middle end rend"/>
   </vehicle>

    <vehicle id="0_67" depart="680" arrival="802">
        <route edges="beg middle end rend"/>
   </vehicle>

    <vehicle id="0_68" depart="690" arrival="812">
        <route edges="beg middle end rend"/>
   </vehicle>

    <vehicle id="0_69" depart="700" arrival="821">
        <route edges="beg middle end rend"/>
   </vehicle>

    <vehicle id="0_70" depart="710" arrival="833">
        <route edges="beg middle end rend"/>
   </vehicle>

    <vehicle id="0_71" depart="720" arrival="842">
        <route edges="beg middle end rend"/>
   </vehicle>

    <vehicle id="0_72" depart="730" arrival="853">
        <route edges="beg middle end rend"/>
   </vehicle>

    <vehicle id="0_73" depart="740" arrival="863">
        <route edges="beg middle end rend"/>
   </vehicle>

    <vehicle id="0_74" depart="750" arrival="873">
        <route edges="beg middle end rend"/>
   </vehicle>

    <vehicle id="0_75" depart="760" arrival="882">
        <route edges="beg middle end rend"/>
   </vehicle>

    <vehicle id="0_76" depart="770" arrival="892">
        <route edges="beg middle end rend"/>
   </vehicle>

    <vehicle id="0_77" depart="780" arrival="902">
        <route edges="beg middle end rend"/>
   </vehicle>

    <vehicle id="0_78" depart="790" arrival="913">
        <route edges="beg middle end rend"/>
   </vehicle>

    <vehicle id="0_79" depart="800" arrival="922">
        <route edges="beg middle end rend"/>
   </vehicle>

    <vehicle id="0_80" depart="810" arrival="932">
        <route edges="beg middle end rend"/>
   </vehicle>

    <vehicle id="0_81" depart="820" arrival="943">
        <route edges="beg middle end rend"/>
   </vehicle>

    <vehicle id="0_82" depart="830" arrival="952">
        <route edges="beg middle end rend"/>
   </vehicle>

    <vehicle id="0_83" depart="840" arrival="961">
        <route edges="beg middle end rend"/>
   </vehicle>

    <vehicle id="0_84" depart="850" arrival="973">
        <route edges="beg middle end rend"/>
   </vehicle>

    <vehicle id="0_85" depart="860" arrival="983">
        <route edges="beg middle end rend"/>
   </vehicle>

    <vehicle id="0_86" depart="870" arrival="992">
        <route edges="beg middle end rend"/>
   </vehicle>

    <vehicle id="0_87" depart="880" arrival="1002">
        <route edges="beg middle end rend"/>
   </vehicle>

    <vehicle id="0_88" depart="890" arrival="1012">
        <route edges="beg middle end rend"/>
   </vehicle>

    <vehicle id="0_89" depart="900" arrival="1022">
        <route edges="beg middle end rend"/>
   </vehicle>

    <vehicle id="0_90" depart="910" arrival="1033">
        <route edges="beg middle end rend"/>
   </vehicle>

    <vehicle id="0_91" depart="920" arrival="1042">
        <route edges="beg middle end rend"/>
   </vehicle>

    <vehicle id="0_92" depart="930" arrival="1052">
        <route edges="beg middle end rend"/>
   </vehicle>

    <vehicle id="0_93" depart="940" arrival="1063">
        <route edges="beg middle end rend"/>
   </vehicle>

    <vehicle id="0_94" depart="950" arrival="1072">
        <route edges="beg middle end rend"/>
   </vehicle>

    <vehicle id="0_95" depart="960" arrival="1082">
        <route edges="beg middle end rend"/>
   </vehicle>

    <vehicle id="0_96" depart="970" arrival="1093">
        <route edges="beg middle end rend"/>
   </vehicle>

    <vehicle id="0_97" depart="980" arrival="1102">
        <route edges="beg middle end rend"/>
   </vehicle>

    <vehicle id="0_98" depart="990" arrival="1112">
        <route edges="beg middle end rend"/>
   </vehicle>

    <vehicle id="0_99" depart="1000" arrival="1123">
        <route edges="beg middle end rend"/>
   </vehicle>

</routes>
