<?xml version="1.0"?>

<!-- generated on 01/05/11 14:45:06 by SUMO sumo Version dev-SVN-r9525
<?xml version="1.0" encoding="iso-8859-1"?>

<configuration xmlns:xsi="http://www.w3.org/2001/XMLSchema-instance" xsi:noNamespaceSchemaLocation="http://sumo.sf.net/xsd/sumoConfiguration.xsd">

    <input>
        <net-file value="net.net.xml"/>
        <route-files value="input_routes.rou.xml"/>
    </input>

    <output>
        <vehroute-output value="vehroutes.xml"/>
    </output>

    <report>
        <no-duration-log value="true"/>
        <no-step-log value="true"/>
    </report>

</configuration>
-->

<routes>
    <vehicle id="0.0" depart="0.00" arrival="123.00">
        <route edges="beg middle end rend"/>
    </vehicle>

    <vehicle id="0.1" depart="10.00" arrival="131.00">
        <route edges="beg middle end rend"/>
    </vehicle>

    <vehicle id="0.2" depart="20.00" arrival="142.00">
        <route edges="beg middle end rend"/>
    </vehicle>

    <vehicle id="0.3" depart="30.00" arrival="152.00">
        <route edges="beg middle end rend"/>
    </vehicle>

    <vehicle id="0.4" depart="40.00" arrival="162.00">
        <route edges="beg middle end rend"/>
    </vehicle>

    <vehicle id="0.5" depart="50.00" arrival="172.00">
        <route edges="beg middle end rend"/>
    </vehicle>

    <vehicle id="0.6" depart="60.00" arrival="182.00">
        <route edges="beg middle end rend"/>
    </vehicle>

    <vehicle id="0.7" depart="70.00" arrival="192.00">
        <route edges="beg middle end rend"/>
    </vehicle>

    <vehicle id="0.8" depart="80.00" arrival="202.00">
        <route edges="beg middle end rend"/>
    </vehicle>

    <vehicle id="0.9" depart="90.00" arrival="213.00">
        <route edges="beg middle end rend"/>
    </vehicle>

    <vehicle id="0.10" depart="100.00" arrival="222.00">
        <route edges="beg middle end rend"/>
    </vehicle>

    <vehicle id="0.11" depart="110.00" arrival="232.00">
        <route edges="beg middle end rend"/>
    </vehicle>

    <vehicle id="0.12" depart="120.00" arrival="243.00">
        <route edges="beg middle end rend"/>
    </vehicle>

    <vehicle id="0.13" depart="130.00" arrival="252.00">
        <route edges="beg middle end rend"/>
    </vehicle>

    <vehicle id="0.14" depart="140.00" arrival="262.00">
        <route edges="beg middle end rend"/>
    </vehicle>

    <vehicle id="0.15" depart="150.00" arrival="272.00">
        <route edges="beg middle end rend"/>
    </vehicle>

    <vehicle id="0.16" depart="160.00" arrival="283.00">
        <route edges="beg middle end rend"/>
    </vehicle>

    <vehicle id="0.17" depart="170.00" arrival="293.00">
        <route edges="beg middle end rend"/>
    </vehicle>

    <vehicle id="0.18" depart="180.00" arrival="301.00">
        <route edges="beg middle end rend"/>
    </vehicle>

    <vehicle id="0.19" depart="190.00" arrival="311.00">
        <route edges="beg middle end rend"/>
    </vehicle>

    <vehicle id="0.20" depart="200.00" arrival="322.00">
        <route edges="beg middle end rend"/>
    </vehicle>

    <vehicle id="0.21" depart="210.00" arrival="332.00">
        <route edges="beg middle end rend"/>
    </vehicle>

    <vehicle id="0.22" depart="220.00" arrival="342.00">
        <route edges="beg middle end rend"/>
    </vehicle>

    <vehicle id="0.23" depart="230.00" arrival="352.00">
        <route edges="beg middle end rend"/>
    </vehicle>

    <vehicle id="0.24" depart="240.00" arrival="362.00">
        <route edges="beg middle end rend"/>
    </vehicle>

    <vehicle id="0.25" depart="250.00" arrival="372.00">
        <route edges="beg middle end rend"/>
    </vehicle>

    <vehicle id="0.26" depart="260.00" arrival="381.00">
        <route edges="beg middle end rend"/>
    </vehicle>

    <vehicle id="0.27" depart="270.00" arrival="392.00">
        <route edges="beg middle end rend"/>
    </vehicle>

    <vehicle id="0.28" depart="280.00" arrival="402.00">
        <route edges="beg middle end rend"/>
    </vehicle>

    <vehicle id="0.29" depart="290.00" arrival="412.00">
        <route edges="beg middle end rend"/>
    </vehicle>

    <vehicle id="0.30" depart="300.00" arrival="422.00">
        <route edges="beg middle end rend"/>
    </vehicle>

    <vehicle id="0.31" depart="310.00" arrival="432.00">
        <route edges="beg middle end rend"/>
    </vehicle>

    <vehicle id="0.32" depart="320.00" arrival="441.00">
        <route edges="beg middle end rend"/>
    </vehicle>

    <vehicle id="0.33" depart="330.00" arrival="453.00">
        <route edges="beg middle end rend"/>
    </vehicle>

    <vehicle id="0.34" depart="340.00" arrival="463.00">
        <route edges="beg middle end rend"/>
    </vehicle>

    <vehicle id="0.35" depart="350.00" arrival="472.00">
        <route edges="beg middle end rend"/>
    </vehicle>

    <vehicle id="0.36" depart="360.00" arrival="482.00">
        <route edges="beg middle end rend"/>
    </vehicle>

    <vehicle id="0.37" depart="370.00" arrival="491.00">
        <route edges="beg middle end rend"/>
    </vehicle>

    <vehicle id="0.38" depart="380.00" arrival="502.00">
        <route edges="beg middle end rend"/>
    </vehicle>

    <vehicle id="0.39" depart="390.00" arrival="512.00">
        <route edges="beg middle end rend"/>
    </vehicle>

    <vehicle id="0.40" depart="400.00" arrival="521.00">
        <route edges="beg middle end rend"/>
    </vehicle>

    <vehicle id="0.41" depart="410.00" arrival="532.00">
        <route edges="beg middle end rend"/>
    </vehicle>

    <vehicle id="0.42" depart="420.00" arrival="542.00">
        <route edges="beg middle end rend"/>
    </vehicle>

    <vehicle id="0.43" depart="430.00" arrival="552.00">
        <route edges="beg middle end rend"/>
    </vehicle>

    <vehicle id="0.44" depart="440.00" arrival="561.00">
        <route edges="beg middle end rend"/>
    </vehicle>

    <vehicle id="0.45" depart="450.00" arrival="572.00">
        <route edges="beg middle end rend"/>
    </vehicle>

    <vehicle id="0.46" depart="460.00" arrival="582.00">
        <route edges="beg middle end rend"/>
    </vehicle>

    <vehicle id="0.47" depart="470.00" arrival="592.00">
        <route edges="beg middle end rend"/>
    </vehicle>

    <vehicle id="0.48" depart="480.00" arrival="602.00">
        <route edges="beg middle end rend"/>
    </vehicle>

    <vehicle id="0.49" depart="490.00" arrival="612.00">
        <route edges="beg middle end rend"/>
    </vehicle>

    <vehicle id="0.50" depart="500.00" arrival="621.00">
        <route edges="beg middle end rend"/>
    </vehicle>

    <vehicle id="0.51" depart="510.00" arrival="632.00">
        <route edges="beg middle end rend"/>
    </vehicle>

    <vehicle id="0.52" depart="520.00" arrival="642.00">
        <route edges="beg middle end rend"/>
    </vehicle>

    <vehicle id="0.53" depart="530.00" arrival="653.00">
        <route edges="beg middle end rend"/>
    </vehicle>

    <vehicle id="0.54" depart="540.00" arrival="662.00">
        <route edges="beg middle end rend"/>
    </vehicle>

    <vehicle id="0.55" depart="550.00" arrival="672.00">
        <route edges="beg middle end rend"/>
    </vehicle>

    <vehicle id="0.56" depart="560.00" arrival="682.00">
        <route edges="beg middle end rend"/>
    </vehicle>

    <vehicle id="0.57" depart="570.00" arrival="692.00">
        <route edges="beg middle end rend"/>
    </vehicle>

    <vehicle id="0.58" depart="580.00" arrival="702.00">
        <route edges="beg middle end rend"/>
    </vehicle>

    <vehicle id="0.59" depart="590.00" arrival="712.00">
        <route edges="beg middle end rend"/>
    </vehicle>

    <vehicle id="0.60" depart="600.00" arrival="723.00">
        <route edges="beg middle end rend"/>
    </vehicle>

    <vehicle id="0.61" depart="610.00" arrival="733.00">
        <route edges="beg middle end rend"/>
    </vehicle>

    <vehicle id="0.62" depart="620.00" arrival="742.00">
        <route edges="beg middle end rend"/>
    </vehicle>

    <vehicle id="0.63" depart="630.00" arrival="753.00">
        <route edges="beg middle end rend"/>
    </vehicle>

    <vehicle id="0.64" depart="640.00" arrival="763.00">
        <route edges="beg middle end rend"/>
    </vehicle>

    <vehicle id="0.65" depart="650.00" arrival="772.00">
        <route edges="beg middle end rend"/>
    </vehicle>

    <vehicle id="0.66" depart="660.00" arrival="781.00">
        <route edges="beg middle end rend"/>
    </vehicle>

    <vehicle id="0.67" depart="670.00" arrival="791.00">
        <route edges="beg middle end rend"/>
    </vehicle>

    <vehicle id="0.68" depart="680.00" arrival="801.00">
        <route edges="beg middle end rend"/>
    </vehicle>

    <vehicle id="0.69" depart="690.00" arrival="813.00">
        <route edges="beg middle end rend"/>
    </vehicle>

    <vehicle id="0.70" depart="700.00" arrival="822.00">
        <route edges="beg middle end rend"/>
    </vehicle>

    <vehicle id="0.71" depart="710.00" arrival="832.00">
        <route edges="beg middle end rend"/>
    </vehicle>

    <vehicle id="0.72" depart="720.00" arrival="842.00">
        <route edges="beg middle end rend"/>
    </vehicle>

    <vehicle id="0.73" depart="730.00" arrival="851.00">
        <route edges="beg middle end rend"/>
    </vehicle>

    <vehicle id="0.74" depart="740.00" arrival="863.00">
        <route edges="beg middle end rend"/>
    </vehicle>

    <vehicle id="0.75" depart="750.00" arrival="872.00">
        <route edges="beg middle end rend"/>
    </vehicle>

    <vehicle id="0.76" depart="760.00" arrival="881.00">
        <route edges="beg middle end rend"/>
    </vehicle>

    <vehicle id="0.77" depart="770.00" arrival="892.00">
        <route edges="beg middle end rend"/>
    </vehicle>

    <vehicle id="0.78" depart="780.00" arrival="901.00">
        <route edges="beg middle end rend"/>
    </vehicle>

    <vehicle id="0.79" depart="790.00" arrival="912.00">
        <route edges="beg middle end rend"/>
    </vehicle>

    <vehicle id="0.80" depart="800.00" arrival="922.00">
        <route edges="beg middle end rend"/>
    </vehicle>

    <vehicle id="0.81" depart="810.00" arrival="932.00">
        <route edges="beg middle end rend"/>
    </vehicle>

    <vehicle id="0.82" depart="820.00" arrival="942.00">
        <route edges="beg middle end rend"/>
    </vehicle>

    <vehicle id="0.83" depart="830.00" arrival="952.00">
        <route edges="beg middle end rend"/>
    </vehicle>

    <vehicle id="0.84" depart="840.00" arrival="963.00">
        <route edges="beg middle end rend"/>
    </vehicle>

    <vehicle id="0.85" depart="850.00" arrival="973.00">
        <route edges="beg middle end rend"/>
    </vehicle>

    <vehicle id="0.86" depart="860.00" arrival="982.00">
        <route edges="beg middle end rend"/>
    </vehicle>

    <vehicle id="0.87" depart="870.00" arrival="993.00">
        <route edges="beg middle end rend"/>
    </vehicle>

    <vehicle id="0.88" depart="880.00" arrival="1003.00">
        <route edges="beg middle end rend"/>
    </vehicle>

    <vehicle id="0.89" depart="890.00" arrival="1012.00">
        <route edges="beg middle end rend"/>
    </vehicle>

    <vehicle id="0.90" depart="900.00" arrival="1023.00">
        <route edges="beg middle end rend"/>
    </vehicle>

    <vehicle id="0.91" depart="910.00" arrival="1033.00">
        <route edges="beg middle end rend"/>
    </vehicle>

    <vehicle id="0.92" depart="920.00" arrival="1042.00">
        <route edges="beg middle end rend"/>
    </vehicle>

    <vehicle id="0.93" depart="930.00" arrival="1053.00">
        <route edges="beg middle end rend"/>
    </vehicle>

    <vehicle id="0.94" depart="940.00" arrival="1063.00">
        <route edges="beg middle end rend"/>
    </vehicle>

    <vehicle id="0.95" depart="950.00" arrival="1072.00">
        <route edges="beg middle end rend"/>
    </vehicle>

    <vehicle id="0.96" depart="960.00" arrival="1082.00">
        <route edges="beg middle end rend"/>
    </vehicle>

    <vehicle id="0.97" depart="970.00" arrival="1093.00">
        <route edges="beg middle end rend"/>
    </vehicle>

    <vehicle id="0.98" depart="980.00" arrival="1102.00">
        <route edges="beg middle end rend"/>
    </vehicle>

    <vehicle id="0.99" depart="990.00" arrival="1112.00">
        <route edges="beg middle end rend"/>
    </vehicle>

    <vehicle id="0.100" depart="1000.00" arrival="1122.00">
        <route edges="beg middle end rend"/>
    </vehicle>

</routes>
