<?xml version="1.0"?>

<!-- generated on 03/25/10 08:17:12 by SUMO sumo Version dev-SVN-r8511
<configuration>

    <input>
        <net-file value="net.net.xml"/>
        <route-files value="input_routes.rou.xml"/>
    </input>

    <output>
        <vehroute-output value="vehroutes.xml"/>
    </output>

    <report>
        <no-duration-log value="true"/>
        <no-step-log value="true"/>
    </report>

    <mesoscopic>
        <mesosim value="true"/>
    </mesoscopic>

</configuration>
-->

<routes>
    <vehicle id="0.0" depart="0.00" arrival="108.00">
        <route edges="beg middle end rend"/>
    </vehicle>

    <vehicle id="0.1" depart="10.00" arrival="118.00">
        <route edges="beg middle end rend"/>
    </vehicle>

    <vehicle id="0.2" depart="20.00" arrival="128.00">
        <route edges="beg middle end rend"/>
    </vehicle>

    <vehicle id="0.3" depart="30.00" arrival="138.00">
        <route edges="beg middle end rend"/>
    </vehicle>

    <vehicle id="0.4" depart="40.00" arrival="148.00">
        <route edges="beg middle end rend"/>
    </vehicle>

    <vehicle id="0.5" depart="50.00" arrival="158.00">
        <route edges="beg middle end rend"/>
    </vehicle>

    <vehicle id="0.6" depart="60.00" arrival="168.00">
        <route edges="beg middle end rend"/>
    </vehicle>

    <vehicle id="0.7" depart="70.00" arrival="178.00">
        <route edges="beg middle end rend"/>
    </vehicle>

    <vehicle id="0.8" depart="80.00" arrival="188.00">
        <route edges="beg middle end rend"/>
    </vehicle>

    <vehicle id="0.9" depart="90.00" arrival="198.00">
        <route edges="beg middle end rend"/>
    </vehicle>

    <vehicle id="0.10" depart="100.00" arrival="208.00">
        <route edges="beg middle end rend"/>
    </vehicle>

    <vehicle id="0.11" depart="110.00" arrival="218.00">
        <route edges="beg middle end rend"/>
    </vehicle>

    <vehicle id="0.12" depart="120.00" arrival="228.00">
        <route edges="beg middle end rend"/>
    </vehicle>

    <vehicle id="0.13" depart="130.00" arrival="238.00">
        <route edges="beg middle end rend"/>
    </vehicle>

    <vehicle id="0.14" depart="140.00" arrival="248.00">
        <route edges="beg middle end rend"/>
    </vehicle>

    <vehicle id="0.15" depart="150.00" arrival="258.00">
        <route edges="beg middle end rend"/>
    </vehicle>

    <vehicle id="0.16" depart="160.00" arrival="268.00">
        <route edges="beg middle end rend"/>
    </vehicle>

    <vehicle id="0.17" depart="170.00" arrival="278.00">
        <route edges="beg middle end rend"/>
    </vehicle>

    <vehicle id="0.18" depart="180.00" arrival="288.00">
        <route edges="beg middle end rend"/>
    </vehicle>

    <vehicle id="0.19" depart="190.00" arrival="298.00">
        <route edges="beg middle end rend"/>
    </vehicle>

    <vehicle id="0.20" depart="200.00" arrival="308.00">
        <route edges="beg middle end rend"/>
    </vehicle>

    <vehicle id="0.21" depart="210.00" arrival="318.00">
        <route edges="beg middle end rend"/>
    </vehicle>

    <vehicle id="0.22" depart="220.00" arrival="328.00">
        <route edges="beg middle end rend"/>
    </vehicle>

    <vehicle id="0.23" depart="230.00" arrival="338.00">
        <route edges="beg middle end rend"/>
    </vehicle>

    <vehicle id="0.24" depart="240.00" arrival="348.00">
        <route edges="beg middle end rend"/>
    </vehicle>

    <vehicle id="0.25" depart="250.00" arrival="358.00">
        <route edges="beg middle end rend"/>
    </vehicle>

    <vehicle id="0.26" depart="260.00" arrival="368.00">
        <route edges="beg middle end rend"/>
    </vehicle>

    <vehicle id="0.27" depart="270.00" arrival="378.00">
        <route edges="beg middle end rend"/>
    </vehicle>

    <vehicle id="0.28" depart="280.00" arrival="388.00">
        <route edges="beg middle end rend"/>
    </vehicle>

    <vehicle id="0.29" depart="290.00" arrival="398.00">
        <route edges="beg middle end rend"/>
    </vehicle>

    <vehicle id="0.30" depart="300.00" arrival="408.00">
        <route edges="beg middle end rend"/>
    </vehicle>

    <vehicle id="0.31" depart="310.00" arrival="418.00">
        <route edges="beg middle end rend"/>
    </vehicle>

    <vehicle id="0.32" depart="320.00" arrival="428.00">
        <route edges="beg middle end rend"/>
    </vehicle>

    <vehicle id="0.33" depart="330.00" arrival="438.00">
        <route edges="beg middle end rend"/>
    </vehicle>

    <vehicle id="0.34" depart="340.00" arrival="448.00">
        <route edges="beg middle end rend"/>
    </vehicle>

    <vehicle id="0.35" depart="350.00" arrival="458.00">
        <route edges="beg middle end rend"/>
    </vehicle>

    <vehicle id="0.36" depart="360.00" arrival="468.00">
        <route edges="beg middle end rend"/>
    </vehicle>

    <vehicle id="0.37" depart="370.00" arrival="478.00">
        <route edges="beg middle end rend"/>
    </vehicle>

    <vehicle id="0.38" depart="380.00" arrival="488.00">
        <route edges="beg middle end rend"/>
    </vehicle>

    <vehicle id="0.39" depart="390.00" arrival="498.00">
        <route edges="beg middle end rend"/>
    </vehicle>

    <vehicle id="0.40" depart="400.00" arrival="508.00">
        <route edges="beg middle end rend"/>
    </vehicle>

    <vehicle id="0.41" depart="410.00" arrival="518.00">
        <route edges="beg middle end rend"/>
    </vehicle>

    <vehicle id="0.42" depart="420.00" arrival="528.00">
        <route edges="beg middle end rend"/>
    </vehicle>

    <vehicle id="0.43" depart="430.00" arrival="538.00">
        <route edges="beg middle end rend"/>
    </vehicle>

    <vehicle id="0.44" depart="440.00" arrival="548.00">
        <route edges="beg middle end rend"/>
    </vehicle>

    <vehicle id="0.45" depart="450.00" arrival="558.00">
        <route edges="beg middle end rend"/>
    </vehicle>

    <vehicle id="0.46" depart="460.00" arrival="568.00">
        <route edges="beg middle end rend"/>
    </vehicle>

    <vehicle id="0.47" depart="470.00" arrival="578.00">
        <route edges="beg middle end rend"/>
    </vehicle>

    <vehicle id="0.48" depart="480.00" arrival="588.00">
        <route edges="beg middle end rend"/>
    </vehicle>

    <vehicle id="0.49" depart="490.00" arrival="598.00">
        <route edges="beg middle end rend"/>
    </vehicle>

    <vehicle id="0.50" depart="500.00" arrival="608.00">
        <route edges="beg middle end rend"/>
    </vehicle>

    <vehicle id="0.51" depart="510.00" arrival="618.00">
        <route edges="beg middle end rend"/>
    </vehicle>

    <vehicle id="0.52" depart="520.00" arrival="628.00">
        <route edges="beg middle end rend"/>
    </vehicle>

    <vehicle id="0.53" depart="530.00" arrival="638.00">
        <route edges="beg middle end rend"/>
    </vehicle>

    <vehicle id="0.54" depart="540.00" arrival="648.00">
        <route edges="beg middle end rend"/>
    </vehicle>

    <vehicle id="0.55" depart="550.00" arrival="658.00">
        <route edges="beg middle end rend"/>
    </vehicle>

    <vehicle id="0.56" depart="560.00" arrival="668.00">
        <route edges="beg middle end rend"/>
    </vehicle>

    <vehicle id="0.57" depart="570.00" arrival="678.00">
        <route edges="beg middle end rend"/>
    </vehicle>

    <vehicle id="0.58" depart="580.00" arrival="688.00">
        <route edges="beg middle end rend"/>
    </vehicle>

    <vehicle id="0.59" depart="590.00" arrival="698.00">
        <route edges="beg middle end rend"/>
    </vehicle>

    <vehicle id="0.60" depart="600.00" arrival="708.00">
        <route edges="beg middle end rend"/>
    </vehicle>

    <vehicle id="0.61" depart="610.00" arrival="718.00">
        <route edges="beg middle end rend"/>
    </vehicle>

    <vehicle id="0.62" depart="620.00" arrival="728.00">
        <route edges="beg middle end rend"/>
    </vehicle>

    <vehicle id="0.63" depart="630.00" arrival="738.00">
        <route edges="beg middle end rend"/>
    </vehicle>

    <vehicle id="0.64" depart="640.00" arrival="748.00">
        <route edges="beg middle end rend"/>
    </vehicle>

    <vehicle id="0.65" depart="650.00" arrival="758.00">
        <route edges="beg middle end rend"/>
    </vehicle>

    <vehicle id="0.66" depart="660.00" arrival="768.00">
        <route edges="beg middle end rend"/>
    </vehicle>

    <vehicle id="0.67" depart="670.00" arrival="778.00">
        <route edges="beg middle end rend"/>
    </vehicle>

    <vehicle id="0.68" depart="680.00" arrival="788.00">
        <route edges="beg middle end rend"/>
    </vehicle>

    <vehicle id="0.69" depart="690.00" arrival="798.00">
        <route edges="beg middle end rend"/>
    </vehicle>

    <vehicle id="0.70" depart="700.00" arrival="808.00">
        <route edges="beg middle end rend"/>
    </vehicle>

    <vehicle id="0.71" depart="710.00" arrival="818.00">
        <route edges="beg middle end rend"/>
    </vehicle>

    <vehicle id="0.72" depart="720.00" arrival="828.00">
        <route edges="beg middle end rend"/>
    </vehicle>

    <vehicle id="0.73" depart="730.00" arrival="838.00">
        <route edges="beg middle end rend"/>
    </vehicle>

    <vehicle id="0.74" depart="740.00" arrival="848.00">
        <route edges="beg middle end rend"/>
    </vehicle>

    <vehicle id="0.75" depart="750.00" arrival="858.00">
        <route edges="beg middle end rend"/>
    </vehicle>

    <vehicle id="0.76" depart="760.00" arrival="868.00">
        <route edges="beg middle end rend"/>
    </vehicle>

    <vehicle id="0.77" depart="770.00" arrival="878.00">
        <route edges="beg middle end rend"/>
    </vehicle>

    <vehicle id="0.78" depart="780.00" arrival="888.00">
        <route edges="beg middle end rend"/>
    </vehicle>

    <vehicle id="0.79" depart="790.00" arrival="898.00">
        <route edges="beg middle end rend"/>
    </vehicle>

    <vehicle id="0.80" depart="800.00" arrival="908.00">
        <route edges="beg middle end rend"/>
    </vehicle>

    <vehicle id="0.81" depart="810.00" arrival="918.00">
        <route edges="beg middle end rend"/>
    </vehicle>

    <vehicle id="0.82" depart="820.00" arrival="928.00">
        <route edges="beg middle end rend"/>
    </vehicle>

    <vehicle id="0.83" depart="830.00" arrival="938.00">
        <route edges="beg middle end rend"/>
    </vehicle>

    <vehicle id="0.84" depart="840.00" arrival="948.00">
        <route edges="beg middle end rend"/>
    </vehicle>

    <vehicle id="0.85" depart="850.00" arrival="958.00">
        <route edges="beg middle end rend"/>
    </vehicle>

    <vehicle id="0.86" depart="860.00" arrival="968.00">
        <route edges="beg middle end rend"/>
    </vehicle>

    <vehicle id="0.87" depart="870.00" arrival="978.00">
        <route edges="beg middle end rend"/>
    </vehicle>

    <vehicle id="0.88" depart="880.00" arrival="988.00">
        <route edges="beg middle end rend"/>
    </vehicle>

    <vehicle id="0.89" depart="890.00" arrival="998.00">
        <route edges="beg middle end rend"/>
    </vehicle>

    <vehicle id="0.90" depart="900.00" arrival="1008.00">
        <route edges="beg middle end rend"/>
    </vehicle>

    <vehicle id="0.91" depart="910.00" arrival="1018.00">
        <route edges="beg middle end rend"/>
    </vehicle>

    <vehicle id="0.92" depart="920.00" arrival="1028.00">
        <route edges="beg middle end rend"/>
    </vehicle>

    <vehicle id="0.93" depart="930.00" arrival="1038.00">
        <route edges="beg middle end rend"/>
    </vehicle>

    <vehicle id="0.94" depart="940.00" arrival="1048.00">
        <route edges="beg middle end rend"/>
    </vehicle>

    <vehicle id="0.95" depart="950.00" arrival="1058.00">
        <route edges="beg middle end rend"/>
    </vehicle>

    <vehicle id="0.96" depart="960.00" arrival="1068.00">
        <route edges="beg middle end rend"/>
    </vehicle>

    <vehicle id="0.97" depart="970.00" arrival="1078.00">
        <route edges="beg middle end rend"/>
    </vehicle>

    <vehicle id="0.98" depart="980.00" arrival="1088.00">
        <route edges="beg middle end rend"/>
    </vehicle>

    <vehicle id="0.99" depart="990.00" arrival="1098.00">
        <route edges="beg middle end rend"/>
    </vehicle>

    <vehicle id="0.100" depart="1000.00" arrival="1108.00">
        <route edges="beg middle end rend"/>
    </vehicle>

</routes>
