<?xml version="1.0"?>

<!-- generated on 03/02/10 10:07:02 by SUMO sumo Version dev-SVN-r8163
<configuration>

    <input>
        <net-file value="net.net.xml"/>
        <route-files value="input_routes.rou.xml"/>
    </input>

    <output>
        <vehroute-output value="vehroutes.xml"/>
    </output>

    <report>
        <no-duration-log value="true"/>
        <no-step-log value="true"/>
    </report>

</configuration>
-->

<routes>
    <vehicle id="0.0" depart="0" arrival="123">
        <route edges="beg middle end rend"/>
   </vehicle>

    <vehicle id="0.1" depart="10" arrival="131">
        <route edges="beg middle end rend"/>
   </vehicle>

    <vehicle id="0.2" depart="20" arrival="142">
        <route edges="beg middle end rend"/>
   </vehicle>

    <vehicle id="0.3" depart="30" arrival="152">
        <route edges="beg middle end rend"/>
   </vehicle>

    <vehicle id="0.4" depart="40" arrival="162">
        <route edges="beg middle end rend"/>
   </vehicle>

    <vehicle id="0.5" depart="50" arrival="172">
        <route edges="beg middle end rend"/>
   </vehicle>

    <vehicle id="0.6" depart="60" arrival="182">
        <route edges="beg middle end rend"/>
   </vehicle>

    <vehicle id="0.7" depart="70" arrival="192">
        <route edges="beg middle end rend"/>
   </vehicle>

    <vehicle id="0.8" depart="80" arrival="202">
        <route edges="beg middle end rend"/>
   </vehicle>

    <vehicle id="0.9" depart="90" arrival="213">
        <route edges="beg middle end rend"/>
   </vehicle>

    <vehicle id="0.10" depart="100" arrival="222">
        <route edges="beg middle end rend"/>
   </vehicle>

    <vehicle id="0.11" depart="110" arrival="232">
        <route edges="beg middle end rend"/>
   </vehicle>

    <vehicle id="0.12" depart="120" arrival="243">
        <route edges="beg middle end rend"/>
   </vehicle>

    <vehicle id="0.13" depart="130" arrival="252">
        <route edges="beg middle end rend"/>
   </vehicle>

    <vehicle id="0.14" depart="140" arrival="262">
        <route edges="beg middle end rend"/>
   </vehicle>

    <vehicle id="0.15" depart="150" arrival="272">
        <route edges="beg middle end rend"/>
   </vehicle>

    <vehicle id="0.16" depart="160" arrival="283">
        <route edges="beg middle end rend"/>
   </vehicle>

    <vehicle id="0.17" depart="170" arrival="293">
        <route edges="beg middle end rend"/>
   </vehicle>

    <vehicle id="0.18" depart="180" arrival="301">
        <route edges="beg middle end rend"/>
   </vehicle>

    <vehicle id="0.19" depart="190" arrival="311">
        <route edges="beg middle end rend"/>
   </vehicle>

    <vehicle id="0.20" depart="200" arrival="322">
        <route edges="beg middle end rend"/>
   </vehicle>

    <vehicle id="0.21" depart="210" arrival="331">
        <route edges="beg middle end rend"/>
   </vehicle>

    <vehicle id="0.22" depart="220" arrival="342">
        <route edges="beg middle end rend"/>
   </vehicle>

    <vehicle id="0.23" depart="230" arrival="352">
        <route edges="beg middle end rend"/>
   </vehicle>

    <vehicle id="0.24" depart="240" arrival="362">
        <route edges="beg middle end rend"/>
   </vehicle>

    <vehicle id="0.25" depart="250" arrival="372">
        <route edges="beg middle end rend"/>
   </vehicle>

    <vehicle id="0.26" depart="260" arrival="381">
        <route edges="beg middle end rend"/>
   </vehicle>

    <vehicle id="0.27" depart="270" arrival="391">
        <route edges="beg middle end rend"/>
   </vehicle>

    <vehicle id="0.28" depart="280" arrival="402">
        <route edges="beg middle end rend"/>
   </vehicle>

    <vehicle id="0.29" depart="290" arrival="412">
        <route edges="beg middle end rend"/>
   </vehicle>

    <vehicle id="0.30" depart="300" arrival="423">
        <route edges="beg middle end rend"/>
   </vehicle>

    <vehicle id="0.31" depart="310" arrival="433">
        <route edges="beg middle end rend"/>
   </vehicle>

    <vehicle id="0.32" depart="320" arrival="441">
        <route edges="beg middle end rend"/>
   </vehicle>

    <vehicle id="0.33" depart="330" arrival="452">
        <route edges="beg middle end rend"/>
   </vehicle>

    <vehicle id="0.34" depart="340" arrival="462">
        <route edges="beg middle end rend"/>
   </vehicle>

    <vehicle id="0.35" depart="350" arrival="472">
        <route edges="beg middle end rend"/>
   </vehicle>

    <vehicle id="0.36" depart="360" arrival="481">
        <route edges="beg middle end rend"/>
   </vehicle>

    <vehicle id="0.37" depart="370" arrival="492">
        <route edges="beg middle end rend"/>
   </vehicle>

    <vehicle id="0.38" depart="380" arrival="503">
        <route edges="beg middle end rend"/>
   </vehicle>

    <vehicle id="0.39" depart="390" arrival="512">
        <route edges="beg middle end rend"/>
   </vehicle>

    <vehicle id="0.40" depart="400" arrival="522">
        <route edges="beg middle end rend"/>
   </vehicle>

    <vehicle id="0.41" depart="410" arrival="532">
        <route edges="beg middle end rend"/>
   </vehicle>

    <vehicle id="0.42" depart="420" arrival="543">
        <route edges="beg middle end rend"/>
   </vehicle>

    <vehicle id="0.43" depart="430" arrival="552">
        <route edges="beg middle end rend"/>
   </vehicle>

    <vehicle id="0.44" depart="440" arrival="562">
        <route edges="beg middle end rend"/>
   </vehicle>

    <vehicle id="0.45" depart="450" arrival="572">
        <route edges="beg middle end rend"/>
   </vehicle>

    <vehicle id="0.46" depart="460" arrival="581">
        <route edges="beg middle end rend"/>
   </vehicle>

    <vehicle id="0.47" depart="470" arrival="592">
        <route edges="beg middle end rend"/>
   </vehicle>

    <vehicle id="0.48" depart="480" arrival="603">
        <route edges="beg middle end rend"/>
   </vehicle>

    <vehicle id="0.49" depart="490" arrival="612">
        <route edges="beg middle end rend"/>
   </vehicle>

    <vehicle id="0.50" depart="500" arrival="623">
        <route edges="beg middle end rend"/>
   </vehicle>

    <vehicle id="0.51" depart="510" arrival="633">
        <route edges="beg middle end rend"/>
   </vehicle>

    <vehicle id="0.52" depart="520" arrival="642">
        <route edges="beg middle end rend"/>
   </vehicle>

    <vehicle id="0.53" depart="530" arrival="653">
        <route edges="beg middle end rend"/>
   </vehicle>

    <vehicle id="0.54" depart="540" arrival="661">
        <route edges="beg middle end rend"/>
   </vehicle>

    <vehicle id="0.55" depart="550" arrival="672">
        <route edges="beg middle end rend"/>
   </vehicle>

    <vehicle id="0.56" depart="560" arrival="683">
        <route edges="beg middle end rend"/>
   </vehicle>

    <vehicle id="0.57" depart="570" arrival="691">
        <route edges="beg middle end rend"/>
   </vehicle>

    <vehicle id="0.58" depart="580" arrival="702">
        <route edges="beg middle end rend"/>
   </vehicle>

    <vehicle id="0.59" depart="590" arrival="711">
        <route edges="beg middle end rend"/>
   </vehicle>

    <vehicle id="0.60" depart="600" arrival="722">
        <route edges="beg middle end rend"/>
   </vehicle>

    <vehicle id="0.61" depart="610" arrival="732">
        <route edges="beg middle end rend"/>
   </vehicle>

    <vehicle id="0.62" depart="620" arrival="742">
        <route edges="beg middle end rend"/>
   </vehicle>

    <vehicle id="0.63" depart="630" arrival="752">
        <route edges="beg middle end rend"/>
   </vehicle>

    <vehicle id="0.64" depart="640" arrival="762">
        <route edges="beg middle end rend"/>
   </vehicle>

    <vehicle id="0.65" depart="650" arrival="773">
        <route edges="beg middle end rend"/>
   </vehicle>

    <vehicle id="0.66" depart="660" arrival="782">
        <route edges="beg middle end rend"/>
   </vehicle>

    <vehicle id="0.67" depart="670" arrival="792">
        <route edges="beg middle end rend"/>
   </vehicle>

    <vehicle id="0.68" depart="680" arrival="803">
        <route edges="beg middle end rend"/>
   </vehicle>

    <vehicle id="0.69" depart="690" arrival="812">
        <route edges="beg middle end rend"/>
   </vehicle>

    <vehicle id="0.70" depart="700" arrival="823">
        <route edges="beg middle end rend"/>
   </vehicle>

    <vehicle id="0.71" depart="710" arrival="832">
        <route edges="beg middle end rend"/>
   </vehicle>

    <vehicle id="0.72" depart="720" arrival="842">
        <route edges="beg middle end rend"/>
   </vehicle>

    <vehicle id="0.73" depart="730" arrival="854">
        <route edges="beg middle end rend"/>
   </vehicle>

    <vehicle id="0.74" depart="740" arrival="862">
        <route edges="beg middle end rend"/>
   </vehicle>

    <vehicle id="0.75" depart="750" arrival="873">
        <route edges="beg middle end rend"/>
   </vehicle>

    <vehicle id="0.76" depart="760" arrival="883">
        <route edges="beg middle end rend"/>
   </vehicle>

    <vehicle id="0.77" depart="770" arrival="892">
        <route edges="beg middle end rend"/>
   </vehicle>

    <vehicle id="0.78" depart="780" arrival="902">
        <route edges="beg middle end rend"/>
   </vehicle>

    <vehicle id="0.79" depart="790" arrival="912">
        <route edges="beg middle end rend"/>
   </vehicle>

    <vehicle id="0.80" depart="800" arrival="923">
        <route edges="beg middle end rend"/>
   </vehicle>

    <vehicle id="0.81" depart="810" arrival="932">
        <route edges="beg middle end rend"/>
   </vehicle>

    <vehicle id="0.82" depart="820" arrival="942">
        <route edges="beg middle end rend"/>
   </vehicle>

    <vehicle id="0.83" depart="830" arrival="952">
        <route edges="beg middle end rend"/>
   </vehicle>

    <vehicle id="0.84" depart="840" arrival="963">
        <route edges="beg middle end rend"/>
   </vehicle>

    <vehicle id="0.85" depart="850" arrival="972">
        <route edges="beg middle end rend"/>
   </vehicle>

    <vehicle id="0.86" depart="860" arrival="983">
        <route edges="beg middle end rend"/>
   </vehicle>

    <vehicle id="0.87" depart="870" arrival="991">
        <route edges="beg middle end rend"/>
   </vehicle>

    <vehicle id="0.88" depart="880" arrival="1002">
        <route edges="beg middle end rend"/>
   </vehicle>

    <vehicle id="0.89" depart="890" arrival="1011">
        <route edges="beg middle end rend"/>
   </vehicle>

    <vehicle id="0.90" depart="900" arrival="1022">
        <route edges="beg middle end rend"/>
   </vehicle>

    <vehicle id="0.91" depart="910" arrival="1032">
        <route edges="beg middle end rend"/>
   </vehicle>

    <vehicle id="0.92" depart="920" arrival="1042">
        <route edges="beg middle end rend"/>
   </vehicle>

    <vehicle id="0.93" depart="930" arrival="1053">
        <route edges="beg middle end rend"/>
   </vehicle>

    <vehicle id="0.94" depart="940" arrival="1063">
        <route edges="beg middle end rend"/>
   </vehicle>

    <vehicle id="0.95" depart="950" arrival="1072">
        <route edges="beg middle end rend"/>
   </vehicle>

    <vehicle id="0.96" depart="960" arrival="1081">
        <route edges="beg middle end rend"/>
   </vehicle>

    <vehicle id="0.97" depart="970" arrival="1092">
        <route edges="beg middle end rend"/>
   </vehicle>

    <vehicle id="0.98" depart="980" arrival="1102">
        <route edges="beg middle end rend"/>
   </vehicle>

    <vehicle id="0.99" depart="990" arrival="1113">
        <route edges="beg middle end rend"/>
   </vehicle>

    <vehicle id="0.100" depart="1000" arrival="1122">
        <route edges="beg middle end rend"/>
   </vehicle>

</routes>
