<?xml version="1.0" encoding="UTF-8"?>

<!-- generated on Tue Feb 19 15:49:01 2019 by Eclipse SUMO Version v1_0_1+0645-93703db
This data file and the accompanying materials
are made available under the terms of the Eclipse Public License v2.0
which accompanies this distribution, and is available at
http://www.eclipse.org/legal/epl-v20.html
SPDX-License-Identifier: EPL-2.0
<configuration xmlns:xsi="http://www.w3.org/2001/XMLSchema-instance" xsi:noNamespaceSchemaLocation="http://sumo.dlr.de/xsd/sumoConfiguration.xsd">

    <input>
        <net-file value="net.net.xml"/>
        <route-files value="input_routes.rou.xml"/>
    </input>

    <output>
        <write-license value="true"/>
        <vehroute-output value="vehroutes.xml"/>
    </output>

    <processing>
        <default.speeddev value="0"/>
        <pedestrian.model value="nonInteracting"/>
    </processing>

    <report>
        <xml-validation value="never"/>
        <duration-log.disable value="true"/>
        <no-step-log value="true"/>
    </report>

    <mesoscopic>
        <mesosim value="true"/>
    </mesoscopic>

</configuration>
-->

<routes xmlns:xsi="http://www.w3.org/2001/XMLSchema-instance" xsi:noNamespaceSchemaLocation="http://sumo.dlr.de/xsd/routes_file.xsd">
    <vehicle id="veh0" type="Car" depart="1.00" departPos="0.00" arrival="12.00">
        <route edges="1to2 out"/>
        <stop lane="1to2_0" endPos="4.00" duration="10.00" expected="p1 p2"/>
    </vehicle>

    <vehicle id="veh1" type="Car" depart="12.00" departPos="0.00" arrival="13.00">
        <route edges="1to2 out"/>
    </vehicle>

    <person id="p1" depart="100.00" departPos="4.00">
        <ride from="1to2" to="out" lines="veh0"/>
    </person>

    <person id="p2" depart="200.00" departPos="4.00">
        <ride from="1to2" to="out" lines="veh0"/>
    </person>

</routes>
