<?xml version="1.0" encoding="UTF-8"?>

<!-- generated on Wed Nov 20 13:23:24 2019 by Eclipse SUMO Version v1_3_1+0946-9e6fbbed90
This data file and the accompanying materials
are made available under the terms of the Eclipse Public License v2.0
which accompanies this distribution, and is available at
http://www.eclipse.org/legal/epl-v20.html
SPDX-License-Identifier: EPL-2.0
<configuration xmlns:xsi="http://www.w3.org/2001/XMLSchema-instance" xsi:noNamespaceSchemaLocation="http://sumo.dlr.de/xsd/sumoConfiguration.xsd">

    <input>
        <net-file value="net.net.xml"/>
        <route-files value="input_routes.rou.xml"/>
    </input>

    <output>
        <write-license value="true"/>
        <fcd-output value="fcd.xml"/>
    </output>

    <processing>
        <default.speeddev value="0"/>
    </processing>

    <report>
        <xml-validation value="never"/>
        <duration-log.disable value="true"/>
        <no-step-log value="true"/>
    </report>

</configuration>
-->

<fcd-export xmlns:xsi="http://www.w3.org/2001/XMLSchema-instance" xsi:noNamespaceSchemaLocation="http://sumo.dlr.de/xsd/fcd_file.xsd">
    <timestep time="0.00">
        <vehicle id="EW" x="194.90" y="101.60" angle="270.00" type="DEFAULT_VEHTYPE" speed="13.89" pos="5.10" lane="EC_0" slope="0.00"/>
        <vehicle id="NS" x="98.40" y="194.90" angle="180.00" type="DEFAULT_VEHTYPE" speed="13.89" pos="5.10" lane="NC_0" slope="0.00"/>
        <vehicle id="SN" x="101.60" y="5.10" angle="0.00" type="DEFAULT_VEHTYPE" speed="13.89" pos="5.10" lane="SC_0" slope="0.00"/>
    </timestep>
    <timestep time="1.00">
        <vehicle id="EW" x="181.01" y="101.60" angle="270.00" type="DEFAULT_VEHTYPE" speed="13.89" pos="18.99" lane="EC_0" slope="0.00"/>
        <vehicle id="NS" x="98.40" y="181.01" angle="180.00" type="DEFAULT_VEHTYPE" speed="13.89" pos="18.99" lane="NC_0" slope="0.00"/>
        <vehicle id="SN" x="101.60" y="18.99" angle="0.00" type="DEFAULT_VEHTYPE" speed="13.89" pos="18.99" lane="SC_0" slope="0.00"/>
    </timestep>
    <timestep time="2.00">
        <vehicle id="EW" x="167.12" y="101.60" angle="270.00" type="DEFAULT_VEHTYPE" speed="13.89" pos="32.88" lane="EC_0" slope="0.00"/>
        <vehicle id="NS" x="98.40" y="167.12" angle="180.00" type="DEFAULT_VEHTYPE" speed="13.89" pos="32.88" lane="NC_0" slope="0.00"/>
        <vehicle id="SN" x="101.60" y="32.88" angle="0.00" type="DEFAULT_VEHTYPE" speed="13.89" pos="32.88" lane="SC_0" slope="0.00"/>
    </timestep>
    <timestep time="3.00">
        <vehicle id="EW" x="153.23" y="101.60" angle="270.00" type="DEFAULT_VEHTYPE" speed="13.89" pos="46.77" lane="EC_0" slope="0.00"/>
        <vehicle id="NS" x="98.40" y="153.23" angle="180.00" type="DEFAULT_VEHTYPE" speed="13.89" pos="46.77" lane="NC_0" slope="0.00"/>
        <vehicle id="SN" x="101.60" y="46.77" angle="0.00" type="DEFAULT_VEHTYPE" speed="13.89" pos="46.77" lane="SC_0" slope="0.00"/>
    </timestep>
    <timestep time="4.00">
        <vehicle id="EW" x="139.34" y="101.60" angle="270.00" type="DEFAULT_VEHTYPE" speed="13.89" pos="60.66" lane="EC_0" slope="0.00"/>
        <vehicle id="NS" x="98.40" y="139.34" angle="180.00" type="DEFAULT_VEHTYPE" speed="13.89" pos="60.66" lane="NC_0" slope="0.00"/>
        <vehicle id="SN" x="101.60" y="60.66" angle="0.00" type="DEFAULT_VEHTYPE" speed="13.89" pos="60.66" lane="SC_0" slope="0.00"/>
    </timestep>
    <timestep time="5.00">
        <vehicle id="EW" x="125.45" y="101.60" angle="270.00" type="DEFAULT_VEHTYPE" speed="13.89" pos="74.55" lane="EC_0" slope="0.00"/>
        <vehicle id="NS" x="98.40" y="125.45" angle="180.00" type="DEFAULT_VEHTYPE" speed="13.89" pos="74.55" lane="NC_0" slope="0.00"/>
        <vehicle id="SN" x="101.60" y="74.55" angle="0.00" type="DEFAULT_VEHTYPE" speed="13.89" pos="74.55" lane="SC_0" slope="0.00"/>
    </timestep>
    <timestep time="6.00">
        <vehicle id="EW" x="114.90" y="101.60" angle="270.00" type="DEFAULT_VEHTYPE" speed="10.55" pos="85.10" lane="EC_0" slope="0.00"/>
        <vehicle id="NS" x="98.40" y="114.90" angle="180.00" type="DEFAULT_VEHTYPE" speed="10.55" pos="85.10" lane="NC_0" slope="0.00"/>
        <vehicle id="SN" x="101.60" y="85.10" angle="0.00" type="DEFAULT_VEHTYPE" speed="10.55" pos="85.10" lane="SC_0" slope="0.00"/>
    </timestep>
    <timestep time="7.00">
        <vehicle id="EW" x="108.85" y="101.60" angle="270.00" type="DEFAULT_VEHTYPE" speed="6.05" pos="91.15" lane="EC_0" slope="0.00"/>
        <vehicle id="NS" x="98.40" y="108.85" angle="180.00" type="DEFAULT_VEHTYPE" speed="6.05" pos="91.15" lane="NC_0" slope="0.00"/>
        <vehicle id="SN" x="101.60" y="91.15" angle="0.00" type="DEFAULT_VEHTYPE" speed="6.05" pos="91.15" lane="SC_0" slope="0.00"/>
    </timestep>
    <timestep time="8.00">
        <vehicle id="EW" x="107.30" y="101.60" angle="270.00" type="DEFAULT_VEHTYPE" speed="1.55" pos="92.70" lane="EC_0" slope="0.00"/>
        <vehicle id="NS" x="98.40" y="100.20" angle="180.00" type="DEFAULT_VEHTYPE" speed="8.65" pos="7.00" lane=":C_1_0" slope="0.00"/>
        <vehicle id="SN" x="101.60" y="99.80" angle="0.00" type="DEFAULT_VEHTYPE" speed="8.65" pos="7.00" lane=":C_7_0" slope="0.00"/>
    </timestep>
    <timestep time="9.00">
        <vehicle id="EW" x="105.70" y="101.60" angle="270.00" type="DEFAULT_VEHTYPE" speed="1.60" pos="1.50" lane=":C_4_0" slope="0.00"/>
        <vehicle id="NS" x="98.40" y="88.95" angle="180.00" type="DEFAULT_VEHTYPE" speed="11.25" pos="3.85" lane="CS_0" slope="0.00"/>
        <vehicle id="SN" x="101.60" y="111.05" angle="0.00" type="DEFAULT_VEHTYPE" speed="11.25" pos="3.85" lane="CN_0" slope="0.00"/>
    </timestep>
    <timestep time="10.00">
        <vehicle id="EW" x="101.50" y="101.60" angle="270.00" type="DEFAULT_VEHTYPE" speed="4.20" pos="5.70" lane=":C_4_0" slope="0.00"/>
        <vehicle id="NS" x="98.40" y="75.10" angle="180.00" type="DEFAULT_VEHTYPE" speed="13.85" pos="17.70" lane="CS_0" slope="0.00"/>
        <vehicle id="SN" x="101.60" y="124.90" angle="0.00" type="DEFAULT_VEHTYPE" speed="13.85" pos="17.70" lane="CN_0" slope="0.00"/>
    </timestep>
    <timestep time="11.00">
        <vehicle id="EW" x="94.70" y="101.60" angle="270.00" type="DEFAULT_VEHTYPE" speed="6.80" pos="12.50" lane=":C_4_0" slope="0.00"/>
        <vehicle id="NS" x="98.40" y="61.21" angle="180.00" type="DEFAULT_VEHTYPE" speed="13.89" pos="31.59" lane="CS_0" slope="0.00"/>
        <vehicle id="SN" x="101.60" y="138.79" angle="0.00" type="DEFAULT_VEHTYPE" speed="13.89" pos="31.59" lane="CN_0" slope="0.00"/>
    </timestep>
    <timestep time="12.00">
        <vehicle id="EW" x="85.30" y="101.60" angle="270.00" type="DEFAULT_VEHTYPE" speed="9.40" pos="7.50" lane="CW_0" slope="0.00"/>
        <vehicle id="NS" x="98.40" y="47.32" angle="180.00" type="DEFAULT_VEHTYPE" speed="13.89" pos="45.48" lane="CS_0" slope="0.00"/>
        <vehicle id="SN" x="101.60" y="152.68" angle="0.00" type="DEFAULT_VEHTYPE" speed="13.89" pos="45.48" lane="CN_0" slope="0.00"/>
    </timestep>
    <timestep time="13.00">
        <vehicle id="EW" x="73.30" y="101.60" angle="270.00" type="DEFAULT_VEHTYPE" speed="12.00" pos="19.50" lane="CW_0" slope="0.00"/>
        <vehicle id="NS" x="98.40" y="33.43" angle="180.00" type="DEFAULT_VEHTYPE" speed="13.89" pos="59.37" lane="CS_0" slope="0.00"/>
        <vehicle id="SN" x="101.60" y="166.57" angle="0.00" type="DEFAULT_VEHTYPE" speed="13.89" pos="59.37" lane="CN_0" slope="0.00"/>
    </timestep>
    <timestep time="14.00">
        <vehicle id="EW" x="59.41" y="101.60" angle="270.00" type="DEFAULT_VEHTYPE" speed="13.89" pos="33.39" lane="CW_0" slope="0.00"/>
        <vehicle id="NS" x="98.40" y="19.54" angle="180.00" type="DEFAULT_VEHTYPE" speed="13.89" pos="73.26" lane="CS_0" slope="0.00"/>
        <vehicle id="SN" x="101.60" y="180.46" angle="0.00" type="DEFAULT_VEHTYPE" speed="13.89" pos="73.26" lane="CN_0" slope="0.00"/>
    </timestep>
    <timestep time="15.00">
        <vehicle id="EW" x="45.52" y="101.60" angle="270.00" type="DEFAULT_VEHTYPE" speed="13.89" pos="47.28" lane="CW_0" slope="0.00"/>
        <vehicle id="NS" x="98.40" y="5.65" angle="180.00" type="DEFAULT_VEHTYPE" speed="13.89" pos="87.15" lane="CS_0" slope="0.00"/>
        <vehicle id="SN" x="101.60" y="194.35" angle="0.00" type="DEFAULT_VEHTYPE" speed="13.89" pos="87.15" lane="CN_0" slope="0.00"/>
    </timestep>
    <timestep time="16.00">
        <vehicle id="EW" x="31.63" y="101.60" angle="270.00" type="DEFAULT_VEHTYPE" speed="13.89" pos="61.17" lane="CW_0" slope="0.00"/>
    </timestep>
    <timestep time="17.00">
        <vehicle id="EW" x="17.74" y="101.60" angle="270.00" type="DEFAULT_VEHTYPE" speed="13.89" pos="75.06" lane="CW_0" slope="0.00"/>
    </timestep>
    <timestep time="18.00">
        <vehicle id="EW" x="3.85" y="101.60" angle="270.00" type="DEFAULT_VEHTYPE" speed="13.89" pos="88.95" lane="CW_0" slope="0.00"/>
    </timestep>
    <timestep time="19.00"/>
</fcd-export>
