<?xml version="1.0" encoding="UTF-8"?>

<!-- generated on Fri Jun  6 13:06:42 2014 by SUMO sumo Version dev-SVN-r16550
<?xml version="1.0" encoding="UTF-8"?>

<configuration xmlns:xsi="http://www.w3.org/2001/XMLSchema-instance" xsi:noNamespaceSchemaLocation="http://sumo-sim.org/xsd/sumoConfiguration.xsd">

    <input>
        <net-file value="net.net.xml"/>
        <additional-files value="input_routes.rou.xml,input_additional.add.xml,input_additional2.add.xml"/>
    </input>

    <time>
        <begin value="0"/>
        <end value="15"/>
    </time>

    <report>
        <xml-validation value="never"/>
        <no-duration-log value="true"/>
        <no-step-log value="true"/>
    </report>

    <mesoscopic>
        <mesosim value="true"/>
    </mesoscopic>

</configuration>
-->

<detector>
    <interval begin="0.00" end="10.00" id="3/1to2/1" sampledSeconds="0.00" departed="0" arrived="0" entered="0" left="0"/>
    <interval begin="0.00" end="10.00" id="4/1to3/1" sampledSeconds="13.00" density="13.00" occupancy="3.90" waitingTime="0.00" speed="9.69" departed="2" arrived="0" entered="0" left="0"/>
    <interval begin="10.00" end="15.00" id="3/1to2/1" sampledSeconds="0.00" departed="0" arrived="0" entered="0" left="0"/>
    <interval begin="10.00" end="15.00" id="4/1to3/1" sampledSeconds="7.00" density="14.00" occupancy="4.20" waitingTime="0.00" speed="9.14" departed="0" arrived="0" entered="0" left="1"/>
</detector>
