<?xml version="1.0"?>

<!-- generated on Sun Jan 30 00:57:37 2011 by SUMO sumo Version dev-SVN-r9638
<?xml version="1.0" encoding="iso-8859-1"?>

<configuration xmlns:xsi="http://www.w3.org/2001/XMLSchema-instance" xsi:noNamespaceSchemaLocation="http://sumo.sf.net/xsd/sumoConfiguration.xsd">

    <input>
        <net-file value="net.net.xml"/>
        <additional-files value="input_districts.net.xml,input_trips.trips.xml"/>
    </input>

    <output>
        <vehroute-output value="vehroutes.xml"/>
        <vehroute-output.last-route value="true"/>
    </output>

    <time>
        <begin value="0"/>
    </time>

    <report>
        <no-duration-log value="true"/>
        <no-step-log value="true"/>
    </report>

    <routing>
        <device.routing.probability value="1"/>
        <device.routing.with-taz value="true"/>
    </routing>

</configuration>
-->

<routes>
    <vehicle id="0" depart="0.00" arrival="80.00" fromtaz="1" totaz="2">
        <route edges="beg2left left left2end end"/>
    </vehicle>

    <vehicle id="1" depart="20.00" arrival="100.00" fromtaz="1" totaz="2">
        <route edges="beg2left left left2end end"/>
    </vehicle>

    <vehicle id="2" depart="40.00" arrival="120.00" fromtaz="1" totaz="2">
        <route edges="beg2left left left2end end"/>
    </vehicle>

    <vehicle id="3" depart="60.00" arrival="141.00" fromtaz="1" totaz="2">
        <route edges="beg2left left left2end end"/>
    </vehicle>

    <vehicle id="4" depart="80.00" arrival="160.00" fromtaz="1" totaz="2">
        <route edges="beg2left left left2end end"/>
    </vehicle>

    <vehicle id="5" depart="100.00" arrival="181.00" fromtaz="1" totaz="2">
        <route edges="beg2left left left2end end"/>
    </vehicle>

    <vehicle id="6" depart="120.00" arrival="200.00" fromtaz="1" totaz="2">
        <route edges="beg2left left left2end end"/>
    </vehicle>

    <vehicle id="7" depart="140.00" arrival="221.00" fromtaz="1" totaz="2">
        <route edges="beg2left left left2end end"/>
    </vehicle>

    <vehicle id="8" depart="160.00" arrival="240.00" fromtaz="1" totaz="2">
        <route edges="beg2left left left2end end"/>
    </vehicle>

    <vehicle id="9" depart="180.00" arrival="260.00" fromtaz="1" totaz="2">
        <route edges="beg2left left left2end end"/>
    </vehicle>

</routes>
