<?xml version="1.0" encoding="UTF-8"?>

<!-- generated on 2024-11-05 09:48:10 by Eclipse SUMO sumo Version v1_21_0+0595-6827d080357
This data file and the accompanying materials
are made available under the terms of the Eclipse Public License v2.0
which accompanies this distribution, and is available at
http://www.eclipse.org/legal/epl-v20.html
This file may also be made available under the following Secondary
Licenses when the conditions for such availability set forth in the Eclipse
Public License 2.0 are satisfied: GNU General Public License, version 2
or later which is available at
https://www.gnu.org/licenses/old-licenses/gpl-2.0-standalone.html
SPDX-License-Identifier: EPL-2.0 OR GPL-2.0-or-later
<sumoConfiguration xmlns:xsi="http://www.w3.org/2001/XMLSchema-instance" xsi:noNamespaceSchemaLocation="http://sumo.dlr.de/xsd/sumoConfiguration.xsd">

    <input>
        <net-file value="net.net.xml"/>
        <route-files value="input_routes.rou.xml"/>
    </input>

    <output>
        <write-license value="true"/>
        <fcd-output value="fcd.xml"/>
        <fcd-output.attributes value="edge,pos,segment,queue,entryTime,eventTime,blockTime"/>
        <vehroute-output value="vehroutes.xml"/>
    </output>

    <processing>
        <default.speeddev value="0"/>
    </processing>

    <report>
        <xml-validation value="never"/>
        <duration-log.disable value="true"/>
        <no-step-log value="true"/>
    </report>

    <mesoscopic>
        <mesosim value="true"/>
        <meso-lane-queue value="true"/>
    </mesoscopic>

</sumoConfiguration>
-->

<fcd-export xmlns:xsi="http://www.w3.org/2001/XMLSchema-instance" xsi:noNamespaceSchemaLocation="http://sumo.dlr.de/xsd/fcd_file.xsd">
    <timestep time="0.00">
        <vehicle id="l.0" pos="0.00" edge="beg" segment="0" queue="0" entryTime="0.00" eventTime="3.67" blockTime="-1.00"/>
    </timestep>
    <timestep time="1.00">
        <vehicle id="l.0" pos="0.00" edge="beg" segment="0" queue="0" entryTime="0.00" eventTime="3.67" blockTime="-1.00"/>
        <vehicle id="l.1" pos="0.00" edge="beg" segment="0" queue="1" entryTime="1.00" eventTime="4.67" blockTime="-1.00"/>
    </timestep>
    <timestep time="2.00">
        <vehicle id="l.0" pos="0.00" edge="beg" segment="0" queue="0" entryTime="0.00" eventTime="3.67" blockTime="-1.00"/>
        <vehicle id="l.1" pos="0.00" edge="beg" segment="0" queue="1" entryTime="1.00" eventTime="4.67" blockTime="-1.00"/>
        <vehicle id="l.2" pos="0.00" edge="beg" segment="0" queue="0" entryTime="2.00" eventTime="5.67" blockTime="-1.00"/>
    </timestep>
    <timestep time="3.00">
        <vehicle id="l.0" pos="0.00" edge="beg" segment="0" queue="0" entryTime="0.00" eventTime="3.67" blockTime="-1.00"/>
        <vehicle id="l.1" pos="0.00" edge="beg" segment="0" queue="1" entryTime="1.00" eventTime="4.67" blockTime="-1.00"/>
        <vehicle id="l.2" pos="0.00" edge="beg" segment="0" queue="0" entryTime="2.00" eventTime="5.67" blockTime="-1.00"/>
        <vehicle id="l.3" pos="0.00" edge="beg" segment="0" queue="1" entryTime="3.00" eventTime="6.67" blockTime="-1.00"/>
    </timestep>
    <timestep time="4.00">
        <vehicle id="l.0" pos="101.88" edge="beg" segment="1" queue="0" entryTime="3.67" eventTime="7.33" blockTime="-1.00"/>
        <vehicle id="l.1" pos="0.00" edge="beg" segment="0" queue="1" entryTime="1.00" eventTime="4.67" blockTime="-1.00"/>
        <vehicle id="l.2" pos="0.00" edge="beg" segment="0" queue="0" entryTime="2.00" eventTime="5.67" blockTime="-1.00"/>
        <vehicle id="l.3" pos="0.00" edge="beg" segment="0" queue="1" entryTime="3.00" eventTime="6.67" blockTime="-1.00"/>
        <vehicle id="l.4" pos="0.00" edge="beg" segment="0" queue="0" entryTime="4.00" eventTime="7.67" blockTime="-1.00"/>
    </timestep>
    <timestep time="5.00">
        <vehicle id="l.0" pos="101.88" edge="beg" segment="1" queue="0" entryTime="3.67" eventTime="7.33" blockTime="-1.00"/>
        <vehicle id="l.1" pos="101.88" edge="beg" segment="1" queue="1" entryTime="4.67" eventTime="8.33" blockTime="-1.00"/>
        <vehicle id="l.2" pos="0.00" edge="beg" segment="0" queue="0" entryTime="2.00" eventTime="5.67" blockTime="-1.00"/>
        <vehicle id="l.3" pos="0.00" edge="beg" segment="0" queue="1" entryTime="3.00" eventTime="6.67" blockTime="-1.00"/>
        <vehicle id="l.4" pos="0.00" edge="beg" segment="0" queue="0" entryTime="4.00" eventTime="7.67" blockTime="-1.00"/>
        <vehicle id="l.5" pos="0.00" edge="beg" segment="0" queue="1" entryTime="5.00" eventTime="8.66" blockTime="-1.00"/>
        <vehicle id="m.0" pos="0.00" edge="beg" segment="0" queue="0" entryTime="5.00" eventTime="9.06" blockTime="-1.00"/>
    </timestep>
    <timestep time="6.00">
        <vehicle id="l.0" pos="101.88" edge="beg" segment="1" queue="0" entryTime="3.67" eventTime="7.33" blockTime="-1.00"/>
        <vehicle id="l.1" pos="101.88" edge="beg" segment="1" queue="1" entryTime="4.67" eventTime="8.33" blockTime="-1.00"/>
        <vehicle id="l.2" pos="101.88" edge="beg" segment="1" queue="0" entryTime="5.67" eventTime="9.33" blockTime="-1.00"/>
        <vehicle id="l.3" pos="0.00" edge="beg" segment="0" queue="1" entryTime="3.00" eventTime="6.67" blockTime="-1.00"/>
        <vehicle id="l.4" pos="0.00" edge="beg" segment="0" queue="0" entryTime="4.00" eventTime="7.67" blockTime="-1.00"/>
        <vehicle id="l.5" pos="0.00" edge="beg" segment="0" queue="1" entryTime="5.00" eventTime="8.66" blockTime="-1.00"/>
        <vehicle id="l.6" pos="0.00" edge="beg" segment="0" queue="0" entryTime="6.00" eventTime="10.46" blockTime="-1.00"/>
        <vehicle id="m.0" pos="0.00" edge="beg" segment="0" queue="0" entryTime="5.00" eventTime="9.06" blockTime="-1.00"/>
        <vehicle id="m.1" pos="0.00" edge="beg" segment="0" queue="1" entryTime="6.00" eventTime="10.06" blockTime="-1.00"/>
    </timestep>
    <timestep time="7.00">
        <vehicle id="l.0" pos="101.88" edge="beg" segment="1" queue="0" entryTime="3.67" eventTime="7.33" blockTime="-1.00"/>
        <vehicle id="l.1" pos="101.88" edge="beg" segment="1" queue="1" entryTime="4.67" eventTime="8.33" blockTime="-1.00"/>
        <vehicle id="l.2" pos="101.88" edge="beg" segment="1" queue="0" entryTime="5.67" eventTime="9.33" blockTime="-1.00"/>
        <vehicle id="l.3" pos="101.88" edge="beg" segment="1" queue="1" entryTime="6.67" eventTime="10.33" blockTime="-1.00"/>
        <vehicle id="l.4" pos="0.00" edge="beg" segment="0" queue="0" entryTime="4.00" eventTime="7.67" blockTime="-1.00"/>
        <vehicle id="l.5" pos="0.00" edge="beg" segment="0" queue="1" entryTime="5.00" eventTime="8.66" blockTime="-1.00"/>
        <vehicle id="l.6" pos="0.00" edge="beg" segment="0" queue="0" entryTime="6.00" eventTime="10.46" blockTime="-1.00"/>
        <vehicle id="l.7" pos="0.00" edge="beg" segment="0" queue="1" entryTime="7.00" eventTime="11.46" blockTime="-1.00"/>
        <vehicle id="m.0" pos="0.00" edge="beg" segment="0" queue="0" entryTime="5.00" eventTime="9.06" blockTime="-1.00"/>
        <vehicle id="m.1" pos="0.00" edge="beg" segment="0" queue="1" entryTime="6.00" eventTime="10.06" blockTime="-1.00"/>
    </timestep>
    <timestep time="8.00">
        <vehicle id="l.0" pos="203.76" edge="beg" segment="2" queue="0" entryTime="7.33" eventTime="10.99" blockTime="-1.00"/>
        <vehicle id="l.1" pos="101.88" edge="beg" segment="1" queue="1" entryTime="4.67" eventTime="8.33" blockTime="-1.00"/>
        <vehicle id="l.2" pos="101.88" edge="beg" segment="1" queue="0" entryTime="5.67" eventTime="9.33" blockTime="-1.00"/>
        <vehicle id="l.3" pos="101.88" edge="beg" segment="1" queue="1" entryTime="6.67" eventTime="10.33" blockTime="-1.00"/>
        <vehicle id="l.4" pos="101.88" edge="beg" segment="1" queue="0" entryTime="7.67" eventTime="11.33" blockTime="-1.00"/>
        <vehicle id="l.5" pos="0.00" edge="beg" segment="0" queue="1" entryTime="5.00" eventTime="8.66" blockTime="-1.00"/>
        <vehicle id="l.6" pos="0.00" edge="beg" segment="0" queue="0" entryTime="6.00" eventTime="10.46" blockTime="-1.00"/>
        <vehicle id="l.7" pos="0.00" edge="beg" segment="0" queue="1" entryTime="7.00" eventTime="11.46" blockTime="-1.00"/>
        <vehicle id="m.0" pos="0.00" edge="beg" segment="0" queue="0" entryTime="5.00" eventTime="9.06" blockTime="-1.00"/>
        <vehicle id="m.1" pos="0.00" edge="beg" segment="0" queue="1" entryTime="6.00" eventTime="10.06" blockTime="-1.00"/>
        <vehicle id="m.2" pos="0.00" edge="beg" segment="0" queue="0" entryTime="8.00" eventTime="11.86" blockTime="-1.00"/>
    </timestep>
    <timestep time="9.00">
        <vehicle id="l.0" pos="203.76" edge="beg" segment="2" queue="0" entryTime="7.33" eventTime="10.99" blockTime="-1.00"/>
        <vehicle id="l.1" pos="203.76" edge="beg" segment="2" queue="1" entryTime="8.33" eventTime="11.99" blockTime="-1.00"/>
        <vehicle id="l.2" pos="101.88" edge="beg" segment="1" queue="0" entryTime="5.67" eventTime="9.33" blockTime="-1.00"/>
        <vehicle id="l.3" pos="101.88" edge="beg" segment="1" queue="1" entryTime="6.67" eventTime="10.33" blockTime="-1.00"/>
        <vehicle id="l.4" pos="101.88" edge="beg" segment="1" queue="0" entryTime="7.67" eventTime="11.33" blockTime="-1.00"/>
        <vehicle id="l.5" pos="101.88" edge="beg" segment="1" queue="1" entryTime="8.66" eventTime="12.33" blockTime="-1.00"/>
        <vehicle id="l.6" pos="0.00" edge="beg" segment="0" queue="0" entryTime="6.00" eventTime="10.46" blockTime="-1.00"/>
        <vehicle id="l.7" pos="0.00" edge="beg" segment="0" queue="1" entryTime="7.00" eventTime="11.46" blockTime="-1.00"/>
        <vehicle id="l.8" pos="0.00" edge="beg" segment="0" queue="1" entryTime="9.00" eventTime="12.86" blockTime="-1.00"/>
        <vehicle id="m.0" pos="0.00" edge="beg" segment="0" queue="0" entryTime="5.00" eventTime="9.06" blockTime="-1.00"/>
        <vehicle id="m.1" pos="0.00" edge="beg" segment="0" queue="1" entryTime="6.00" eventTime="10.06" blockTime="-1.00"/>
        <vehicle id="m.2" pos="0.00" edge="beg" segment="0" queue="0" entryTime="8.00" eventTime="11.86" blockTime="-1.00"/>
    </timestep>
    <timestep time="10.00">
        <vehicle id="l.0" pos="203.76" edge="beg" segment="2" queue="0" entryTime="7.33" eventTime="10.99" blockTime="-1.00"/>
        <vehicle id="l.1" pos="203.76" edge="beg" segment="2" queue="1" entryTime="8.33" eventTime="11.99" blockTime="-1.00"/>
        <vehicle id="l.2" pos="203.76" edge="beg" segment="2" queue="0" entryTime="9.33" eventTime="12.99" blockTime="-1.00"/>
        <vehicle id="l.3" pos="101.88" edge="beg" segment="1" queue="1" entryTime="6.67" eventTime="10.33" blockTime="-1.00"/>
        <vehicle id="l.4" pos="101.88" edge="beg" segment="1" queue="0" entryTime="7.67" eventTime="11.33" blockTime="-1.00"/>
        <vehicle id="l.5" pos="101.88" edge="beg" segment="1" queue="1" entryTime="8.66" eventTime="12.33" blockTime="-1.00"/>
        <vehicle id="l.6" pos="0.00" edge="beg" segment="0" queue="0" entryTime="6.00" eventTime="10.46" blockTime="-1.00"/>
        <vehicle id="l.7" pos="0.00" edge="beg" segment="0" queue="1" entryTime="7.00" eventTime="11.46" blockTime="-1.00"/>
        <vehicle id="l.8" pos="0.00" edge="beg" segment="0" queue="1" entryTime="9.00" eventTime="12.86" blockTime="-1.00"/>
        <vehicle id="m.0" pos="101.88" edge="beg" segment="1" queue="0" entryTime="9.06" eventTime="12.73" blockTime="-1.00"/>
        <vehicle id="m.1" pos="0.00" edge="beg" segment="0" queue="1" entryTime="6.00" eventTime="10.06" blockTime="-1.00"/>
        <vehicle id="m.2" pos="0.00" edge="beg" segment="0" queue="0" entryTime="8.00" eventTime="11.86" blockTime="-1.00"/>
        <vehicle id="m.3" pos="0.00" edge="beg" segment="0" queue="0" entryTime="10.00" eventTime="13.66" blockTime="-1.00"/>
    </timestep>
    <timestep time="11.00">
        <vehicle id="l.0" pos="305.64" edge="beg" segment="3" queue="0" entryTime="10.99" eventTime="14.66" blockTime="-1.00"/>
        <vehicle id="l.1" pos="203.76" edge="beg" segment="2" queue="1" entryTime="8.33" eventTime="11.99" blockTime="-1.00"/>
        <vehicle id="l.2" pos="203.76" edge="beg" segment="2" queue="0" entryTime="9.33" eventTime="12.99" blockTime="-1.00"/>
        <vehicle id="l.3" pos="203.76" edge="beg" segment="2" queue="1" entryTime="10.33" eventTime="13.99" blockTime="-1.00"/>
        <vehicle id="l.4" pos="101.88" edge="beg" segment="1" queue="0" entryTime="7.67" eventTime="11.33" blockTime="-1.00"/>
        <vehicle id="l.5" pos="101.88" edge="beg" segment="1" queue="1" entryTime="8.66" eventTime="12.33" blockTime="-1.00"/>
        <vehicle id="l.6" pos="101.88" edge="beg" segment="1" queue="0" entryTime="10.46" eventTime="14.13" blockTime="-1.00"/>
        <vehicle id="l.7" pos="0.00" edge="beg" segment="0" queue="1" entryTime="7.00" eventTime="11.46" blockTime="-1.00"/>
        <vehicle id="l.8" pos="0.00" edge="beg" segment="0" queue="1" entryTime="9.00" eventTime="12.86" blockTime="-1.00"/>
        <vehicle id="l.9" pos="0.00" edge="beg" segment="0" queue="0" entryTime="11.00" eventTime="15.06" blockTime="-1.00"/>
        <vehicle id="m.0" pos="101.88" edge="beg" segment="1" queue="0" entryTime="9.06" eventTime="12.73" blockTime="-1.00"/>
        <vehicle id="m.1" pos="101.88" edge="beg" segment="1" queue="1" entryTime="10.06" eventTime="13.73" blockTime="-1.00"/>
        <vehicle id="m.2" pos="0.00" edge="beg" segment="0" queue="0" entryTime="8.00" eventTime="11.86" blockTime="-1.00"/>
        <vehicle id="m.3" pos="0.00" edge="beg" segment="0" queue="0" entryTime="10.00" eventTime="13.66" blockTime="-1.00"/>
        <vehicle id="m.4" pos="0.00" edge="beg" segment="0" queue="1" entryTime="11.00" eventTime="14.66" blockTime="-1.00"/>
    </timestep>
    <timestep time="12.00">
        <vehicle id="l.0" pos="305.64" edge="beg" segment="3" queue="0" entryTime="10.99" eventTime="14.66" blockTime="-1.00"/>
        <vehicle id="l.1" pos="305.64" edge="beg" segment="3" queue="1" entryTime="11.99" eventTime="15.66" blockTime="-1.00"/>
        <vehicle id="l.10" pos="0.00" edge="beg" segment="0" queue="0" entryTime="12.00" eventTime="16.46" blockTime="-1.00"/>
        <vehicle id="l.2" pos="203.76" edge="beg" segment="2" queue="0" entryTime="9.33" eventTime="12.99" blockTime="-1.00"/>
        <vehicle id="l.3" pos="203.76" edge="beg" segment="2" queue="1" entryTime="10.33" eventTime="13.99" blockTime="-1.00"/>
        <vehicle id="l.4" pos="203.76" edge="beg" segment="2" queue="0" entryTime="11.33" eventTime="14.99" blockTime="-1.00"/>
        <vehicle id="l.5" pos="101.88" edge="beg" segment="1" queue="1" entryTime="8.66" eventTime="12.33" blockTime="-1.00"/>
        <vehicle id="l.6" pos="101.88" edge="beg" segment="1" queue="0" entryTime="10.46" eventTime="14.13" blockTime="-1.00"/>
        <vehicle id="l.7" pos="101.88" edge="beg" segment="1" queue="1" entryTime="11.46" eventTime="15.13" blockTime="-1.00"/>
        <vehicle id="l.8" pos="0.00" edge="beg" segment="0" queue="1" entryTime="9.00" eventTime="12.86" blockTime="-1.00"/>
        <vehicle id="l.9" pos="0.00" edge="beg" segment="0" queue="0" entryTime="11.00" eventTime="15.06" blockTime="-1.00"/>
        <vehicle id="m.0" pos="101.88" edge="beg" segment="1" queue="0" entryTime="9.06" eventTime="12.73" blockTime="-1.00"/>
        <vehicle id="m.1" pos="101.88" edge="beg" segment="1" queue="1" entryTime="10.06" eventTime="13.73" blockTime="-1.00"/>
        <vehicle id="m.2" pos="101.88" edge="beg" segment="1" queue="0" entryTime="11.86" eventTime="15.53" blockTime="-1.00"/>
        <vehicle id="m.3" pos="0.00" edge="beg" segment="0" queue="0" entryTime="10.00" eventTime="13.66" blockTime="-1.00"/>
        <vehicle id="m.4" pos="0.00" edge="beg" segment="0" queue="1" entryTime="11.00" eventTime="14.66" blockTime="-1.00"/>
        <vehicle id="m.5" pos="0.00" edge="beg" segment="0" queue="1" entryTime="12.00" eventTime="16.06" blockTime="-1.00"/>
    </timestep>
    <timestep time="13.00">
        <vehicle id="l.0" pos="305.64" edge="beg" segment="3" queue="0" entryTime="10.99" eventTime="14.66" blockTime="-1.00"/>
        <vehicle id="l.1" pos="305.64" edge="beg" segment="3" queue="1" entryTime="11.99" eventTime="15.66" blockTime="-1.00"/>
        <vehicle id="l.10" pos="0.00" edge="beg" segment="0" queue="0" entryTime="12.00" eventTime="16.46" blockTime="-1.00"/>
        <vehicle id="l.2" pos="305.64" edge="beg" segment="3" queue="0" entryTime="12.99" eventTime="16.66" blockTime="-1.00"/>
        <vehicle id="l.3" pos="203.76" edge="beg" segment="2" queue="1" entryTime="10.33" eventTime="13.99" blockTime="-1.00"/>
        <vehicle id="l.4" pos="203.76" edge="beg" segment="2" queue="0" entryTime="11.33" eventTime="14.99" blockTime="-1.00"/>
        <vehicle id="l.5" pos="203.76" edge="beg" segment="2" queue="1" entryTime="12.33" eventTime="15.99" blockTime="-1.00"/>
        <vehicle id="l.6" pos="101.88" edge="beg" segment="1" queue="0" entryTime="10.46" eventTime="14.13" blockTime="-1.00"/>
        <vehicle id="l.7" pos="101.88" edge="beg" segment="1" queue="1" entryTime="11.46" eventTime="15.13" blockTime="-1.00"/>
        <vehicle id="l.8" pos="101.88" edge="beg" segment="1" queue="1" entryTime="12.86" eventTime="16.53" blockTime="-1.00"/>
        <vehicle id="l.9" pos="0.00" edge="beg" segment="0" queue="0" entryTime="11.00" eventTime="15.06" blockTime="-1.00"/>
        <vehicle id="m.0" pos="203.76" edge="beg" segment="2" queue="0" entryTime="12.73" eventTime="16.39" blockTime="-1.00"/>
        <vehicle id="m.1" pos="101.88" edge="beg" segment="1" queue="1" entryTime="10.06" eventTime="13.73" blockTime="-1.00"/>
        <vehicle id="m.2" pos="101.88" edge="beg" segment="1" queue="0" entryTime="11.86" eventTime="15.53" blockTime="-1.00"/>
        <vehicle id="m.3" pos="0.00" edge="beg" segment="0" queue="0" entryTime="10.00" eventTime="13.66" blockTime="-1.00"/>
        <vehicle id="m.4" pos="0.00" edge="beg" segment="0" queue="1" entryTime="11.00" eventTime="14.66" blockTime="-1.00"/>
        <vehicle id="m.5" pos="0.00" edge="beg" segment="0" queue="1" entryTime="12.00" eventTime="16.06" blockTime="-1.00"/>
        <vehicle id="m.6" pos="0.00" edge="beg" segment="0" queue="1" entryTime="13.00" eventTime="17.46" blockTime="-1.00"/>
    </timestep>
    <timestep time="14.00">
        <vehicle id="l.0" pos="305.64" edge="beg" segment="3" queue="0" entryTime="10.99" eventTime="14.66" blockTime="-1.00"/>
        <vehicle id="l.1" pos="305.64" edge="beg" segment="3" queue="1" entryTime="11.99" eventTime="15.66" blockTime="-1.00"/>
        <vehicle id="l.10" pos="0.00" edge="beg" segment="0" queue="0" entryTime="12.00" eventTime="16.46" blockTime="-1.00"/>
        <vehicle id="l.2" pos="305.64" edge="beg" segment="3" queue="0" entryTime="12.99" eventTime="16.66" blockTime="-1.00"/>
        <vehicle id="l.3" pos="305.64" edge="beg" segment="3" queue="1" entryTime="13.99" eventTime="17.66" blockTime="-1.00"/>
        <vehicle id="l.4" pos="203.76" edge="beg" segment="2" queue="0" entryTime="11.33" eventTime="14.99" blockTime="-1.00"/>
        <vehicle id="l.5" pos="203.76" edge="beg" segment="2" queue="1" entryTime="12.33" eventTime="15.99" blockTime="-1.00"/>
        <vehicle id="l.6" pos="101.88" edge="beg" segment="1" queue="0" entryTime="10.46" eventTime="14.13" blockTime="-1.00"/>
        <vehicle id="l.7" pos="101.88" edge="beg" segment="1" queue="1" entryTime="11.46" eventTime="15.13" blockTime="-1.00"/>
        <vehicle id="l.8" pos="101.88" edge="beg" segment="1" queue="1" entryTime="12.86" eventTime="16.53" blockTime="-1.00"/>
        <vehicle id="l.9" pos="0.00" edge="beg" segment="0" queue="0" entryTime="11.00" eventTime="15.06" blockTime="-1.00"/>
        <vehicle id="m.0" pos="203.76" edge="beg" segment="2" queue="0" entryTime="12.73" eventTime="16.39" blockTime="-1.00"/>
        <vehicle id="m.1" pos="203.76" edge="beg" segment="2" queue="1" entryTime="13.73" eventTime="17.39" blockTime="-1.00"/>
        <vehicle id="m.2" pos="101.88" edge="beg" segment="1" queue="0" entryTime="11.86" eventTime="15.53" blockTime="-1.00"/>
        <vehicle id="m.3" pos="101.88" edge="beg" segment="1" queue="0" entryTime="13.66" eventTime="17.33" blockTime="-1.00"/>
        <vehicle id="m.4" pos="0.00" edge="beg" segment="0" queue="1" entryTime="11.00" eventTime="14.66" blockTime="-1.00"/>
        <vehicle id="m.5" pos="0.00" edge="beg" segment="0" queue="1" entryTime="12.00" eventTime="16.06" blockTime="-1.00"/>
        <vehicle id="m.6" pos="0.00" edge="beg" segment="0" queue="1" entryTime="13.00" eventTime="17.46" blockTime="-1.00"/>
        <vehicle id="m.7" pos="0.00" edge="beg" segment="0" queue="0" entryTime="14.00" eventTime="17.86" blockTime="-1.00"/>
    </timestep>
    <timestep time="15.00">
        <vehicle id="l.0" pos="407.52" edge="beg" segment="4" queue="1" entryTime="14.66" eventTime="18.32" blockTime="-1.00"/>
        <vehicle id="l.1" pos="305.64" edge="beg" segment="3" queue="1" entryTime="11.99" eventTime="15.66" blockTime="-1.00"/>
        <vehicle id="l.10" pos="0.00" edge="beg" segment="0" queue="0" entryTime="12.00" eventTime="16.46" blockTime="-1.00"/>
        <vehicle id="l.2" pos="305.64" edge="beg" segment="3" queue="0" entryTime="12.99" eventTime="16.66" blockTime="-1.00"/>
        <vehicle id="l.3" pos="305.64" edge="beg" segment="3" queue="1" entryTime="13.99" eventTime="17.66" blockTime="-1.00"/>
        <vehicle id="l.4" pos="305.64" edge="beg" segment="3" queue="0" entryTime="14.99" eventTime="18.66" blockTime="-1.00"/>
        <vehicle id="l.5" pos="203.76" edge="beg" segment="2" queue="1" entryTime="12.33" eventTime="15.99" blockTime="-1.00"/>
        <vehicle id="l.6" pos="203.76" edge="beg" segment="2" queue="0" entryTime="14.13" eventTime="17.79" blockTime="-1.00"/>
        <vehicle id="l.7" pos="101.88" edge="beg" segment="1" queue="1" entryTime="11.46" eventTime="15.13" blockTime="-1.00"/>
        <vehicle id="l.8" pos="101.88" edge="beg" segment="1" queue="1" entryTime="12.86" eventTime="16.53" blockTime="-1.00"/>
        <vehicle id="l.9" pos="0.00" edge="beg" segment="0" queue="0" entryTime="11.00" eventTime="15.06" blockTime="-1.00"/>
        <vehicle id="m.0" pos="203.76" edge="beg" segment="2" queue="0" entryTime="12.73" eventTime="16.39" blockTime="-1.00"/>
        <vehicle id="m.1" pos="203.76" edge="beg" segment="2" queue="1" entryTime="13.73" eventTime="17.39" blockTime="-1.00"/>
        <vehicle id="m.2" pos="101.88" edge="beg" segment="1" queue="0" entryTime="11.86" eventTime="15.53" blockTime="-1.00"/>
        <vehicle id="m.3" pos="101.88" edge="beg" segment="1" queue="0" entryTime="13.66" eventTime="17.33" blockTime="-1.00"/>
        <vehicle id="m.4" pos="101.88" edge="beg" segment="1" queue="1" entryTime="14.66" eventTime="18.33" blockTime="-1.00"/>
        <vehicle id="m.5" pos="0.00" edge="beg" segment="0" queue="1" entryTime="12.00" eventTime="16.06" blockTime="-1.00"/>
        <vehicle id="m.6" pos="0.00" edge="beg" segment="0" queue="1" entryTime="13.00" eventTime="17.46" blockTime="-1.00"/>
        <vehicle id="m.7" pos="0.00" edge="beg" segment="0" queue="0" entryTime="14.00" eventTime="17.86" blockTime="-1.00"/>
        <vehicle id="m.8" pos="0.00" edge="beg" segment="0" queue="1" entryTime="15.00" eventTime="18.86" blockTime="-1.00"/>
    </timestep>
    <timestep time="16.00">
        <vehicle id="l.0" pos="407.52" edge="beg" segment="4" queue="1" entryTime="14.66" eventTime="18.32" blockTime="-1.00"/>
        <vehicle id="l.1" pos="305.64" edge="beg" segment="3" queue="1" entryTime="11.99" eventTime="16.06" blockTime="15.66"/>
        <vehicle id="l.10" pos="0.00" edge="beg" segment="0" queue="0" entryTime="12.00" eventTime="16.46" blockTime="-1.00"/>
        <vehicle id="l.2" pos="305.64" edge="beg" segment="3" queue="0" entryTime="12.99" eventTime="16.66" blockTime="-1.00"/>
        <vehicle id="l.3" pos="305.64" edge="beg" segment="3" queue="1" entryTime="13.99" eventTime="17.66" blockTime="-1.00"/>
        <vehicle id="l.4" pos="305.64" edge="beg" segment="3" queue="0" entryTime="14.99" eventTime="18.66" blockTime="-1.00"/>
        <vehicle id="l.5" pos="305.64" edge="beg" segment="3" queue="1" entryTime="15.99" eventTime="19.66" blockTime="-1.00"/>
        <vehicle id="l.6" pos="203.76" edge="beg" segment="2" queue="0" entryTime="14.13" eventTime="17.79" blockTime="-1.00"/>
        <vehicle id="l.7" pos="203.76" edge="beg" segment="2" queue="1" entryTime="15.13" eventTime="18.79" blockTime="-1.00"/>
        <vehicle id="l.8" pos="101.88" edge="beg" segment="1" queue="1" entryTime="12.86" eventTime="16.53" blockTime="-1.00"/>
        <vehicle id="l.9" pos="101.88" edge="beg" segment="1" queue="0" entryTime="15.06" eventTime="18.73" blockTime="-1.00"/>
        <vehicle id="m.0" pos="203.76" edge="beg" segment="2" queue="0" entryTime="12.73" eventTime="16.39" blockTime="-1.00"/>
        <vehicle id="m.1" pos="203.76" edge="beg" segment="2" queue="1" entryTime="13.73" eventTime="17.39" blockTime="-1.00"/>
        <vehicle id="m.2" pos="203.76" edge="beg" segment="2" queue="0" entryTime="15.53" eventTime="19.19" blockTime="-1.00"/>
        <vehicle id="m.3" pos="101.88" edge="beg" segment="1" queue="0" entryTime="13.66" eventTime="17.33" blockTime="-1.00"/>
        <vehicle id="m.4" pos="101.88" edge="beg" segment="1" queue="1" entryTime="14.66" eventTime="18.33" blockTime="-1.00"/>
        <vehicle id="m.5" pos="0.00" edge="beg" segment="0" queue="1" entryTime="12.00" eventTime="16.06" blockTime="-1.00"/>
        <vehicle id="m.6" pos="0.00" edge="beg" segment="0" queue="1" entryTime="13.00" eventTime="17.46" blockTime="-1.00"/>
        <vehicle id="m.7" pos="0.00" edge="beg" segment="0" queue="0" entryTime="14.00" eventTime="17.86" blockTime="-1.00"/>
        <vehicle id="m.8" pos="0.00" edge="beg" segment="0" queue="1" entryTime="15.00" eventTime="18.86" blockTime="-1.00"/>
        <vehicle id="m.9" pos="0.00" edge="beg" segment="0" queue="0" entryTime="16.00" eventTime="19.66" blockTime="-1.00"/>
    </timestep>
    <timestep time="17.00">
        <vehicle id="l.0" pos="407.52" edge="beg" segment="4" queue="1" entryTime="14.66" eventTime="18.32" blockTime="-1.00"/>
        <vehicle id="l.1" pos="407.52" edge="beg" segment="4" queue="1" entryTime="16.06" eventTime="19.72" blockTime="-1.00"/>
        <vehicle id="l.10" pos="101.88" edge="beg" segment="1" queue="0" entryTime="16.46" eventTime="20.13" blockTime="-1.00"/>
        <vehicle id="l.2" pos="305.64" edge="beg" segment="3" queue="0" entryTime="12.99" eventTime="17.46" blockTime="16.66"/>
        <vehicle id="l.3" pos="305.64" edge="beg" segment="3" queue="1" entryTime="13.99" eventTime="17.66" blockTime="-1.00"/>
        <vehicle id="l.4" pos="305.64" edge="beg" segment="3" queue="0" entryTime="14.99" eventTime="18.66" blockTime="-1.00"/>
        <vehicle id="l.5" pos="305.64" edge="beg" segment="3" queue="1" entryTime="15.99" eventTime="19.66" blockTime="-1.00"/>
        <vehicle id="l.6" pos="203.76" edge="beg" segment="2" queue="0" entryTime="14.13" eventTime="17.79" blockTime="-1.00"/>
        <vehicle id="l.7" pos="203.76" edge="beg" segment="2" queue="1" entryTime="15.13" eventTime="18.79" blockTime="-1.00"/>
        <vehicle id="l.8" pos="203.76" edge="beg" segment="2" queue="1" entryTime="16.53" eventTime="20.19" blockTime="-1.00"/>
        <vehicle id="l.9" pos="101.88" edge="beg" segment="1" queue="0" entryTime="15.06" eventTime="18.73" blockTime="-1.00"/>
        <vehicle id="m.0" pos="305.64" edge="beg" segment="3" queue="0" entryTime="16.39" eventTime="20.06" blockTime="-1.00"/>
        <vehicle id="m.1" pos="203.76" edge="beg" segment="2" queue="1" entryTime="13.73" eventTime="17.39" blockTime="-1.00"/>
        <vehicle id="m.10" pos="0.00" edge="beg" segment="0" queue="0" entryTime="17.00" eventTime="21.06" blockTime="-1.00"/>
        <vehicle id="m.2" pos="203.76" edge="beg" segment="2" queue="0" entryTime="15.53" eventTime="19.19" blockTime="-1.00"/>
        <vehicle id="m.3" pos="101.88" edge="beg" segment="1" queue="0" entryTime="13.66" eventTime="17.33" blockTime="-1.00"/>
        <vehicle id="m.4" pos="101.88" edge="beg" segment="1" queue="1" entryTime="14.66" eventTime="18.33" blockTime="-1.00"/>
        <vehicle id="m.5" pos="101.88" edge="beg" segment="1" queue="1" entryTime="16.06" eventTime="19.73" blockTime="-1.00"/>
        <vehicle id="m.6" pos="0.00" edge="beg" segment="0" queue="1" entryTime="13.00" eventTime="17.46" blockTime="-1.00"/>
        <vehicle id="m.7" pos="0.00" edge="beg" segment="0" queue="0" entryTime="14.00" eventTime="17.86" blockTime="-1.00"/>
        <vehicle id="m.8" pos="0.00" edge="beg" segment="0" queue="1" entryTime="15.00" eventTime="18.86" blockTime="-1.00"/>
        <vehicle id="m.9" pos="0.00" edge="beg" segment="0" queue="0" entryTime="16.00" eventTime="19.66" blockTime="-1.00"/>
    </timestep>
    <timestep time="18.00">
        <vehicle id="l.0" pos="407.52" edge="beg" segment="4" queue="1" entryTime="14.66" eventTime="18.32" blockTime="-1.00"/>
        <vehicle id="l.1" pos="407.52" edge="beg" segment="4" queue="1" entryTime="16.06" eventTime="19.72" blockTime="-1.00"/>
        <vehicle id="l.10" pos="101.88" edge="beg" segment="1" queue="0" entryTime="16.46" eventTime="20.13" blockTime="-1.00"/>
        <vehicle id="l.2" pos="407.52" edge="beg" segment="4" queue="1" entryTime="17.46" eventTime="21.12" blockTime="-1.00"/>
        <vehicle id="l.3" pos="305.64" edge="beg" segment="3" queue="1" entryTime="13.99" eventTime="18.85" blockTime="17.66"/>
        <vehicle id="l.4" pos="305.64" edge="beg" segment="3" queue="0" entryTime="14.99" eventTime="18.86" blockTime="-1.00"/>
        <vehicle id="l.5" pos="305.64" edge="beg" segment="3" queue="1" entryTime="15.99" eventTime="19.66" blockTime="-1.00"/>