<?xml version="1.0" encoding="UTF-8"?>

<!-- generated on Mon Jun  4 14:59:58 2018 by Eclipse SUMO Version 4ce83f2
<configuration xmlns:xsi="http://www.w3.org/2001/XMLSchema-instance" xsi:noNamespaceSchemaLocation="http://sumo.dlr.de/xsd/sumoConfiguration.xsd">

    <input>
        <net-file value="input_net2.net.xml"/>
        <route-files value="input_routes.rou.xml"/>
    </input>

    <output>
        <fcd-output value="fcd.xml"/>
    </output>

    <report>
        <no-step-log value="true"/>
    </report>

    <traci_server>
        <remote-port value="35321"/>
    </traci_server>

</configuration>
-->

<fcd-export xmlns:xsi="http://www.w3.org/2001/XMLSchema-instance" xsi:noNamespaceSchemaLocation="http://sumo.dlr.de/xsd/fcd_file.xsd">
    <timestep time="0.00">
        <person id="p0" x="106.23" y="81.95" angle="0.00" speed="0.00" pos="81.95" edge="SC" slope="0.00"/>
    </timestep>
    <timestep time="1.00">
        <person id="p0" x="106.23" y="71.95" angle="0.00" speed="1.14" pos="71.95" edge="SC" slope="0.00"/>
    </timestep>
    <timestep time="2.00">
        <person id="p0" x="106.23" y="23.90" angle="0.00" speed="1.19" pos="23.90" edge="SC" slope="0.00"/>
    </timestep>
    <timestep time="3.00">
        <person id="p0" x="106.23" y="25.28" angle="0.00" speed="1.38" pos="25.28" edge="SC" slope="0.00"/>
    </timestep>
</fcd-export>
