<?xml version="1.0"?>

<!-- generated on 02/15/12 11:59:35 by SUMO sumo Version dev-SVN-r11548
<?xml version="1.0" encoding="UTF-8"?>

<configuration xmlns:xsi="http://www.w3.org/2001/XMLSchema-instance" xsi:noNamespaceSchemaLocation="http://sumo.sf.net/xsd/sumoConfiguration.xsd">

    <input>
        <net-file value="net.net.xml"/>
        <route-files value="input_routes.rou.xml"/>
        <additional-files value="input_additional.add.xml"/>
    </input>

    <output>
        <vehroute-output value="vehroutes.xml"/>
    </output>

    <report>
        <no-duration-log value="true"/>
        <no-step-log value="true"/>
    </report>

    <mesoscopic>
        <mesosim value="true"/>
        <meso-junction-control value="true"/>
    </mesoscopic>

</configuration>
-->

<routes>
    <vehicle id="vertical.0" type="SUMO_DEFAULT_TYPE" depart="100.00" arrival="269.00">
        <route edges="3fi 3si 4o 4fi 4si 3o 3fi"/>
    </vehicle>

    <vehicle id="vertical.1" type="SUMO_DEFAULT_TYPE" depart="110.00" arrival="279.00">
        <route edges="3fi 3si 4o 4fi 4si 3o 3fi"/>
    </vehicle>

    <vehicle id="vertical.2" type="SUMO_DEFAULT_TYPE" depart="120.00" arrival="289.00">
        <route edges="3fi 3si 4o 4fi 4si 3o 3fi"/>
    </vehicle>

    <vehicle id="vertical.3" type="SUMO_DEFAULT_TYPE" depart="130.00" arrival="299.00">
        <route edges="3fi 3si 4o 4fi 4si 3o 3fi"/>
    </vehicle>

    <vehicle id="vertical.4" type="SUMO_DEFAULT_TYPE" depart="140.00" arrival="309.00">
        <route edges="3fi 3si 4o 4fi 4si 3o 3fi"/>
    </vehicle>

    <vehicle id="vertical.5" type="SUMO_DEFAULT_TYPE" depart="150.00" arrival="319.00">
        <route edges="3fi 3si 4o 4fi 4si 3o 3fi"/>
    </vehicle>

    <vehicle id="vertical.6" type="SUMO_DEFAULT_TYPE" depart="160.00" arrival="329.00">
        <route edges="3fi 3si 4o 4fi 4si 3o 3fi"/>
    </vehicle>

    <vehicle id="vertical.7" type="SUMO_DEFAULT_TYPE" depart="170.00" arrival="339.00">
        <route edges="3fi 3si 4o 4fi 4si 3o 3fi"/>
    </vehicle>

    <vehicle id="vertical.8" type="SUMO_DEFAULT_TYPE" depart="180.00" arrival="349.00">
        <route edges="3fi 3si 4o 4fi 4si 3o 3fi"/>
    </vehicle>

    <vehicle id="horizontal.0" type="SUMO_DEFAULT_TYPE" depart="100.00" arrival="349.00">
        <route edges="2fi 2si 1o 1fi 1si 2o 2fi"/>
    </vehicle>

    <vehicle id="vertical.9" type="SUMO_DEFAULT_TYPE" depart="190.00" arrival="359.00">
        <route edges="3fi 3si 4o 4fi 4si 3o 3fi"/>
    </vehicle>

    <vehicle id="horizontal.1" type="SUMO_DEFAULT_TYPE" depart="110.00" arrival="359.00">
        <route edges="2fi 2si 1o 1fi 1si 2o 2fi"/>
    </vehicle>

    <vehicle id="vertical.10" type="SUMO_DEFAULT_TYPE" depart="200.00" arrival="369.00">
        <route edges="3fi 3si 4o 4fi 4si 3o 3fi"/>
    </vehicle>

    <vehicle id="vertical.11" type="SUMO_DEFAULT_TYPE" depart="210.00" arrival="379.00">
        <route edges="3fi 3si 4o 4fi 4si 3o 3fi"/>
    </vehicle>

    <vehicle id="vertical.12" type="SUMO_DEFAULT_TYPE" depart="220.00" arrival="389.00">
        <route edges="3fi 3si 4o 4fi 4si 3o 3fi"/>
    </vehicle>

    <vehicle id="vertical.13" type="SUMO_DEFAULT_TYPE" depart="230.00" arrival="399.00">
        <route edges="3fi 3si 4o 4fi 4si 3o 3fi"/>
    </vehicle>

    <vehicle id="vertical.14" type="SUMO_DEFAULT_TYPE" depart="240.00" arrival="409.00">
        <route edges="3fi 3si 4o 4fi 4si 3o 3fi"/>
    </vehicle>

    <vehicle id="vertical.15" type="SUMO_DEFAULT_TYPE" depart="250.00" arrival="419.00">
        <route edges="3fi 3si 4o 4fi 4si 3o 3fi"/>
    </vehicle>

    <vehicle id="vertical.16" type="SUMO_DEFAULT_TYPE" depart="260.00" arrival="429.00">
        <route edges="3fi 3si 4o 4fi 4si 3o 3fi"/>
    </vehicle>

    <vehicle id="vertical.17" type="SUMO_DEFAULT_TYPE" depart="270.00" arrival="439.00">
        <route edges="3fi 3si 4o 4fi 4si 3o 3fi"/>
    </vehicle>

    <vehicle id="vertical.18" type="SUMO_DEFAULT_TYPE" depart="280.00" arrival="449.00">
        <route edges="3fi 3si 4o 4fi 4si 3o 3fi"/>
    </vehicle>

    <vehicle id="always_right.0" type="SUMO_DEFAULT_TYPE" depart="100.00" arrival="450.00">
        <route edges="1fi 1si 4o 4fi 4si 2o 2fi 2si 3o 3fi 3si 1o 1fi"/>
    </vehicle>

    <vehicle id="always_right.1" type="SUMO_DEFAULT_TYPE" depart="110.00" arrival="454.00">
        <route edges="1fi 1si 4o 4fi 4si 2o 2fi 2si 3o 3fi 3si 1o 1fi"/>
    </vehicle>

    <vehicle id="vertical.19" type="SUMO_DEFAULT_TYPE" depart="290.00" arrival="459.00">
        <route edges="3fi 3si 4o 4fi 4si 3o 3fi"/>
    </vehicle>

    <vehicle id="horizontal.2" type="SUMO_DEFAULT_TYPE" depart="120.00" arrival="466.00">
        <route edges="2fi 2si 1o 1fi 1si 2o 2fi"/>
    </vehicle>

    <vehicle id="vertical.20" type="SUMO_DEFAULT_TYPE" depart="300.00" arrival="469.00">
        <route edges="3fi 3si 4o 4fi 4si 3o 3fi"/>
    </vehicle>

    <vehicle id="horizontal.3" type="SUMO_DEFAULT_TYPE" depart="130.00" arrival="473.00">
        <route edges="2fi 2si 1o 1fi 1si 2o 2fi"/>
    </vehicle>

    <vehicle id="vertical.21" type="SUMO_DEFAULT_TYPE" depart="310.00" arrival="479.00">
        <route edges="3fi 3si 4o 4fi 4si 3o 3fi"/>
    </vehicle>

    <vehicle id="horizontal.4" type="SUMO_DEFAULT_TYPE" depart="140.00" arrival="480.00">
        <route edges="2fi 2si 1o 1fi 1si 2o 2fi"/>
    </vehicle>

    <vehicle id="horizontal.5" type="SUMO_DEFAULT_TYPE" depart="150.00" arrival="488.00">
        <route edges="2fi 2si 1o 1fi 1si 2o 2fi"/>
    </vehicle>

    <vehicle id="vertical.22" type="SUMO_DEFAULT_TYPE" depart="320.00" arrival="490.00">
        <route edges="3fi 3si 4o 4fi 4si 3o 3fi"/>
    </vehicle>

    <vehicle id="horizontal.6" type="SUMO_DEFAULT_TYPE" depart="160.00" arrival="496.00">
        <route edges="2fi 2si 1o 1fi 1si 2o 2fi"/>
    </vehicle>

    <vehicle id="vertical.23" type="SUMO_DEFAULT_TYPE" depart="330.00" arrival="499.00">
        <route edges="3fi 3si 4o 4fi 4si 3o 3fi"/>
    </vehicle>

    <vehicle id="horizontal.7" type="SUMO_DEFAULT_TYPE" depart="170.00" arrival="502.00">
        <route edges="2fi 2si 1o 1fi 1si 2o 2fi"/>
    </vehicle>

    <vehicle id="vertical.24" type="SUMO_DEFAULT_TYPE" depart="340.00" arrival="509.00">
        <route edges="3fi 3si 4o 4fi 4si 3o 3fi"/>
    </vehicle>

    <vehicle id="vertical.25" type="SUMO_DEFAULT_TYPE" depart="350.00" arrival="519.00">
        <route edges="3fi 3si 4o 4fi 4si 3o 3fi"/>
    </vehicle>

    <vehicle id="horizontal.8" type="SUMO_DEFAULT_TYPE" depart="180.00" arrival="536.00">
        <route edges="2fi 2si 1o 1fi 1si 2o 2fi"/>
    </vehicle>

    <vehicle id="vertical.26" type="SUMO_DEFAULT_TYPE" depart="360.00" arrival="536.00">
        <route edges="3fi 3si 4o 4fi 4si 3o 3fi"/>
    </vehicle>

    <vehicle id="vertical.27" type="SUMO_DEFAULT_TYPE" depart="370.00" arrival="540.00">
        <route edges="3fi 3si 4o 4fi 4si 3o 3fi"/>
    </vehicle>

    <vehicle id="horizontal.9" type="SUMO_DEFAULT_TYPE" depart="190.00" arrival="543.00">
        <route edges="2fi 2si 1o 1fi 1si 2o 2fi"/>
    </vehicle>

    <vehicle id="vertical.28" type="SUMO_DEFAULT_TYPE" depart="380.00" arrival="549.00">
        <route edges="3fi 3si 4o 4fi 4si 3o 3fi"/>
    </vehicle>

    <vehicle id="always_right.2" type="SUMO_DEFAULT_TYPE" depart="120.00" arrival="555.00">
        <route edges="1fi 1si 4o 4fi 4si 2o 2fi 2si 3o 3fi 3si 1o 1fi"/>
    </vehicle>

    <vehicle id="vertical.29" type="SUMO_DEFAULT_TYPE" depart="390.00" arrival="559.00">
        <route edges="3fi 3si 4o 4fi 4si 3o 3fi"/>
    </vehicle>

    <vehicle id="always_right.3" type="SUMO_DEFAULT_TYPE" depart="130.00" arrival="562.00">
        <route edges="1fi 1si 4o 4fi 4si 2o 2fi 2si 3o 3fi 3si 1o 1fi"/>
    </vehicle>

    <vehicle id="always_right.4" type="SUMO_DEFAULT_TYPE" depart="140.00" arrival="564.00">
        <route edges="1fi 1si 4o 4fi 4si 2o 2fi 2si 3o 3fi 3si 1o 1fi"/>
    </vehicle>

    <vehicle id="vertical.30" type="SUMO_DEFAULT_TYPE" depart="400.00" arrival="569.00">
        <route edges="3fi 3si 4o 4fi 4si 3o 3fi"/>
    </vehicle>

    <vehicle id="always_right.5" type="SUMO_DEFAULT_TYPE" depart="150.00" arrival="577.00">
        <route edges="1fi 1si 4o 4fi 4si 2o 2fi 2si 3o 3fi 3si 1o 1fi"/>
    </vehicle>

    <vehicle id="vertical.31" type="SUMO_DEFAULT_TYPE" depart="410.00" arrival="581.00">
        <route edges="3fi 3si 4o 4fi 4si 3o 3fi"/>
    </vehicle>

    <vehicle id="always_right.6" type="SUMO_DEFAULT_TYPE" depart="160.00" arrival="583.00">
        <route edges="1fi 1si 4o 4fi 4si 2o 2fi 2si 3o 3fi 3si 1o 1fi"/>
    </vehicle>

    <vehicle id="vertical.32" type="SUMO_DEFAULT_TYPE" depart="420.00" arrival="589.00">
        <route edges="3fi 3si 4o 4fi 4si 3o 3fi"/>
    </vehicle>

    <vehicle id="vertical.33" type="SUMO_DEFAULT_TYPE" depart="430.00" arrival="599.00">
        <route edges="3fi 3si 4o 4fi 4si 3o 3fi"/>
    </vehicle>

    <vehicle id="vertical.34" type="SUMO_DEFAULT_TYPE" depart="440.00" arrival="609.00">
        <route edges="3fi 3si 4o 4fi 4si 3o 3fi"/>
    </vehicle>

    <vehicle id="always_right.7" type="SUMO_DEFAULT_TYPE" depart="170.00" arrival="616.00">
        <route edges="1fi 1si 4o 4fi 4si 2o 2fi 2si 3o 3fi 3si 1o 1fi"/>
    </vehicle>

    <vehicle id="vertical.35" type="SUMO_DEFAULT_TYPE" depart="450.00" arrival="625.00">
        <route edges="3fi 3si 4o 4fi 4si 3o 3fi"/>
    </vehicle>

    <vehicle id="always_right.8" type="SUMO_DEFAULT_TYPE" depart="180.00" arrival="628.00">
        <route edges="1fi 1si 4o 4fi 4si 2o 2fi 2si 3o 3fi 3si 1o 1fi"/>
    </vehicle>

    <vehicle id="vertical.36" type="SUMO_DEFAULT_TYPE" depart="460.00" arrival="633.00">
        <route edges="3fi 3si 4o 4fi 4si 3o 3fi"/>
    </vehicle>

    <vehicle id="always_right.9" type="SUMO_DEFAULT_TYPE" depart="190.00" arrival="633.00">
        <route edges="1fi 1si 4o 4fi 4si 2o 2fi 2si 3o 3fi 3si 1o 1fi"/>
    </vehicle>

    <vehicle id="vertical.37" type="SUMO_DEFAULT_TYPE" depart="470.00" arrival="640.00">
        <route edges="3fi 3si 4o 4fi 4si 3o 3fi"/>
    </vehicle>

    <vehicle id="vertical.38" type="SUMO_DEFAULT_TYPE" depart="480.00" arrival="650.00">
        <route edges="3fi 3si 4o 4fi 4si 3o 3fi"/>
    </vehicle>

    <vehicle id="vertical.39" type="SUMO_DEFAULT_TYPE" depart="490.00" arrival="662.00">
        <route edges="3fi 3si 4o 4fi 4si 3o 3fi"/>
    </vehicle>

    <vehicle id="vertical.40" type="SUMO_DEFAULT_TYPE" depart="500.00" arrival="669.00">
        <route edges="3fi 3si 4o 4fi 4si 3o 3fi"/>
    </vehicle>

    <vehicle id="horizontal.10" type="SUMO_DEFAULT_TYPE" depart="200.00" arrival="701.00">
        <route edges="2fi 2si 1o 1fi 1si 2o 2fi"/>
    </vehicle>

    <vehicle id="vertical.41" type="SUMO_DEFAULT_TYPE" depart="510.00" arrival="701.00">
        <route edges="3fi 3si 4o 4fi 4si 3o 3fi"/>
    </vehicle>

    <vehicle id="vertical.42" type="SUMO_DEFAULT_TYPE" depart="520.00" arrival="704.00">
        <route edges="3fi 3si 4o 4fi 4si 3o 3fi"/>
    </vehicle>

    <vehicle id="vertical.43" type="SUMO_DEFAULT_TYPE" depart="530.00" arrival="707.00">
        <route edges="3fi 3si 4o 4fi 4si 3o 3fi"/>
    </vehicle>

    <vehicle id="vertical.44" type="SUMO_DEFAULT_TYPE" depart="540.00" arrival="714.00">
        <route edges="3fi 3si 4o 4fi 4si 3o 3fi"/>
    </vehicle>

    <vehicle id="vertical.45" type="SUMO_DEFAULT_TYPE" depart="550.00" arrival="719.00">
        <route edges="3fi 3si 4o 4fi 4si 3o 3fi"/>
    </vehicle>

    <vehicle id="horizontal.11" type="SUMO_DEFAULT_TYPE" depart="210.00" arrival="720.00">
        <route edges="2fi 2si 1o 1fi 1si 2o 2fi"/>
    </vehicle>

    <vehicle id="horizontal.12" type="SUMO_DEFAULT_TYPE" depart="220.00" arrival="726.00">
        <route edges="2fi 2si 1o 1fi 1si 2o 2fi"/>
    </vehicle>

    <vehicle id="vertical.46" type="SUMO_DEFAULT_TYPE" depart="560.00" arrival="729.00">
        <route edges="3fi 3si 4o 4fi 4si 3o 3fi"/>
    </vehicle>

    <vehicle id="vertical.47" type="SUMO_DEFAULT_TYPE" depart="570.00" arrival="739.00">
        <route edges="3fi 3si 4o 4fi 4si 3o 3fi"/>
    </vehicle>

    <vehicle id="vertical.48" type="SUMO_DEFAULT_TYPE" depart="580.00" arrival="749.00">
        <route edges="3fi 3si 4o 4fi 4si 3o 3fi"/>
    </vehicle>

    <vehicle id="vertical.49" type="SUMO_DEFAULT_TYPE" depart="590.00" arrival="759.00">
        <route edges="3fi 3si 4o 4fi 4si 3o 3fi"/>
    </vehicle>

    <vehicle id="vertical.50" type="SUMO_DEFAULT_TYPE" depart="600.00" arrival="769.00">
        <route edges="3fi 3si 4o 4fi 4si 3o 3fi"/>
    </vehicle>

    <vehicle id="vertical.51" type="SUMO_DEFAULT_TYPE" depart="610.00" arrival="779.00">
        <route edges="3fi 3si 4o 4fi 4si 3o 3fi"/>
    </vehicle>

    <vehicle id="always_right.10" type="SUMO_DEFAULT_TYPE" depart="200.00" arrival="782.00">
        <route edges="1fi 1si 4o 4fi 4si 2o 2fi 2si 3o 3fi 3si 1o 1fi"/>
    </vehicle>

    <vehicle id="vertical.52" type="SUMO_DEFAULT_TYPE" depart="620.00" arrival="789.00">
        <route edges="3fi 3si 4o 4fi 4si 3o 3fi"/>
    </vehicle>

    <vehicle id="horizontal.13" type="SUMO_DEFAULT_TYPE" depart="230.00" arrival="792.00">
        <route edges="2fi 2si 1o 1fi 1si 2o 2fi"/>
    </vehicle>

    <vehicle id="vertical.53" type="SUMO_DEFAULT_TYPE" depart="630.00" arrival="799.00">
        <route edges="3fi 3si 4o 4fi 4si 3o 3fi"/>
    </vehicle>

    <vehicle id="always_right.11" type="SUMO_DEFAULT_TYPE" depart="210.00" arrival="804.00">
        <route edges="1fi 1si 4o 4fi 4si 2o 2fi 2si 3o 3fi 3si 1o 1fi"/>
    </vehicle>

    <vehicle id="vertical.54" type="SUMO_DEFAULT_TYPE" depart="640.00" arrival="809.00">
        <route edges="3fi 3si 4o 4fi 4si 3o 3fi"/>
    </vehicle>

    <vehicle id="always_right.12" type="SUMO_DEFAULT_TYPE" depart="220.00" arrival="813.00">
        <route edges="1fi 1si 4o 4fi 4si 2o 2fi 2si 3o 3fi 3si 1o 1fi"/>
    </vehicle>

    <vehicle id="vertical.55" type="SUMO_DEFAULT_TYPE" depart="650.00" arrival="819.00">
        <route edges="3fi 3si 4o 4fi 4si 3o 3fi"/>
    </vehicle>

    <vehicle id="horizontal.14" type="SUMO_DEFAULT_TYPE" depart="240.00" arrival="826.00">
        <route edges="2fi 2si 1o 1fi 1si 2o 2fi"/>
    </vehicle>

    <vehicle id="vertical.56" type="SUMO_DEFAULT_TYPE" depart="660.00" arrival="829.00">
        <route edges="3fi 3si 4o 4fi 4si 3o 3fi"/>
    </vehicle>

    <vehicle id="vertical.57" type="SUMO_DEFAULT_TYPE" depart="670.00" arrival="839.00">
        <route edges="3fi 3si 4o 4fi 4si 3o 3fi"/>
    </vehicle>

    <vehicle id="horizontal.15" type="SUMO_DEFAULT_TYPE" depart="250.00" arrival="846.00">
        <route edges="2fi 2si 1o 1fi 1si 2o 2fi"/>
    </vehicle>

    <vehicle id="vertical.58" type="SUMO_DEFAULT_TYPE" depart="680.00" arrival="849.00">
        <route edges="3fi 3si 4o 4fi 4si 3o 3fi"/>
    </vehicle>

    <vehicle id="horizontal.16" type="SUMO_DEFAULT_TYPE" depart="260.00" arrival="853.00">
        <route edges="2fi 2si 1o 1fi 1si 2o 2fi"/>
    </vehicle>

    <vehicle id="vertical.59" type="SUMO_DEFAULT_TYPE" depart="690.00" arrival="859.00">
        <route edges="3fi 3si 4o 4fi 4si 3o 3fi"/>
    </vehicle>

    <vehicle id="vertical.60" type="SUMO_DEFAULT_TYPE" depart="700.00" arrival="869.00">
        <route edges="3fi 3si 4o 4fi 4si 3o 3fi"/>
    </vehicle>

    <vehicle id="vertical.61" type="SUMO_DEFAULT_TYPE" depart="710.00" arrival="879.00">
        <route edges="3fi 3si 4o 4fi 4si 3o 3fi"/>
    </vehicle>

    <vehicle id="always_right.13" type="SUMO_DEFAULT_TYPE" depart="230.00" arrival="882.00">
        <route edges="1fi 1si 4o 4fi 4si 2o 2fi 2si 3o 3fi 3si 1o 1fi"/>
    </vehicle>

    <vehicle id="vertical.62" type="SUMO_DEFAULT_TYPE" depart="720.00" arrival="890.00">
        <route edges="3fi 3si 4o 4fi 4si 3o 3fi"/>
    </vehicle>

    <vehicle id="vertical.63" type="SUMO_DEFAULT_TYPE" depart="730.00" arrival="899.00">
        <route edges="3fi 3si 4o 4fi 4si 3o 3fi"/>
    </vehicle>

    <vehicle id="always_right.14" type="SUMO_DEFAULT_TYPE" depart="240.00" arrival="908.00">
        <route edges="1fi 1si 4o 4fi 4si 2o 2fi 2si 3o 3fi 3si 1o 1fi"/>
    </vehicle>

    <vehicle id="vertical.64" type="SUMO_DEFAULT_TYPE" depart="740.00" arrival="911.00">
        <route edges="3fi 3si 4o 4fi 4si 3o 3fi"/>
    </vehicle>

    <vehicle id="always_right.15" type="SUMO_DEFAULT_TYPE" depart="250.00" arrival="912.00">
        <route edges="1fi 1si 4o 4fi 4si 2o 2fi 2si 3o 3fi 3si 1o 1fi"/>
    </vehicle>

    <vehicle id="vertical.65" type="SUMO_DEFAULT_TYPE" depart="750.00" arrival="919.00">
        <route edges="3fi 3si 4o 4fi 4si 3o 3fi"/>
    </vehicle>

    <vehicle id="vertical.66" type="SUMO_DEFAULT_TYPE" depart="760.00" arrival="929.00">
        <route edges="3fi 3si 4o 4fi 4si 3o 3fi"/>
    </vehicle>

    <vehicle id="always_right.16" type="SUMO_DEFAULT_TYPE" depart="260.00" arrival="933.00">
        <route edges="1fi 1si 4o 4fi 4si 2o 2fi 2si 3o 3fi 3si 1o 1fi"/>
    </vehicle>

    <vehicle id="vertical.67" type="SUMO_DEFAULT_TYPE" depart="770.00" arrival="939.00">
        <route edges="3fi 3si 4o 4fi 4si 3o 3fi"/>
    </vehicle>

    <vehicle id="vertical.68" type="SUMO_DEFAULT_TYPE" depart="780.00" arrival="949.00">
        <route edges="3fi 3si 4o 4fi 4si 3o 3fi"/>
    </vehicle>

    <vehicle id="vertical.69" type="SUMO_DEFAULT_TYPE" depart="790.00" arrival="959.00">
        <route edges="3fi 3si 4o 4fi 4si 3o 3fi"/>
    </vehicle>

    <vehicle id="vertical.70" type="SUMO_DEFAULT_TYPE" depart="800.00" arrival="969.00">
        <route edges="3fi 3si 4o 4fi 4si 3o 3fi"/>
    </vehicle>

    <vehicle id="vertical.71" type="SUMO_DEFAULT_TYPE" depart="810.00" arrival="979.00">
        <route edges="3fi 3si 4o 4fi 4si 3o 3fi"/>
    </vehicle>

    <vehicle id="always_right.17" type="SUMO_DEFAULT_TYPE" depart="270.00" arrival="980.00">
        <route edges="1fi 1si 4o 4fi 4si 2o 2fi 2si 3o 3fi 3si 1o 1fi"/>
    </vehicle>

    <vehicle id="vertical.72" type="SUMO_DEFAULT_TYPE" depart="820.00" arrival="993.00">
        <route edges="3fi 3si 4o 4fi 4si 3o 3fi"/>
    </vehicle>

    <vehicle id="vertical.73" type="SUMO_DEFAULT_TYPE" depart="830.00" arrival="999.00">
        <route edges="3fi 3si 4o 4fi 4si 3o 3fi"/>
    </vehicle>

    <vehicle id="vertical.74" type="SUMO_DEFAULT_TYPE" depart="840.00" arrival="1009.00">
        <route edges="3fi 3si 4o 4fi 4si 3o 3fi"/>
    </vehicle>

    <vehicle id="vertical.75" type="SUMO_DEFAULT_TYPE" depart="850.00" arrival="1019.00">
        <route edges="3fi 3si 4o 4fi 4si 3o 3fi"/>
    </vehicle>

    <vehicle id="always_left.0" type="SUMO_DEFAULT_TYPE" depart="100.00" arrival="1023.00">
        <route edges="3fi 3si 2o 2fi 2si 4o 4fi 4si 1o 1fi 1si 3o 3fi"/>
    </vehicle>

    <vehicle id="always_left.1" type="SUMO_DEFAULT_TYPE" depart="110.00" arrival="1031.00">
        <route edges="3fi 3si 2o 2fi 2si 4o 4fi 4si 1o 1fi 1si 3o 3fi"/>
    </vehicle>

    <vehicle id="horizontal.17" type="SUMO_DEFAULT_TYPE" depart="270.00" arrival="1033.00">
        <route edges="2fi 2si 1o 1fi 1si 2o 2fi"/>
    </vehicle>

    <vehicle id="always_left.2" type="SUMO_DEFAULT_TYPE" depart="120.00" arrival="1045.00">
        <route edges="3fi 3si 2o 2fi 2si 4o 4fi 4si 1o 1fi 1si 3o 3fi"/>
    </vehicle>

    <vehicle id="vertical.76" type="SUMO_DEFAULT_TYPE" depart="860.00" arrival="1066.00">
        <route edges="3fi 3si 4o 4fi 4si 3o 3fi"/>
    </vehicle>

    <vehicle id="vertical.77" type="SUMO_DEFAULT_TYPE" depart="870.00" arrival="1069.00">
        <route edges="3fi 3si 4o 4fi 4si 3o 3fi"/>
    </vehicle>

    <vehicle id="vertical.78" type="SUMO_DEFAULT_TYPE" depart="880.00" arrival="1072.00">
        <route edges="3fi 3si 4o 4fi 4si 3o 3fi"/>
    </vehicle>

    <vehicle id="vertical.79" type="SUMO_DEFAULT_TYPE" depart="890.00" arrival="1074.00">
        <route edges="3fi 3si 4o 4fi 4si 3o 3fi"/>
    </vehicle>

    <vehicle id="vertical.80" type="SUMO_DEFAULT_TYPE" depart="900.00" arrival="1077.00">
        <route edges="3fi 3si 4o 4fi 4si 3o 3fi"/>
    </vehicle>

    <vehicle id="vertical.81" type="SUMO_DEFAULT_TYPE" depart="910.00" arrival="1080.00">
        <route edges="3fi 3si 4o 4fi 4si 3o 3fi"/>
    </vehicle>

    <vehicle id="vertical.82" type="SUMO_DEFAULT_TYPE" depart="920.00" arrival="1089.00">
        <route edges="3fi 3si 4o 4fi 4si 3o 3fi"/>
    </vehicle>

    <vehicle id="vertical.83" type="SUMO_DEFAULT_TYPE" depart="930.00" arrival="1099.00">
        <route edges="3fi 3si 4o 4fi 4si 3o 3fi"/>
    </vehicle>

    <vehicle id="vertical.84" type="SUMO_DEFAULT_TYPE" depart="940.00" arrival="1109.00">
        <route edges="3fi 3si 4o 4fi 4si 3o 3fi"/>
    </vehicle>

    <vehicle id="vertical.85" type="SUMO_DEFAULT_TYPE" depart="950.00" arrival="1119.00">
        <route edges="3fi 3si 4o 4fi 4si 3o 3fi"/>
    </vehicle>

    <vehicle id="vertical.86" type="SUMO_DEFAULT_TYPE" depart="960.00" arrival="1130.00">
        <route edges="3fi 3si 4o 4fi 4si 3o 3fi"/>
    </vehicle>

    <vehicle id="vertical.87" type="SUMO_DEFAULT_TYPE" depart="970.00" arrival="1139.00">
        <route edges="3fi 3si 4o 4fi 4si 3o 3fi"/>
    </vehicle>

    <vehicle id="vertical.88" type="SUMO_DEFAULT_TYPE" depart="980.00" arrival="1149.00">
        <route edges="3fi 3si 4o 4fi 4si 3o 3fi"/>
    </vehicle>

    <vehicle id="vertical.89" type="SUMO_DEFAULT_TYPE" depart="990.00" arrival="1159.00">
        <route edges="3fi 3si 4o 4fi 4si 3o 3fi"/>
    </vehicle>

    <vehicle id="always_left.3" type="SUMO_DEFAULT_TYPE" depart="130.00" arrival="1165.00">
        <route edges="3fi 3si 2o 2fi 2si 4o 4fi 4si 1o 1fi 1si 3o 3fi"/>
    </vehicle>

    <vehicle id="vertical.90" type="SUMO_DEFAULT_TYPE" depart="1000.00" arrival="1169.00">
        <route edges="3fi 3si 4o 4fi 4si 3o 3fi"/>
    </vehicle>

    <vehicle id="vertical.91" type="SUMO_DEFAULT_TYPE" depart="1010.00" arrival="1179.00">
        <route edges="3fi 3si 4o 4fi 4si 3o 3fi"/>
    </vehicle>

    <vehicle id="always_left.4" type="SUMO_DEFAULT_TYPE" depart="140.00" arrival="1185.00">
        <route edges="3fi 3si 2o 2fi 2si 4o 4fi 4si 1o 1fi 1si 3o 3fi"/>
    </vehicle>

    <vehicle id="vertical.92" type="SUMO_DEFAULT_TYPE" depart="1020.00" arrival="1189.00">
        <route edges="3fi 3si 4o 4fi 4si 3o 3fi"/>
    </vehicle>

    <vehicle id="always_left.5" type="SUMO_DEFAULT_TYPE" depart="150.00" arrival="1199.00">
        <route edges="3fi 3si 2o 2fi 2si 4o 4fi 4si 1o 1fi 1si 3o 3fi"/>
    </vehicle>

    <vehicle id="vertical.93" type="SUMO_DEFAULT_TYPE" depart="1030.00" arrival="1200.00">
        <route edges="3fi 3si 4o 4fi 4si 3o 3fi"/>
    </vehicle>

    <vehicle id="always_left.6" type="SUMO_DEFAULT_TYPE" depart="160.00" arrival="1206.00">
        <route edges="3fi 3si 2o 2fi 2si 4o 4fi 4si 1o 1fi 1si 3o 3fi"/>
    </vehicle>

    <vehicle id="vertical.94" type="SUMO_DEFAULT_TYPE" depart="1040.00" arrival="1212.00">
        <route edges="3fi 3si 4o 4fi 4si 3o 3fi"/>
    </vehicle>

    <vehicle id="vertical.95" type="SUMO_DEFAULT_TYPE" depart="1050.00" arrival="1237.00">
        <route edges="3fi 3si 4o 4fi 4si 3o 3fi"/>
    </vehicle>

    <vehicle id="vertical.96" type="SUMO_DEFAULT_TYPE" depart="1060.00" arrival="1240.00">
        <route edges="3fi 3si 4o 4fi 4si 3o 3fi"/>
    </vehicle>

    <vehicle id="vertical.97" type="SUMO_DEFAULT_TYPE" depart="1070.00" arrival="1243.00">
        <route edges="3fi 3si 4o 4fi 4si 3o 3fi"/>
    </vehicle>

    <vehicle id="vertical.98" type="SUMO_DEFAULT_TYPE" depart="1080.00" arrival="1249.00">
        <route edges="3fi 3si 4o 4fi 4si 3o 3fi"/>
    </vehicle>

    <vehicle id="vertical.99" type="SUMO_DEFAULT_TYPE" depart="1090.00" arrival="1259.00">
        <route edges="3fi 3si 4o 4fi 4si 3o 3fi"/>
    </vehicle>

    <vehicle id="vertical.100" type="SUMO_DEFAULT_TYPE" depart="1100.00" arrival="1273.00">
        <route edges="3fi 3si 4o 4fi 4si 3o 3fi"/>
    </vehicle>

    <vehicle id="vertical.101" type="SUMO_DEFAULT_TYPE" depart="1110.00" arrival="1279.00">
        <route edges="3fi 3si 4o 4fi 4si 3o 3fi"/>
    </vehicle>

    <vehicle id="vertical.102" type="SUMO_DEFAULT_TYPE" depart="1120.00" arrival="1291.00">
        <route edges="3fi 3si 4o 4fi 4si 3o 3fi"/>
    </vehicle>

    <vehicle id="always_right.18" type="SUMO_DEFAULT_TYPE" depart="280.00" arrival="1296.00">
        <route edges="1fi 1si 4o 4fi 4si 2o 2fi 2si 3o 3fi 3si 1o 1fi"/>
    </vehicle>

    <vehicle id="vertical.103" type="SUMO_DEFAULT_TYPE" depart="1130.00" arrival="1299.00">
        <route edges="3fi 3si 4o 4fi 4si 3o 3fi"/>
    </vehicle>

    <vehicle id="vertical.104" type="SUMO_DEFAULT_TYPE" depart="1140.00" arrival="1309.00">
        <route edges="3fi 3si 4o 4fi 4si 3o 3fi"/>
    </vehicle>

    <vehicle id="vertical.105" type="SUMO_DEFAULT_TYPE" depart="1150.00" arrival="1319.00">
        <route edges="3fi 3si 4o 4fi 4si 3o 3fi"/>
    </vehicle>

    <vehicle id="vertical.106" type="SUMO_DEFAULT_TYPE" depart="1160.00" arrival="1329.00">
        <route edges="3fi 3si 4o 4fi 4si 3o 3fi"/>
    </vehicle>

    <vehicle id="vertical.107" type="SUMO_DEFAULT_TYPE" depart="1170.00" arrival="1352.00">
        <route edges="3fi 3si 4o 4fi 4si 3o 3fi"/>
    </vehicle>

    <vehicle id="vertical.108" type="SUMO_DEFAULT_TYPE" depart="1180.00" arrival="1354.00">
        <route edges="3fi 3si 4o 4fi 4si 3o 3fi"/>
    </vehicle>

    <vehicle id="vertical.109" type="SUMO_DEFAULT_TYPE" depart="1190.00" arrival="1367.00">
        <route edges="3fi 3si 4o 4fi 4si 3o 3fi"/>
    </vehicle>

    <vehicle id="vertical.110" type="SUMO_DEFAULT_TYPE" depart="1200.00" arrival="1369.00">
        <route edges="3fi 3si 4o 4fi 4si 3o 3fi"/>
    </vehicle>

    <vehicle id="always_left.7" type="SUMO_DEFAULT_TYPE" depart="170.00" arrival="1375.00">
        <route edges="3fi 3si 2o 2fi 2si 4o 4fi 4si 1o 1fi 1si 3o 3fi"/>
    </vehicle>

    <vehicle id="vertical.111" type="SUMO_DEFAULT_TYPE" depart="1210.00" arrival="1379.00">
        <route edges="3fi 3si 4o 4fi 4si 3o 3fi"/>
    </vehicle>

    <vehicle id="always_left.8" type="SUMO_DEFAULT_TYPE" depart="180.00" arrival="1383.00">
        <route edges="3fi 3si 2o 2fi 2si 4o 4fi 4si 1o 1fi 1si 3o 3fi"/>
    </vehicle>

    <vehicle id="vertical.112" type="SUMO_DEFAULT_TYPE" depart="1220.00" arrival="1389.00">
        <route edges="3fi 3si 4o 4fi 4si 3o 3fi"/>
    </vehicle>

    <vehicle id="always_left.9" type="SUMO_DEFAULT_TYPE" depart="190.00" arrival="1391.00">
        <route edges="3fi 3si 2o 2fi 2si 4o 4fi 4si 1o 1fi 1si 3o 3fi"/>
    </vehicle>

    <vehicle id="vertical.113" type="SUMO_DEFAULT_TYPE" depart="1230.00" arrival="1399.00">
        <route edges="3fi 3si 4o 4fi 4si 3o 3fi"/>
    </vehicle>

    <vehicle id="vertical.114" type="SUMO_DEFAULT_TYPE" depart="1240.00" arrival="1409.00">
        <route edges="3fi 3si 4o 4fi 4si 3o 3fi"/>
    </vehicle>

    <vehicle id="vertical.115" type="SUMO_DEFAULT_TYPE" depart="1250.00" arrival="1419.00">
        <route edges="3fi 3si 4o 4fi 4si 3o 3fi"/>
    </vehicle>

    <vehicle id="vertical.116" type="SUMO_DEFAULT_TYPE" depart="1260.00" arrival="1429.00">
        <route edges="3fi 3si 4o 4fi 4si 3o 3fi"/>
    </vehicle>

    <vehicle id="always_right.19" type="SUMO_DEFAULT_TYPE" depart="290.00" arrival="1434.00">
        <route edges="1fi 1si 4o 4fi 4si 2o 2fi 2si 3o 3fi 3si 1o 1fi"/>
    </vehicle>

    <vehicle id="vertical.117" type="SUMO_DEFAULT_TYPE" depart="1270.00" arrival="1439.00">
        <route edges="3fi 3si 4o 4fi 4si 3o 3fi"/>
    </vehicle>

    <vehicle id="vertical.118" type="SUMO_DEFAULT_TYPE" depart="1280.00" arrival="1449.00">
        <route edges="3fi 3si 4o 4fi 4si 3o 3fi"/>
    </vehicle>

    <vehicle id="vertical.119" type="SUMO_DEFAULT_TYPE" depart="1290.00" arrival="1459.00">
        <route edges="3fi 3si 4o 4fi 4si 3o 3fi"/>
    </vehicle>

    <vehicle id="vertical.120" type="SUMO_DEFAULT_TYPE" depart="1300.00" arrival="1469.00">
        <route edges="3fi 3si 4o 4fi 4si 3o 3fi"/>
    </vehicle>

    <vehicle id="vertical.121" type="SUMO_DEFAULT_TYPE" depart="1310.00" arrival="1479.00">
        <route edges="3fi 3si 4o 4fi 4si 3o 3fi"/>
    </vehicle>

    <vehicle id="vertical.122" type="SUMO_DEFAULT_TYPE" depart="1320.00" arrival="1489.00">
        <route edges="3fi 3si 4o 4fi 4si 3o 3fi"/>
    </vehicle>

    <vehicle id="vertical.123" type="SUMO_DEFAULT_TYPE" depart="1330.00" arrival="1499.00">
        <route edges="3fi 3si 4o 4fi 4si 3o 3fi"/>
    </vehicle>

    <vehicle id="vertical.124" type="SUMO_DEFAULT_TYPE" depart="1340.00" arrival="1509.00">
        <route edges="3fi 3si 4o 4fi 4si 3o 3fi"/>
    </vehicle>

    <vehicle id="vertical.125" type="SUMO_DEFAULT_TYPE" depart="1350.00" arrival="1519.00">
        <route edges="3fi 3si 4o 4fi 4si 3o 3fi"/>
    </vehicle>

    <vehicle id="vertical.126" type="SUMO_DEFAULT_TYPE" depart="1360.00" arrival="1529.00">
        <route edges="3fi 3si 4o 4fi 4si 3o 3fi"/>
    </vehicle>

    <vehicle id="horizontal.18" type="SUMO_DEFAULT_TYPE" depart="280.00" arrival="1536.00">
        <route edges="2fi 2si 1o 1fi 1si 2o 2fi"/>
    </vehicle>

    <vehicle id="vertical.127" type="SUMO_DEFAULT_TYPE" depart="1370.00" arrival="1539.00">
        <route edges="3fi 3si 4o 4fi 4si 3o 3fi"/>
    </vehicle>

    <vehicle id="vertical.128" type="SUMO_DEFAULT_TYPE" depart="1380.00" arrival="1550.00">
        <route edges="3fi 3si 4o 4fi 4si 3o 3fi"/>
    </vehicle>

    <vehicle id="vertical.129" type="SUMO_DEFAULT_TYPE" depart="1390.00" arrival="1559.00">
        <route edges="3fi 3si 4o 4fi 4si 3o 3fi"/>
    </vehicle>

    <vehicle id="horizontal.19" type="SUMO_DEFAULT_TYPE" depart="290.00" arrival="1573.00">
        <route edges="2fi 2si 1o 1fi 1si 2o 2fi"/>
    </vehicle>

    <vehicle id="vertical.130" type="SUMO_DEFAULT_TYPE" depart="1400.00" arrival="1577.00">
        <route edges="3fi 3si 4o 4fi 4si 3o 3fi"/>
    </vehicle>
