<?xml version="1.0" encoding="UTF-8"?>

<!-- generated on 05/02/13 15:11:32 by SUMO sumo Version 0.17.0
<?xml version="1.0" encoding="UTF-8"?>

<configuration xmlns:xsi="http://www.w3.org/2001/XMLSchema-instance" xsi:noNamespaceSchemaLocation="http://sumo-sim.org/xsd/sumoConfiguration.xsd">

    <input>
        <net-file value="net.net.xml"/>
        <route-files value="input_routes.rou.xml"/>
        <additional-files value="input_additional.add.xml"/>
    </input>

    <output>
        <vehroute-output value="vehroutes.xml"/>
    </output>

    <time>
        <end value="1000"/>
    </time>

    <report>
        <no-duration-log value="true"/>
        <no-step-log value="true"/>
    </report>

    <mesoscopic>
        <mesosim value="true"/>
    </mesoscopic>

</configuration>
-->

<routes xmlns:xsi="http://www.w3.org/2001/XMLSchema-instance" xsi:noNamespaceSchemaLocation="http://sumo-sim.org/xsd/routes_file.xsd">
    <vehicle id="calibtest.8000.0" depart="8.00" arrival="12.00">
        <route edges="beg middle end"/>
    </vehicle>

    <vehicle id="calibtest.12000.1" depart="12.00" arrival="16.00">
        <route edges="beg middle end"/>
    </vehicle>

    <vehicle id="calibtest.16000.2" depart="16.00" arrival="20.00">
        <route edges="beg middle end"/>
    </vehicle>

    <vehicle id="calibtest.19000.3" depart="19.00" arrival="23.00">
        <route edges="beg middle end"/>
    </vehicle>

    <vehicle id="calibtest.23000.4" depart="23.00" arrival="27.00">
        <route edges="beg middle end"/>
    </vehicle>

    <vehicle id="calibtest.23000.5" depart="23.00" arrival="28.00">
        <route edges="beg middle end"/>
    </vehicle>

    <vehicle id="calibtest.29000.6" depart="29.00" arrival="33.00">
        <route edges="beg middle end"/>
    </vehicle>

    <vehicle id="calibtest.32000.7" depart="32.00" arrival="36.00">
        <route edges="beg middle end"/>
    </vehicle>

    <vehicle id="calibtest.35000.8" depart="35.00" arrival="39.00">
        <route edges="beg middle end"/>
    </vehicle>

    <vehicle id="calibtest.38000.9" depart="38.00" arrival="42.00">
        <route edges="beg middle end"/>
    </vehicle>

    <vehicle id="calibtest.41000.10" depart="41.00" arrival="45.00">
        <route edges="beg middle end"/>
    </vehicle>

    <vehicle id="calibtest.44000.11" depart="44.00" arrival="48.00">
        <route edges="beg middle end"/>
    </vehicle>

    <vehicle id="calibtest.48000.12" depart="48.00" arrival="52.00">
        <route edges="beg middle end"/>
    </vehicle>

    <vehicle id="veh0" depart="1.00" arrival="55.00">
        <route edges="beg middle end"/>
    </vehicle>

    <vehicle id="calibtest.52000.13" depart="52.00" arrival="56.00">
        <route edges="beg middle end"/>
    </vehicle>

    <vehicle id="calibtest.59000.14" depart="59.00" arrival="63.00">
        <route edges="beg middle end"/>
    </vehicle>

    <vehicle id="calibtest.59000.15" depart="59.00" arrival="64.00">
        <route edges="beg middle end"/>
    </vehicle>

    <vehicle id="calibtest.65000.16" depart="65.00" arrival="69.00">
        <route edges="beg middle end"/>
    </vehicle>

    <vehicle id="calibtest.68000.17" depart="68.00" arrival="72.00">
        <route edges="beg middle end"/>
    </vehicle>

    <vehicle id="calibtest.71000.18" depart="71.00" arrival="75.00">
        <route edges="beg middle end"/>
    </vehicle>

    <vehicle id="calibtest.74000.19" depart="74.00" arrival="78.00">
        <route edges="beg middle end"/>
    </vehicle>

    <vehicle id="calibtest.77000.20" depart="77.00" arrival="81.00">
        <route edges="beg middle end"/>
    </vehicle>

    <vehicle id="calibtest.80000.21" depart="80.00" arrival="84.00">
        <route edges="beg middle end"/>
    </vehicle>

    <vehicle id="calibtest.84000.22" depart="84.00" arrival="88.00">
        <route edges="beg middle end"/>
    </vehicle>

    <vehicle id="calibtest.88000.23" depart="88.00" arrival="92.00">
        <route edges="beg middle end"/>
    </vehicle>

    <vehicle id="calibtest.91000.24" depart="91.00" arrival="95.00">
        <route edges="beg middle end"/>
    </vehicle>

    <vehicle id="calibtest.95000.25" depart="95.00" arrival="99.00">
        <route edges="beg middle end"/>
    </vehicle>

    <vehicle id="calibtest.98000.26" depart="98.00" arrival="102.00">
        <route edges="beg middle end"/>
    </vehicle>

</routes>
