<?xml version="1.0" encoding="UTF-8"?>

<!-- generated on 2024-06-26 13:46:43 by Eclipse SUMO sumo Version v1_20_0+0840-6edfc792969
This data file and the accompanying materials
are made available under the terms of the Eclipse Public License v2.0
which accompanies this distribution, and is available at
http://www.eclipse.org/legal/epl-v20.html
This file may also be made available under the following Secondary
Licenses when the conditions for such availability set forth in the Eclipse
Public License 2.0 are satisfied: GNU General Public License, version 2
or later which is available at
https://www.gnu.org/licenses/old-licenses/gpl-2.0-standalone.html
SPDX-License-Identifier: EPL-2.0 OR GPL-2.0-or-later
<sumoConfiguration xmlns:xsi="http://www.w3.org/2001/XMLSchema-instance" xsi:noNamespaceSchemaLocation="http://sumo.dlr.de/xsd/sumoConfiguration.xsd">

    <input>
        <net-file value="net.net.xml"/>
        <route-files value="input_routes.rou.xml"/>
        <additional-files value="input_additional.add.xml,input_additional2.add.xml,input_additional3.add.xml"/>
    </input>

    <output>
        <write-license value="true"/>
        <vehroute-output value="vehroutes.xml"/>
        <vehroute-output.exit-times value="true"/>
        <vehroute-output.cost value="true"/>
        <vehroute-output.route-length value="true"/>
        <vehroute-output.write-unfinished value="true"/>
        <stop-output value="stopinfos.xml"/>
        <stop-output.write-unfinished value="true"/>
    </output>

    <time>
        <end value="500"/>
    </time>

    <processing>
        <default.speeddev value="0"/>
    </processing>

    <report>
        <xml-validation value="never"/>
        <duration-log.disable value="true"/>
        <no-step-log value="true"/>
    </report>

    <gui_only>
        <gui-settings-file value="settings.xml"/>
    </gui_only>

</sumoConfiguration>
-->

<routes xmlns:xsi="http://www.w3.org/2001/XMLSchema-instance" xsi:noNamespaceSchemaLocation="http://sumo.dlr.de/xsd/routes_file.xsd">
    <vehicle id="ego.0" type="car" depart="0.00" departSpeed="13.89" speedFactor="1.0000" routeLength="49.90">
        <route cost="0.00" savings="0.00" edges="A0A1" exitTimes="-1"/>
        <stop parkingArea="parkA0A1" duration="3600.00" started="6.00" ended="-1"/>
    </vehicle>

    <vehicle id="ego.1" type="car" depart="2.00" departSpeed="13.89" speedFactor="1.0000" routeLength="151.40">
        <routeDistribution>
            <route cost="0.00" savings="0.00" replacedOnEdge="A0A1" reason="parkA0A1:parkingAreaReroute" replacedAtTime="7.00" probability="0" edges="A0A1" routeLength="87.00"/>
            <route cost="51.67" savings="-45.00" edges="A0A1 A1A2 A2B2 B2B1 B1B0 B0A0 A0A1" exitTimes="13.00 -1 -1 -1 -1 -1 -1"/>
        </routeDistribution>
        <stop parkingArea="parkA1A2" duration="3600.00" started="19.00" ended="-1"/>
    </vehicle>

    <vehicle id="ego.2" type="car" depart="4.00" departSpeed="13.89" speedFactor="1.0000" routeLength="251.40">
        <routeDistribution>
            <route cost="0.00" savings="0.00" replacedOnEdge="A0A1" reason="parkA0A1:parkingAreaReroute" replacedAtTime="7.00" probability="0" edges="A0A1" routeLength="87.00"/>
            <route cost="51.67" savings="-45.00" replacedOnEdge="A1A2" replacedOnIndex="1" reason="parkA1A2:parkingAreaReroute" replacedAtTime="20.00" probability="0" edges="A0A1 A1A2 A2B2 B2B1 B1B0 B0A0 A0A1" routeLength="669.98"/>
            <route cost="57.47" savings="-12.94" edges="A0A1 A1A2 A2A3 A3B3 B3B2 B2B1 B1B0 B0A0 A0A1" exitTimes="14.00 26.00 -1 -1 -1 -1 -1 -1 -1"/>
        </routeDistribution>
        <stop parkingArea="parkA2A3" duration="3600.00" started="32.00" ended="-1"/>
    </vehicle>

    <vehicle id="ego.3" type="car" depart="6.00" departSpeed="13.599" speedFactor="1.0000" routeLength="538.46">
        <routeDistribution>
            <route cost="0.00" savings="0.00" replacedOnEdge="A0A1" reason="parkA0A1:parkingAreaReroute" replacedAtTime="7.00" probability="0" edges="A0A1" routeLength="87.00"/>
            <route cost="51.67" savings="-45.00" replacedOnEdge="A1A2" replacedOnIndex="1" reason="parkA1A2:parkingAreaReroute" replacedAtTime="20.00" probability="0" edges="A0A1 A1A2 A2B2 B2B1 B1B0 B0A0 A0A1" routeLength="669.98"/>
            <route cost="57.47" savings="-12.94" replacedOnEdge="A2A3" replacedOnIndex="2" reason="parkA2A3:parkingAreaReroute" replacedAtTime="33.00" probability="0" edges="A0A1 A1A2 A2A3 A3B3 B3B2 B2B1 B1B0 B0A0 A0A1" routeLength="870.56"/>
            <route cost="79.19" savings="-28.72" edges="A0A1 A1A2 A2A3 A3B3 B3B2 B2B3 B3B2 B2B1 B1B0 B0A0 A0A1" exitTimes="16.00 27.00 39.00 46.00 53.00 -1 -1 -1 -1 -1 -1"/>
        </routeDistribution>
        <stop parkingArea="parkB2B3" duration="3600.00" started="60.00" ended="-1"/>
    </vehicle>

    <vehicle id="ego.4" type="car" depart="8.00" departSpeed="11.1317" speedFactor="1.0000" routeLength="829.01">
        <routeDistribution>
            <route cost="0.00" savings="0.00" replacedOnEdge="A0A1" reason="parkA0A1:parkingAreaReroute" replacedAtTime="8.00" probability="0" edges="A0A1" routeLength="87.00"/>
            <route cost="51.70" savings="-45.02" replacedOnEdge="A1A2" replacedOnIndex="1" reason="parkA1A2:parkingAreaReroute" replacedAtTime="20.00" probability="0" edges="A0A1 A1A2 A2B2 B2B1 B1B0 B0A0 A0A1" routeLength="669.98"/>
            <route cost="57.47" savings="-12.94" replacedOnEdge="A2A3" replacedOnIndex="2" reason="parkA2A3:parkingAreaReroute" replacedAtTime="33.00" probability="0" edges="A0A1 A1A2 A2A3 A3B3 B3B2 B2B1 B1B0 B0A0 A0A1" routeLength="870.56"/>
            <route cost="79.19" savings="-28.72" replacedOnEdge="B2B3" replacedOnIndex="5" reason="parkB2B3:parkingAreaReroute" replacedAtTime="61.00" probability="0" edges="A0A1 A1A2 A2A3 A3B3 B3B2 B2B3 B3B2 B2B1 B1B0 B0A0 A0A1" routeLength="1061.11"/>
            <route cost="82.37" savings="-33.72" edges="A0A1 A1A2 A2A3 A3B3 B3B2 B2B3 B3B2 B2B1 B1B2 B2B1 B1B0 B0A0 A0A1" exitTimes="17.00 29.00 40.00 47.00 55.00 67.00 74.00 82.00 -1 -1 -1 -1 -1"/>
        </routeDistribution>
        <stop parkingArea="parkB1B2" duration="3600.00" started="88.00" ended="-1"/>
    </vehicle>

    <vehicle id="ego.5" type="car" depart="10.00" departSpeed="8.447" speedFactor="1.0000" routeLength="1025.37">
        <routeDistribution>
            <route cost="0.00" savings="0.00" replacedOnEdge="A0A1" reason="parkA0A1:parkingAreaReroute" replacedAtTime="10.00" probability="0" edges="A0A1" routeLength="87.00"/>
            <route cost="51.79" savings="-45.06" replacedOnEdge="A1A2" replacedOnIndex="1" reason="parkA1A2:parkingAreaReroute" replacedAtTime="20.00" probability="0" edges="A0A1 A1A2 A2B2 B2B1 B1B0 B0A0 A0A1" routeLength="669.98"/>
            <route cost="57.47" savings="-12.94" replacedOnEdge="A2A3" replacedOnIndex="2" reason="parkA2A3:parkingAreaReroute" replacedAtTime="33.00" probability="0" edges="A0A1 A1A2 A2A3 A3B3 B3B2 B2B1 B1B0 B0A0 A0A1" routeLength="870.56"/>
            <route cost="79.19" savings="-28.72" replacedOnEdge="B2B3" replacedOnIndex="5" reason="parkB2B3:parkingAreaReroute" replacedAtTime="61.00" probability="0" edges="A0A1 A1A2 A2A3 A3B3 B3B2 B2B3 B3B2 B2B1 B1B0 B0A0 A0A1" routeLength="1061.11"/>
            <route cost="82.37" savings="-33.72" replacedOnEdge="B1B2" replacedOnIndex="8" reason="parkB1B2:parkingAreaReroute" replacedAtTime="89.00" probability="0" edges="A0A1 A1A2 A2A3 A3B3 B3B2 B2B3 B3B2 B2B1 B1B2 B2B1 B1B0 B0A0 A0A1" routeLength="1251.67"/>
            <route cost="71.60" savings="-25.20" edges="A0A1 A1A2 A2A3 A3B3 B3B2 B2B3 B3B2 B2B1 B1B2 B2C2 C2C3 C3B3 B3B2 B2B1 B1B0 B0A0 A0A1" exitTimes="19.00 30.00 42.00 49.00 58.00 69.00 76.00 84.00 93.00 101.00 -1 -1 -1 -1 -1 -1 -1"/>
        </routeDistribution>
        <stop parkingArea="parkC2C3" duration="3600.00" started="108.00" ended="-1"/>
    </vehicle>

    <vehicle id="ego.6" type="car" depart="12.00" departSpeed="6.185" speedFactor="1.0000" routeLength="1315.92">
        <routeDistribution>
            <route cost="0.00" savings="0.00" replacedOnEdge="A0A1" reason="parkA0A1:parkingAreaReroute" replacedAtTime="12.00" probability="0" edges="A0A1" routeLength="87.00"/>
            <route cost="51.86" savings="-45.10" replacedOnEdge="A1A2" replacedOnIndex="1" reason="parkA1A2:parkingAreaReroute" replacedAtTime="21.00" probability="0" edges="A0A1 A1A2 A2B2 B2B1 B1B0 B0A0 A0A1" routeLength="669.98"/>
            <route cost="57.49" savings="-12.94" replacedOnEdge="A2A3" replacedOnIndex="2" reason="parkA2A3:parkingAreaReroute" replacedAtTime="33.00" probability="0" edges="A0A1 A1A2 A2A3 A3B3 B3B2 B2B1 B1B0 B0A0 A0A1" routeLength="870.56"/>
            <route cost="79.19" savings="-28.72" replacedOnEdge="B2B3" replacedOnIndex="5" reason="parkB2B3:parkingAreaReroute" replacedAtTime="61.00" probability="0" edges="A0A1 A1A2 A2A3 A3B3 B3B2 B2B3 B3B2 B2B1 B1B0 B0A0 A0A1" routeLength="1061.11"/>
            <route cost="82.37" savings="-33.72" replacedOnEdge="B1B2" replacedOnIndex="8" reason="parkB1B2:parkingAreaReroute" replacedAtTime="89.00" probability="0" edges="A0A1 A1A2 A2A3 A3B3 B3B2 B2B3 B3B2 B2B1 B1B2 B2B1 B1B0 B0A0 A0A1" routeLength="1251.67"/>
            <route cost="71.60" savings="-25.20" replacedOnEdge="C2C3" replacedOnIndex="10" reason="parkC2C3:parkingAreaReroute" replacedAtTime="109.00" probability="0" edges="A0A1 A1A2 A2A3 A3B3 B3B2 B2B3 B3B2 B2B1 B1B2 B2C2 C2C3 C3B3 B3B2 B2B1 B1B0 B0A0 A0A1" routeLength="1654.27"/>
            <route cost="84.51" savings="-28.51" edges="A0A1 A1A2 A2A3 A3B3 B3B2 B2B3 B3B2 B2B1 B1B2 B2C2 C2C3 C3C2 C2C1 C1C2 C2B2 B2B1 B1B0 B0A0 A0A1" exitTimes="20.00 32.00 44.00 50.00 60.00 71.00 78.00 87.00 95.00 103.00 116.00 123.00 131.00 -1 -1 -1 -1 -1 -1"/>
        </routeDistribution>
        <stop parkingArea="parkC1C2" duration="3600.00" started="139.00" ended="-1"/>
    </vehicle>

    <vehicle id="ego.7" type="car" depart="14.00" departSpeed="5.7615" speedFactor="1.0000" routeLength="1512.28">
        <routeDistribution>
            <route cost="0.00" savings="0.00" replacedOnEdge="A0A1" reason="parkA0A1:parkingAreaReroute" replacedAtTime="14.00" probability="0" edges="A0A1" routeLength="87.00"/>
            <route cost="51.92" savings="-45.13" replacedOnEdge="A1A2" replacedOnIndex="1" reason="parkA1A2:parkingAreaReroute" replacedAtTime="23.00" probability="0" edges="A0A1 A1A2 A2B2 B2B1 B1B0 B0A0 A0A1" routeLength="669.98"/>
            <route cost="57.54" savings="-12.94" replacedOnEdge="A2A3" replacedOnIndex="2" reason="parkA2A3:parkingAreaReroute" replacedAtTime="34.00" probability="0" edges="A0A1 A1A2 A2A3 A3B3 B3B2 B2B1 B1B0 B0A0 A0A1" routeLength="870.56"/>
            <route cost="79.21" savings="-28.72" replacedOnEdge="B2B3" replacedOnIndex="5" reason="parkB2B3:parkingAreaReroute" replacedAtTime="62.00" probability="0" edges="A0A1 A1A2 A2A3 A3B3 B3B2 B2B3 B3B2 B2B1 B1B0 B0A0 A0A1" routeLength="1061.11"/>
            <route cost="82.41" savings="-33.72" replacedOnEdge="B1B2" replacedOnIndex="8" reason="parkB1B2:parkingAreaReroute" replacedAtTime="89.00" probability="0" edges="A0A1 A1A2 A2A3 A3B3 B3B2 B2B3 B3B2 B2B1 B1B2 B2B1 B1B0 B0A0 A0A1" routeLength="1251.67"/>
            <route cost="71.60" savings="-25.20" replacedOnEdge="C2C3" replacedOnIndex="10" reason="parkC2C3:parkingAreaReroute" replacedAtTime="109.00" probability="0" edges="A0A1 A1A2 A2A3 A3B3 B3B2 B2B3 B3B2 B2B1 B1B2 B2C2 C2C3 C3B3 B3B2 B2B1 B1B0 B0A0 A0A1" routeLength="1654.27"/>
            <route cost="84.51" savings="-28.51" replacedOnEdge="C1C2" replacedOnIndex="13" reason="parkC1C2:parkingAreaReroute" replacedAtTime="140.00" probability="0" edges="A0A1 A1A2 A2A3 A3B3 B3B2 B2B3 B3B2 B2B1 B1B2 B2C2 C2C3 C3C2 C2C1 C1C2 C2B2 B2B1 B1B0 B0A0 A0A1" routeLength="1844.82"/>
            <route cost="77.43" savings="-28.79" edges="A0A1 A1A2 A2A3 A3B3 B3B2 B2B3 B3B2 B2B1 B1B2 B2C2 C2C3 C3C2 C2C1 C1C2 C2D2 D2D3 D3C3 C3B3 B3B2 B2B1 B1B0 B0A0 A0A1" exitTimes="22.00 33.00 45.00 52.00 62.00 73.00 80.00 89.00 96.00 105.00 118.00 125.00 134.00 146.00 154.00 -1 -1 -1 -1 -1 -1 -1 -1"/>
        </routeDistribution>
        <stop parkingArea="parkD2D3" duration="3600.00" started="161.00" ended="-1"/>
    </vehicle>

    <vehicle id="ego.8" type="car" depart="16.00" departSpeed="7.3995" speedFactor="1.0000" routeLength="1805.83">
        <routeDistribution>
            <route cost="0.00" savings="0.00" replacedOnEdge="A0A1" reason="parkA0A1:parkingAreaReroute" replacedAtTime="16.00" probability="0" edges="A0A1" routeLength="87.00"/>
            <route cost="51.97" savings="-45.15" replacedOnEdge="A1A2" replacedOnIndex="1" reason="parkA1A2:parkingAreaReroute" replacedAtTime="29.00" probability="0" edges="A0A1 A1A2 A2B2 B2B1 B1B0 B0A0 A0A1" routeLength="669.98"/>
            <route cost="57.82" savings="-12.94" replacedOnEdge="A2A3" replacedOnIndex="2" reason="parkA2A3:parkingAreaReroute" replacedAtTime="37.00" probability="0" edges="A0A1 A1A2 A2A3 A3B3 B3B2 B2B1 B1B0 B0A0 A0A1" routeLength="870.56"/>
            <route cost="79.28" savings="-28.72" replacedOnEdge="B2B3" replacedOnIndex="5" reason="parkB2B3:parkingAreaReroute" replacedAtTime="64.00" probability="0" edges="A0A1 A1A2 A2A3 A3B3 B3B2 B2B3 B3B2 B2B1 B1B0 B0A0 A0A1" routeLength="1061.11"/>
            <route cost="82.48" savings="-33.72" replacedOnEdge="B1B2" replacedOnIndex="8" reason="parkB1B2:parkingAreaReroute" replacedAtTime="91.00" probability="0" edges="A0A1 A1A2 A2A3 A3B3 B3B2 B2B3 B3B2 B2B1 B1B2 B2B1 B1B0 B0A0 A0A1" routeLength="1251.67"/>
            <route cost="71.64" savings="-25.20" replacedOnEdge="C2C3" replacedOnIndex="10" reason="parkC2C3:parkingAreaReroute" replacedAtTime="109.00" probability="0" edges="A0A1 A1A2 A2A3 A3B3 B3B2 B2B3 B3B2 B2B1 B1B2 B2C2 C2C3 C3B3 B3B2 B2B1 B1B0 B0A0 A0A1" routeLength="1654.27"/>
            <route cost="84.51" savings="-28.51" replacedOnEdge="C1C2" replacedOnIndex="13" reason="parkC1C2:parkingAreaReroute" replacedAtTime="140.00" probability="0" edges="A0A1 A1A2 A2A3 A3B3 B3B2 B2B3 B3B2 B2B1 B1B2 B2C2 C2C3 C3C2 C2C1 C1C2 C2B2 B2B1 B1B0 B0A0 A0A1" routeLength="1844.82"/>
            <route cost="77.43" savings="-28.79" replacedOnEdge="D2D3" replacedOnIndex="15" reason="parkD2D3:parkingAreaReroute" replacedAtTime="162.00" probability="0" edges="A0A1 A1A2 A2A3 A3B3 B3B2 B2B3 B3B2 B2B1 B1B2 B2C2 C2C3 C3C2 C2C1 C1C2 C2D2 D2D3 D3C3 C3B3 B3B2 B2B1 B1B0 B0A0 A0A1" routeLength="2241.76"/>
            <route cost="96.92" savings="-35.16" edges="A0A1 A1A2 A2A3 A3B3 B3B2 B2B3 B3B2 B2B1 B1B2 B2C2 C2C3 C3C2 C2C1 C1C2 C2D2 D2D3 D3D2 D2D1 D1D2 D2C2 C2C1 C1C0 C0B0 B0A0 A0A1" exitTimes="27.00 36.00 47.00 53.00 64.00 75.00 82.00 91.00 98.00 107.00 120.00 127.00 136.00 147.00 156.00 168.00 176.00 184.00 -1 -1 -1 -1 -1 -1 -1"/>
        </routeDistribution>
        <stop parkingArea="parkD1D2" duration="3600.00" started="190.00" ended="-1"/>
    </vehicle>

    <vehicle id="ego.9" type="car" depart="18.00" departSpeed="9.9657" speedFactor="1.0000" routeLength="2097.88">
        <routeDistribution>
            <route cost="0.00" savings="0.00" replacedOnEdge="A0A1" reason="parkA0A1:parkingAreaReroute" replacedAtTime="18.00" probability="0" edges="A0A1" routeLength="87.00"/>
            <route cost="52.00" savings="-45.18" replacedOnEdge="A1A2" replacedOnIndex="1" reason="parkA1A2:parkingAreaReroute" replacedAtTime="31.00" probability="0" edges="A0A1 A1A2 A2B2 B2B1 B1B0 B0A0 A0A1" routeLength="669.98"/>
            <route cost="57.86" savings="-12.95" replacedOnEdge="A2A3" replacedOnIndex="2" reason="parkA2A3:parkingAreaReroute" replacedAtTime="40.00" probability="0" edges="A0A1 A1A2 A2A3 A3B3 B3B2 B2B1 B1B0 B0A0 A0A1" routeLength="870.56"/>
            <route cost="79.34" savings="-28.72" replacedOnEdge="B2B3" replacedOnIndex="5" reason="parkB2B3:parkingAreaReroute" replacedAtTime="66.00" probability="0" edges="A0A1 A1A2 A2A3 A3B3 B3B2 B2B3 B3B2 B2B1 B1B0 B0A0 A0A1" routeLength="1061.11"/>
            <route cost="82.55" savings="-33.72" replacedOnEdge="B1B2" replacedOnIndex="8" reason="parkB1B2:parkingAreaReroute" replacedAtTime="93.00" probability="0" edges="A0A1 A1A2 A2A3 A3B3 B3B2 B2B3 B3B2 B2B1 B1B2 B2B1 B1B0 B0A0 A0A1" routeLength="1251.67"/>
            <route cost="71.69" savings="-25.20" replacedOnEdge="C2C3" replacedOnIndex="10" reason="parkC2C3:parkingAreaReroute" replacedAtTime="110.00" probability="0" edges="A0A1 A1A2 A2A3 A3B3 B3B2 B2B3 B3B2 B2B1 B1B2 B2C2 C2C3 C3B3 B3B2 B2B1 B1B0 B0A0 A0A1" routeLength="1654.27"/>
            <route cost="84.53" savings="-28.51" replacedOnEdge="C1C2" replacedOnIndex="13" reason="parkC1C2:parkingAreaReroute" replacedAtTime="140.00" probability="0" edges="A0A1 A1A2 A2A3 A3B3 B3B2 B2B3 B3B2 B2B1 B1B2 B2C2 C2C3 C3C2 C2C1 C1C2 C2B2 B2B1 B1B0 B0A0 A0A1" routeLength="1844.82"/>
            <route cost="77.43" savings="-28.79" replacedOnEdge="D2D3" replacedOnIndex="15" reason="parkD2D3:parkingAreaReroute" replacedAtTime="162.00" probability="0" edges="A0A1 A1A2 A2A3 A3B3 B3B2 B2B3 B3B2 B2B1 B1B2 B2C2 C2C3 C3C2 C2C1 C1C2 C2D2 D2D3 D3C3 C3B3 B3B2 B2B1 B1B0 B0A0 A0A1" routeLength="2241.76"/>
            <route cost="96.92" savings="-35.16" replacedOnEdge="D1D2" replacedOnIndex="18" reason="parkD1D2:parkingAreaReroute" replacedAtTime="191.00" probability="0" edges="A0A1 A1A2 A2A3 A3B3 B3B2 B2B3 B3B2 B2B1 B1B2 B2C2 C2C3 C3C2 C2C1 C1C2 C2D2 D2D3 D3D2 D2D1 D1D2 D2C2 C2C1 C1C0 C0B0 B0A0 A0A1" routeLength="2434.73"/>
            <route cost="89.54" savings="-33.88" edges="A0A1 A1A2 A2A3 A3B3 B3B2 B2B3 B3B2 B2B1 B1B2 B2C2 C2C3 C3C2 C2C1 C1C2 C2D2 D2D3 D3D2 D2D1 D1D2 D2D1 D1D0 D0D1 D1C1 C1C0 C0B0 B0A0 A0A1" exitTimes="30.00 39.00 48.00 55.00 66.00 77.00 84.00 93.00 100.00 109.00 122.00 129.00 138.00 149.00 158.00 171.00 178.00 186.00 196.00 203.00 211.00 -1 -1 -1 -1 -1 -1"/>
        </routeDistribution>
        <stop parkingArea="parkD0D1" duration="3600.00" started="217.00" ended="-1"/>
    </vehicle>

</routes>
