<?xml version="1.0" encoding="UTF-8"?>

<!-- generated on Thu Jul  2 00:40:19 2020 by Eclipse SUMO sumo Version v1_6_0+1094-b586fc22ca
This data file and the accompanying materials
are made available under the terms of the Eclipse Public License v2.0
which accompanies this distribution, and is available at
http://www.eclipse.org/legal/epl-v20.html
SPDX-License-Identifier: EPL-2.0
<configuration xmlns:xsi="http://www.w3.org/2001/XMLSchema-instance" xsi:noNamespaceSchemaLocation="http://sumo.dlr.de/xsd/sumoConfiguration.xsd">

    <input>
        <net-file value="net.net.xml"/>
        <route-files value="input_routes.rou.xml"/>
    </input>

    <output>
        <write-license value="true"/>
        <tripinfo-output value="tripinfos.xml"/>
        <tripinfo-output.write-unfinished value="true"/>
    </output>

    <processing>
        <default.speeddev value="0"/>
    </processing>

    <report>
        <xml-validation value="never"/>
        <duration-log.disable value="true"/>
        <no-step-log value="true"/>
    </report>

    <taxi_device>
        <device.taxi.dispatch-algorithm value="greedyShared"/>
        <device.taxi.dispatch-algorithm.output value="dispatchinfos.xml"/>
    </taxi_device>

</configuration>
-->

<tripinfos xmlns:xsi="http://www.w3.org/2001/XMLSchema-instance" xsi:noNamespaceSchemaLocation="http://sumo.dlr.de/xsd/tripinfo_file.xsd">
    <personinfo id="0" depart="0.00" type="DEFAULT_PEDTYPE">
        <ride waitingTime="8.00" vehicle="taxi" depart="8.00" arrival="122.00" arrivalPos="5.00" duration="114.00" routeLength="1195.00" timeLoss="26.97"/>
    </personinfo>
    <personinfo id="1" depart="0.00" type="DEFAULT_PEDTYPE">
        <ride waitingTime="66.00" vehicle="taxi" depart="66.00" arrival="210.00" arrivalPos="285.60" duration="144.00" routeLength="875.60" timeLoss="20.96"/>
    </personinfo>
    <personinfo id="2" depart="170.00" type="DEFAULT_PEDTYPE">
        <ride waitingTime="106.00" vehicle="taxi" depart="276.00" arrival="431.00" arrivalPos="285.60" duration="155.00" routeLength="1765.87" timeLoss="26.59"/>
    </personinfo>
    <tripinfo id="taxi" depart="0.00" departLane="A1B1_1" departPos="5.00" departSpeed="0.00" departDelay="0.00" arrival="-1.00" arrivalLane="" arrivalPos="-1.00" arrivalSpeed="-1.00" duration="433.00" routeLength="3551.41" waitingTime="17.00" waitingCount="6" stopTime="98.00" timeLoss="76.44" rerouteNo="4" devices="tripinfo_taxi routing_taxi taxi_taxi person_taxi" vType="taxi" speedFactor="1.00" vaporized="">
        <taxi customers="3" occupiedDistance="3241.47" occupiedTime="302.00"/>
    </tripinfo>
</tripinfos>
