<?xml version="1.0" encoding="UTF-8"?>

<!-- generated on 2026-04-22T13:38:44.207128+01:00 by Eclipse SUMO sumo v1_26_0+1328-df373da80cc
This data file and the accompanying materials
are made available under the terms of the Eclipse Public License v2.0
which accompanies this distribution, and is available at
http://www.eclipse.org/legal/epl-v20.html
This file may also be made available under the following Secondary
Licenses when the conditions for such availability set forth in the Eclipse
Public License 2.0 are satisfied: GNU General Public License, version 2
or later which is available at
https://www.gnu.org/licenses/old-licenses/gpl-2.0-standalone.html
SPDX-License-Identifier: EPL-2.0 OR GPL-2.0-or-later
<sumoConfiguration xmlns:xsi="http://www.w3.org/2001/XMLSchema-instance" xsi:noNamespaceSchemaLocation="http://sumo.dlr.de/xsd/sumoConfiguration.xsd">

    <input>
        <net-file value="net.net.xml"/>
        <route-files value="input_routes.rou.xml"/>
    </input>

    <output>
        <write-license value="true"/>
        <tripinfo-output value="tripinfos.xml"/>
        <tripinfo-output.write-unfinished value="true"/>
    </output>

    <processing>
        <default.departspeed value="0"/>
        <default.departlane value="first"/>
        <default.speeddev value="0"/>
    </processing>

    <report>
        <xml-validation value="never"/>
        <duration-log.disable value="true"/>
        <no-step-log value="true"/>
    </report>

    <taxi_device>
        <device.taxi.dispatch-algorithm value="greedyShared"/>
        <device.taxi.dispatch-algorithm.output value="dispatchinfos.xml"/>
    </taxi_device>

    <mesoscopic>
        <mesosim value="true"/>
    </mesoscopic>

</sumoConfiguration>
-->

<tripinfos xmlns:xsi="http://www.w3.org/2001/XMLSchema-instance" xsi:noNamespaceSchemaLocation="http://sumo.dlr.de/xsd/tripinfo_file.xsd">
    <personinfo id="0" depart="0.00" type="DEFAULT_PEDTYPE" speedFactor="1.00" duration="90.00" waitingTime="1.00" timeLoss="0.00" traveltime="89.00">
        <ride waitingTime="1.00" vehicle="taxi" depart="1.00" arrival="90.00" arrivalPos="0.00" duration="89.00" routeLength="2284.80" timeLoss="0.00"/>
    </personinfo>
    <personinfo id="1" depart="0.00" type="DEFAULT_PEDTYPE" speedFactor="1.00" duration="164.00" waitingTime="46.00" timeLoss="0.00" traveltime="118.00">
        <ride waitingTime="46.00" vehicle="taxi" depart="46.00" arrival="164.00" arrivalPos="190.40" duration="118.00" routeLength="1332.80" timeLoss="0.00"/>
    </personinfo>
    <personinfo id="2" depart="170.00" type="DEFAULT_PEDTYPE" speedFactor="1.00" duration="204.00" waitingTime="82.00" timeLoss="0.00" traveltime="122.00">
        <ride waitingTime="82.00" vehicle="taxi" depart="252.00" arrival="374.00" arrivalPos="190.40" duration="122.00" routeLength="3046.40" timeLoss="0.00"/>
    </personinfo>
    <tripinfo id="taxi" depart="0.00" departLane="A1B1_1" departPos="0.00" departSpeed="0.00" departDelay="0.00" arrival="-1.00" arrivalLane="" arrivalPos="-1.00" arrivalSpeed="-1.00" duration="375.00" routeLength="3461.21" waitingTime="0.00" waitingCount="0" stopTime="184.00" timeLoss="60.00" rerouteNo="4" devices="tripinfo_taxi routing_taxi taxi_taxi person_taxi" vType="taxi" speedFactor="1.00" vaporized="">
        <taxi customers="3" occupiedDistance="3071.07" occupiedTime="225.11"/>
    </tripinfo>
</tripinfos>
