<?xml version="1.0" encoding="UTF-8"?>

<!-- generated on 2026-04-23T11:44:06.911309+01:00 by Eclipse SUMO sumo v1_26_0+1345-5ee8d27e481
This data file and the accompanying materials
are made available under the terms of the Eclipse Public License v2.0
which accompanies this distribution, and is available at
http://www.eclipse.org/legal/epl-v20.html
This file may also be made available under the following Secondary
Licenses when the conditions for such availability set forth in the Eclipse
Public License 2.0 are satisfied: GNU General Public License, version 2
or later which is available at
https://www.gnu.org/licenses/old-licenses/gpl-2.0-standalone.html
SPDX-License-Identifier: EPL-2.0 OR GPL-2.0-or-later
<sumoConfiguration xmlns:xsi="http://www.w3.org/2001/XMLSchema-instance" xsi:noNamespaceSchemaLocation="http://sumo.dlr.de/xsd/sumoConfiguration.xsd">

    <input>
        <net-file value="net.net.xml"/>
        <route-files value="input_routes.rou.xml"/>
    </input>

    <output>
        <write-license value="true"/>
        <tripinfo-output value="tripinfos.xml"/>
        <tripinfo-output.write-unfinished value="true"/>
    </output>

    <processing>
        <default.departspeed value="0"/>
        <default.departlane value="first"/>
        <default.speeddev value="0"/>
    </processing>

    <report>
        <xml-validation value="never"/>
        <duration-log.disable value="true"/>
        <no-step-log value="true"/>
    </report>

    <taxi_device>
        <device.taxi.dispatch-algorithm value="greedyShared"/>
        <device.taxi.dispatch-algorithm.output value="dispatchinfos.xml"/>
    </taxi_device>

</sumoConfiguration>
-->

<tripinfos xmlns:xsi="http://www.w3.org/2001/XMLSchema-instance" xsi:noNamespaceSchemaLocation="http://sumo.dlr.de/xsd/tripinfo_file.xsd">
    <personinfo id="0" depart="0.00" type="DEFAULT_PEDTYPE" speedFactor="1.00" duration="181.00" waitingTime="8.00" timeLoss="14.94" traveltime="173.00">
        <ride waitingTime="8.00" vehicle="taxi" depart="8.00" arrival="181.00" arrivalPos="5.00" duration="173.00" routeLength="1195.00" timeLoss="14.94"/>
    </personinfo>
    <personinfo id="1" depart="0.00" type="DEFAULT_PEDTYPE" speedFactor="1.00" duration="270.00" waitingTime="66.00" timeLoss="9.66" traveltime="204.00">
        <ride waitingTime="66.00" vehicle="taxi" depart="66.00" arrival="270.00" arrivalPos="285.60" duration="204.00" routeLength="875.60" timeLoss="9.66"/>
    </personinfo>
    <personinfo id="2" depart="170.00" type="DEFAULT_PEDTYPE" speedFactor="1.00" duration="381.00" waitingTime="167.00" timeLoss="19.81" traveltime="214.00">
        <ride waitingTime="167.00" vehicle="taxi" depart="337.00" arrival="551.00" arrivalPos="285.60" duration="214.00" routeLength="1765.87" timeLoss="19.81"/>
    </personinfo>
    <tripinfo id="taxi" depart="0.00" departLane="A1B1_1" departPos="5.00" departSpeed="0.00" departDelay="0.00" arrival="-1.00" arrivalLane="" arrivalPos="-1.00" arrivalSpeed="-1.00" duration="554.00" routeLength="3551.41" waitingTime="18.00" waitingCount="6" stopTime="218.00" timeLoss="47.17" rerouteNo="4" devices="tripinfo_taxi routing_taxi taxi_taxi person_taxi" vType="taxi" speedFactor="1.00" vaporized="">
        <taxi customers="3" occupiedDistance="3241.47" occupiedTime="302.00"/>
    </tripinfo>
</tripinfos>
