<?xml version="1.0" encoding="UTF-8"?>

<!-- generated on Thu Jan  5 14:53:26 2017 by SUMO Version dev-SVN-r22466
<?xml version="1.0" encoding="UTF-8"?>

<configuration xmlns:xsi="http://www.w3.org/2001/XMLSchema-instance" xsi:noNamespaceSchemaLocation="http://sumo.dlr.de/xsd/sumoConfiguration.xsd">

    <input>
        <net-file value="net.net.xml"/>
        <route-files value="input_routes.rou.xml"/>
    </input>

    <output>
        <tripinfo-output value="tripinfos.xml"/>
    </output>

    <report>
        <xml-validation value="never"/>
        <duration-log.disable value="true"/>
        <no-step-log value="true"/>
    </report>

    <mesoscopic>
        <mesosim value="true"/>
        <meso-junction-control value="true"/>
    </mesoscopic>

</configuration>
-->

<tripinfos xmlns:xsi="http://www.w3.org/2001/XMLSchema-instance" xsi:noNamespaceSchemaLocation="http://sumo.dlr.de/xsd/tripinfo_file.xsd">
    <tripinfo id="a.0" depart="0.00" departLane="" departPos="393.56" departSpeed="16.00" departDelay="0.00" arrival="20.00" arrivalLane="" arrivalPos="100.00" arrivalSpeed="16.00" duration="20.00" routeLength="198.39" waitSteps="1" timeLoss="1.00" rerouteNo="0" devices="tripinfo_a.0" vType="t0" vaporized=""/>
    <tripinfo id="b.0" depart="1.00" departLane="" departPos="393.56" departSpeed="16.00" departDelay="0.00" arrival="22.00" arrivalLane="" arrivalPos="100.00" arrivalSpeed="16.00" duration="21.00" routeLength="198.39" waitSteps="1" timeLoss="1.60" rerouteNo="0" devices="tripinfo_b.0" vType="t0" vaporized=""/>
    <tripinfo id="a.1" depart="2.00" departLane="" departPos="393.56" departSpeed="16.00" departDelay="0.00" arrival="23.00" arrivalLane="" arrivalPos="100.00" arrivalSpeed="16.00" duration="21.00" routeLength="198.39" waitSteps="1" timeLoss="2.19" rerouteNo="0" devices="tripinfo_a.1" vType="t0" vaporized=""/>
    <tripinfo id="b.1" depart="3.00" departLane="" departPos="393.56" departSpeed="16.00" departDelay="0.00" arrival="25.00" arrivalLane="" arrivalPos="100.00" arrivalSpeed="16.00" duration="22.00" routeLength="198.39" waitSteps="1" timeLoss="2.79" rerouteNo="0" devices="tripinfo_b.1" vType="t0" vaporized=""/>
    <tripinfo id="a.2" depart="4.00" departLane="" departPos="393.56" departSpeed="16.00" departDelay="0.00" arrival="26.00" arrivalLane="" arrivalPos="100.00" arrivalSpeed="16.00" duration="22.00" routeLength="198.39" waitSteps="1" timeLoss="3.39" rerouteNo="0" devices="tripinfo_a.2" vType="t0" vaporized=""/>
    <tripinfo id="b.2" depart="5.00" departLane="" departPos="393.56" departSpeed="16.00" departDelay="0.00" arrival="28.00" arrivalLane="" arrivalPos="100.00" arrivalSpeed="16.00" duration="23.00" routeLength="198.39" waitSteps="1" timeLoss="3.99" rerouteNo="0" devices="tripinfo_b.2" vType="t0" vaporized=""/>
    <tripinfo id="a.3" depart="6.00" departLane="" departPos="393.56" departSpeed="16.00" departDelay="0.00" arrival="30.00" arrivalLane="" arrivalPos="100.00" arrivalSpeed="16.00" duration="24.00" routeLength="198.39" waitSteps="1" timeLoss="4.59" rerouteNo="0" devices="tripinfo_a.3" vType="t0" vaporized=""/>
    <tripinfo id="b.3" depart="7.00" departLane="" departPos="393.56" departSpeed="16.00" departDelay="0.00" arrival="31.00" arrivalLane="" arrivalPos="100.00" arrivalSpeed="16.00" duration="24.00" routeLength="198.39" waitSteps="1" timeLoss="5.18" rerouteNo="0" devices="tripinfo_b.3" vType="t0" vaporized=""/>
    <tripinfo id="a.4" depart="8.00" departLane="" departPos="393.56" departSpeed="16.00" departDelay="0.00" arrival="33.00" arrivalLane="" arrivalPos="100.00" arrivalSpeed="16.00" duration="25.00" routeLength="198.39" waitSteps="1" timeLoss="5.78" rerouteNo="0" devices="tripinfo_a.4" vType="t0" vaporized=""/>
    <tripinfo id="b.4" depart="9.00" departLane="" departPos="393.56" departSpeed="16.00" departDelay="0.00" arrival="34.00" arrivalLane="" arrivalPos="100.00" arrivalSpeed="16.00" duration="25.00" routeLength="198.39" waitSteps="1" timeLoss="6.38" rerouteNo="0" devices="tripinfo_b.4" vType="t0" vaporized=""/>
</tripinfos>
