<?xml version="1.0" encoding="UTF-8"?>

<!-- generated on Tue Mar 31 09:33:32 2020 by Eclipse SUMO Version v1_5_0+1023-63f9a82342
This data file and the accompanying materials
are made available under the terms of the Eclipse Public License v2.0
which accompanies this distribution, and is available at
http://www.eclipse.org/legal/epl-v20.html
SPDX-License-Identifier: EPL-2.0
<configuration xmlns:xsi="http://www.w3.org/2001/XMLSchema-instance" xsi:noNamespaceSchemaLocation="http://sumo.dlr.de/xsd/sumoConfiguration.xsd">

    <input>
        <net-file value="net.net.xml"/>
        <additional-files value="input_routes.rou.xml,input_additional.add.xml"/>
    </input>

    <output>
        <write-license value="true"/>
    </output>

    <time>
        <begin value="0"/>
        <end value="150"/>
    </time>

    <processing>
        <default.speeddev value="0"/>
    </processing>

    <report>
        <xml-validation value="never"/>
        <duration-log.disable value="true"/>
        <no-step-log value="true"/>
    </report>

</configuration>
-->

<meandata xmlns:xsi="http://www.w3.org/2001/XMLSchema-instance" xsi:noNamespaceSchemaLocation="http://sumo.dlr.de/xsd/meandata_file.xsd">
    <interval begin="0.00" end="15.00" id="dump_15">
        <edge id="1si">
            <lane id="1si_0" sampledSeconds="1.00" traveltime="25.00" overlapTraveltime="25.30" density="0.27" laneDensity="0.27" occupancy="0.08" waitingTime="0.00" speed="10.00" departed="1" arrived="0" entered="0" left="0" laneChangedFrom="1" laneChangedTo="0"/>
            <lane id="1si_1" sampledSeconds="1.00" traveltime="25.00" overlapTraveltime="25.30" density="0.27" laneDensity="0.27" occupancy="0.08" waitingTime="0.00" speed="10.00" departed="0" arrived="0" entered="0" left="0" laneChangedFrom="1" laneChangedTo="1"/>
            <lane id="1si_2" sampledSeconds="12.00" traveltime="25.00" overlapTraveltime="25.30" density="3.20" laneDensity="3.20" occupancy="0.96" waitingTime="0.00" speed="10.00" departed="0" arrived="0" entered="0" left="0" laneChangedFrom="0" laneChangedTo="1"/>
        </edge>
    </interval>
    <interval begin="15.00" end="30.00" id="dump_15">
        <edge id="1si">
            <lane id="1si_2" sampledSeconds="15.00" traveltime="416.71" overlapTraveltime="421.71" density="4.00" laneDensity="4.00" occupancy="1.20" waitingTime="13.00" speed="0.60" departed="0" arrived="0" entered="0" left="0" laneChangedFrom="0" laneChangedTo="0"/>
        </edge>
    </interval>
    <interval begin="30.00" end="45.00" id="dump_15">
        <edge id="1si">
            <lane id="1si_2" sampledSeconds="15.00" overlapTraveltime="100000.00" density="4.00" laneDensity="4.00" occupancy="1.20" waitingTime="15.00" speed="0.00" departed="0" arrived="0" entered="0" left="0" laneChangedFrom="0" laneChangedTo="0"/>
        </edge>
    </interval>
    <interval begin="45.00" end="60.00" id="dump_15">
        <edge id="1si">
            <lane id="1si_2" sampledSeconds="2.67" traveltime="281.13" overlapTraveltime="168.65" density="0.71" laneDensity="0.71" occupancy="0.16" waitingTime="0.00" speed="1.50" departed="0" arrived="0" entered="0" left="1" laneChangedFrom="0" laneChangedTo="0"/>
        </edge>
        <edge id="4o">
            <lane id="4o_0" sampledSeconds="13.87" traveltime="75.90" overlapTraveltime="76.36" density="1.85" laneDensity="1.85" occupancy="0.52" waitingTime="0.00" speed="6.59" departed="0" arrived="0" entered="1" left="0" laneChangedFrom="0" laneChangedTo="0"/>
        </edge>
    </interval>
    <interval begin="60.00" end="75.00" id="dump_15">
        <edge id="4o">
            <lane id="4o_0" sampledSeconds="15.00" traveltime="50.00" overlapTraveltime="50.30" density="2.00" laneDensity="2.00" occupancy="0.60" waitingTime="0.00" speed="10.00" departed="0" arrived="0" entered="0" left="0" laneChangedFrom="0" laneChangedTo="0"/>
        </edge>
    </interval>
    <interval begin="75.00" end="90.00" id="dump_15">
        <edge id="4o">
            <lane id="4o_0" sampledSeconds="15.00" traveltime="50.00" overlapTraveltime="50.30" density="2.00" laneDensity="2.00" occupancy="0.60" waitingTime="0.00" speed="10.00" departed="0" arrived="0" entered="0" left="0" laneChangedFrom="0" laneChangedTo="0"/>
        </edge>
    </interval>
    <interval begin="90.00" end="105.00" id="dump_15">
        <edge id="4o">
            <lane id="4o_0" sampledSeconds="11.00" traveltime="50.00" overlapTraveltime="50.30" density="1.47" laneDensity="1.47" occupancy="0.44" waitingTime="0.00" speed="10.00" departed="0" arrived="1" entered="0" left="0" laneChangedFrom="0" laneChangedTo="0"/>
        </edge>
    </interval>
    <interval begin="105.00" end="120.00" id="dump_15"/>
    <interval begin="120.00" end="135.00" id="dump_15"/>
    <interval begin="135.00" end="150.00" id="dump_15"/>
</meandata>
