<?xml version="1.0" encoding="UTF-8"?>

<!-- generated on Tue Mar 31 12:21:35 2020 by Eclipse SUMO Version v1_5_0+1025-83bc0d0af0
This data file and the accompanying materials
are made available under the terms of the Eclipse Public License v2.0
which accompanies this distribution, and is available at
http://www.eclipse.org/legal/epl-v20.html
SPDX-License-Identifier: EPL-2.0
<configuration xmlns:xsi="http://www.w3.org/2001/XMLSchema-instance" xsi:noNamespaceSchemaLocation="http://sumo.dlr.de/xsd/sumoConfiguration.xsd">

    <input>
        <net-file value="net.net.xml"/>
        <additional-files value="input_routes.rou.xml,input_additional.add.xml"/>
    </input>

    <output>
        <write-license value="true"/>
    </output>

    <time>
        <begin value="0"/>
        <end value="150"/>
    </time>

    <processing>
        <default.speeddev value="0"/>
        <pedestrian.model value="nonInteracting"/>
    </processing>

    <report>
        <xml-validation value="never"/>
        <duration-log.disable value="true"/>
        <no-step-log value="true"/>
    </report>

    <mesoscopic>
        <mesosim value="true"/>
    </mesoscopic>

</configuration>
-->

<meandata xmlns:xsi="http://www.w3.org/2001/XMLSchema-instance" xsi:noNamespaceSchemaLocation="http://sumo.dlr.de/xsd/meandata_file.xsd">
    <interval begin="0.00" end="15.00" id="dump_15">
        <edge id="1si" sampledSeconds="14.00" traveltime="25.00" overlapTraveltime="25.30" density="3.73" laneDensity="1.24" occupancy="0.37" waitingTime="0.00" speed="10.00" departed="1" arrived="0" entered="0" left="0" laneChangedFrom="0" laneChangedTo="0"/>
    </interval>
    <interval begin="15.00" end="30.00" id="dump_15">
        <edge id="1si" sampledSeconds="2.67" traveltime="25.00" overlapTraveltime="25.30" density="0.71" laneDensity="0.24" occupancy="0.07" waitingTime="0.00" speed="10.00" departed="0" arrived="0" entered="0" left="1" laneChangedFrom="0" laneChangedTo="0"/>
        <edge id="4o" sampledSeconds="12.33" traveltime="50.00" overlapTraveltime="50.30" density="1.64" laneDensity="1.64" occupancy="0.49" waitingTime="0.00" speed="10.00" departed="0" arrived="0" entered="1" left="0" laneChangedFrom="0" laneChangedTo="0"/>
    </interval>
    <interval begin="30.00" end="45.00" id="dump_15">
        <edge id="4o" sampledSeconds="15.00" traveltime="50.00" overlapTraveltime="50.30" density="2.00" laneDensity="2.00" occupancy="0.60" waitingTime="0.00" speed="10.00" departed="0" arrived="0" entered="0" left="0" laneChangedFrom="0" laneChangedTo="0"/>
    </interval>
    <interval begin="45.00" end="60.00" id="dump_15">
        <edge id="4o" sampledSeconds="15.00" traveltime="50.00" overlapTraveltime="50.30" density="2.00" laneDensity="2.00" occupancy="0.60" waitingTime="0.00" speed="10.00" departed="0" arrived="0" entered="0" left="0" laneChangedFrom="0" laneChangedTo="0"/>
    </interval>
    <interval begin="60.00" end="75.00" id="dump_15">
        <edge id="4o" sampledSeconds="7.67" traveltime="50.00" overlapTraveltime="50.30" density="1.02" laneDensity="1.02" occupancy="0.31" waitingTime="0.00" speed="10.00" departed="0" arrived="1" entered="0" left="0" laneChangedFrom="0" laneChangedTo="0"/>
    </interval>
    <interval begin="75.00" end="90.00" id="dump_15"/>
    <interval begin="90.00" end="105.00" id="dump_15"/>
    <interval begin="105.00" end="120.00" id="dump_15"/>
    <interval begin="120.00" end="135.00" id="dump_15"/>
    <interval begin="135.00" end="150.00" id="dump_15"/>
</meandata>
