<?xml version="1.0" encoding="UTF-8"?>

<!-- generated on 2024-05-18 11:11:46 by Eclipse SUMO sumo Version v1_20_0+0118-42103d31dfe
This data file and the accompanying materials
are made available under the terms of the Eclipse Public License v2.0
which accompanies this distribution, and is available at
http://www.eclipse.org/legal/epl-v20.html
This file may also be made available under the following Secondary
Licenses when the conditions for such availability set forth in the Eclipse
Public License 2.0 are satisfied: GNU General Public License, version 2
or later which is available at
https://www.gnu.org/licenses/old-licenses/gpl-2.0-standalone.html
SPDX-License-Identifier: EPL-2.0 OR GPL-2.0-or-later
<configuration xmlns:xsi="http://www.w3.org/2001/XMLSchema-instance" xsi:noNamespaceSchemaLocation="http://sumo.dlr.de/xsd/sumoConfiguration.xsd">

    <input>
        <net-file value="net.net.xml"/>
        <route-files value="input_routes.rou.xml"/>
        <additional-files value="input_additional.add.xml"/>
    </input>

    <output>
        <write-license value="true"/>
        <netstate-dump value="rawdump.xml"/>
        <tripinfo-output value="tripinfos.xml"/>
    </output>

    <time>
        <end value="240"/>
    </time>

    <processing>
        <default.speeddev value="0"/>
    </processing>

    <report>
        <verbose value="true"/>
        <xml-validation value="never"/>
        <no-step-log value="true"/>
    </report>

    <mesoscopic>
        <mesosim value="true"/>
    </mesoscopic>

</configuration>
-->

<tripinfos xmlns:xsi="http://www.w3.org/2001/XMLSchema-instance" xsi:noNamespaceSchemaLocation="http://sumo.dlr.de/xsd/tripinfo_file.xsd">
    <containerinfo id="container0" depart="0.00" type="DEFAULT_CONTAINERTYPE" duration="70.00" waitingTime="57.49" timeLoss="0.00" traveltime="12.51">
        <transport waitingTime="57.49" vehicle="vehicle1" depart="57.49" arrival="70.00" arrivalPos="0.00" duration="12.51" routeLength="182.50" timeLoss="0.00"/>
    </containerinfo>
    <tripinfo id="vehicle1" depart="0.00" departLane="" departPos="0.00" departSpeed="13.90" departDelay="0.00" arrival="103.00" arrivalLane="" arrivalPos="90.50" arrivalSpeed="13.90" duration="103.00" routeLength="455.50" waitingTime="0.00" waitingCount="0" stopTime="70.00" timeLoss="70.00" rerouteNo="0" devices="tripinfo_vehicle1 container_vehicle1" vType="DEFAULT_VEHTYPE" speedFactor="1.00" vaporized=""/>
</tripinfos>
