<?xml version="1.0" encoding="UTF-8"?>

<!-- generated on Wed Jan  3 09:21:01 2018 by SUMO Version v0_32_0+0043-24523c2
<?xml version="1.0" encoding="UTF-8"?>

<configuration xmlns:xsi="http://www.w3.org/2001/XMLSchema-instance" xsi:noNamespaceSchemaLocation="http://sumo.dlr.de/xsd/sumoConfiguration.xsd">

    <input>
        <net-file value="net.net.xml"/>
        <route-files value="input_routes.rou.xml"/>
        <additional-files value="input_additional.add.xml"/>
    </input>

    <output>
        <netstate-dump value="rawdump.xml"/>
        <tripinfo-output value="tripinfos.xml"/>
    </output>

    <time>
        <end value="240"/>
    </time>

    <report>
        <verbose value="true"/>
        <xml-validation value="never"/>
        <no-step-log value="true"/>
    </report>

</configuration>
-->

<tripinfos xmlns:xsi="http://www.w3.org/2001/XMLSchema-instance" xsi:noNamespaceSchemaLocation="http://sumo.dlr.de/xsd/tripinfo_file.xsd">
    <containerinfo id="container0" depart="0.00">
        <transport waitingTime="107.00" vehicle="vehicle1" depart="107.00" arrival="126.00" arrivalPos="92.00" duration="19.00" routeLength="190.08"/>
    </containerinfo>
    <tripinfo id="vehicle1" depart="0.00" departLane="1/4to1/3_0" departPos="0.00" departSpeed="0.00" departDelay="0.00" arrival="158.00" arrivalLane="1/4to1/3_0" arrivalPos="90.50" arrivalSpeed="13.90" duration="158.00" routeLength="473.08" waitingTime="0.00" stopTime="112.00" timeLoss="11.33" rerouteNo="0" devices="tripinfo_vehicle1 container_vehicle1" vType="DEFAULT_VEHTYPE" speedFactor="1.00" vaporized=""/>
</tripinfos>
