<?xml version="1.0" encoding="UTF-8"?>

<!-- generated on 06.06.2018 09:18:31 by Eclipse SUMO GUI Version 38586a3af4
<configuration xmlns:xsi="http://www.w3.org/2001/XMLSchema-instance" xsi:noNamespaceSchemaLocation="http://sumo.dlr.de/xsd/sumoConfiguration.xsd">

    <input>
        <net-file value="C:\Projects\sumo\tests\netedit\additionalElements\e1detector\load\net.netedit"/>
        <additional-files value="C:\Projects\sumo\tests\netedit\additionalElements\e1detector\load\additionals.netedit"/>
    </input>

</configuration>
-->

<detector xmlns:xsi="http://www.w3.org/2001/XMLSchema-instance" xsi:noNamespaceSchemaLocation="http://sumo.dlr.de/xsd/det_e1_file.xsd">
</detector>
