<?xml version="1.0" encoding="UTF-8"?>

<!-- generated on 03/05/14 13:06:20 by SUMO dfrouter Version dev-SVN-r15814
<?xml version="1.0" encoding="UTF-8"?>

<configuration xmlns:xsi="http://www.w3.org/2001/XMLSchema-instance" xsi:noNamespaceSchemaLocation="http://sumo.dlr.de/xsd/dfrouterConfiguration.xsd">

    <input>
        <net-file value="input_messstrecke.net.xml"/>
        <detector-files value="input_messstrecke.det.xml"/>
        <measure-files value="input_flows.txt"/>
    </input>

    <output>
        <routes-output value="routes.rou.xml"/>
        <emitters-output value="emitters.add.xml"/>
    </output>

    <time>
        <begin value="25200"/>
        <end value="25800"/>
    </time>

    <report>
        <xml-validation value="never"/>
    </report>

</configuration>
-->

<additional xmlns:xsi="http://www.w3.org/2001/XMLSchema-instance" xsi:noNamespaceSchemaLocation="http://sumo.dlr.de/xsd/additional_file.xsd">
    <routeDistribution id="1">
        <route refId="33_to_18" probability="0.04"/>
        <route refId="33_to_35" probability="0.76"/>
        <route refId="33_to_19" probability="0.20"/>
        <route refId="33_to_20" probability="0.76"/>
    </routeDistribution>
    <vehicle id="emitter_1_25200000" depart="25200.00" departLane="0" departPos="10.00" departSpeed="15.56" route="33_to_20"/>
    <vehicle id="emitter_1_25208571" depart="25208.57" departLane="0" departPos="10.00" departSpeed="15.56" route="33_to_20"/>
    <vehicle id="emitter_1_25217142" depart="25217.14" departLane="0" departPos="10.00" departSpeed="15.56" route="33_to_35"/>
    <vehicle id="emitter_1_25225714" depart="25225.71" departLane="0" departPos="10.00" departSpeed="15.56" route="33_to_19"/>
    <vehicle id="emitter_1_25234285" depart="25234.29" departLane="0" departPos="10.00" departSpeed="15.56" route="33_to_20"/>
    <vehicle id="emitter_1_25242857" depart="25242.86" departLane="0" departPos="10.00" departSpeed="15.56" route="33_to_35"/>
    <vehicle id="emitter_1_25251428" depart="25251.43" departLane="0" departPos="10.00" departSpeed="15.56" route="33_to_20"/>
    <vehicle id="emitter_1_25260000" depart="25260.00" departLane="0" departPos="10.00" departSpeed="13.61" route="33_to_35"/>
    <vehicle id="emitter_1_25280000" depart="25280.00" departLane="0" departPos="10.00" departSpeed="13.61" route="33_to_19"/>
    <vehicle id="emitter_1_25300000" depart="25300.00" departLane="0" departPos="10.00" departSpeed="13.61" route="33_to_20"/>
    <vehicle id="emitter_1_25380000" depart="25380.00" departLane="0" departPos="10.00" departSpeed="16.11" route="33_to_18"/>
    <vehicle id="emitter_1_25387500" depart="25387.50" departLane="0" departPos="10.00" departSpeed="16.11" route="33_to_20"/>
    <vehicle id="emitter_1_25395000" depart="25395.00" departLane="0" departPos="10.00" departSpeed="16.11" route="33_to_19"/>
    <vehicle id="emitter_1_25402500" depart="25402.50" departLane="0" departPos="10.00" departSpeed="16.11" route="33_to_35"/>
    <vehicle id="emitter_1_25410000" depart="25410.00" departLane="0" departPos="10.00" departSpeed="15.00" route="33_to_19"/>
    <vehicle id="emitter_1_25417500" depart="25417.50" departLane="0" departPos="10.00" departSpeed="16.11" route="33_to_35"/>
    <vehicle id="emitter_1_25425000" depart="25425.00" departLane="0" departPos="10.00" departSpeed="16.11" route="33_to_35"/>
    <vehicle id="emitter_1_25432500" depart="25432.50" departLane="0" departPos="10.00" departSpeed="16.11" route="33_to_20"/>
    <vehicle id="emitter_1_25440000" depart="25440.00" departLane="0" departPos="10.00" departSpeed="15.28" route="33_to_35"/>
    <vehicle id="emitter_1_25445454" depart="25445.45" departLane="0" departPos="10.00" departSpeed="15.28" route="33_to_20"/>
    <vehicle id="emitter_1_25450909" depart="25450.91" departLane="0" departPos="10.00" departSpeed="15.28" route="33_to_35"/>
    <vehicle id="emitter_1_25456363" depart="25456.36" departLane="0" departPos="10.00" departSpeed="15.28" route="33_to_19"/>
    <vehicle id="emitter_1_25461818" depart="25461.82" departLane="0" departPos="10.00" departSpeed="15.28" route="33_to_35"/>
    <vehicle id="emitter_1_25467272" depart="25467.27" departLane="0" departPos="10.00" departSpeed="15.28" route="33_to_20"/>
    <vehicle id="emitter_1_25472727" depart="25472.73" departLane="0" departPos="10.00" departSpeed="15.28" route="33_to_20"/>
    <vehicle id="emitter_1_25478181" depart="25478.18" departLane="0" departPos="10.00" departSpeed="15.28" route="33_to_20"/>
    <vehicle id="emitter_1_25483636" depart="25483.64" departLane="0" departPos="10.00" departSpeed="15.28" route="33_to_20"/>
    <vehicle id="emitter_1_25489090" depart="25489.09" departLane="0" departPos="10.00" departSpeed="15.28" route="33_to_35"/>
    <vehicle id="emitter_1_25494545" depart="25494.55" departLane="0" departPos="10.00" departSpeed="15.28" route="33_to_19"/>
    <vehicle id="emitter_1_25500000" depart="25500.00" departLane="0" departPos="10.00" departSpeed="14.72" route="33_to_35"/>
    <vehicle id="emitter_1_25512000" depart="25512.00" departLane="0" departPos="10.00" departSpeed="14.72" route="33_to_35"/>
    <vehicle id="emitter_1_25524000" depart="25524.00" departLane="0" departPos="10.00" departSpeed="14.72" route="33_to_35"/>
    <vehicle id="emitter_1_25536000" depart="25536.00" departLane="0" departPos="10.00" departSpeed="14.72" route="33_to_20"/>
    <vehicle id="emitter_1_25548000" depart="25548.00" departLane="0" departPos="10.00" departSpeed="14.72" route="33_to_35"/>
    <vehicle id="emitter_1_25560000" depart="25560.00" departLane="0" departPos="10.00" departSpeed="14.72" route="33_to_20"/>
    <vehicle id="emitter_1_25567500" depart="25567.50" departLane="0" departPos="10.00" departSpeed="14.72" route="33_to_35"/>
    <vehicle id="emitter_1_25575000" depart="25575.00" departLane="0" departPos="10.00" departSpeed="14.72" route="33_to_20"/>
    <vehicle id="emitter_1_25582500" depart="25582.50" departLane="0" departPos="10.00" departSpeed="14.72" route="33_to_35"/>
    <vehicle id="emitter_1_25590000" depart="25590.00" departLane="0" departPos="10.00" departSpeed="14.72" route="33_to_35"/>
    <vehicle id="emitter_1_25597500" depart="25597.50" departLane="0" departPos="10.00" departSpeed="14.72" route="33_to_35"/>
    <vehicle id="emitter_1_25605000" depart="25605.00" departLane="0" departPos="10.00" departSpeed="14.72" route="33_to_35"/>
    <vehicle id="emitter_1_25612500" depart="25612.50" departLane="0" departPos="10.00" departSpeed="14.72" route="33_to_20"/>
    <vehicle id="emitter_1_25620000" depart="25620.00" departLane="0" departPos="10.00" departSpeed="13.06" route="33_to_35"/>
    <vehicle id="emitter_1_25630000" depart="25630.00" departLane="0" departPos="10.00" departSpeed="13.06" route="33_to_35"/>
    <vehicle id="emitter_1_25640000" depart="25640.00" departLane="0" departPos="10.00" departSpeed="13.06" route="33_to_35"/>
    <vehicle id="emitter_1_25650000" depart="25650.00" departLane="0" departPos="10.00" departSpeed="13.06" route="33_to_20"/>
    <vehicle id="emitter_1_25660000" depart="25660.00" departLane="0" departPos="10.00" departSpeed="13.06" route="33_to_35"/>
    <vehicle id="emitter_1_25670000" depart="25670.00" departLane="0" departPos="10.00" departSpeed="13.06" route="33_to_20"/>
    <vehicle id="emitter_1_25680000" depart="25680.00" departLane="0" departPos="10.00" departSpeed="15.28" route="33_to_35"/>
    <vehicle id="emitter_1_25710000" depart="25710.00" departLane="0" departPos="10.00" departSpeed="15.28" route="33_to_20"/>
    <vehicle id="emitter_1_25740000" depart="25740.00" departLane="0" departPos="10.00" departSpeed="15.00" route="33_to_20"/>
    <vehicle id="emitter_1_25745000" depart="25745.00" departLane="0" departPos="10.00" departSpeed="15.00" route="33_to_20"/>
    <vehicle id="emitter_1_25750000" depart="25750.00" departLane="0" departPos="10.00" departSpeed="15.00" route="33_to_20"/>
    <vehicle id="emitter_1_25755000" depart="25755.00" departLane="0" departPos="10.00" departSpeed="15.00" route="33_to_20"/>
    <vehicle id="emitter_1_25760000" depart="25760.00" departLane="0" departPos="10.00" departSpeed="15.00" route="33_to_20"/>
    <vehicle id="emitter_1_25765000" depart="25765.00" departLane="0" departPos="10.00" departSpeed="15.00" route="33_to_35"/>
    <vehicle id="emitter_1_25770000" depart="25770.00" departLane="0" departPos="10.00" departSpeed="15.00" route="33_to_19"/>
    <vehicle id="emitter_1_25775000" depart="25775.00" departLane="0" departPos="10.00" departSpeed="15.00" route="33_to_20"/>
    <vehicle id="emitter_1_25780000" depart="25780.00" departLane="0" departPos="10.00" departSpeed="15.00" route="33_to_35"/>
    <vehicle id="emitter_1_25785000" depart="25785.00" departLane="0" departPos="10.00" departSpeed="15.00" route="33_to_20"/>
    <vehicle id="emitter_1_25790000" depart="25790.00" departLane="0" departPos="10.00" departSpeed="15.00" route="33_to_35"/>
    <vehicle id="emitter_1_25795000" depart="25795.00" departLane="0" departPos="10.00" departSpeed="15.00" route="33_to_20"/>
    <routeDistribution id="2">
        <route refId="33_to_18" probability="0.04"/>
        <route refId="33_to_35" probability="0.76"/>
        <route refId="33_to_19" probability="0.20"/>
        <route refId="33_to_20" probability="0.76"/>
    </routeDistribution>
    <vehicle id="emitter_2_25200000" depart="25200.00" departLane="1" departPos="10.00" departSpeed="16.39" route="33_to_35"/>
    <vehicle id="emitter_2_25220000" depart="25220.00" departLane="1" departPos="10.00" departSpeed="16.39" route="33_to_35"/>
    <vehicle id="emitter_2_25240000" depart="25240.00" departLane="1" departPos="10.00" departSpeed="16.39" route="33_to_35"/>
    <vehicle id="emitter_2_25260000" depart="25260.00" departLane="1" departPos="10.00" departSpeed="14.72" route="33_to_19"/>
    <vehicle id="emitter_2_25270000" depart="25270.00" departLane="1" departPos="10.00" departSpeed="14.72" route="33_to_20"/>
    <vehicle id="emitter_2_25280000" depart="25280.00" departLane="1" departPos="10.00" departSpeed="14.72" route="33_to_35"/>
    <vehicle id="emitter_2_25290000" depart="25290.00" departLane="1" departPos="10.00" departSpeed="14.72" route="33_to_35"/>
    <vehicle id="emitter_2_25300000" depart="25300.00" departLane="1" departPos="10.00" departSpeed="14.72" route="33_to_20"/>
    <vehicle id="emitter_2_25310000" depart="25310.00" departLane="1" departPos="10.00" departSpeed="14.72" route="33_to_35"/>
    <vehicle id="emitter_2_25320000" depart="25320.00" departLane="1" departPos="10.00" departSpeed="13.89" route="33_to_35"/>
    <vehicle id="emitter_2_25350000" depart="25350.00" departLane="1" departPos="10.00" departSpeed="13.89" route="33_to_35"/>
    <vehicle id="emitter_2_25380000" depart="25380.00" departLane="1" departPos="10.00" departSpeed="14.17" route="33_to_19"/>
    <vehicle id="emitter_2_25410000" depart="25410.00" departLane="1" departPos="10.00" departSpeed="14.17" route="33_to_35"/>
    <vehicle id="emitter_2_25440000" depart="25440.00" departLane="1" departPos="10.00" departSpeed="17.22" route="33_to_35"/>
    <vehicle id="emitter_2_25460000" depart="25460.00" departLane="1" departPos="10.00" departSpeed="17.22" route="33_to_35"/>
    <vehicle id="emitter_2_25480000" depart="25480.00" departLane="1" departPos="10.00" departSpeed="17.22" route="33_to_35"/>
    <vehicle id="emitter_2_25500000" depart="25500.00" departLane="1" departPos="10.00" departSpeed="16.11" route="33_to_20"/>
    <vehicle id="emitter_2_25560000" depart="25560.00" departLane="1" departPos="10.00" departSpeed="15.83" route="33_to_35"/>
    <vehicle id="emitter_2_25566000" depart="25566.00" departLane="1" departPos="10.00" departSpeed="15.83" route="33_to_35"/>
    <vehicle id="emitter_2_25572000" depart="25572.00" departLane="1" departPos="10.00" departSpeed="15.83" route="33_to_35"/>
    <vehicle id="emitter_2_25578000" depart="25578.00" departLane="1" departPos="10.00" departSpeed="15.83" route="33_to_20"/>
    <vehicle id="emitter_2_25584000" depart="25584.00" departLane="1" departPos="10.00" departSpeed="15.83" route="33_to_35"/>
    <vehicle id="emitter_2_25590000" depart="25590.00" departLane="1" departPos="10.00" departSpeed="15.83" route="33_to_20"/>
    <vehicle id="emitter_2_25596000" depart="25596.00" departLane="1" departPos="10.00" departSpeed="15.83" route="33_to_35"/>
    <vehicle id="emitter_2_25602000" depart="25602.00" departLane="1" departPos="10.00" departSpeed="15.83" route="33_to_19"/>
    <vehicle id="emitter_2_25608000" depart="25608.00" departLane="1" departPos="10.00" departSpeed="15.83" route="33_to_20"/>
    <vehicle id="emitter_2_25614000" depart="25614.00" departLane="1" departPos="10.00" departSpeed="15.83" route="33_to_20"/>
    <vehicle id="emitter_2_25620000" depart="25620.00" departLane="1" departPos="10.00" departSpeed="15.00" route="33_to_35"/>
    <vehicle id="emitter_2_25635000" depart="25635.00" departLane="1" departPos="10.00" departSpeed="15.00" route="33_to_35"/>
    <vehicle id="emitter_2_25650000" depart="25650.00" departLane="1" departPos="10.00" departSpeed="15.00" route="33_to_20"/>
    <vehicle id="emitter_2_25665000" depart="25665.00" departLane="1" departPos="10.00" departSpeed="15.00" route="33_to_18"/>
    <vehicle id="emitter_2_25680000" depart="25680.00" departLane="1" departPos="10.00" departSpeed="16.11" route="33_to_35"/>
    <vehicle id="emitter_2_25710000" depart="25710.00" departLane="1" departPos="10.00" departSpeed="16.11" route="33_to_35"/>
    <vehicle id="emitter_2_25740000" depart="25740.00" departLane="1" departPos="10.00" departSpeed="16.39" route="33_to_20"/>
    <vehicle id="emitter_2_25770000" depart="25770.00" departLane="1" departPos="10.00" departSpeed="16.39" route="33_to_20"/>
    <routeDistribution id="24">
        <route refId="17_to_18" probability="0.02"/>
        <route refId="17_to_-33" probability="0.63"/>
        <route refId="17_to_35" probability="0.28"/>
        <route refId="17_to_19" probability="0.07"/>
        <route refId="17_to_20" probability="0.28"/>
    </routeDistribution>
    <vehicle id="emitter_24_25500000" depart="25500.00" departLane="0" departPos="10.00" departSpeed="7.22" route="17_to_20"/>
    <vehicle id="emitter_24_25680000" depart="25680.00" departLane="0" departPos="10.00" departSpeed="5.56" route="17_to_-33"/>
    <routeDistribution id="25">
        <route refId="17_to_18" probability="0.02"/>
        <route refId="17_to_-33" probability="0.63"/>
        <route refId="17_to_35" probability="0.28"/>
        <route refId="17_to_19" probability="0.07"/>
        <route refId="17_to_20" probability="0.28"/>
    </routeDistribution>
    <vehicle id="emitter_25_25500000" depart="25500.00" departLane="1" departPos="10.00" departSpeed="8.06" route="17_to_-33"/>
    <routeDistribution id="37">
        <route refId="-19_to_35" probability="0.31"/>
        <route refId="-19_to_18" probability="0.02"/>
        <route refId="-19_to_-33" probability="0.68"/>
        <route refId="-19_to_20" probability="0.31"/>
    </routeDistribution>
    <vehicle id="emitter_37_25200000" depart="25200.00" departLane="0" departPos="250.00" departSpeed="3.89" route="-19_to_-33"/>
    <vehicle id="emitter_37_25320000" depart="25320.00" departLane="0" departPos="250.00" departSpeed="3.33" route="-19_to_-33"/>
    <vehicle id="emitter_37_25380000" depart="25380.00" departLane="0" departPos="250.00" departSpeed="3.61" route="-19_to_20"/>
    <vehicle id="emitter_37_25410000" depart="25410.00" departLane="0" departPos="250.00" departSpeed="3.61" route="-19_to_-33"/>
    <vehicle id="emitter_37_25500000" depart="25500.00" departLane="0" departPos="250.00" departSpeed="4.17" route="-19_to_20"/>
    <vehicle id="emitter_37_25620000" depart="25620.00" departLane="0" departPos="250.00" departSpeed="5.00" route="-19_to_-33"/>
    <routeDistribution id="52">
        <route refId="-20_to_35" probability="0.42"/>
        <route refId="-20_to_19" probability="0.06"/>
        <route refId="-20_to_18" probability="0.01"/>
        <route refId="-20_to_-33" probability="0.51"/>
    </routeDistribution>
    <vehicle id="emitter_52_25320000" depart="25320.00" departLane="0" departPos="640.00" departSpeed="6.94" route="-20_to_35"/>
    <vehicle id="emitter_52_25330000" depart="25330.00" departLane="0" departPos="640.00" departSpeed="6.94" route="-20_to_35"/>
    <vehicle id="emitter_52_25340000" depart="25340.00" departLane="0" departPos="640.00" departSpeed="3.61" route="-20_to_-33"/>
    <vehicle id="emitter_52_25350000" depart="25350.00" departLane="0" departPos="640.00" departSpeed="6.94" route="-20_to_35"/>
    <vehicle id="emitter_52_25360000" depart="25360.00" departLane="0" departPos="640.00" departSpeed="3.61" route="-20_to_19"/>
    <vehicle id="emitter_52_25370000" depart="25370.00" departLane="0" departPos="640.00" departSpeed="6.94" route="-20_to_-33"/>
    <vehicle id="emitter_52_25380000" depart="25380.00" departLane="0" departPos="640.00" departSpeed="5.83" route="-20_to_-33"/>
    <vehicle id="emitter_52_25387500" depart="25387.50" departLane="0" departPos="640.00" departSpeed="5.83" route="-20_to_35"/>
    <vehicle id="emitter_52_25395000" depart="25395.00" departLane="0" departPos="640.00" departSpeed="5.83" route="-20_to_-33"/>
    <vehicle id="emitter_52_25402500" depart="25402.50" departLane="0" departPos="640.00" departSpeed="5.83" route="-20_to_35"/>
    <vehicle id="emitter_52_25410000" depart="25410.00" departLane="0" departPos="640.00" departSpeed="5.83" route="-20_to_-33"/>
    <vehicle id="emitter_52_25417500" depart="25417.50" departLane="0" departPos="640.00" departSpeed="5.83" route="-20_to_35"/>
    <vehicle id="emitter_52_25425000" depart="25425.00" departLane="0" departPos="640.00" departSpeed="5.83" route="-20_to_-33"/>
    <vehicle id="emitter_52_25432500" depart="25432.50" departLane="0" departPos="640.00" departSpeed="5.83" route="-20_to_35"/>
    <vehicle id="emitter_52_25440000" depart="25440.00" departLane="0" departPos="640.00" departSpeed="7.78" route="-20_to_18"/>
    <vehicle id="emitter_52_25460000" depart="25460.00" departLane="0" departPos="640.00" departSpeed="7.78" route="-20_to_35"/>
    <vehicle id="emitter_52_25480000" depart="25480.00" departLane="0" departPos="640.00" departSpeed="7.78" route="-20_to_35"/>
    <vehicle id="emitter_52_25500000" depart="25500.00" departLane="0" departPos="640.00" departSpeed="5.56" route="-20_to_-33"/>
    <vehicle id="emitter_52_25506666" depart="25506.67" departLane="0" departPos="640.00" departSpeed="5.56" route="-20_to_-33"/>
    <vehicle id="emitter_52_25513333" depart="25513.33" departLane="0" departPos="640.00" departSpeed="5.56" route="-20_to_-33"/>
    <vehicle id="emitter_52_25520000" depart="25520.00" departLane="0" departPos="640.00" departSpeed="5.56" route="-20_to_35"/>
    <vehicle id="emitter_52_25526666" depart="25526.67" departLane="0" departPos="640.00" departSpeed="5.56" route="-20_to_-33"/>
    <vehicle id="emitter_52_25533333" depart="25533.33" departLane="0" departPos="640.00" departSpeed="5.56" route="-20_to_35"/>
    <vehicle id="emitter_52_25540000" depart="25540.00" departLane="0" departPos="640.00" departSpeed="5.56" route="-20_to_-33"/>
    <vehicle id="emitter_52_25546666" depart="25546.67" departLane="0" departPos="640.00" departSpeed="5.56" route="-20_to_19"/>
    <vehicle id="emitter_52_25553333" depart="25553.33" departLane="0" departPos="640.00" departSpeed="5.56" route="-20_to_-33"/>
    <vehicle id="emitter_52_25560000" depart="25560.00" departLane="0" departPos="640.00" departSpeed="4.44" route="-20_to_35"/>
    <vehicle id="emitter_52_25575000" depart="25575.00" departLane="0" departPos="640.00" departSpeed="4.44" route="-20_to_35"/>
    <vehicle id="emitter_52_25590000" depart="25590.00" departLane="0" departPos="640.00" departSpeed="4.44" route="-20_to_-33"/>
    <vehicle id="emitter_52_25605000" depart="25605.00" departLane="0" departPos="640.00" departSpeed="4.44" route="-20_to_-33"/>
    <vehicle id="emitter_52_25620000" depart="25620.00" departLane="0" departPos="640.00" departSpeed="7.22" route="-20_to_-33"/>
    <vehicle id="emitter_52_25680000" depart="25680.00" departLane="0" departPos="640.00" departSpeed="5.83" route="-20_to_35"/>
    <vehicle id="emitter_52_25685454" depart="25685.45" departLane="0" departPos="640.00" departSpeed="5.83" route="-20_to_-33"/>
    <vehicle id="emitter_52_25690909" depart="25690.91" departLane="0" departPos="640.00" departSpeed="5.83" route="-20_to_-33"/>
    <vehicle id="emitter_52_25696363" depart="25696.36" departLane="0" departPos="640.00" departSpeed="5.83" route="-20_to_-33"/>
    <vehicle id="emitter_52_25701818" depart="25701.82" departLane="0" departPos="640.00" departSpeed="5.83" route="-20_to_-33"/>
    <vehicle id="emitter_52_25707272" depart="25707.27" departLane="0" departPos="640.00" departSpeed="5.83" route="-20_to_-33"/>
    <vehicle id="emitter_52_25712727" depart="25712.73" departLane="0" departPos="640.00" departSpeed="5.83" route="-20_to_35"/>
    <vehicle id="emitter_52_25718181" depart="25718.18" departLane="0" departPos="640.00" departSpeed="5.83" route="-20_to_-33"/>
    <vehicle id="emitter_52_25723636" depart="25723.64" departLane="0" departPos="640.00" departSpeed="5.83" route="-20_to_-33"/>
    <vehicle id="emitter_52_25729090" depart="25729.09" departLane="0" departPos="640.00" departSpeed="5.83" route="-20_to_18"/>
    <vehicle id="emitter_52_25734545" depart="25734.55" departLane="0" departPos="640.00" departSpeed="5.83" route="-20_to_-33"/>
    <vehicle id="emitter_52_25740000" depart="25740.00" departLane="0" departPos="640.00" departSpeed="3.06" route="-20_to_35"/>
    <vehicle id="emitter_52_25760000" depart="25760.00" departLane="0" departPos="640.00" departSpeed="3.06" route="-20_to_35"/>
    <vehicle id="emitter_52_25780000" depart="25780.00" departLane="0" departPos="640.00" departSpeed="3.06" route="-20_to_-33"/>
    <routeDistribution id="46">
        <route refId="-35_to_19" probability="0.10"/>
        <route refId="-35_to_18" probability="0.02"/>
        <route refId="-35_to_20" probability="1.00"/>
        <route refId="-35_to_-33" probability="0.87"/>
    </routeDistribution>
    <vehicle id="emitter_46_25200000" depart="25200.00" departLane="0" departPos="10.00" departSpeed="11.94" route="-35_to_20"/>
    <vehicle id="emitter_46_25204615" depart="25204.62" departLane="0" departPos="10.00" departSpeed="11.94" route="-35_to_20"/>
    <vehicle id="emitter_46_25209230" depart="25209.23" departLane="0" departPos="10.00" departSpeed="11.94" route="-35_to_19"/>
    <vehicle id="emitter_46_25213846" depart="25213.85" departLane="0" departPos="10.00" departSpeed="11.94" route="-35_to_-33"/>
    <vehicle id="emitter_46_25218461" depart="25218.46" departLane="0" departPos="10.00" departSpeed="11.94" route="-35_to_-33"/>
    <vehicle id="emitter_46_25223076" depart="25223.08" departLane="0" departPos="10.00" departSpeed="11.94" route="-35_to_19"/>
    <vehicle id="emitter_46_25227692" depart="25227.69" departLane="0" departPos="10.00" departSpeed="11.94" route="-35_to_20"/>
    <vehicle id="emitter_46_25232307" depart="25232.31" departLane="0" departPos="10.00" departSpeed="7.50" route="-35_to_-33"/>
    <vehicle id="emitter_46_25236923" depart="25236.92" departLane="0" departPos="10.00" departSpeed="11.94" route="-35_to_20"/>
    <vehicle id="emitter_46_25241538" depart="25241.54" departLane="0" departPos="10.00" departSpeed="11.94" route="-35_to_20"/>
    <vehicle id="emitter_46_25246153" depart="25246.15" departLane="0" departPos="10.00" departSpeed="11.94" route="-35_to_-33"/>
    <vehicle id="emitter_46_25250769" depart="25250.77" departLane="0" departPos="10.00" departSpeed="11.94" route="-35_to_-33"/>
    <vehicle id="emitter_46_25255384" depart="25255.38" departLane="0" departPos="10.00" departSpeed="11.94" route="-35_to_20"/>
    <vehicle id="emitter_46_25260000" depart="25260.00" departLane="0" departPos="10.00" departSpeed="12.50" route="-35_to_-33"/>
    <vehicle id="emitter_46_25267500" depart="25267.50" departLane="0" departPos="10.00" departSpeed="12.50" route="-35_to_20"/>
    <vehicle id="emitter_46_25275000" depart="25275.00" departLane="0" departPos="10.00" departSpeed="12.50" route="-35_to_-33"/>
    <vehicle id="emitter_46_25282500" depart="25282.50" departLane="0" departPos="10.00" departSpeed="12.50" route="-35_to_-33"/>
    <vehicle id="emitter_46_25290000" depart="25290.00" departLane="0" departPos="10.00" departSpeed="12.50" route="-35_to_20"/>
    <vehicle id="emitter_46_25297500" depart="25297.50" departLane="0" departPos="10.00" departSpeed="12.50" route="-35_to_-33"/>
    <vehicle id="emitter_46_25305000" depart="25305.00" departLane="0" departPos="10.00" departSpeed="12.50" route="-35_to_20"/>
    <vehicle id="emitter_46_25312500" depart="25312.50" departLane="0" departPos="10.00" departSpeed="12.50" route="-35_to_20"/>
    <vehicle id="emitter_46_25320000" depart="25320.00" departLane="0" departPos="10.00" departSpeed="13.33" route="-35_to_20"/>
    <vehicle id="emitter_46_25335000" depart="25335.00" departLane="0" departPos="10.00" departSpeed="13.33" route="-35_to_20"/>
    <vehicle id="emitter_46_25350000" depart="25350.00" departLane="0" departPos="10.00" departSpeed="13.33" route="-35_to_20"/>
    <vehicle id="emitter_46_25365000" depart="25365.00" departLane="0" departPos="10.00" departSpeed="13.33" route="-35_to_-33"/>
    <vehicle id="emitter_46_25380000" depart="25380.00" departLane="0" departPos="10.00" departSpeed="13.33" route="-35_to_20"/>
    <vehicle id="emitter_46_25387500" depart="25387.50" departLane="0" departPos="10.00" departSpeed="13.33" route="-35_to_20"/>
    <vehicle id="emitter_46_25395000" depart="25395.00" departLane="0" departPos="10.00" departSpeed="13.33" route="-35_to_-33"/>
    <vehicle id="emitter_46_25402500" depart="25402.50" departLane="0" departPos="10.00" departSpeed="13.33" route="-35_to_20"/>
    <vehicle id="emitter_46_25410000" depart="25410.00" departLane="0" departPos="10.00" departSpeed="13.33" route="-35_to_-33"/>
    <vehicle id="emitter_46_25417500" depart="25417.50" departLane="0" departPos="10.00" departSpeed="13.33" route="-35_to_20"/>
    <vehicle id="emitter_46_25425000" depart="25425.00" departLane="0" departPos="10.00" departSpeed="13.33" route="-35_to_-33"/>
    <vehicle id="emitter_46_25432500" depart="25432.50" departLane="0" departPos="10.00" departSpeed="13.33" route="-35_to_20"/>
    <vehicle id="emitter_46_25440000" depart="25440.00" departLane="0" departPos="10.00" departSpeed="11.94" route="-35_to_20"/>
    <vehicle id="emitter_46_25450000" depart="25450.00" departLane="0" departPos="10.00" departSpeed="11.94" route="-35_to_20"/>
    <vehicle id="emitter_46_25460000" depart="25460.00" departLane="0" departPos="10.00" departSpeed="11.94" route="-35_to_20"/>
    <vehicle id="emitter_46_25470000" depart="25470.00" departLane="0" departPos="10.00" departSpeed="11.94" route="-35_to_20"/>
    <vehicle id="emitter_46_25480000" depart="25480.00" departLane="0" departPos="10.00" departSpeed="11.94" route="-35_to_-33"/>
    <vehicle id="emitter_46_25490000" depart="25490.00" departLane="0" departPos="10.00" departSpeed="11.94" route="-35_to_20"/>
    <vehicle id="emitter_46_25500000" depart="25500.00" departLane="0" departPos="10.00" departSpeed="10.56" route="-35_to_20"/>
    <vehicle id="emitter_46_25520000" depart="25520.00" departLane="0" departPos="10.00" departSpeed="10.56" route="-35_to_-33"/>
    <vehicle id="emitter_46_25540000" depart="25540.00" departLane="0" departPos="10.00" departSpeed="10.56" route="-35_to_20"/>
    <vehicle id="emitter_46_25560000" depart="25560.00" departLane="0" departPos="10.00" departSpeed="11.94" route="-35_to_20"/>
    <vehicle id="emitter_46_25566000" depart="25566.00" departLane="0" departPos="10.00" departSpeed="11.94" route="-35_to_20"/>
    <vehicle id="emitter_46_25572000" depart="25572.00" departLane="0" departPos="10.00" departSpeed="11.94" route="-35_to_-33"/>
    <vehicle id="emitter_46_25578000" depart="25578.00" departLane="0" departPos="10.00" departSpeed="11.94" route="-35_to_20"/>
    <vehicle id="emitter_46_25584000" depart="25584.00" departLane="0" departPos="10.00" departSpeed="11.94" route="-35_to_-33"/>
    <vehicle id="emitter_46_25590000" depart="25590.00" departLane="0" departPos="10.00" departSpeed="11.94" route="-35_to_-33"/>
    <vehicle id="emitter_46_25596000" depart="25596.00" departLane="0" departPos="10.00" departSpeed="11.94" route="-35_to_-33"/>
    <vehicle id="emitter_46_25602000" depart="25602.00" departLane="0" departPos="10.00" departSpeed="11.94" route="-35_to_20"/>
    <vehicle id="emitter_46_25608000" depart="25608.00" departLane="0" departPos="10.00" departSpeed="11.94" route="-35_to_20"/>
    <vehicle id="emitter_46_25614000" depart="25614.00" departLane="0" departPos="10.00" departSpeed="11.94" route="-35_to_-33"/>
    <vehicle id="emitter_46_25620000" depart="25620.00" departLane="0" departPos="10.00" departSpeed="11.94" route="-35_to_19"/>
    <vehicle id="emitter_46_25625000" depart="25625.00" departLane="0" departPos="10.00" departSpeed="11.94" route="-35_to_-33"/>
    <vehicle id="emitter_46_25630000" depart="25630.00" departLane="0" departPos="10.00" departSpeed="11.94" route="-35_to_-33"/>
    <vehicle id="emitter_46_25635000" depart="25635.00" departLane="0" departPos="10.00" departSpeed="11.94" route="-35_to_-33"/>
    <vehicle id="emitter_46_25640000" depart="25640.00" departLane="0" departPos="10.00" departSpeed="11.94" route="-35_to_20"/>
    <vehicle id="emitter_46_25645000" depart="25645.00" departLane="0" departPos="10.00" departSpeed="11.94" route="-35_to_20"/>
    <vehicle id="emitter_46_25650000" depart="25650.00" departLane="0" departPos="10.00" departSpeed="11.94" route="-35_to_19"/>