<?xml version="1.0" encoding="UTF-8"?>

<!-- generated on Di 08 Nov 2016 16:08:04 CET by SUMO gui Version dev-SVN-r21650
<?xml version="1.0" encoding="UTF-8"?>

<configuration xmlns:xsi="http://www.w3.org/2001/XMLSchema-instance" xsi:noNamespaceSchemaLocation="http://sumo.dlr.de/xsd/sumo-gui.exeConfiguration.xsd">

    <input>
        <net-file value="net.net.xml"/>
        <route-files value="input_routes.rou.xml"/>
    </input>

    <output>
        <fcd-output value="fcd.xml"/>
    </output>

    <report>
        <xml-validation value="never"/>
        <no-step-log value="true"/>
    </report>

</configuration>
-->

<fcd-export xmlns:xsi="http://www.w3.org/2001/XMLSchema-instance" xsi:noNamespaceSchemaLocation="http://sumo.dlr.de/xsd/fcd_file.xsd">
    <timestep time="0.00">
        <vehicle id="veh1" x="0.00" y="48.35" angle="90.00" type="1" speed="13.89" pos="0.00" lane="WC_0" slope="0.00"/>
    </timestep>
    <timestep time="1.00">
        <vehicle id="veh1" x="13.89" y="48.35" angle="90.00" type="1" speed="13.89" pos="13.89" lane="WC_0" slope="0.00"/>
    </timestep>
    <timestep time="2.00">
        <vehicle id="veh1" x="27.78" y="48.35" angle="90.00" type="1" speed="13.89" pos="27.78" lane="WC_0" slope="0.00"/>
    </timestep>
    <timestep time="3.00">
        <vehicle id="veh1" x="41.67" y="48.35" angle="90.00" type="1" speed="13.89" pos="41.67" lane="WC_0" slope="0.00"/>
    </timestep>
    <timestep time="4.00">
        <vehicle id="veh1" x="55.56" y="48.35" angle="90.00" type="1" speed="13.89" pos="55.56" lane="WC_0" slope="0.00"/>
    </timestep>
    <timestep time="5.00">
        <vehicle id="veh1" x="69.45" y="48.35" angle="90.00" type="1" speed="13.89" pos="69.45" lane="WC_0" slope="0.00"/>
    </timestep>
    <timestep time="6.00">
        <vehicle id="veh1" x="83.34" y="48.35" angle="90.00" type="1" speed="13.89" pos="83.34" lane="WC_0" slope="0.00"/>
    </timestep>
    <timestep time="7.00">
        <vehicle id="veh1" x="97.23" y="48.35" angle="90.00" type="1" speed="13.89" pos="1.98" lane=":C_10_0" slope="0.00"/>
    </timestep>
    <timestep time="8.00">
        <vehicle id="veh1" x="111.12" y="48.35" angle="90.00" type="1" speed="13.89" pos="6.37" lane="CE_0" slope="0.00"/>
    </timestep>
    <timestep time="9.00">
        <vehicle id="veh1" x="125.01" y="48.35" angle="90.00" type="1" speed="13.89" pos="20.26" lane="CE_0" slope="0.00"/>
    </timestep>
    <timestep time="10.00">
        <vehicle id="veh1" x="138.90" y="48.35" angle="90.00" type="1" speed="13.89" pos="34.15" lane="CE_0" slope="0.00"/>
    </timestep>
    <timestep time="11.00">
        <vehicle id="veh1" x="152.79" y="48.35" angle="90.00" type="1" speed="13.89" pos="48.04" lane="CE_0" slope="0.00"/>
    </timestep>
    <timestep time="12.00">
        <vehicle id="veh1" x="166.68" y="48.35" angle="90.00" type="1" speed="13.89" pos="61.93" lane="CE_0" slope="0.00"/>
    </timestep>
    <timestep time="13.00"/>
</fcd-export>
