<?xml version="1.0" encoding="UTF-8"?>

<!-- generated on 2026-04-24T09:15:42.635706+01:00 by Eclipse SUMO sumo v1_26_0+1366-8b27a71a755
<sumoConfiguration xmlns:xsi="http://www.w3.org/2001/XMLSchema-instance" xsi:noNamespaceSchemaLocation="http://sumo.dlr.de/xsd/sumoConfiguration.xsd">

    <input>
        <net-file value="net.net.xml"/>
        <route-files value="input_routes.rou.xml,input_routes2.rou.xml"/>
    </input>

    <output>
        <tripinfo-output value="tripinfo.xml"/>
        <tripinfo-output.write-unfinished value="true"/>
        <vehroute-output value="vehroutes.xml"/>
        <vehroute-output.write-unfinished value="true"/>
        <save-state.times value="40"/>
        <save-state.files value="state.xml"/>
        <save-state.rng value="true"/>
        <save-state.transportables value="true"/>
        <save-state.precision value="16"/>
    </output>

    <processing>
        <default.departspeed value="0"/>
        <default.departlane value="first"/>
    </processing>

    <report>
        <duration-log.statistics value="true"/>
        <no-step-log value="true"/>
    </report>

    <taxi_device>
        <device.taxi.dispatch-algorithm.output value="dispatchinfos.xml"/>
    </taxi_device>

</sumoConfiguration>
-->

<snapshot type="micro" version="v1_26_0+1366-8b27a71a755" time="40.000" xmlns:xsi="http://www.w3.org/2001/XMLSchema-instance" xsi:noNamespaceSchemaLocation="http://sumo.dlr.de/xsd/state_file.xsd">
    <rngState default="0" routeHandler="56" insertionControl="0" device="0" device.btreceiver="0" driverState="0" device.toc="0">
        <rngLane index="0" state="0"/>
        <rngLane index="1" state="0"/>
        <rngLane index="2" state="0"/>
        <rngLane index="3" state="0"/>
        <rngLane index="4" state="0"/>
        <rngLane index="5" state="0"/>
        <rngLane index="6" state="0"/>
        <rngLane index="7" state="0"/>
        <rngLane index="8" state="0"/>
        <rngLane index="9" state="24"/>
        <rngLane index="10" state="0"/>
        <rngLane index="11" state="0"/>
        <rngLane index="12" state="0"/>
        <rngLane index="13" state="0"/>
        <rngLane index="14" state="0"/>
        <rngLane index="15" state="0"/>
        <rngLane index="16" state="0"/>
        <rngLane index="17" state="0"/>
        <rngLane index="18" state="0"/>
        <rngLane index="19" state="30"/>
        <rngLane index="20" state="0"/>
        <rngLane index="21" state="0"/>
        <rngLane index="22" state="0"/>
        <rngLane index="23" state="0"/>
        <rngLane index="24" state="0"/>
        <rngLane index="25" state="14"/>
        <rngLane index="26" state="0"/>
        <rngLane index="27" state="0"/>
        <rngLane index="28" state="0"/>
        <rngLane index="29" state="0"/>
        <rngLane index="30" state="1"/>
        <rngLane index="31" state="0"/>
        <rngLane index="32" state="0"/>
        <rngLane index="33" state="0"/>
        <rngLane index="34" state="0"/>
        <rngLane index="35" state="0"/>
        <rngLane index="36" state="0"/>
        <rngLane index="37" state="0"/>
        <rngLane index="38" state="0"/>
        <rngLane index="39" state="0"/>
        <rngLane index="40" state="0"/>
        <rngLane index="41" state="0"/>
        <rngLane index="42" state="0"/>
        <rngLane index="43" state="0"/>
        <rngLane index="44" state="0"/>
        <rngLane index="45" state="0"/>
        <rngLane index="46" state="0"/>
        <rngLane index="47" state="0"/>
        <rngLane index="48" state="0"/>
        <rngLane index="49" state="0"/>
        <rngLane index="50" state="0"/>
        <rngLane index="51" state="0"/>
        <rngLane index="52" state="0"/>
        <rngLane index="53" state="0"/>
        <rngLane index="54" state="0"/>
        <rngLane index="55" state="0"/>
        <rngLane index="56" state="0"/>
        <rngLane index="57" state="0"/>
        <rngLane index="58" state="0"/>
        <rngLane index="59" state="0"/>
        <rngLane index="60" state="0"/>
        <rngLane index="61" state="0"/>
        <rngLane index="62" state="0"/>
        <rngLane index="63" state="0"/>
    </rngState>
    <edgeControl lanes="B0C0_1"/>
    <dispatcher next="60000" count="4" customers="p0 0 p1 1 p2 2 p3 3 "/>
    <route id="!trip_0!var#1" state="0" edges="A0B0 B0C0 C0C1 C1C2 C2B2 B2B1 B1B0 B0C0"/>
    <route id="!trip_1!var#1" state="0" edges="A2B2 B2C2"/>
    <delay number="2" begin="2" end="0" depart="0.0000000000000000" time="0.0000000000000000" speedFactor="1.0300000000000000" decel="4.5000000000000000"/>
    <vType id="DEFAULT_PEDTYPE" vClass="pedestrian"/>
    <vType id="taxi" vClass="taxi">
        <param key="has.taxi.device" value="true"/>
    </vType>
    <vehicle id="trip_0" type="taxi" depart="0.000" route="!trip_0!var#1" distance="302 3" speedFactor="1.0300000000000000" reroute="1" line="taxi" state="262146 0 1 5.0999999999999996 0 4.4716684491228804 39000 0 0 0" pos="197.0864809989336663 192.0864809989336663 13.8903319006746653" speed="13.8903319006746653 14.1924470337068680" angle="90.0000000000000000" posLat="0.0000000000000000" waitingTime="100000 0" lcStateBase="0.0000000000000000" lcState2="0 0 0 0 0">
        <stop lane="C1C2_1" startPos="0.0000000000000000" endPos="5.0000000000000000" duration="0.000" triggered="person" parking="1" permitted="p0" actType="pickup p0 (0)"/>
        <stop lane="B0C0_1" startPos="285.6000000000000227" endPos="285.6000000000000227" duration="60.000" parking="1" actType="dropOff p0 (0)"/>
        <device id="vehroute_trip_0" state="1 0.0000000000000000 0.0000000000000000 5.0999999999999996 3 !NULL 0 !trip_0 device.rerouting -1 0 A0B0 0 !trip_0!var#1 taxi:prepare_dispatch 0 0 A0B0 0 !trip_0!var#2 taxi:dispatch 0 0"/>
        <device id="tripinfo_trip_0" state="A0B0_1 0 0 296.9 0 0 0 0 -1 -1000 NONE -1 0 -1"/>
        <device id="routing_trip_0" state="0 0"/>
        <device id="taxi_trip_0" state="1 0 0 0" customers="p0" reservations="0"/>
    </vehicle>
    <vehicle id="trip_1" type="taxi" depart="0.000" route="!trip_1!var#1" distance="0 1" speedFactor="0.9692000000000000" reroute="1" line="taxi" state="262146 0 0 5.0999999999999996 0 5.2392782508558877 30000 1 -9001 0" pos="287.5943838936573798 282.5943838936573798 0.0000000000000000" speed="0.0000000000000000 0.0000000000000000" angle="90.0000000000000000" posLat="0.0000000000000000" waitingTime="100000 0" entryPos="287.5707151084143334" lcStateBase="0.0000000000000000" lcState2="0 0 0 0 0">
        <stop lane="A2B2_1" endPos="287.6000000000000227" triggered="person" parking="1" started="30.000"/>
        <device id="vehroute_trip_1" state="1 0.0000000000000000 0.0000000000000000 5.0999999999999996 1 !NULL 0 !trip_1 device.rerouting -1 0"/>
        <device id="tripinfo_trip_1" state="A2B2_1 0 0 -5.1 0 0 0 1000 30000 -1000 NONE -1 0 -1"/>
        <device id="routing_trip_1" state="0 0"/>
        <device id="taxi_trip_1" state="0 0 0 0"/>
    </vehicle>
    <transportables type="person" state="4 20 0 16 0 0 0 4 0 0">
        <person id="p0" type="DEFAULT_PEDTYPE" depart="0.000" speedFactor="1.0104000000000000" state="0 1 0 -1 -1 0">
            <ride from="C1C2" to="B0C0" lines="taxi"/>
        </person>
        <person id="p1" type="DEFAULT_PEDTYPE" depart="10.000" speedFactor="1.0827000000000000" state="0 1 10000 -1 -1 0">
            <ride from="B2B1" to="C2D2" lines="taxi"/>
        </person>
        <person id="p10" type="DEFAULT_PEDTYPE" depart="100.000" speedFactor="1.0470999999999999" state="0 0 -1">
            <ride from="C1C2" to="B0C0" lines="taxi"/>
        </person>
        <person id="p11" type="DEFAULT_PEDTYPE" depart="110.000" speedFactor="1.1229000000000000" state="0 0 -1">
            <ride from="B2B1" to="C2D2" lines="taxi"/>
        </person>
        <person id="p12" type="DEFAULT_PEDTYPE" depart="120.000" speedFactor="0.9912000000000000" state="0 0 -1">
            <ride from="C2C1" to="E1E2" lines="taxi"/>
        </person>
        <person id="p13" type="DEFAULT_PEDTYPE" depart="130.000" speedFactor="0.9268000000000000" state="0 0 -1">
            <ride from="B1A1" to="B2B1" lines="taxi"/>
        </person>
        <person id="p14" type="DEFAULT_PEDTYPE" depart="140.000" speedFactor="0.8784000000000000" state="0 0 -1">
            <ride from="A1A0" to="E2E1" lines="taxi"/>
        </person>
        <person id="p15" type="DEFAULT_PEDTYPE" depart="150.000" speedFactor="0.9414000000000000" state="0 0 -1">
            <ride from="D0D1" to="F1F0" lines="taxi"/>
        </person>
        <person id="p16" type="DEFAULT_PEDTYPE" depart="160.000" speedFactor="0.9362000000000000" state="0 0 -1">
            <ride from="D2E2" to="C2D2" lines="taxi"/>
        </person>
        <person id="p17" type="DEFAULT_PEDTYPE" depart="170.000" speedFactor="1.1581999999999999" state="0 0 -1">
            <ride from="D0D1" to="C0C1" lines="taxi"/>
        </person>
        <person id="p18" type="DEFAULT_PEDTYPE" depart="180.000" speedFactor="1.0181000000000000" state="0 0 -1">
            <ride from="B0B1" to="B2B1" lines="taxi"/>
        </person>
        <person id="p19" type="DEFAULT_PEDTYPE" depart="190.000" speedFactor="1.0102000000000000" state="0 0 -1">
            <ride from="C1B1" to="E0D0" lines="taxi"/>
        </person>
        <person id="p2" type="DEFAULT_PEDTYPE" depart="20.000" speedFactor="1.0303000000000000" state="0 1 20000 -1 -1 0">
            <ride from="C2C1" to="E1E2" lines="taxi"/>
        </person>
        <person id="p3" type="DEFAULT_PEDTYPE" depart="30.000" speedFactor="0.8310000000000000" state="0 1 30000 -1 -1 0">
            <ride from="B1A1" to="B2B1" lines="taxi"/>
        </person>
        <person id="p4" type="DEFAULT_PEDTYPE" depart="40.000" speedFactor="1.0458000000000001" state="0 0 -1">
            <ride from="A1A0" to="E2E1" lines="taxi"/>
        </person>
        <person id="p5" type="DEFAULT_PEDTYPE" depart="50.000" speedFactor="0.8860000000000000" state="0 0 -1">
            <ride from="D0D1" to="F1F0" lines="taxi"/>
        </person>
        <person id="p6" type="DEFAULT_PEDTYPE" depart="60.000" speedFactor="0.9379000000000000" state="0 0 -1">
            <ride from="D2E2" to="C2D2" lines="taxi"/>
        </person>
        <person id="p7" type="DEFAULT_PEDTYPE" depart="70.000" speedFactor="0.8569000000000000" state="0 0 -1">
            <ride from="D0D1" to="C0C1" lines="taxi"/>
        </person>
        <person id="p8" type="DEFAULT_PEDTYPE" depart="80.000" speedFactor="1.0907000000000000" state="0 0 -1">
            <ride from="B0B1" to="B2B1" lines="taxi"/>
        </person>
        <person id="p9" type="DEFAULT_PEDTYPE" depart="90.000" speedFactor="1.0263000000000000" state="0 0 -1">
            <ride from="C1B1" to="E0D0" lines="taxi"/>
        </person>
    </transportables>
    <vehicleTransfer id="trip_1" depart="-1" parking="A2B2_1"/>
    <lane id="B0C0_1">
        <vehicles value="trip_0"/>
    </lane>
    <routingEngine last="39000" index="40">
        <edge id=":B0_6" speed="13.8853592303205691" pastSpeed="13.8900000000000006 13.8900000000000006 13.8900000000000006 13.8900000000000006 13.8900000000000006 13.8900000000000006 13.8900000000000006 13.8900000000000006 13.8900000000000006 13.8900000000000006 13.8900000000000006 13.8900000000000006 13.8900000000000006 13.8900000000000006 13.8900000000000006 13.8900000000000006 13.8900000000000006 13.8900000000000006 13.8900000000000006 13.8900000000000006 13.8900000000000006 13.8900000000000006 13.8900000000000006 13.8900000000000006 13.0546614577023323 13.8900000000000006 13.8900000000000006 13.8900000000000006 13.8900000000000006 13.8900000000000006 13.8900000000000006 13.8900000000000006 13.8900000000000006 13.8900000000000006 13.8900000000000006 13.8900000000000006 13.8900000000000006 13.8900000000000006 13.8900000000000006 13.8900000000000006 13.8900000000000006 13.8900000000000006 13.8900000000000006 13.8900000000000006 13.8900000000000006 13.8900000000000006 13.8900000000000006 13.8900000000000006 13.8900000000000006 13.8900000000000006 13.8900000000000006 13.8900000000000006 13.8900000000000006 13.8900000000000006 13.8900000000000006 13.8900000000000006 13.8900000000000006 13.8900000000000006 13.8900000000000006 13.8900000000000006 13.8900000000000006 13.8900000000000006 13.8900000000000006 13.8900000000000006 13.8900000000000006 13.8900000000000006 13.8900000000000006 13.8900000000000006 13.8900000000000006 13.8900000000000006 13.8900000000000006 13.8900000000000006 13.8900000000000006 13.8900000000000006 13.8900000000000006 13.8900000000000006 13.8900000000000006 13.8900000000000006 13.8900000000000006 13.8900000000000006 13.8900000000000006 13.8900000000000006 13.8900000000000006 13.8900000000000006 13.8900000000000006 13.8900000000000006 13.8900000000000006 13.8900000000000006 13.8900000000000006 13.8900000000000006 13.8900000000000006 13.8900000000000006 13.8900000000000006 13.8900000000000006 13.8900000000000006 13.8900000000000006 13.8900000000000006 13.8900000000000006 13.8900000000000006 13.8900000000000006 13.8900000000000006 13.8900000000000006 13.8900000000000006 13.8900000000000006 13.8900000000000006 13.8900000000000006 13.8900000000000006 13.8900000000000006 13.8900000000000006 13.8900000000000006 13.8900000000000006 13.8900000000000006 13.8900000000000006 13.8900000000000006 13.8900000000000006 13.8900000000000006 13.8900000000000006 13.8900000000000006 13.8900000000000006 13.8900000000000006 13.8900000000000006 13.8900000000000006 13.8900000000000006 13.8900000000000006 13.8900000000000006 13.8900000000000006 13.8900000000000006 13.8900000000000006 13.8900000000000006 13.8900000000000006 13.8900000000000006 13.8900000000000006 13.8900000000000006 13.8900000000000006 13.8900000000000006 13.8900000000000006 13.8900000000000006 13.8900000000000006 13.8900000000000006 13.8900000000000006 13.8900000000000006 13.8900000000000006 13.8900000000000006 13.8900000000000006 13.8900000000000006 13.8900000000000006 13.8900000000000006 13.8900000000000006 13.8900000000000006 13.8900000000000006 13.8900000000000006 13.8900000000000006 13.8900000000000006 13.8900000000000006 13.8900000000000006 13.8900000000000006 13.8900000000000006 13.8900000000000006 13.8900000000000006 13.8900000000000006 13.8900000000000006 13.8900000000000006 13.8900000000000006 13.8900000000000006 13.8900000000000006 13.8900000000000006 13.8900000000000006 13.8900000000000006 13.8900000000000006 13.8900000000000006 13.8900000000000006 13.8900000000000006 13.8900000000000006 13.8900000000000006 13.8900000000000006 13.8900000000000006 13.8900000000000006 13.8900000000000006 13.8900000000000006 13.8900000000000006"/>
        <edge id="A0B0" speed="13.7283815691935427" pastSpeed="6.9450000000000003 8.1987205205298963 9.2745037396601404 9.9629102450725622 11.1546175338956530 11.9272695811395515 12.8256612492306150 13.7975014000226750 13.7405579526702883 13.9155308352926745 14.0619126501520171 14.0545526026425893 13.6367947409771393 13.7995175622197799 13.4631583286127086 13.7732248273588738 13.8008902774801498 13.6089629346881082 13.9662362659609887 13.7788481945198971 13.4857012129182934 13.5685326820732115 13.7283407536944395 13.7997363640255308 13.8900000000000006 13.8900000000000006 13.8900000000000006 13.8900000000000006 13.8900000000000006 13.8900000000000006 13.8900000000000006 13.8900000000000006 13.8900000000000006 13.8900000000000006 13.8900000000000006 13.8900000000000006 13.8900000000000006 13.8900000000000006 13.8900000000000006 13.8900000000000006 13.8900000000000006 13.8900000000000006 13.8900000000000006 13.8900000000000006 13.8900000000000006 13.8900000000000006 13.8900000000000006 13.8900000000000006 13.8900000000000006 13.8900000000000006 13.8900000000000006 13.8900000000000006 13.8900000000000006 13.8900000000000006 13.8900000000000006 13.8900000000000006 13.8900000000000006 13.8900000000000006 13.8900000000000006 13.8900000000000006 13.8900000000000006 13.8900000000000006 13.8900000000000006 13.8900000000000006 13.8900000000000006 13.8900000000000006 13.8900000000000006 13.8900000000000006 13.8900000000000006 13.8900000000000006 13.8900000000000006 13.8900000000000006 13.8900000000000006 13.8900000000000006 13.8900000000000006 13.8900000000000006 13.8900000000000006 13.8900000000000006 13.8900000000000006 13.8900000000000006 13.8900000000000006 13.8900000000000006 13.8900000000000006 13.8900000000000006 13.8900000000000006 13.8900000000000006 13.8900000000000006 13.8900000000000006 13.8900000000000006 13.8900000000000006 13.8900000000000006 13.8900000000000006 13.8900000000000006 13.8900000000000006 13.8900000000000006 13.8900000000000006 13.8900000000000006 13.8900000000000006 13.8900000000000006 13.8900000000000006 13.8900000000000006 13.8900000000000006 13.8900000000000006 13.8900000000000006 13.8900000000000006 13.8900000000000006 13.8900000000000006 13.8900000000000006 13.8900000000000006 13.8900000000000006 13.8900000000000006 13.8900000000000006 13.8900000000000006 13.8900000000000006 13.8900000000000006 13.8900000000000006 13.8900000000000006 13.8900000000000006 13.8900000000000006 13.8900000000000006 13.8900000000000006 13.8900000000000006 13.8900000000000006 13.8900000000000006 13.8900000000000006 13.8900000000000006 13.8900000000000006 13.8900000000000006 13.8900000000000006 13.8900000000000006 13.8900000000000006 13.8900000000000006 13.8900000000000006 13.8900000000000006 13.8900000000000006 13.8900000000000006 13.8900000000000006 13.8900000000000006 13.8900000000000006 13.8900000000000006 13.8900000000000006 13.8900000000000006 13.8900000000000006 13.8900000000000006 13.8900000000000006 13.8900000000000006 13.8900000000000006 13.8900000000000006 13.8900000000000006 13.8900000000000006 13.8900000000000006 13.8900000000000006 13.8900000000000006 13.8900000000000006 13.8900000000000006 13.8900000000000006 13.8900000000000006 13.8900000000000006 13.8900000000000006 13.8900000000000006 13.8900000000000006 13.8900000000000006 13.8900000000000006 13.8900000000000006 13.8900000000000006 13.8900000000000006 13.8900000000000006 13.8900000000000006 13.8900000000000006 13.8900000000000006 13.8900000000000006 13.8900000000000006 13.8900000000000006 13.8900000000000006 13.8900000000000006 13.8900000000000006 13.8900000000000006 13.8900000000000006 13.8900000000000006 13.8900000000000006"/>
        <edge id="A2B2" speed="13.5171408753011448" pastSpeed="6.9450000000000003 7.6227916816878132 8.3759420995879914 9.1049728896166204 10.3804810619493946 11.4092020586878071 12.6168804077012471 13.6207103384243844 13.5901057216506054 13.1277754663424169 13.4050567168560413 13.4613633010121596 13.6568770443722194 13.2604797812578781 13.5123219950990343 13.4162027595848379 13.0927258127419801 13.2185720452973214 13.5436577157983145 13.0718909789043991 13.1809158226642360 13.3257812840332797 13.0276312102498082 13.3804326684963470 13.5724226711601546 11.3917191318606612 9.2555132968139429 7.6613318016804017 7.3489636883578404 7.0076361023180116 13.8900000000000006 13.8900000000000006 13.8900000000000006 13.8900000000000006 13.8900000000000006 13.8900000000000006 13.8900000000000006 13.8900000000000006 13.8900000000000006 13.8900000000000006 13.8900000000000006 13.8900000000000006 13.8900000000000006 13.8900000000000006 13.8900000000000006 13.8900000000000006 13.8900000000000006 13.8900000000000006 13.8900000000000006 13.8900000000000006 13.8900000000000006 13.8900000000000006 13.8900000000000006 13.8900000000000006 13.8900000000000006 13.8900000000000006 13.8900000000000006 13.8900000000000006 13.8900000000000006 13.8900000000000006 13.8900000000000006 13.8900000000000006 13.8900000000000006 13.8900000000000006 13.8900000000000006 13.8900000000000006 13.8900000000000006 13.8900000000000006 13.8900000000000006 13.8900000000000006 13.8900000000000006 13.8900000000000006 13.8900000000000006 13.8900000000000006 13.8900000000000006 13.8900000000000006 13.8900000000000006 13.8900000000000006 13.8900000000000006 13.8900000000000006 13.8900000000000006 13.8900000000000006 13.8900000000000006 13.8900000000000006 13.8900000000000006 13.8900000000000006 13.8900000000000006 13.8900000000000006 13.8900000000000006 13.8900000000000006 13.8900000000000006 13.8900000000000006 13.8900000000000006 13.8900000000000006 13.8900000000000006 13.8900000000000006 13.8900000000000006 13.8900000000000006 13.8900000000000006 13.8900000000000006 13.8900000000000006 13.8900000000000006 13.8900000000000006 13.8900000000000006 13.8900000000000006 13.8900000000000006 13.8900000000000006 13.8900000000000006 13.8900000000000006 13.8900000000000006 13.8900000000000006 13.8900000000000006 13.8900000000000006 13.8900000000000006 13.8900000000000006 13.8900000000000006 13.8900000000000006 13.8900000000000006 13.8900000000000006 13.8900000000000006 13.8900000000000006 13.8900000000000006 13.8900000000000006 13.8900000000000006 13.8900000000000006 13.8900000000000006 13.8900000000000006 13.8900000000000006 13.8900000000000006 13.8900000000000006 13.8900000000000006 13.8900000000000006 13.8900000000000006 13.8900000000000006 13.8900000000000006 13.8900000000000006 13.8900000000000006 13.8900000000000006 13.8900000000000006 13.8900000000000006 13.8900000000000006 13.8900000000000006 13.8900000000000006 13.8900000000000006 13.8900000000000006 13.8900000000000006 13.8900000000000006 13.8900000000000006 13.8900000000000006 13.8900000000000006 13.8900000000000006 13.8900000000000006 13.8900000000000006 13.8900000000000006 13.8900000000000006 13.8900000000000006 13.8900000000000006 13.8900000000000006 13.8900000000000006 13.8900000000000006 13.8900000000000006 13.8900000000000006 13.8900000000000006 13.8900000000000006 13.8900000000000006 13.8900000000000006 13.8900000000000006 13.8900000000000006 13.8900000000000006 13.8900000000000006 13.8900000000000006 13.8900000000000006 13.8900000000000006 13.8900000000000006 13.8900000000000006 13.8900000000000006 13.8900000000000006 13.8900000000000006 13.8900000000000006 13.8900000000000006"/>
        <edge id="B0C0" speed="13.8827901517543228" pastSpeed="13.8900000000000006 13.8900000000000006 13.8900000000000006 13.8900000000000006 13.8900000000000006 13.8900000000000006 13.8900000000000006 13.8900000000000006 13.8900000000000006 13.8900000000000006 13.8900000000000006 13.8900000000000006 13.8900000000000006 13.8900000000000006 13.8900000000000006 13.8900000000000006 13.8900000000000006 13.8900000000000006 13.8900000000000006 13.8900000000000006 13.8900000000000006 13.8900000000000006 13.8900000000000006 13.8900000000000006 13.8900000000000006 13.6131044095176286 13.6930256701567217 13.7842923102927415 13.6606051306965774 13.7447886903564456 13.8887341372928592 14.0215424395309771 13.5893751802182763 14.0893573604085489 13.9014812572304169 13.4745620832456297 13.7244628745623878 13.9355063050779524 14.0412235168534352 13.8901659503373338 13.8900000000000006 13.8900000000000006 13.8900000000000006 13.8900000000000006 13.8900000000000006 13.8900000000000006 13.8900000000000006 13.8900000000000006 13.8900000000000006 13.8900000000000006 13.8900000000000006 13.8900000000000006 13.8900000000000006 13.8900000000000006 13.8900000000000006 13.8900000000000006 13.8900000000000006 13.8900000000000006 13.8900000000000006 13.8900000000000006 13.8900000000000006 13.8900000000000006 13.8900000000000006 13.8900000000000006 13.8900000000000006 13.8900000000000006 13.8900000000000006 13.8900000000000006 13.8900000000000006 13.8900000000000006 13.8900000000000006 13.8900000000000006 13.8900000000000006 13.8900000000000006 13.8900000000000006 13.8900000000000006 13.8900000000000006 13.8900000000000006 13.8900000000000006 13.8900000000000006 13.8900000000000006 13.8900000000000006 13.8900000000000006 13.8900000000000006 13.8900000000000006 13.8900000000000006 13.8900000000000006 13.8900000000000006 13.8900000000000006 13.8900000000000006 13.8900000000000006 13.8900000000000006 13.8900000000000006 13.8900000000000006 13.8900000000000006 13.8900000000000006 13.8900000000000006 13.8900000000000006 13.8900000000000006 13.8900000000000006 13.8900000000000006 13.8900000000000006 13.8900000000000006 13.8900000000000006 13.8900000000000006 13.8900000000000006 13.8900000000000006 13.8900000000000006 13.8900000000000006 13.8900000000000006 13.8900000000000006 13.8900000000000006 13.8900000000000006 13.8900000000000006 13.8900000000000006 13.8900000000000006 13.8900000000000006 13.8900000000000006 13.8900000000000006 13.8900000000000006 13.8900000000000006 13.8900000000000006 13.8900000000000006 13.8900000000000006 13.8900000000000006 13.8900000000000006 13.8900000000000006 13.8900000000000006 13.8900000000000006 13.8900000000000006 13.8900000000000006 13.8900000000000006 13.8900000000000006 13.8900000000000006 13.8900000000000006 13.8900000000000006 13.8900000000000006 13.8900000000000006 13.8900000000000006 13.8900000000000006 13.8900000000000006 13.8900000000000006 13.8900000000000006 13.8900000000000006 13.8900000000000006 13.8900000000000006 13.8900000000000006 13.8900000000000006 13.8900000000000006 13.8900000000000006 13.8900000000000006 13.8900000000000006 13.8900000000000006 13.8900000000000006 13.8900000000000006 13.8900000000000006 13.8900000000000006 13.8900000000000006 13.8900000000000006 13.8900000000000006 13.8900000000000006 13.8900000000000006 13.8900000000000006 13.8900000000000006 13.8900000000000006 13.8900000000000006 13.8900000000000006 13.8900000000000006 13.8900000000000006 13.8900000000000006 13.8900000000000006 13.8900000000000006 13.8900000000000006 13.8900000000000006 13.8900000000000006 13.8900000000000006 13.8900000000000006 13.8900000000000006 13.8900000000000006 13.8900000000000006"/>
    </routingEngine>
</snapshot>
