<?xml version="1.0" encoding="UTF-8"?>

<!-- generated on 2026-04-23T10:51:18.860857+01:00 by Eclipse SUMO sumo v1_26_0+1336-682400df945
<sumoConfiguration xmlns:xsi="http://www.w3.org/2001/XMLSchema-instance" xsi:noNamespaceSchemaLocation="http://sumo.dlr.de/xsd/sumoConfiguration.xsd">

    <input>
        <net-file value="net.net.xml"/>
        <load-state value="state.xml"/>
    </input>

    <output>
        <output-suffix value="2"/>
        <tripinfo-output value="tripinfo.xml"/>
        <tripinfo-output.write-unfinished value="true"/>
        <vehroute-output value="vehroutes.xml"/>
        <vehroute-output.write-unfinished value="true"/>
    </output>

    <processing>
        <default.departspeed value="0"/>
        <default.departlane value="first"/>
    </processing>

    <report>
        <duration-log.statistics value="true"/>
        <no-step-log value="true"/>
    </report>

    <taxi_device>
        <device.taxi.dispatch-algorithm.output value="dispatchinfos.xml"/>
    </taxi_device>

</sumoConfiguration>
-->

<tripinfos xmlns:xsi="http://www.w3.org/2001/XMLSchema-instance" xsi:noNamespaceSchemaLocation="http://sumo.dlr.de/xsd/tripinfo_file.xsd">
    <personinfo id="p0" depart="0.00" type="DEFAULT_PEDTYPE" speedFactor="1.01" duration="198.00" waitingTime="60.00" timeLoss="8.26" traveltime="138.00">
        <ride waitingTime="60.00" vehicle="trip_0" depart="60.00" arrival="198.00" arrivalPos="285.60" duration="138.00" routeLength="880.01" timeLoss="8.26"/>
    </personinfo>
    <personinfo id="p1" depart="10.00" type="DEFAULT_PEDTYPE" speedFactor="1.08" duration="195.00" waitingTime="59.00" timeLoss="10.04" traveltime="136.00">
        <ride waitingTime="59.00" vehicle="trip_1" depart="69.00" arrival="205.00" arrivalPos="285.60" duration="136.00" routeLength="774.81" timeLoss="10.04"/>
    </personinfo>
    <personinfo id="p2" depart="20.00" type="DEFAULT_PEDTYPE" speedFactor="1.03" duration="379.00" waitingTime="246.00" timeLoss="10.68" traveltime="133.00">
        <ride waitingTime="246.00" vehicle="trip_0" depart="266.00" arrival="399.00" arrivalPos="85.60" duration="133.00" routeLength="780.20" timeLoss="10.68"/>
    </personinfo>
    <personinfo id="p3" depart="30.00" type="DEFAULT_PEDTYPE" speedFactor="0.83" duration="416.00" waitingTime="280.00" timeLoss="10.74" traveltime="136.00">
        <ride waitingTime="280.00" vehicle="trip_1" depart="310.00" arrival="446.00" arrivalPos="85.60" duration="136.00" routeLength="765.30" timeLoss="10.74"/>
    </personinfo>
    <personinfo id="p5" depart="50.00" type="DEFAULT_PEDTYPE" speedFactor="0.89" duration="632.00" waitingTime="498.00" timeLoss="10.50" traveltime="134.00">
        <ride waitingTime="498.00" vehicle="trip_1" depart="548.00" arrival="682.00" arrivalPos="87.60" duration="134.00" routeLength="771.92" timeLoss="10.50"/>
    </personinfo>
    <personinfo id="p4" depart="40.00" type="DEFAULT_PEDTYPE" speedFactor="1.05" duration="682.00" waitingTime="488.00" timeLoss="14.24" traveltime="194.00">
        <ride waitingTime="488.00" vehicle="trip_0" depart="528.00" arrival="722.00" arrivalPos="85.60" duration="194.00" routeLength="1570.25" timeLoss="14.24"/>
    </personinfo>
    <personinfo id="p7" depart="70.00" type="DEFAULT_PEDTYPE" speedFactor="0.86" duration="873.00" waitingTime="753.00" timeLoss="9.90" traveltime="120.00">
        <ride waitingTime="753.00" vehicle="trip_0" depart="823.00" arrival="943.00" arrivalPos="85.60" duration="120.00" routeLength="570.53" timeLoss="9.90"/>
    </personinfo>
    <personinfo id="p6" depart="60.00" type="DEFAULT_PEDTYPE" speedFactor="0.94" duration="901.00" waitingTime="735.00" timeLoss="12.51" traveltime="166.00">
        <ride waitingTime="735.00" vehicle="trip_1" depart="795.00" arrival="961.00" arrivalPos="285.60" duration="166.00" routeLength="1161.17" timeLoss="12.51"/>
    </personinfo>
    <personinfo id="p8" depart="80.00" type="DEFAULT_PEDTYPE" speedFactor="1.09" duration="1017.00" waitingTime="925.00" timeLoss="5.00" traveltime="92.00">
        <ride waitingTime="925.00" vehicle="trip_0" depart="1005.00" arrival="1097.00" arrivalPos="85.60" duration="92.00" routeLength="270.90" timeLoss="5.00"/>
    </personinfo>
    <personinfo id="p9" depart="90.00" type="DEFAULT_PEDTYPE" speedFactor="1.03" duration="1177.00" waitingTime="974.00" timeLoss="18.17" traveltime="203.00">
        <ride waitingTime="974.00" vehicle="trip_1" depart="1064.00" arrival="1267.00" arrivalPos="285.60" duration="203.00" routeLength="1560.18" timeLoss="18.17"/>
    </personinfo>
    <personinfo id="p10" depart="100.00" type="DEFAULT_PEDTYPE" speedFactor="1.05" duration="1216.00" waitingTime="1075.00" timeLoss="10.04" traveltime="141.00">
        <ride waitingTime="1075.00" vehicle="trip_0" depart="1175.00" arrival="1316.00" arrivalPos="285.60" duration="141.00" routeLength="879.98" timeLoss="10.04"/>
    </personinfo>
    <personinfo id="p11" depart="110.00" type="DEFAULT_PEDTYPE" speedFactor="1.12" duration="1395.00" waitingTime="1261.00" timeLoss="10.34" traveltime="134.00">
        <ride waitingTime="1261.00" vehicle="trip_0" depart="1371.00" arrival="1505.00" arrivalPos="285.60" duration="134.00" routeLength="774.87" timeLoss="10.34"/>
    </personinfo>
    <personinfo id="p12" depart="120.00" type="DEFAULT_PEDTYPE" speedFactor="0.99" duration="1387.00" waitingTime="1252.00" timeLoss="9.82" traveltime="135.00">
        <ride waitingTime="1252.00" vehicle="trip_1" depart="1372.00" arrival="1507.00" arrivalPos="85.60" duration="135.00" routeLength="780.25" timeLoss="9.82"/>
    </personinfo>
    <personinfo id="p13" depart="130.00" type="DEFAULT_PEDTYPE" speedFactor="0.93" duration="1628.00" waitingTime="1495.00" timeLoss="10.75" traveltime="133.00">
        <ride waitingTime="1495.00" vehicle="trip_0" depart="1625.00" arrival="1758.00" arrivalPos="85.60" duration="133.00" routeLength="765.32" timeLoss="10.75"/>
    </personinfo>
    <personinfo id="p14" depart="140.00" type="DEFAULT_PEDTYPE" speedFactor="0.88" duration="1731.00" waitingTime="1532.00" timeLoss="14.32" traveltime="199.00">
        <ride waitingTime="1532.00" vehicle="trip_1" depart="1672.00" arrival="1871.00" arrivalPos="85.60" duration="199.00" routeLength="1570.22" timeLoss="14.32"/>
    </personinfo>
    <personinfo id="p15" depart="150.00" type="DEFAULT_PEDTYPE" speedFactor="0.94" duration="1850.00" waitingTime="1716.00" timeLoss="12.47" traveltime="134.00">
        <ride waitingTime="1716.00" vehicle="trip_0" depart="1866.00" arrival="2000.00" arrivalPos="87.60" duration="134.00" routeLength="771.90" timeLoss="12.47"/>
    </personinfo>
    <personinfo id="p16" depart="160.00" type="DEFAULT_PEDTYPE" speedFactor="0.94" duration="1971.00" waitingTime="1804.00" timeLoss="12.28" traveltime="167.00">
        <ride waitingTime="1804.00" vehicle="trip_1" depart="1964.00" arrival="2131.00" arrivalPos="285.60" duration="167.00" routeLength="1161.23" timeLoss="12.28"/>
    </personinfo>
    <personinfo id="p17" depart="170.00" type="DEFAULT_PEDTYPE" speedFactor="1.16" duration="2045.00" waitingTime="1925.00" timeLoss="9.85" traveltime="120.00">
        <ride waitingTime="1925.00" vehicle="trip_0" depart="2095.00" arrival="2215.00" arrivalPos="85.60" duration="120.00" routeLength="570.46" timeLoss="9.85"/>
    </personinfo>
    <personinfo id="p18" depart="180.00" type="DEFAULT_PEDTYPE" speedFactor="1.02" duration="2146.00" waitingTime="2055.00" timeLoss="3.92" traveltime="91.00">
        <ride waitingTime="2055.00" vehicle="trip_1" depart="2235.00" arrival="2326.00" arrivalPos="85.60" duration="91.00" routeLength="270.89" timeLoss="3.92"/>
    </personinfo>
    <personinfo id="p19" depart="190.00" type="DEFAULT_PEDTYPE" speedFactor="1.01" duration="2235.00" waitingTime="2040.00" timeLoss="15.98" traveltime="195.00">
        <ride waitingTime="2040.00" vehicle="trip_0" depart="2230.00" arrival="2425.00" arrivalPos="285.60" duration="195.00" routeLength="1560.18" timeLoss="15.98"/>
    </personinfo>
    <tripinfo id="trip_0" depart="0.00" departLane="A0B0_1" departPos="5.10" departSpeed="0.00" departDelay="0.00" arrival="-1.00" arrivalLane="" arrivalPos="-1.00" arrivalSpeed="-1.00" duration="2428.00" routeLength="15335.02" waitingTime="40.00" waitingCount="12" stopTime="1011.00" timeLoss="176.96" rerouteNo="23" devices="vehroute_trip_0 tripinfo_trip_0 routing_trip_0 taxi_trip_0 person_trip_0" vType="taxi" speedFactor="1.03" vaporized="">
        <taxi customers="11" occupiedDistance="9394.61" occupiedTime="907.00"/>
    </tripinfo>
    <tripinfo id="trip_1" depart="0.00" departLane="A2B2_1" departPos="5.10" departSpeed="0.00" departDelay="0.00" arrival="-1.00" arrivalLane="" arrivalPos="-1.00" arrivalSpeed="-1.00" duration="2428.00" routeLength="14781.20" waitingTime="28.00" waitingCount="11" stopTime="1041.00" timeLoss="161.57" rerouteNo="19" devices="vehroute_trip_1 tripinfo_trip_1 routing_trip_1 taxi_trip_1 person_trip_1" vType="taxi" speedFactor="0.97" vaporized="">
        <taxi customers="9" occupiedDistance="8815.97" occupiedTime="854.00"/>
    </tripinfo>
</tripinfos>
