<?xml version="1.0" encoding="UTF-8"?>

<!-- generated on 2026-04-15T14:17:08.021340+01:00 by Eclipse SUMO sumo v1_26_0+1183-aeb074971db
<sumoConfiguration xmlns:xsi="http://www.w3.org/2001/XMLSchema-instance" xsi:noNamespaceSchemaLocation="http://sumo.dlr.de/xsd/sumoConfiguration.xsd">

    <input>
        <net-file value="net.net.xml"/>
        <load-state value="state.xml"/>
    </input>

    <output>
        <output-suffix value="2"/>
        <tripinfo-output value="tripinfo.xml"/>
        <tripinfo-output.write-unfinished value="true"/>
        <vehroute-output value="vehroutes.xml"/>
        <vehroute-output.write-unfinished value="true"/>
    </output>

    <processing>
        <default.departspeed value="0"/>
        <default.departlane value="first"/>
    </processing>

    <report>
        <duration-log.statistics value="true"/>
        <no-step-log value="true"/>
    </report>

    <taxi_device>
        <device.taxi.dispatch-algorithm.output value="dispatchinfos.xml"/>
    </taxi_device>

</sumoConfiguration>
-->

<routes xmlns:xsi="http://www.w3.org/2001/XMLSchema-instance" xsi:noNamespaceSchemaLocation="http://sumo.dlr.de/xsd/routes_file.xsd">
    <person id="p0" depart="0.00" arrival="198.00">
        <ride from="C1C2" to="B0C0" arrivalPos="285.60" lines="taxi"/>
    </person>

    <person id="p1" depart="10.00" arrival="206.00">
        <ride from="B2B1" to="C2D2" arrivalPos="285.60" lines="taxi"/>
    </person>

    <person id="p3" depart="30.00" arrival="447.00">
        <ride from="B1A1" to="B2B1" arrivalPos="85.60" lines="taxi"/>
    </person>

    <person id="p4" depart="40.00" arrival="503.00">
        <ride from="A1A0" to="E2E1" arrivalPos="85.60" lines="taxi"/>
    </person>

    <person id="p2" depart="20.00" arrival="661.00">
        <ride from="C2C1" to="E1E2" arrivalPos="85.60" lines="taxi"/>
    </person>

    <person id="p5" depart="50.00" arrival="712.00">
        <ride from="D0D1" to="F1F0" arrivalPos="87.60" lines="taxi"/>
    </person>

    <person id="p7" depart="70.00" arrival="896.00">
        <ride from="D0D1" to="C0C1" arrivalPos="85.60" lines="taxi"/>
    </person>

    <person id="p6" depart="60.00" arrival="923.00">
        <ride from="D2E2" to="C2D2" arrivalPos="285.60" lines="taxi"/>
    </person>

    <person id="p8" depart="80.00" arrival="1036.00">
        <ride from="B0B1" to="B2B1" arrivalPos="85.60" lines="taxi"/>
    </person>

    <person id="p9" depart="90.00" arrival="1206.00">
        <ride from="C1B1" to="E0D0" arrivalPos="285.60" lines="taxi"/>
    </person>

    <person id="p10" depart="100.00" arrival="1257.00">
        <ride from="C1C2" to="B0C0" arrivalPos="285.60" lines="taxi"/>
    </person>

    <person id="p11" depart="110.00" arrival="1445.00">
        <ride from="B2B1" to="C2D2" arrivalPos="285.60" lines="taxi"/>
    </person>

    <person id="p12" depart="120.00" arrival="1448.00">
        <ride from="C2C1" to="E1E2" arrivalPos="85.60" lines="taxi"/>
    </person>

    <person id="p13" depart="130.00" arrival="1700.00">
        <ride from="B1A1" to="B2B1" arrivalPos="85.60" lines="taxi"/>
    </person>

    <person id="p14" depart="140.00" arrival="1812.00">
        <ride from="A1A0" to="E2E1" arrivalPos="85.60" lines="taxi"/>
    </person>

    <person id="p15" depart="150.00" arrival="1939.00">
        <ride from="D0D1" to="F1F0" arrivalPos="87.60" lines="taxi"/>
    </person>

    <person id="p16" depart="160.00" arrival="2072.00">
        <ride from="D2E2" to="C2D2" arrivalPos="285.60" lines="taxi"/>
    </person>

    <person id="p17" depart="170.00" arrival="2157.00">
        <ride from="D0D1" to="C0C1" arrivalPos="85.60" lines="taxi"/>
    </person>

    <person id="p18" depart="180.00" arrival="2269.00">
        <ride from="B0B1" to="B2B1" arrivalPos="85.60" lines="taxi"/>
    </person>

    <person id="p19" depart="190.00" arrival="2367.00">
        <ride from="C1B1" to="E0D0" arrivalPos="285.60" lines="taxi"/>
    </person>

    <vehicle id="trip_0" type="taxi" depart="0.00">
        <routeDistribution>
            <route replacedOnEdge="A0B0" reason="taxi:prepare_dispatch" replacedAtTime="0.00" probability="0" edges="A0B0 B0C0 C0C1 C1C2 C2B2 B2B1 B1B0 B0C0"/>
            <route replacedOnEdge="B0C0" replacedOnIndex="7" reason="taxi:prepare_dispatch" replacedAtTime="240.00" probability="0" edges="A0B0 B0C0 C0C1 C1C2 C2B2 B2B1 B1B0 B0C0"/>
            <route replacedOnEdge="B0C0" replacedOnIndex="7" reason="taxi:dispatch" replacedAtTime="240.00" probability="0" edges="A0B0 B0C0 C0C1 C1C2 C2B2 B2B1 B1B0 B0C0 A1A0 E2E1"/>
            <route replacedOnEdge="E2E1" replacedOnIndex="18" reason="taxi:prepare_dispatch" replacedAtTime="540.00" probability="0" edges="A0B0 B0C0 C0C1 C1C2 C2B2 B2B1 B1B0 B0C0 C0C1 C1B1 B1A1 A1A0 A0B0 B0C0 C0D0 D0D1 D1D2 D2E2 E2E1"/>
            <route replacedOnEdge="E2E1" replacedOnIndex="18" reason="taxi:dispatch" replacedAtTime="540.00" probability="0" edges="A0B0 B0C0 C0C1 C1C2 C2B2 B2B1 B1B0 B0C0 C0C1 C1B1 B1A1 A1A0 A0B0 B0C0 C0D0 D0D1 D1D2 D2E2 E2E1 D0D1 F1F0"/>
            <route replacedOnEdge="F1F0" replacedOnIndex="24" reason="taxi:prepare_dispatch" replacedAtTime="720.00" probability="0" edges="A0B0 B0C0 C0C1 C1C2 C2B2 B2B1 B1B0 B0C0 C0C1 C1B1 B1A1 A1A0 A0B0 B0C0 C0D0 D0D1 D1D2 D2E2 E2E1 E1E0 E0D0 D0D1 D1E1 E1F1 F1F0"/>
            <route replacedOnEdge="F1F0" replacedOnIndex="24" reason="taxi:dispatch" replacedAtTime="720.00" probability="0" edges="A0B0 B0C0 C0C1 C1C2 C2B2 B2B1 B1B0 B0C0 C0C1 C1B1 B1A1 A1A0 A0B0 B0C0 C0D0 D0D1 D1D2 D2E2 E2E1 E1E0 E0D0 D0D1 D1E1 E1F1 F1F0 D0D1 C0C1"/>
            <route replacedOnEdge="C0C1" replacedOnIndex="30" reason="taxi:prepare_dispatch" replacedAtTime="900.00" probability="0" edges="A0B0 B0C0 C0C1 C1C2 C2B2 B2B1 B1B0 B0C0 C0C1 C1B1 B1A1 A1A0 A0B0 B0C0 C0D0 D0D1 D1D2 D2E2 E2E1 E1E0 E0D0 D0D1 D1E1 E1F1 F1F0 F0E0 E0D0 D0D1 D1C1 C1C0 C0C1"/>
            <route replacedOnEdge="C0C1" replacedOnIndex="30" reason="taxi:dispatch" replacedAtTime="900.00" probability="0" edges="A0B0 B0C0 C0C1 C1C2 C2B2 B2B1 B1B0 B0C0 C0C1 C1B1 B1A1 A1A0 A0B0 B0C0 C0D0 D0D1 D1D2 D2E2 E2E1 E1E0 E0D0 D0D1 D1E1 E1F1 F1F0 F0E0 E0D0 D0D1 D1C1 C1C0 C0C1 B0B1 B2B1"/>
            <route replacedOnEdge="B2B1" replacedOnIndex="35" reason="taxi:prepare_dispatch" replacedAtTime="1080.00" probability="0" edges="A0B0 B0C0 C0C1 C1C2 C2B2 B2B1 B1B0 B0C0 C0C1 C1B1 B1A1 A1A0 A0B0 B0C0 C0D0 D0D1 D1D2 D2E2 E2E1 E1E0 E0D0 D0D1 D1E1 E1F1 F1F0 F0E0 E0D0 D0D1 D1C1 C1C0 C0C1 C1B1 B1B0 B0B1 B1B2 B2B1"/>
            <route replacedOnEdge="B2B1" replacedOnIndex="35" reason="taxi:dispatch" replacedAtTime="1080.00" probability="0" edges="A0B0 B0C0 C0C1 C1C2 C2B2 B2B1 B1B0 B0C0 C0C1 C1B1 B1A1 A1A0 A0B0 B0C0 C0D0 D0D1 D1D2 D2E2 E2E1 E1E0 E0D0 D0D1 D1E1 E1F1 F1F0 F0E0 E0D0 D0D1 D1C1 C1C0 C0C1 C1B1 B1B0 B0B1 B1B2 B2B1 C1C2 B0C0"/>
            <route replacedOnEdge="B0C0" replacedOnIndex="41" reason="taxi:prepare_dispatch" replacedAtTime="1260.00" probability="0" edges="A0B0 B0C0 C0C1 C1C2 C2B2 B2B1 B1B0 B0C0 C0C1 C1B1 B1A1 A1A0 A0B0 B0C0 C0D0 D0D1 D1D2 D2E2 E2E1 E1E0 E0D0 D0D1 D1E1 E1F1 F1F0 F0E0 E0D0 D0D1 D1C1 C1C0 C0C1 C1B1 B1B0 B0B1 B1B2 B2B1 B1C1 C1C2 C2B2 B2B1 B1B0 B0C0"/>
            <route replacedOnEdge="B0C0" replacedOnIndex="41" reason="taxi:dispatch" replacedAtTime="1260.00" probability="0" edges="A0B0 B0C0 C0C1 C1C2 C2B2 B2B1 B1B0 B0C0 C0C1 C1B1 B1A1 A1A0 A0B0 B0C0 C0D0 D0D1 D1D2 D2E2 E2E1 E1E0 E0D0 D0D1 D1E1 E1F1 F1F0 F0E0 E0D0 D0D1 D1C1 C1C0 C0C1 C1B1 B1B0 B0B1 B1B2 B2B1 B1C1 C1C2 C2B2 B2B1 B1B0 B0C0 B2B1 C2D2"/>
            <route replacedOnEdge="C2D2" replacedOnIndex="48" reason="taxi:prepare_dispatch" replacedAtTime="1500.00" probability="0" edges="A0B0 B0C0 C0C1 C1C2 C2B2 B2B1 B1B0 B0C0 C0C1 C1B1 B1A1 A1A0 A0B0 B0C0 C0D0 D0D1 D1D2 D2E2 E2E1 E1E0 E0D0 D0D1 D1E1 E1F1 F1F0 F0E0 E0D0 D0D1 D1C1 C1C0 C0C1 C1B1 B1B0 B0B1 B1B2 B2B1 B1C1 C1C2 C2B2 B2B1 B1B0 B0C0 C0C1 C1C2 C2B2 B2B1 B1C1 C1C2 C2D2"/>
            <route replacedOnEdge="C2D2" replacedOnIndex="48" reason="taxi:dispatch" replacedAtTime="1500.00" probability="0" edges="A0B0 B0C0 C0C1 C1C2 C2B2 B2B1 B1B0 B0C0 C0C1 C1B1 B1A1 A1A0 A0B0 B0C0 C0D0 D0D1 D1D2 D2E2 E2E1 E1E0 E0D0 D0D1 D1E1 E1F1 F1F0 F0E0 E0D0 D0D1 D1C1 C1C0 C0C1 C1B1 B1B0 B0B1 B1B2 B2B1 B1C1 C1C2 C2B2 B2B1 B1B0 B0C0 C0C1 C1C2 C2B2 B2B1 B1C1 C1C2 C2D2 B1A1 B2B1"/>
            <route replacedOnEdge="B2B1" replacedOnIndex="55" reason="taxi:prepare_dispatch" replacedAtTime="1740.00" probability="0" edges="A0B0 B0C0 C0C1 C1C2 C2B2 B2B1 B1B0 B0C0 C0C1 C1B1 B1A1 A1A0 A0B0 B0C0 C0D0 D0D1 D1D2 D2E2 E2E1 E1E0 E0D0 D0D1 D1E1 E1F1 F1F0 F0E0 E0D0 D0D1 D1C1 C1C0 C0C1 C1B1 B1B0 B0B1 B1B2 B2B1 B1C1 C1C2 C2B2 B2B1 B1B0 B0C0 C0C1 C1C2 C2B2 B2B1 B1C1 C1C2 C2D2 D2D1 D1C1 C1B1 B1A1 A1A2 A2B2 B2B1"/>
            <route replacedOnEdge="B2B1" replacedOnIndex="55" reason="taxi:dispatch" replacedAtTime="1740.00" probability="0" edges="A0B0 B0C0 C0C1 C1C2 C2B2 B2B1 B1B0 B0C0 C0C1 C1B1 B1A1 A1A0 A0B0 B0C0 C0D0 D0D1 D1D2 D2E2 E2E1 E1E0 E0D0 D0D1 D1E1 E1F1 F1F0 F0E0 E0D0 D0D1 D1C1 C1C0 C0C1 C1B1 B1B0 B0B1 B1B2 B2B1 B1C1 C1C2 C2B2 B2B1 B1B0 B0C0 C0C1 C1C2 C2B2 B2B1 B1C1 C1C2 C2D2 D2D1 D1C1 C1B1 B1A1 A1A2 A2B2 B2B1 D0D1 F1F0"/>
            <route replacedOnEdge="F1F0" replacedOnIndex="62" reason="taxi:prepare_dispatch" replacedAtTime="1980.00" probability="0" edges="A0B0 B0C0 C0C1 C1C2 C2B2 B2B1 B1B0 B0C0 C0C1 C1B1 B1A1 A1A0 A0B0 B0C0 C0D0 D0D1 D1D2 D2E2 E2E1 E1E0 E0D0 D0D1 D1E1 E1F1 F1F0 F0E0 E0D0 D0D1 D1C1 C1C0 C0C1 C1B1 B1B0 B0B1 B1B2 B2B1 B1C1 C1C2 C2B2 B2B1 B1B0 B0C0 C0C1 C1C2 C2B2 B2B1 B1C1 C1C2 C2D2 D2D1 D1C1 C1B1 B1A1 A1A2 A2B2 B2B1 B1B0 B0C0 C0D0 D0D1 D1E1 E1F1 F1F0"/>
            <route replacedOnEdge="F1F0" replacedOnIndex="62" reason="taxi:dispatch" replacedAtTime="1980.00" probability="0" edges="A0B0 B0C0 C0C1 C1C2 C2B2 B2B1 B1B0 B0C0 C0C1 C1B1 B1A1 A1A0 A0B0 B0C0 C0D0 D0D1 D1D2 D2E2 E2E1 E1E0 E0D0 D0D1 D1E1 E1F1 F1F0 F0E0 E0D0 D0D1 D1C1 C1C0 C0C1 C1B1 B1B0 B0B1 B1B2 B2B1 B1C1 C1C2 C2B2 B2B1 B1B0 B0C0 C0C1 C1C2 C2B2 B2B1 B1C1 C1C2 C2D2 D2D1 D1C1 C1B1 B1A1 A1A2 A2B2 B2B1 B1B0 B0C0 C0D0 D0D1 D1E1 E1F1 F1F0 D0D1 C0C1"/>
            <route replacedOnEdge="C0C1" replacedOnIndex="68" reason="taxi:prepare_dispatch" replacedAtTime="2160.00" probability="0" edges="A0B0 B0C0 C0C1 C1C2 C2B2 B2B1 B1B0 B0C0 C0C1 C1B1 B1A1 A1A0 A0B0 B0C0 C0D0 D0D1 D1D2 D2E2 E2E1 E1E0 E0D0 D0D1 D1E1 E1F1 F1F0 F0E0 E0D0 D0D1 D1C1 C1C0 C0C1 C1B1 B1B0 B0B1 B1B2 B2B1 B1C1 C1C2 C2B2 B2B1 B1B0 B0C0 C0C1 C1C2 C2B2 B2B1 B1C1 C1C2 C2D2 D2D1 D1C1 C1B1 B1A1 A1A2 A2B2 B2B1 B1B0 B0C0 C0D0 D0D1 D1E1 E1F1 F1F0 F0E0 E0D0 D0D1 D1C1 C1C0 C0C1"/>
            <route replacedOnEdge="C0C1" replacedOnIndex="68" reason="taxi:dispatch" replacedAtTime="2160.00" probability="0" edges="A0B0 B0C0 C0C1 C1C2 C2B2 B2B1 B1B0 B0C0 C0C1 C1B1 B1A1 A1A0 A0B0 B0C0 C0D0 D0D1 D1D2 D2E2 E2E1 E1E0 E0D0 D0D1 D1E1 E1F1 F1F0 F0E0 E0D0 D0D1 D1C1 C1C0 C0C1 C1B1 B1B0 B0B1 B1B2 B2B1 B1C1 C1C2 C2B2 B2B1 B1B0 B0C0 C0C1 C1C2 C2B2 B2B1 B1C1 C1C2 C2D2 D2D1 D1C1 C1B1 B1A1 A1A2 A2B2 B2B1 B1B0 B0C0 C0D0 D0D1 D1E1 E1F1 F1F0 F0E0 E0D0 D0D1 D1C1 C1C0 C0C1 C1B1 E0D0"/>
            <route edges="A0B0 B0C0 C0C1 C1C2 C2B2 B2B1 B1B0 B0C0 C0C1 C1B1 B1A1 A1A0 A0B0 B0C0 C0D0 D0D1 D1D2 D2E2 E2E1 E1E0 E0D0 D0D1 D1E1 E1F1 F1F0 F0E0 E0D0 D0D1 D1C1 C1C0 C0C1 C1B1 B1B0 B0B1 B1B2 B2B1 B1C1 C1C2 C2B2 B2B1 B1B0 B0C0 C0C1 C1C2 C2B2 B2B1 B1C1 C1C2 C2D2 D2D1 D1C1 C1B1 B1A1 A1A2 A2B2 B2B1 B1B0 B0C0 C0D0 D0D1 D1E1 E1F1 F1F0 F0E0 E0D0 D0D1 D1C1 C1C0 C0C1 C1B1 B1C1 C1D1 D1E1 E1E0 E0D0"/>
        </routeDistribution>
        <stop lane="C1C2_1" startPos="0.00" endPos="5.00" duration="0.00" triggered="person" parking="1" permitted="p0" actType="pickup p0 (0)"/>
        <stop lane="B0C0_1" startPos="285.60" endPos="285.60" duration="60.00" parking="1" actType="dropOff p0 (0)"/>
        <stop lane="A1A0_1" duration="0.00" triggered="person" parking="1" permitted="p4" actType="pickup p4 (4)"/>
        <stop lane="E2E1_1" duration="60.00" parking="1" actType="dropOff p4 (4)"/>
        <stop lane="D0D1_1" duration="0.00" triggered="person" parking="1" permitted="p5" actType="pickup p5 (5)"/>
        <stop lane="F1F0_1" duration="60.00" parking="1" actType="dropOff p5 (5)"/>
        <stop lane="D0D1_1" duration="0.00" triggered="person" parking="1" permitted="p7" actType="pickup p7 (7)"/>
        <stop lane="C0C1_1" duration="60.00" parking="1" actType="dropOff p7 (7)"/>
        <stop lane="B0B1_1" duration="0.00" triggered="person" parking="1" permitted="p8" actType="pickup p8 (8)"/>
        <stop lane="B2B1_1" duration="60.00" parking="1" actType="dropOff p8 (8)"/>
        <stop lane="C1C2_1" duration="0.00" triggered="person" parking="1" permitted="p10" actType="pickup p10 (10)"/>
        <stop lane="B0C0_1" duration="60.00" parking="1" actType="dropOff p10 (10)"/>
        <stop lane="B2B1_1" duration="0.00" triggered="person" parking="1" permitted="p11" actType="pickup p11 (11)"/>
        <stop lane="C2D2_1" duration="60.00" parking="1" actType="dropOff p11 (11)"/>
        <stop lane="B1A1_1" duration="0.00" triggered="person" parking="1" permitted="p13" actType="pickup p13 (13)"/>
        <stop lane="B2B1_1" duration="60.00" parking="1" actType="dropOff p13 (13)"/>
        <stop lane="D0D1_1" duration="0.00" triggered="person" parking="1" permitted="p15" actType="pickup p15 (15)"/>
        <stop lane="F1F0_1" duration="60.00" parking="1" actType="dropOff p15 (15)"/>
        <stop lane="D0D1_1" duration="0.00" triggered="person" parking="1" permitted="p17" actType="pickup p17 (17)"/>
        <stop lane="C0C1_1" duration="60.00" parking="1" actType="dropOff p17 (17)"/>
        <stop lane="C1B1_1" duration="0.00" triggered="person" parking="1" permitted="p19" actType="pickup p19 (19)"/>
        <stop lane="E0D0_1" duration="60.00" parking="1" actType="dropOff p19 (19)"/>
    </vehicle>

    <vehicle id="trip_1" type="taxi" depart="0.00">
        <routeDistribution>
            <route replacedOnEdge="A2B2" reason="taxi:prepare_dispatch" replacedAtTime="60.00" probability="0" edges="A2B2 B2C2"/>
            <route replacedOnEdge="A2B2" reason="taxi:dispatch" replacedAtTime="60.00" probability="0" edges="A2B2 B2B1 C2D2"/>
            <route replacedOnEdge="C2D2" replacedOnIndex="4" reason="taxi:prepare_dispatch" replacedAtTime="240.00" probability="0" edges="A2B2 B2B1 B1C1 C1C2 C2D2"/>
            <route replacedOnEdge="C2D2" replacedOnIndex="4" reason="taxi:dispatch" replacedAtTime="240.00" probability="0" edges="A2B2 B2B1 B1C1 C1C2 C2D2 B1A1 B2B1"/>
            <route replacedOnEdge="B2B1" replacedOnIndex="11" reason="taxi:prepare_dispatch" replacedAtTime="480.00" probability="0" edges="A2B2 B2B1 B1C1 C1C2 C2D2 D2D1 D1C1 C1B1 B1A1 A1A2 A2B2 B2B1"/>
            <route replacedOnEdge="B2B1" replacedOnIndex="11" reason="taxi:dispatch" replacedAtTime="480.00" probability="0" edges="A2B2 B2B1 B1C1 C1C2 C2D2 D2D1 D1C1 C1B1 B1A1 A1A2 A2B2 B2B1 C2C1 E1E2"/>
            <route replacedOnEdge="E1E2" replacedOnIndex="17" reason="taxi:prepare_dispatch" replacedAtTime="720.00" probability="0" edges="A2B2 B2B1 B1C1 C1C2 C2D2 D2D1 D1C1 C1B1 B1A1 A1A2 A2B2 B2B1 B1C1 C1C2 C2C1 C1D1 D1E1 E1E2"/>
            <route replacedOnEdge="E1E2" replacedOnIndex="17" reason="taxi:dispatch" replacedAtTime="720.00" probability="0" edges="A2B2 B2B1 B1C1 C1C2 C2D2 D2D1 D1C1 C1B1 B1A1 A1A2 A2B2 B2B1 B1C1 C1C2 C2C1 C1D1 D1E1 E1E2 D2E2 C2D2"/>
            <route replacedOnEdge="C2D2" replacedOnIndex="22" reason="taxi:prepare_dispatch" replacedAtTime="960.00" probability="0" edges="A2B2 B2B1 B1C1 C1C2 C2D2 D2D1 D1C1 C1B1 B1A1 A1A2 A2B2 B2B1 B1C1 C1C2 C2C1 C1D1 D1E1 E1E2 E2D2 D2E2 E2D2 D2C2 C2D2"/>
            <route replacedOnEdge="C2D2" replacedOnIndex="22" reason="taxi:dispatch" replacedAtTime="960.00" probability="0" edges="A2B2 B2B1 B1C1 C1C2 C2D2 D2D1 D1C1 C1B1 B1A1 A1A2 A2B2 B2B1 B1C1 C1C2 C2C1 C1D1 D1E1 E1E2 E2D2 D2E2 E2D2 D2C2 C2D2 C1B1 E0D0"/>
            <route replacedOnEdge="E0D0" replacedOnIndex="30" reason="taxi:prepare_dispatch" replacedAtTime="1260.00" probability="0" edges="A2B2 B2B1 B1C1 C1C2 C2D2 D2D1 D1C1 C1B1 B1A1 A1A2 A2B2 B2B1 B1C1 C1C2 C2C1 C1D1 D1E1 E1E2 E2D2 D2E2 E2D2 D2C2 C2D2 D2D1 D1C1 C1B1 B1C1 C1D1 D1E1 E1E0 E0D0"/>
            <route replacedOnEdge="E0D0" replacedOnIndex="30" reason="taxi:dispatch" replacedAtTime="1260.00" probability="0" edges="A2B2 B2B1 B1C1 C1C2 C2D2 D2D1 D1C1 C1B1 B1A1 A1A2 A2B2 B2B1 B1C1 C1C2 C2C1 C1D1 D1E1 E1E2 E2D2 D2E2 E2D2 D2C2 C2D2 D2D1 D1C1 C1B1 B1C1 C1D1 D1E1 E1E0 E0D0 C2C1 E1E2"/>
            <route replacedOnEdge="E1E2" replacedOnIndex="37" reason="taxi:prepare_dispatch" replacedAtTime="1500.00" probability="0" edges="A2B2 B2B1 B1C1 C1C2 C2D2 D2D1 D1C1 C1B1 B1A1 A1A2 A2B2 B2B1 B1C1 C1C2 C2C1 C1D1 D1E1 E1E2 E2D2 D2E2 E2D2 D2C2 C2D2 D2D1 D1C1 C1B1 B1C1 C1D1 D1E1 E1E0 E0D0 D0C0 C0C1 C1C2 C2C1 C1D1 D1E1 E1E2"/>
            <route replacedOnEdge="E1E2" replacedOnIndex="37" reason="taxi:dispatch" replacedAtTime="1500.00" probability="0" edges="A2B2 B2B1 B1C1 C1C2 C2D2 D2D1 D1C1 C1B1 B1A1 A1A2 A2B2 B2B1 B1C1 C1C2 C2C1 C1D1 D1E1 E1E2 E2D2 D2E2 E2D2 D2C2 C2D2 D2D1 D1C1 C1B1 B1C1 C1D1 D1E1 E1E0 E0D0 D0C0 C0C1 C1C2 C2C1 C1D1 D1E1 E1E2 A1A0 E2E1"/>
            <route replacedOnEdge="E2E1" replacedOnIndex="50" reason="taxi:prepare_dispatch" replacedAtTime="1860.00" probability="0" edges="A2B2 B2B1 B1C1 C1C2 C2D2 D2D1 D1C1 C1B1 B1A1 A1A2 A2B2 B2B1 B1C1 C1C2 C2C1 C1D1 D1E1 E1E2 E2D2 D2E2 E2D2 D2C2 C2D2 D2D1 D1C1 C1B1 B1C1 C1D1 D1E1 E1E0 E0D0 D0C0 C0C1 C1C2 C2C1 C1D1 D1E1 E1E2 E2D2 D2C2 C2B2 B2A2 A2A1 A1A0 A0B0 B0B1 B1B2 B2C2 C2D2 D2E2 E2E1"/>
            <route replacedOnEdge="E2E1" replacedOnIndex="50" reason="taxi:dispatch" replacedAtTime="1860.00" probability="0" edges="A2B2 B2B1 B1C1 C1C2 C2D2 D2D1 D1C1 C1B1 B1A1 A1A2 A2B2 B2B1 B1C1 C1C2 C2C1 C1D1 D1E1 E1E2 E2D2 D2E2 E2D2 D2C2 C2D2 D2D1 D1C1 C1B1 B1C1 C1D1 D1E1 E1E0 E0D0 D0C0 C0C1 C1C2 C2C1 C1D1 D1E1 E1E2 E2D2 D2C2 C2B2 B2A2 A2A1 A1A0 A0B0 B0B1 B1B2 B2C2 C2D2 D2E2 E2E1 D2E2 C2D2"/>
            <route replacedOnEdge="C2D2" replacedOnIndex="56" reason="taxi:prepare_dispatch" replacedAtTime="2100.00" probability="0" edges="A2B2 B2B1 B1C1 C1C2 C2D2 D2D1 D1C1 C1B1 B1A1 A1A2 A2B2 B2B1 B1C1 C1C2 C2C1 C1D1 D1E1 E1E2 E2D2 D2E2 E2D2 D2C2 C2D2 D2D1 D1C1 C1B1 B1C1 C1D1 D1E1 E1E0 E0D0 D0C0 C0C1 C1C2 C2C1 C1D1 D1E1 E1E2 E2D2 D2C2 C2B2 B2A2 A2A1 A1A0 A0B0 B0B1 B1B2 B2C2 C2D2 D2E2 E2E1 E1D1 D1D2 D2E2 E2D2 D2C2 C2D2"/>
            <route replacedOnEdge="C2D2" replacedOnIndex="56" reason="taxi:dispatch" replacedAtTime="2100.00" probability="0" edges="A2B2 B2B1 B1C1 C1C2 C2D2 D2D1 D1C1 C1B1 B1A1 A1A2 A2B2 B2B1 B1C1 C1C2 C2C1 C1D1 D1E1 E1E2 E2D2 D2E2 E2D2 D2C2 C2D2 D2D1 D1C1 C1B1 B1C1 C1D1 D1E1 E1E0 E0D0 D0C0 C0C1 C1C2 C2C1 C1D1 D1E1 E1E2 E2D2 D2C2 C2B2 B2A2 A2A1 A1A0 A0B0 B0B1 B1B2 B2C2 C2D2 D2E2 E2E1 E1D1 D1D2 D2E2 E2D2 D2C2 C2D2 B0B1 B2B1"/>
            <route edges="A2B2 B2B1 B1C1 C1C2 C2D2 D2D1 D1C1 C1B1 B1A1 A1A2 A2B2 B2B1 B1C1 C1C2 C2C1 C1D1 D1E1 E1E2 E2D2 D2E2 E2D2 D2C2 C2D2 D2D1 D1C1 C1B1 B1C1 C1D1 D1E1 E1E0 E0D0 D0C0 C0C1 C1C2 C2C1 C1D1 D1E1 E1E2 E2D2 D2C2 C2B2 B2A2 A2A1 A1A0 A0B0 B0B1 B1B2 B2C2 C2D2 D2E2 E2E1 E1D1 D1D2 D2E2 E2D2 D2C2 C2D2 D2D1 D1D0 D0C0 C0B0 B0B1 B1B2 B2B1"/>
        </routeDistribution>
        <stop lane="A2B2_1" startPos="287.40" endPos="287.60" started="30.00" triggered="person"/>
        <stop lane="B2B1_1" duration="0.00" triggered="person" parking="1" permitted="p1" actType="pickup p1 (1)"/>
        <stop lane="C2D2_1" duration="60.00" parking="1" actType="dropOff p1 (1)"/>
        <stop lane="B1A1_1" duration="0.00" triggered="person" parking="1" permitted="p3" actType="pickup p3 (3)"/>
        <stop lane="B2B1_1" duration="60.00" parking="1" actType="dropOff p3 (3)"/>
        <stop lane="C2C1_1" duration="0.00" triggered="person" parking="1" permitted="p2" actType="pickup p2 (2)"/>
        <stop lane="E1E2_1" duration="60.00" parking="1" actType="dropOff p2 (2)"/>
        <stop lane="D2E2_1" duration="0.00" triggered="person" parking="1" permitted="p6" actType="pickup p6 (6)"/>
        <stop lane="C2D2_1" duration="60.00" parking="1" actType="dropOff p6 (6)"/>
        <stop lane="C1B1_1" duration="0.00" triggered="person" parking="1" permitted="p9" actType="pickup p9 (9)"/>
        <stop lane="E0D0_1" duration="60.00" parking="1" actType="dropOff p9 (9)"/>
        <stop lane="C2C1_1" duration="0.00" triggered="person" parking="1" permitted="p12" actType="pickup p12 (12)"/>
        <stop lane="E1E2_1" duration="60.00" parking="1" actType="dropOff p12 (12)"/>
        <stop lane="A1A0_1" duration="0.00" triggered="person" parking="1" permitted="p14" actType="pickup p14 (14)"/>
        <stop lane="E2E1_1" duration="60.00" parking="1" actType="dropOff p14 (14)"/>
        <stop lane="D2E2_1" duration="0.00" triggered="person" parking="1" permitted="p16" actType="pickup p16 (16)"/>
        <stop lane="C2D2_1" duration="60.00" parking="1" actType="dropOff p16 (16)"/>
        <stop lane="B0B1_1" duration="0.00" triggered="person" parking="1" permitted="p18" actType="pickup p18 (18)"/>
        <stop lane="B2B1_1" duration="60.00" parking="1" actType="dropOff p18 (18)"/>
    </vehicle>

</routes>
