<?xml version="1.0" encoding="UTF-8"?>

<!-- generated on 2026-03-14T07:29:03.429853+01:00 by Eclipse SUMO sumo v1_26_0+0586-69dd46f7418
This data file and the accompanying materials
are made available under the terms of the Eclipse Public License v2.0
which accompanies this distribution, and is available at
http://www.eclipse.org/legal/epl-v20.html
This file may also be made available under the following Secondary
Licenses when the conditions for such availability set forth in the Eclipse
Public License 2.0 are satisfied: GNU General Public License, version 2
or later which is available at
https://www.gnu.org/licenses/old-licenses/gpl-2.0-standalone.html
SPDX-License-Identifier: EPL-2.0 OR GPL-2.0-or-later
<sumoConfiguration xmlns:xsi="http://www.w3.org/2001/XMLSchema-instance" xsi:noNamespaceSchemaLocation="http://sumo.dlr.de/xsd/sumoConfiguration.xsd">

    <input>
        <net-file value="net3.net.xml"/>
        <additional-files value="input_additional.add.xml,input_additional2.add.xml"/>
    </input>

    <output>
        <write-license value="true"/>
        <fcd-output value="fcd.xml"/>
        <fcd-output.attributes value="angle,pos,edge,stage"/>
    </output>

    <processing>
        <default.speeddev value="0"/>
        <pedestrian.model value="striping"/>
        <pedestrian.striping.stripe-width value="0.75"/>
        <pedestrian.striping.dawdling value="0.0"/>
    </processing>

    <report>
        <xml-validation value="never"/>
        <no-step-log value="true"/>
    </report>

</sumoConfiguration>
-->

<fcd-export xmlns:xsi="http://www.w3.org/2001/XMLSchema-instance" xsi:noNamespaceSchemaLocation="http://sumo.dlr.de/xsd/fcd_file.xsd">
    <timestep time="0.00">
        <person id="p5" angle="90.00" pos="80.15" edge="WC" stage="walking"/>
        <person id="p4" angle="90.00" pos="81.15" edge="WC" stage="walking"/>
        <person id="p3" angle="90.00" pos="82.15" edge="WC" stage="walking"/>
        <person id="p2" angle="90.00" pos="83.15" edge="WC" stage="walking"/>
        <person id="p1" angle="90.00" pos="84.15" edge="WC" stage="walking"/>
        <person id="p0" angle="90.00" pos="85.15" edge="WC" stage="walking"/>
    </timestep>
    <timestep time="1.00">
        <person id="p5" angle="0.08" pos="80.15" edge="WC" stage="walking"/>
        <person id="p4" angle="44.89" pos="81.90" edge="WC" stage="walking"/>
        <person id="p2" angle="0.08" pos="83.15" edge="WC" stage="walking"/>
        <person id="p3" angle="62.98" pos="83.25" edge="WC" stage="walking"/>
        <person id="p1" angle="90.00" pos="84.60" edge="WC" stage="walking"/>
        <person id="p0" angle="90.00" pos="85.95" edge="WC" stage="walking"/>
    </timestep>
    <timestep time="2.00">
        <person id="p0" angle="90.00" pos="0.60" edge=":C_w3" stage="walking"/>
        <person id="p5" angle="90.00" pos="81.95" edge="WC" stage="walking"/>
        <person id="p2" angle="90.00" pos="83.15" edge="WC" stage="walking"/>
        <person id="p4" angle="90.00" pos="83.30" edge="WC" stage="walking"/>
        <person id="p3" angle="82.27" pos="84.65" edge="WC" stage="walking"/>
        <person id="p1" angle="90.00" pos="85.40" edge="WC" stage="walking"/>
    </timestep>
    <timestep time="3.00">
        <person id="p1" angle="90.00" pos="0.05" edge=":C_w3" stage="walking"/>
        <person id="p0" angle="90.00" pos="1.40" edge=":C_w3" stage="walking"/>
        <person id="p2" angle="90.00" pos="83.15" edge="WC" stage="walking"/>
        <person id="p5" angle="90.00" pos="83.35" edge="WC" stage="walking"/>
        <person id="p4" angle="90.00" pos="84.70" edge="WC" stage="walking"/>
        <person id="p3" angle="90.00" pos="86.05" edge="WC" stage="walking"/>
    </timestep>
    <timestep time="4.00">
        <person id="p1" angle="90.00" pos="0.85" edge=":C_w3" stage="walking"/>
        <person id="p3" angle="90.00" pos="1.30" edge=":C_w3" stage="walking"/>
        <person id="p0" angle="116.48" pos="2.20" edge=":C_w3" stage="walking"/>
        <person id="p2" angle="90.00" pos="83.15" edge="WC" stage="walking"/>
        <person id="p5" angle="90.00" pos="84.75" edge="WC" stage="walking"/>
        <person id="p4" angle="90.00" pos="86.10" edge="WC" stage="walking"/>
    </timestep>
    <timestep time="5.00">
        <person id="p4" angle="60.19" pos="1.06" edge=":C_w3" stage="walking"/>
        <person id="p1" angle="116.48" pos="1.65" edge=":C_w3" stage="walking"/>
        <person id="p3" angle="116.48" pos="2.70" edge=":C_w3" stage="walking"/>
        <person id="p0" angle="116.48" pos="3.00" edge=":C_w3" stage="walking"/>
        <person id="p2" angle="68.20" pos="84.35" edge="WC" stage="walking"/>
        <person id="p5" angle="57.19" pos="85.86" edge="WC" stage="walking"/>
    </timestep>
    <timestep time="6.00">
        <person id="p5" angle="89.05" pos="1.51" edge=":C_w3" stage="walking"/>
        <person id="p1" angle="116.48" pos="2.45" edge=":C_w3" stage="walking"/>
        <person id="p4" angle="112.55" pos="2.66" edge=":C_w3" stage="walking"/>
        <person id="p0" angle="116.48" pos="3.80" edge=":C_w3" stage="walking"/>
        <person id="p3" angle="116.48" pos="4.10" edge=":C_w3" stage="walking"/>
        <person id="p2" angle="77.32" pos="85.55" edge="WC" stage="walking"/>
    </timestep>
    <timestep time="7.00">
        <person id="p2" angle="90.00" pos="0.60" edge=":C_w3" stage="walking"/>
        <person id="p5" angle="116.48" pos="2.91" edge=":C_w3" stage="walking"/>
        <person id="p1" angle="116.48" pos="3.25" edge=":C_w3" stage="walking"/>
        <person id="p4" angle="116.48" pos="4.26" edge=":C_w3" stage="walking"/>
        <person id="p0" angle="116.48" pos="4.60" edge=":C_w3" stage="walking"/>
        <person id="p3" angle="90.00" pos="5.50" edge=":C_w3" stage="walking"/>
    </timestep>
    <timestep time="8.00">
        <person id="p3" angle="90.00" pos="0.35" edge=":C_c2" stage="walking"/>
        <person id="p2" angle="116.48" pos="1.80" edge=":C_w3" stage="walking"/>
        <person id="p1" angle="116.48" pos="4.05" edge=":C_w3" stage="walking"/>
        <person id="p5" angle="116.48" pos="4.51" edge=":C_w3" stage="walking"/>
        <person id="p0" angle="90.00" pos="5.40" edge=":C_w3" stage="walking"/>
        <person id="p4" angle="90.00" pos="5.86" edge=":C_w3" stage="walking"/>
    </timestep>
    <timestep time="9.00">
        <person id="p4" angle="90.00" pos="0.91" edge=":C_c2" stage="walking"/>
        <person id="p3" angle="90.00" pos="1.75" edge=":C_c2" stage="walking"/>
        <person id="p2" angle="116.48" pos="3.00" edge=":C_w3" stage="walking"/>
        <person id="p1" angle="116.48" pos="4.85" edge=":C_w3" stage="walking"/>
        <person id="p5" angle="90.00" pos="6.11" edge=":C_w3" stage="walking"/>
        <person id="p0" angle="90.00" pos="6.20" edge=":C_w3" stage="walking"/>
    </timestep>
    <timestep time="10.00">
        <person id="p0" angle="90.00" pos="0.45" edge=":C_c2" stage="walking"/>
        <person id="p5" angle="90.00" pos="1.16" edge=":C_c2" stage="walking"/>
        <person id="p4" angle="90.00" pos="2.51" edge=":C_c2" stage="walking"/>
        <person id="p3" angle="90.00" pos="3.15" edge=":C_c2" stage="walking"/>
        <person id="p2" angle="116.48" pos="4.20" edge=":C_w3" stage="walking"/>
        <person id="p1" angle="90.00" pos="5.65" edge=":C_w3" stage="walking"/>
    </timestep>
    <timestep time="11.00">
        <person id="p0" angle="90.00" pos="1.25" edge=":C_c2" stage="walking"/>
        <person id="p5" angle="90.00" pos="2.76" edge=":C_c2" stage="walking"/>
        <person id="p4" angle="90.00" pos="4.11" edge=":C_c2" stage="walking"/>
        <person id="p3" angle="90.00" pos="4.55" edge=":C_c2" stage="walking"/>
        <person id="p2" angle="90.00" pos="5.40" edge=":C_w3" stage="walking"/>
        <person id="p1" angle="90.00" pos="6.45" edge=":C_w3" stage="walking"/>
    </timestep>
    <timestep time="12.00">
        <person id="p2" angle="90.00" pos="0.05" edge=":C_c2" stage="walking"/>
        <person id="p1" angle="90.00" pos="0.70" edge=":C_c2" stage="walking"/>
        <person id="p0" angle="90.00" pos="2.05" edge=":C_c2" stage="walking"/>
        <person id="p5" angle="90.00" pos="4.36" edge=":C_c2" stage="walking"/>
        <person id="p4" angle="90.00" pos="5.71" edge=":C_c2" stage="walking"/>
        <person id="p3" angle="90.00" pos="5.95" edge=":C_c2" stage="walking"/>
    </timestep>
    <timestep time="13.00">
        <person id="p2" angle="90.00" pos="1.25" edge=":C_c2" stage="walking"/>
        <person id="p1" angle="90.00" pos="1.50" edge=":C_c2" stage="walking"/>
        <person id="p0" angle="90.00" pos="2.85" edge=":C_c2" stage="walking"/>
        <person id="p5" angle="90.00" pos="5.96" edge=":C_c2" stage="walking"/>
        <person id="p4" angle="90.00" pos="7.31" edge=":C_c2" stage="walking"/>
        <person id="p3" angle="90.00" pos="7.35" edge=":C_c2" stage="walking"/>
        <person id="p15" angle="0.00" pos="70.40" edge="SC" stage="walking"/>
        <person id="p14" angle="0.00" pos="71.40" edge="SC" stage="walking"/>
        <person id="p13" angle="0.00" pos="72.40" edge="SC" stage="walking"/>
        <person id="p12" angle="0.00" pos="73.40" edge="SC" stage="walking"/>
        <person id="p11" angle="0.00" pos="74.40" edge="SC" stage="walking"/>
        <person id="p10" angle="0.00" pos="75.40" edge="SC" stage="walking"/>
    </timestep>
    <timestep time="14.00">
        <person id="p1" angle="90.00" pos="2.30" edge=":C_c2" stage="walking"/>
        <person id="p2" angle="90.00" pos="2.45" edge=":C_c2" stage="walking"/>
        <person id="p0" angle="90.00" pos="3.65" edge=":C_c2" stage="walking"/>
        <person id="p5" angle="90.00" pos="7.56" edge=":C_c2" stage="walking"/>
        <person id="p3" angle="90.00" pos="8.75" edge=":C_c2" stage="walking"/>
        <person id="p4" angle="90.00" pos="8.91" edge=":C_c2" stage="walking"/>
        <person id="p15" angle="270.08" pos="70.40" edge="SC" stage="walking"/>
        <person id="p14" angle="314.89" pos="72.15" edge="SC" stage="walking"/>
        <person id="p12" angle="270.08" pos="73.40" edge="SC" stage="walking"/>
        <person id="p13" angle="332.98" pos="73.50" edge="SC" stage="walking"/>
        <person id="p11" angle="0.00" pos="74.85" edge="SC" stage="walking"/>
        <person id="p10" angle="0.00" pos="76.20" edge="SC" stage="walking"/>
    </timestep>
    <timestep time="15.00">
        <person id="p1" angle="90.00" pos="3.10" edge=":C_c2" stage="walking"/>
        <person id="p2" angle="90.00" pos="3.65" edge=":C_c2" stage="walking"/>
        <person id="p0" angle="90.00" pos="4.45" edge=":C_c2" stage="walking"/>
        <person id="p5" angle="90.00" pos="9.16" edge=":C_c2" stage="walking"/>
        <person id="p3" angle="90.00" pos="10.15" edge=":C_c2" stage="walking"/>
        <person id="p4" angle="90.00" pos="10.51" edge=":C_c2" stage="walking"/>
        <person id="p15" angle="0.00" pos="72.20" edge="SC" stage="walking"/>
        <person id="p12" angle="0.00" pos="73.40" edge="SC" stage="walking"/>
        <person id="p14" angle="0.00" pos="73.55" edge="SC" stage="walking"/>
        <person id="p13" angle="352.27" pos="74.90" edge="SC" stage="walking"/>
        <person id="p11" angle="0.00" pos="75.65" edge="SC" stage="walking"/>
        <person id="p10" angle="0.00" pos="77.00" edge="SC" stage="walking"/>
    </timestep>
    <timestep time="16.00">
        <person id="p1" angle="90.00" pos="3.90" edge=":C_c2" stage="walking"/>
        <person id="p2" angle="90.00" pos="4.85" edge=":C_c2" stage="walking"/>
        <person id="p0" angle="90.00" pos="5.25" edge=":C_c2" stage="walking"/>
        <person id="p5" angle="90.00" pos="10.76" edge=":C_c2" stage="walking"/>
        <person id="p3" angle="90.00" pos="11.55" edge=":C_c2" stage="walking"/>
        <person id="p4" angle="90.00" pos="12.11" edge=":C_c2" stage="walking"/>
        <person id="p12" angle="0.00" pos="73.40" edge="SC" stage="walking"/>
        <person id="p15" angle="0.00" pos="73.60" edge="SC" stage="walking"/>
        <person id="p14" angle="0.00" pos="74.95" edge="SC" stage="walking"/>
        <person id="p13" angle="0.00" pos="76.30" edge="SC" stage="walking"/>
        <person id="p11" angle="0.00" pos="76.45" edge="SC" stage="walking"/>
        <person id="p10" angle="0.00" pos="77.80" edge="SC" stage="walking"/>
    </timestep>
    <timestep time="17.00">
        <person id="p1" angle="90.00" pos="4.70" edge=":C_c2" stage="walking"/>
        <person id="p0" angle="90.00" pos="6.05" edge=":C_c2" stage="walking"/>
        <person id="p2" angle="90.00" pos="6.05" edge=":C_c2" stage="walking"/>
        <person id="p5" angle="90.00" pos="12.36" edge=":C_c2" stage="walking"/>
        <person id="p3" angle="90.00" pos="12.95" edge=":C_c2" stage="walking"/>
        <person id="p4" angle="90.00" pos="13.71" edge=":C_c2" stage="walking"/>
        <person id="p12" angle="0.00" pos="73.40" edge="SC" stage="walking"/>
        <person id="p15" angle="0.00" pos="75.00" edge="SC" stage="walking"/>
        <person id="p14" angle="0.00" pos="76.35" edge="SC" stage="walking"/>
        <person id="p11" angle="0.00" pos="77.25" edge="SC" stage="walking"/>
        <person id="p13" angle="0.00" pos="77.70" edge="SC" stage="walking"/>
        <person id="p10" angle="0.00" pos="78.60" edge="SC" stage="walking"/>
    </timestep>
    <timestep time="18.00">
        <person id="p1" angle="90.00" pos="5.50" edge=":C_c2" stage="walking"/>
        <person id="p0" angle="90.00" pos="6.85" edge=":C_c2" stage="walking"/>
        <person id="p2" angle="90.00" pos="7.25" edge=":C_c2" stage="walking"/>
        <person id="p5" angle="90.00" pos="13.96" edge=":C_c2" stage="walking"/>
        <person id="p3" angle="90.00" pos="14.35" edge=":C_c2" stage="walking"/>
        <person id="p4" angle="90.00" pos="0.01" edge=":C_w2" stage="walking"/>
        <person id="p12" angle="0.00" pos="74.60" edge="SC" stage="walking"/>
        <person id="p15" angle="0.00" pos="76.40" edge="SC" stage="walking"/>
        <person id="p14" angle="0.00" pos="77.75" edge="SC" stage="walking"/>
        <person id="p11" angle="0.00" pos="78.05" edge="SC" stage="walking"/>
        <person id="p13" angle="0.00" pos="79.10" edge="SC" stage="walking"/>
        <person id="p10" angle="0.00" pos="79.40" edge="SC" stage="walking"/>
    </timestep>
    <timestep time="19.00">
        <person id="p1" angle="90.00" pos="6.30" edge=":C_c2" stage="walking"/>
        <person id="p0" angle="90.00" pos="7.65" edge=":C_c2" stage="walking"/>
        <person id="p2" angle="90.00" pos="8.45" edge=":C_c2" stage="walking"/>
        <person id="p5" angle="179.92" pos="13.96" edge=":C_c2" stage="walking"/>
        <person id="p3" angle="90.00" pos="0.45" edge=":C_w2" stage="walking"/>
        <person id="p4" angle="97.99" pos="1.61" edge=":C_w2" stage="walking"/>
        <person id="p12" angle="0.00" pos="75.80" edge="SC" stage="walking"/>
        <person id="p15" angle="0.00" pos="77.80" edge="SC" stage="walking"/>
        <person id="p11" angle="0.00" pos="78.85" edge="SC" stage="walking"/>
        <person id="p14" angle="0.00" pos="79.15" edge="SC" stage="walking"/>
        <person id="p10" angle="0.00" pos="80.20" edge="SC" stage="walking"/>
        <person id="p13" angle="0.00" pos="80.50" edge="SC" stage="walking"/>
    </timestep>
    <timestep time="20.00">
        <person id="p1" angle="90.00" pos="7.10" edge=":C_c2" stage="walking"/>
        <person id="p0" angle="90.00" pos="8.45" edge=":C_c2" stage="walking"/>
        <person id="p2" angle="90.00" pos="9.65" edge=":C_c2" stage="walking"/>
        <person id="p5" angle="30.06" pos="14.39" edge=":C_c2" stage="walking"/>
        <person id="p3" angle="119.79" pos="1.85" edge=":C_w2" stage="walking"/>
        <person id="p4" angle="115.86" pos="3.21" edge=":C_w2" stage="walking"/>
        <person id="p12" angle="0.00" pos="77.00" edge="SC" stage="walking"/>
        <person id="p15" angle="0.00" pos="79.20" edge="SC" stage="walking"/>
        <person id="p11" angle="0.00" pos="79.65" edge="SC" stage="walking"/>
        <person id="p14" angle="0.00" pos="80.55" edge="SC" stage="walking"/>
        <person id="p10" angle="0.00" pos="81.00" edge="SC" stage="walking"/>
        <person id="p13" angle="0.00" pos="81.90" edge="SC" stage="walking"/>
    </timestep>
    <timestep time="21.00">
        <person id="p1" angle="90.00" pos="7.90" edge=":C_c2" stage="walking"/>
        <person id="p0" angle="90.00" pos="9.25" edge=":C_c2" stage="walking"/>
        <person id="p2" angle="90.00" pos="10.85" edge=":C_c2" stage="walking"/>
        <person id="p5" angle="90.00" pos="0.89" edge=":C_w2" stage="walking"/>
        <person id="p3" angle="119.79" pos="3.25" edge=":C_w2" stage="walking"/>
        <person id="p12" angle="21.80" pos="78.20" edge="SC" stage="walking"/>
        <person id="p15" angle="329.17" pos="80.40" edge="SC" stage="walking"/>
        <person id="p11" angle="0.00" pos="80.45" edge="SC" stage="walking"/>
        <person id="p14" angle="332.05" pos="81.75" edge="SC" stage="walking"/>
        <person id="p10" angle="0.00" pos="81.80" edge="SC" stage="walking"/>
        <person id="p13" angle="335.10" pos="83.10" edge="SC" stage="walking"/>
        <person id="p4" angle="158.20" pos="85.11" edge="SC" stage="walking"/>
    </timestep>
    <timestep time="22.00">
        <person id="p1" angle="90.00" pos="8.70" edge=":C_c2" stage="walking"/>
        <person id="p0" angle="90.00" pos="10.05" edge=":C_c2" stage="walking"/>
        <person id="p2" angle="90.00" pos="12.05" edge=":C_c2" stage="walking"/>
        <person id="p5" angle="119.79" pos="2.69" edge=":C_w2" stage="walking"/>
        <person id="p12" angle="12.68" pos="79.40" edge="SC" stage="walking"/>
        <person id="p11" angle="0.00" pos="81.25" edge="SC" stage="walking"/>
        <person id="p15" angle="358.77" pos="81.80" edge="SC" stage="walking"/>
        <person id="p10" angle="0.00" pos="82.60" edge="SC" stage="walking"/>
        <person id="p14" angle="355.51" pos="83.15" edge="SC" stage="walking"/>
        <person id="p4" angle="183.93" pos="83.51" edge="SC" stage="walking"/>
        <person id="p13" angle="352.27" pos="84.50" edge="SC" stage="walking"/>
        <person id="p3" angle="158.20" pos="85.27" edge="SC" stage="walking"/>
    </timestep>
    <timestep time="23.00">
        <person id="p1" angle="90.00" pos="9.50" edge=":C_c2" stage="walking"/>
        <person id="p0" angle="90.00" pos="10.85" edge=":C_c2" stage="walking"/>
        <person id="p2" angle="90.00" pos="13.25" edge=":C_c2" stage="walking"/>
        <person id="p13" angle="0.00" pos="0.50" edge=":C_w2" stage="walking"/>
        <person id="p5" angle="180.00" pos="4.49" edge=":C_w2" stage="walking"/>
        <person id="p12" angle="0.00" pos="80.60" edge="SC" stage="walking"/>
        <person id="p4" angle="180.00" pos="81.91" edge="SC" stage="walking"/>
        <person id="p11" angle="0.00" pos="82.05" edge="SC" stage="walking"/>
        <person id="p15" angle="0.00" pos="83.20" edge="SC" stage="walking"/>
        <person id="p10" angle="0.00" pos="83.40" edge="SC" stage="walking"/>
        <person id="p3" angle="187.73" pos="83.87" edge="SC" stage="walking"/>
        <person id="p14" angle="0.00" pos="84.55" edge="SC" stage="walking"/>
    </timestep>
    <timestep time="24.00">
        <person id="p1" angle="90.00" pos="10.30" edge=":C_c2" stage="walking"/>
        <person id="p0" angle="90.00" pos="11.65" edge=":C_c2" stage="walking"/>
        <person id="p2" angle="90.00" pos="14.45" edge=":C_c2" stage="walking"/>
        <person id="p14" angle="23.44" pos="0.63" edge=":C_w2" stage="walking"/>
        <person id="p13" angle="12.25" pos="1.90" edge=":C_w2" stage="walking"/>
        <person id="p4" angle="180.00" pos="80.31" edge="SC" stage="walking"/>
        <person id="p12" angle="0.00" pos="81.50" edge="SC" stage="walking"/>
        <person id="p3" angle="180.00" pos="82.47" edge="SC" stage="walking"/>
        <person id="p11" angle="0.00" pos="82.85" edge="SC" stage="walking"/>
        <person id="p5" angle="180.00" pos="83.62" edge="SC" stage="walking"/>
        <person id="p10" angle="0.00" pos="84.20" edge="SC" stage="walking"/>
        <person id="p15" angle="0.00" pos="85.00" edge="SC" stage="walking"/>
    </timestep>
    <timestep time="25.00">
        <person id="p1" angle="90.00" pos="11.10" edge=":C_c2" stage="walking"/>
        <person id="p0" angle="90.00" pos="12.45" edge=":C_c2" stage="walking"/>
        <person id="p2" angle="90.00" pos="0.35" edge=":C_w2" stage="walking"/>
        <person id="p15" angle="338.20" pos="1.40" edge=":C_w2" stage="walking"/>
        <person id="p14" angle="16.18" pos="2.23" edge=":C_w2" stage="walking"/>
        <person id="p13" angle="12.25" pos="3.30" edge=":C_w2" stage="walking"/>
        <person id="p4" angle="180.00" pos="78.71" edge="SC" stage="walking"/>
        <person id="p3" angle="180.00" pos="81.07" edge="SC" stage="walking"/>
        <person id="p5" angle="180.00" pos="81.82" edge="SC" stage="walking"/>
        <person id="p12" angle="0.00" pos="82.30" edge="SC" stage="walking"/>
        <person id="p11" angle="0.00" pos="83.65" edge="SC" stage="walking"/>
        <person id="p10" angle="0.00" pos="85.00" edge="SC" stage="walking"/>
    </timestep>
    <timestep time="26.00">
        <person id="p1" angle="90.00" pos="11.90" edge=":C_c2" stage="walking"/>
        <person id="p0" angle="90.00" pos="13.25" edge=":C_c2" stage="walking"/>
        <person id="p10" angle="0.00" pos="0.40" edge=":C_w2" stage="walking"/>
        <person id="p2" angle="119.79" pos="1.55" edge=":C_w2" stage="walking"/>
        <person id="p15" angle="11.29" pos="3.20" edge=":C_w2" stage="walking"/>
        <person id="p14" angle="342.59" pos="3.35" edge=":C_w2" stage="walking"/>
        <person id="p13" angle="12.25" pos="4.70" edge=":C_w2" stage="walking"/>
        <person id="p4" angle="180.00" pos="77.11" edge="SC" stage="walking"/>
        <person id="p3" angle="180.00" pos="79.67" edge="SC" stage="walking"/>
        <person id="p5" angle="180.00" pos="80.02" edge="SC" stage="walking"/>
        <person id="p12" angle="0.00" pos="83.10" edge="SC" stage="walking"/>
        <person id="p11" angle="0.00" pos="84.45" edge="SC" stage="walking"/>
    </timestep>
    <timestep time="27.00">
        <person id="p1" angle="90.00" pos="12.70" edge=":C_c2" stage="walking"/>
        <person id="p0" angle="90.00" pos="14.05" edge=":C_c2" stage="walking"/>
        <person id="p10" angle="0.00" pos="1.20" edge=":C_w2" stage="walking"/>
        <person id="p2" angle="119.79" pos="2.75" edge=":C_w2" stage="walking"/>
        <person id="p15" angle="87.32" pos="3.40" edge=":C_w2" stage="walking"/>
        <person id="p14" angle="7.76" pos="4.75" edge=":C_w2" stage="walking"/>
        <person id="p13" angle="0.00" pos="6.10" edge=":C_w2" stage="walking"/>
        <person id="p4" angle="180.00" pos="75.51" edge="SC" stage="walking"/>
        <person id="p5" angle="180.00" pos="78.22" edge="SC" stage="walking"/>
        <person id="p3" angle="180.00" pos="78.27" edge="SC" stage="walking"/>
        <person id="p12" angle="0.00" pos="83.90" edge="SC" stage="walking"/>
        <person id="p11" angle="333.43" pos="85.25" edge="SC" stage="walking"/>
    </timestep>
    <timestep time="28.00">
        <person id="p1" angle="90.00" pos="13.50" edge=":C_c2" stage="walking"/>
        <person id="p0" angle="90.00" pos="14.85" edge=":C_c2" stage="walking"/>
        <person id="p11" angle="327.79" pos="0.40" edge=":C_w2" stage="walking"/>
        <person id="p10" angle="12.25" pos="2.00" edge=":C_w2" stage="walking"/>
        <person id="p2" angle="209.71" pos="2.75" edge=":C_w2" stage="walking"/>
        <person id="p15" angle="12.25" pos="4.33" edge=":C_w2" stage="walking"/>
        <person id="p14" angle="0.00" pos="5.68" edge=":C_w2" stage="walking"/>
        <person id="p13" angle="0.00" pos="7.03" edge=":C_w2" stage="walking"/>
        <person id="p4" angle="180.00" pos="73.91" edge="SC" stage="walking"/>
        <person id="p5" angle="180.00" pos="76.42" edge="SC" stage="walking"/>
        <person id="p3" angle="180.00" pos="76.87" edge="SC" stage="walking"/>
        <person id="p12" angle="310.77" pos="84.45" edge="SC" stage="walking"/>
    </timestep>
    <timestep time="29.00">
        <person id="p1" angle="90.00" pos="14.30" edge=":C_c2" stage="walking"/>
        <person id="p0" angle="68.20" pos="0.35" edge=":C_w2" stage="walking"/>
        <person id="p11" angle="0.00" pos="1.40" edge=":C_w2" stage="walking"/>
        <person id="p10" angle="12.25" pos="2.80" edge=":C_w2" stage="walking"/>
        <person id="p2" angle="180.00" pos="3.95" edge=":C_w2" stage="walking"/>
        <person id="p14" angle="270.08" pos="5.68" edge=":C_w2" stage="walking"/>
        <person id="p15" angle="28.05" pos="5.68" edge=":C_w2" stage="walking"/>
        <person id="p13" angle="0.00" pos="7.03" edge=":C_w2" stage="walking"/>
        <person id="p4" angle="180.00" pos="72.31" edge="SC" stage="walking"/>
        <person id="p5" angle="180.00" pos="74.62" edge="SC" stage="walking"/>
        <person id="p3" angle="180.00" pos="75.47" edge="SC" stage="walking"/>
        <person id="p12" angle="282.39" pos="84.62" edge="SC" stage="walking"/>
    </timestep>
    <timestep time="30.00">
        <person id="p1" angle="0.08" pos="14.30" edge=":C_c2" stage="walking"/>
        <person id="p12" angle="354.97" pos="0.42" edge=":C_w2" stage="walking"/>
        <person id="p0" angle="141.59" pos="1.15" edge=":C_w2" stage="walking"/>
        <person id="p11" angle="12.25" pos="2.40" edge=":C_w2" stage="walking"/>
        <person id="p10" angle="12.25" pos="3.60" edge=":C_w2" stage="walking"/>
        <person id="p2" angle="269.92" pos="3.95" edge=":C_w2" stage="walking"/>
        <person id="p15" angle="270.08" pos="5.68" edge=":C_w2" stage="walking"/>
        <person id="p13" angle="0.00" pos="7.03" edge=":C_w2" stage="walking"/>
        <person id="p14" angle="0.00" pos="7.03" edge=":C_w2" stage="walking"/>
        <person id="p4" angle="180.00" pos="70.71" edge="SC" stage="walking"/>
        <person id="p5" angle="180.00" pos="72.82" edge="SC" stage="walking"/>
        <person id="p3" angle="180.00" pos="74.07" edge="SC" stage="walking"/>
    </timestep>
    <timestep time="31.00">
        <person id="p1" angle="68.20" pos="15.30" edge=":C_c2" stage="walking"/>
        <person id="p12" angle="0.00" pos="1.62" edge=":C_w2" stage="walking"/>
        <person id="p0" angle="119.79" pos="1.95" edge=":C_w2" stage="walking"/>
        <person id="p11" angle="44.08" pos="3.05" edge=":C_w2" stage="walking"/>
        <person id="p10" angle="12.25" pos="4.40" edge=":C_w2" stage="walking"/>
        <person id="p15" angle="89.92" pos="5.68" edge=":C_w2" stage="walking"/>
        <person id="p13" angle="0.00" pos="7.03" edge=":C_w2" stage="walking"/>
        <person id="p14" angle="0.00" pos="7.03" edge=":C_w2" stage="walking"/>
        <person id="p4" angle="180.00" pos="69.11" edge="SC" stage="walking"/>
        <person id="p5" angle="180.00" pos="71.02" edge="SC" stage="walking"/>
        <person id="p3" angle="180.00" pos="72.67" edge="SC" stage="walking"/>
        <person id="p2" angle="180.00" pos="84.77" edge="SC" stage="walking"/>
    </timestep>
    <timestep time="32.00">
        <person id="p1" angle="97.99" pos="1.00" edge=":C_w2" stage="walking"/>
        <person id="p0" angle="119.79" pos="2.75" edge=":C_w2" stage="walking"/>
        <person id="p12" angle="12.25" pos="2.82" edge=":C_w2" stage="walking"/>
        <person id="p11" angle="35.88" pos="3.85" edge=":C_w2" stage="walking"/>
        <person id="p10" angle="12.25" pos="5.20" edge=":C_w2" stage="walking"/>
        <person id="p13" angle="0.00" pos="7.03" edge=":C_w2" stage="walking"/>
        <person id="p14" angle="0.00" pos="7.03" edge=":C_w2" stage="walking"/>
        <person id="p15" angle="1.27" pos="7.03" edge=":C_w2" stage="walking"/>
        <person id="p4" angle="180.00" pos="67.51" edge="SC" stage="walking"/>
        <person id="p5" angle="180.00" pos="69.22" edge="SC" stage="walking"/>
        <person id="p3" angle="180.00" pos="71.27" edge="SC" stage="walking"/>
        <person id="p2" angle="180.00" pos="83.57" edge="SC" stage="walking"/>
    </timestep>
    <timestep time="33.00">
        <person id="p1" angle="122.65" pos="2.00" edge=":C_w2" stage="walking"/>
        <person id="p0" angle="180.00" pos="3.55" edge=":C_w2" stage="walking"/>
        <person id="p12" angle="12.25" pos="4.02" edge=":C_w2" stage="walking"/>
        <person id="p11" angle="12.25" pos="4.65" edge=":C_w2" stage="walking"/>
        <person id="p10" angle="0.00" pos="6.00" edge=":C_w2" stage="walking"/>
        <person id="p13" angle="0.00" pos="7.03" edge=":C_w2" stage="walking"/>
        <person id="p14" angle="0.00" pos="7.03" edge=":C_w2" stage="walking"/>
        <person id="p15" angle="0.00" pos="7.03" edge=":C_w2" stage="walking"/>
        <person id="p4" angle="180.00" pos="65.91" edge="SC" stage="walking"/>
        <person id="p5" angle="180.00" pos="67.42" edge="SC" stage="walking"/>
        <person id="p3" angle="180.00" pos="69.87" edge="SC" stage="walking"/>
        <person id="p2" angle="180.00" pos="82.37" edge="SC" stage="walking"/>
    </timestep>
    <timestep time="34.00">
        <person id="p1" angle="119.79" pos="3.00" edge=":C_w2" stage="walking"/>
        <person id="p0" angle="180.00" pos="4.35" edge=":C_w2" stage="walking"/>
        <person id="p12" angle="12.25" pos="5.22" edge=":C_w2" stage="walking"/>
        <person id="p11" angle="0.00" pos="5.45" edge=":C_w2" stage="walking"/>
        <person id="p10" angle="0.00" pos="6.80" edge=":C_w2" stage="walking"/>
        <person id="p13" angle="0.00" pos="7.03" edge=":C_w2" stage="walking"/>