<?xml version="1.0" encoding="UTF-8"?>

<!-- generated on Mon Jan  6 13:01:55 2020 by Eclipse SUMO Version v1_4_0+0325-04f0045
This data file and the accompanying materials
are made available under the terms of the Eclipse Public License v2.0
which accompanies this distribution, and is available at
http://www.eclipse.org/legal/epl-v20.html
SPDX-License-Identifier: EPL-2.0
<configuration xmlns:xsi="http://www.w3.org/2001/XMLSchema-instance" xsi:noNamespaceSchemaLocation="http://sumo.dlr.de/xsd/sumoConfiguration.xsd">

    <input>
        <net-file value="net3.net.xml"/>
        <additional-files value="input_additional.add.xml,input_additional2.add.xml"/>
    </input>

    <output>
        <write-license value="true"/>
        <netstate-dump value="rawdump.xml"/>
    </output>

    <processing>
        <default.speeddev value="0"/>
        <pedestrian.model value="striping"/>
        <pedestrian.striping.stripe-width value="0.75"/>
        <pedestrian.striping.dawdling value="0"/>
    </processing>

    <report>
        <xml-validation value="never"/>
        <no-step-log value="true"/>
    </report>

</configuration>
-->

<netstate xmlns:xsi="http://www.w3.org/2001/XMLSchema-instance" xsi:noNamespaceSchemaLocation="http://sumo.dlr.de/xsd/netstate_file.xsd">
    <timestep time="0.00">
        <edge id="WC">
            <person id="p5" pos="80.15" angle="90.00" stage="walking"/>
            <person id="p4" pos="81.15" angle="90.00" stage="walking"/>
            <person id="p3" pos="82.15" angle="90.00" stage="walking"/>
            <person id="p2" pos="83.15" angle="90.00" stage="walking"/>
            <person id="p1" pos="84.15" angle="90.00" stage="walking"/>
            <person id="p0" pos="85.15" angle="90.00" stage="walking"/>
        </edge>
    </timestep>
    <timestep time="1.00">
        <edge id="WC">
            <person id="p5" pos="80.15" angle="90.00" stage="walking"/>
            <person id="p4" pos="81.90" angle="90.00" stage="walking"/>
            <person id="p2" pos="83.15" angle="90.00" stage="walking"/>
            <person id="p3" pos="83.25" angle="90.00" stage="walking"/>
            <person id="p1" pos="84.60" angle="90.00" stage="walking"/>
            <person id="p0" pos="85.95" angle="90.00" stage="walking"/>
        </edge>
    </timestep>
    <timestep time="2.00">
        <edge id=":C_w3">
            <person id="p0" pos="0.60" angle="90.00" stage="walking"/>
        </edge>
        <edge id="WC">
            <person id="p5" pos="81.95" angle="90.00" stage="walking"/>
            <person id="p2" pos="83.15" angle="90.00" stage="walking"/>
            <person id="p4" pos="83.30" angle="90.00" stage="walking"/>
            <person id="p3" pos="84.65" angle="90.00" stage="walking"/>
            <person id="p1" pos="85.40" angle="90.00" stage="walking"/>
        </edge>
    </timestep>
    <timestep time="3.00">
        <edge id=":C_w3">
            <person id="p1" pos="0.05" angle="90.00" stage="walking"/>
            <person id="p0" pos="1.40" angle="90.00" stage="walking"/>
        </edge>
        <edge id="WC">
            <person id="p2" pos="83.15" angle="90.00" stage="walking"/>
            <person id="p5" pos="83.35" angle="90.00" stage="walking"/>
            <person id="p4" pos="84.70" angle="90.00" stage="walking"/>
            <person id="p3" pos="86.05" angle="90.00" stage="walking"/>
        </edge>
    </timestep>
    <timestep time="4.00">
        <edge id=":C_w3">
            <person id="p1" pos="0.85" angle="90.00" stage="walking"/>
            <person id="p3" pos="1.30" angle="90.00" stage="walking"/>
            <person id="p0" pos="2.20" angle="116.48" stage="walking"/>
        </edge>
        <edge id="WC">
            <person id="p2" pos="83.15" angle="90.00" stage="walking"/>
            <person id="p5" pos="84.75" angle="90.00" stage="walking"/>
            <person id="p4" pos="86.10" angle="90.00" stage="walking"/>
        </edge>
    </timestep>
    <timestep time="5.00">
        <edge id=":C_w3">
            <person id="p4" pos="1.06" angle="90.00" stage="walking"/>
            <person id="p1" pos="1.65" angle="116.48" stage="walking"/>
            <person id="p3" pos="2.70" angle="116.48" stage="walking"/>
            <person id="p0" pos="3.00" angle="116.48" stage="walking"/>
        </edge>
        <edge id="WC">
            <person id="p2" pos="84.35" angle="90.00" stage="walking"/>
            <person id="p5" pos="85.86" angle="90.00" stage="walking"/>
        </edge>
    </timestep>
    <timestep time="6.00">
        <edge id=":C_w3">
            <person id="p5" pos="1.51" angle="90.00" stage="walking"/>
            <person id="p1" pos="2.45" angle="116.48" stage="walking"/>
            <person id="p4" pos="2.66" angle="116.48" stage="walking"/>
            <person id="p0" pos="3.80" angle="116.48" stage="walking"/>
            <person id="p3" pos="4.10" angle="116.48" stage="walking"/>
        </edge>
        <edge id="WC">
            <person id="p2" pos="85.55" angle="90.00" stage="walking"/>
        </edge>
    </timestep>
    <timestep time="7.00">
        <edge id=":C_w3">
            <person id="p2" pos="0.60" angle="90.00" stage="walking"/>
            <person id="p5" pos="2.91" angle="116.48" stage="walking"/>
            <person id="p1" pos="3.25" angle="116.48" stage="walking"/>
            <person id="p4" pos="4.26" angle="116.48" stage="walking"/>
            <person id="p0" pos="4.60" angle="116.48" stage="walking"/>
            <person id="p3" pos="5.50" angle="90.00" stage="walking"/>
        </edge>
    </timestep>
    <timestep time="8.00">
        <edge id=":C_c2">
            <person id="p3" pos="0.35" angle="90.00" stage="walking"/>
        </edge>
        <edge id=":C_w3">
            <person id="p2" pos="1.80" angle="116.48" stage="walking"/>
            <person id="p1" pos="4.05" angle="116.48" stage="walking"/>
            <person id="p5" pos="4.51" angle="116.48" stage="walking"/>
            <person id="p0" pos="5.40" angle="90.00" stage="walking"/>
            <person id="p4" pos="5.86" angle="90.00" stage="walking"/>
        </edge>
    </timestep>
    <timestep time="9.00">
        <edge id=":C_c2">
            <person id="p4" pos="0.91" angle="90.00" stage="walking"/>
            <person id="p3" pos="1.75" angle="90.00" stage="walking"/>
        </edge>
        <edge id=":C_w3">
            <person id="p2" pos="3.00" angle="116.48" stage="walking"/>
            <person id="p1" pos="4.85" angle="116.48" stage="walking"/>
            <person id="p5" pos="6.11" angle="90.00" stage="walking"/>
            <person id="p0" pos="6.20" angle="90.00" stage="walking"/>
        </edge>
    </timestep>
    <timestep time="10.00">
        <edge id=":C_c2">
            <person id="p0" pos="0.45" angle="90.00" stage="walking"/>
            <person id="p5" pos="1.16" angle="90.00" stage="walking"/>
            <person id="p4" pos="2.51" angle="90.00" stage="walking"/>
            <person id="p3" pos="3.15" angle="90.00" stage="walking"/>
        </edge>
        <edge id=":C_w3">
            <person id="p2" pos="4.20" angle="116.48" stage="walking"/>
            <person id="p1" pos="5.65" angle="90.00" stage="walking"/>
        </edge>
    </timestep>
    <timestep time="11.00">
        <edge id=":C_c2">
            <person id="p0" pos="1.25" angle="90.00" stage="walking"/>
            <person id="p5" pos="2.76" angle="90.00" stage="walking"/>
            <person id="p4" pos="4.11" angle="90.00" stage="walking"/>
            <person id="p3" pos="4.55" angle="90.00" stage="walking"/>
        </edge>
        <edge id=":C_w3">
            <person id="p2" pos="5.40" angle="90.00" stage="walking"/>
            <person id="p1" pos="6.45" angle="90.00" stage="walking"/>
        </edge>
    </timestep>
    <timestep time="12.00">
        <edge id=":C_c2">
            <person id="p2" pos="0.05" angle="90.00" stage="walking"/>
            <person id="p1" pos="0.70" angle="90.00" stage="walking"/>
            <person id="p0" pos="2.05" angle="90.00" stage="walking"/>
            <person id="p5" pos="4.36" angle="90.00" stage="walking"/>
            <person id="p4" pos="5.71" angle="90.00" stage="walking"/>
            <person id="p3" pos="5.95" angle="90.00" stage="walking"/>
        </edge>
    </timestep>
    <timestep time="13.00">
        <edge id=":C_c2">
            <person id="p2" pos="1.25" angle="90.00" stage="walking"/>
            <person id="p1" pos="1.50" angle="90.00" stage="walking"/>
            <person id="p0" pos="2.85" angle="90.00" stage="walking"/>
            <person id="p5" pos="5.96" angle="90.00" stage="walking"/>
            <person id="p4" pos="7.31" angle="90.00" stage="walking"/>
            <person id="p3" pos="7.35" angle="90.00" stage="walking"/>
        </edge>
        <edge id="SC">
            <person id="p15" pos="70.40" angle="0.00" stage="walking"/>
            <person id="p14" pos="71.40" angle="0.00" stage="walking"/>
            <person id="p13" pos="72.40" angle="0.00" stage="walking"/>
            <person id="p12" pos="73.40" angle="0.00" stage="walking"/>
            <person id="p11" pos="74.40" angle="0.00" stage="walking"/>
            <person id="p10" pos="75.40" angle="0.00" stage="walking"/>
        </edge>
    </timestep>
    <timestep time="14.00">
        <edge id=":C_c2">
            <person id="p1" pos="2.30" angle="90.00" stage="walking"/>
            <person id="p2" pos="2.45" angle="90.00" stage="walking"/>
            <person id="p0" pos="3.65" angle="90.00" stage="walking"/>
            <person id="p5" pos="7.56" angle="90.00" stage="walking"/>
            <person id="p3" pos="8.75" angle="90.00" stage="walking"/>
            <person id="p4" pos="8.91" angle="90.00" stage="walking"/>
        </edge>
        <edge id="SC">
            <person id="p15" pos="70.40" angle="0.00" stage="walking"/>
            <person id="p14" pos="72.15" angle="0.00" stage="walking"/>
            <person id="p12" pos="73.40" angle="0.00" stage="walking"/>
            <person id="p13" pos="73.50" angle="0.00" stage="walking"/>
            <person id="p11" pos="74.85" angle="0.00" stage="walking"/>
            <person id="p10" pos="76.20" angle="0.00" stage="walking"/>
        </edge>
    </timestep>
    <timestep time="15.00">
        <edge id=":C_c2">
            <person id="p1" pos="3.10" angle="90.00" stage="walking"/>
            <person id="p2" pos="3.65" angle="90.00" stage="walking"/>
            <person id="p0" pos="4.45" angle="90.00" stage="walking"/>
            <person id="p5" pos="9.16" angle="90.00" stage="walking"/>
            <person id="p3" pos="10.15" angle="90.00" stage="walking"/>
            <person id="p4" pos="10.51" angle="90.00" stage="walking"/>
        </edge>
        <edge id="SC">
            <person id="p15" pos="72.20" angle="0.00" stage="walking"/>
            <person id="p12" pos="73.40" angle="0.00" stage="walking"/>
            <person id="p14" pos="73.55" angle="0.00" stage="walking"/>
            <person id="p13" pos="74.90" angle="0.00" stage="walking"/>
            <person id="p11" pos="75.65" angle="0.00" stage="walking"/>
            <person id="p10" pos="77.00" angle="0.00" stage="walking"/>
        </edge>
    </timestep>
    <timestep time="16.00">
        <edge id=":C_c2">
            <person id="p1" pos="3.90" angle="90.00" stage="walking"/>
            <person id="p2" pos="4.85" angle="90.00" stage="walking"/>
            <person id="p0" pos="5.25" angle="90.00" stage="walking"/>
            <person id="p5" pos="10.76" angle="90.00" stage="walking"/>
            <person id="p3" pos="11.55" angle="90.00" stage="walking"/>
            <person id="p4" pos="12.11" angle="90.00" stage="walking"/>
        </edge>
        <edge id="SC">
            <person id="p12" pos="73.40" angle="0.00" stage="walking"/>
            <person id="p15" pos="73.60" angle="0.00" stage="walking"/>
            <person id="p14" pos="74.95" angle="0.00" stage="walking"/>
            <person id="p13" pos="76.30" angle="0.00" stage="walking"/>
            <person id="p11" pos="76.45" angle="0.00" stage="walking"/>
            <person id="p10" pos="77.80" angle="0.00" stage="walking"/>
        </edge>
    </timestep>
    <timestep time="17.00">
        <edge id=":C_c2">
            <person id="p1" pos="4.70" angle="90.00" stage="walking"/>
            <person id="p0" pos="6.05" angle="90.00" stage="walking"/>
            <person id="p2" pos="6.05" angle="90.00" stage="walking"/>
            <person id="p5" pos="12.36" angle="90.00" stage="walking"/>
            <person id="p3" pos="12.95" angle="90.00" stage="walking"/>
            <person id="p4" pos="13.71" angle="90.00" stage="walking"/>
        </edge>
        <edge id="SC">
            <person id="p12" pos="73.40" angle="0.00" stage="walking"/>
            <person id="p15" pos="75.00" angle="0.00" stage="walking"/>
            <person id="p14" pos="76.35" angle="0.00" stage="walking"/>
            <person id="p11" pos="77.25" angle="0.00" stage="walking"/>
            <person id="p13" pos="77.70" angle="0.00" stage="walking"/>
            <person id="p10" pos="78.60" angle="0.00" stage="walking"/>
        </edge>
    </timestep>
    <timestep time="18.00">
        <edge id=":C_c2">
            <person id="p1" pos="5.50" angle="90.00" stage="walking"/>
            <person id="p0" pos="6.85" angle="90.00" stage="walking"/>
            <person id="p2" pos="7.25" angle="90.00" stage="walking"/>
            <person id="p5" pos="13.96" angle="90.00" stage="walking"/>
            <person id="p3" pos="14.35" angle="90.00" stage="walking"/>
        </edge>
        <edge id=":C_w2">
            <person id="p4" pos="0.01" angle="90.00" stage="walking"/>
        </edge>
        <edge id="SC">
            <person id="p12" pos="74.60" angle="0.00" stage="walking"/>
            <person id="p15" pos="76.40" angle="0.00" stage="walking"/>
            <person id="p14" pos="77.75" angle="0.00" stage="walking"/>
            <person id="p11" pos="78.05" angle="0.00" stage="walking"/>
            <person id="p13" pos="79.10" angle="0.00" stage="walking"/>
            <person id="p10" pos="79.40" angle="0.00" stage="walking"/>
        </edge>
    </timestep>
    <timestep time="19.00">
        <edge id=":C_c2">
            <person id="p1" pos="6.30" angle="90.00" stage="walking"/>
            <person id="p0" pos="7.65" angle="90.00" stage="walking"/>
            <person id="p2" pos="8.45" angle="90.00" stage="walking"/>
            <person id="p5" pos="13.96" angle="90.00" stage="walking"/>
        </edge>
        <edge id=":C_w2">
            <person id="p3" pos="0.45" angle="90.00" stage="walking"/>
            <person id="p4" pos="1.61" angle="119.79" stage="walking"/>
        </edge>
        <edge id="SC">
            <person id="p12" pos="75.80" angle="0.00" stage="walking"/>
            <person id="p15" pos="77.80" angle="0.00" stage="walking"/>
            <person id="p11" pos="78.85" angle="0.00" stage="walking"/>
            <person id="p14" pos="79.15" angle="0.00" stage="walking"/>
            <person id="p10" pos="80.20" angle="0.00" stage="walking"/>
            <person id="p13" pos="80.50" angle="0.00" stage="walking"/>
        </edge>
    </timestep>
    <timestep time="20.00">
        <edge id=":C_c2">
            <person id="p1" pos="7.10" angle="90.00" stage="walking"/>
            <person id="p0" pos="8.45" angle="90.00" stage="walking"/>
            <person id="p2" pos="9.65" angle="90.00" stage="walking"/>
            <person id="p5" pos="14.39" angle="90.00" stage="walking"/>
        </edge>
        <edge id=":C_w2">
            <person id="p3" pos="1.85" angle="119.79" stage="walking"/>
            <person id="p4" pos="3.21" angle="119.79" stage="walking"/>
        </edge>
        <edge id="SC">
            <person id="p12" pos="77.00" angle="0.00" stage="walking"/>
            <person id="p15" pos="79.20" angle="0.00" stage="walking"/>
            <person id="p11" pos="79.65" angle="0.00" stage="walking"/>
            <person id="p14" pos="80.55" angle="0.00" stage="walking"/>
            <person id="p10" pos="81.00" angle="0.00" stage="walking"/>
            <person id="p13" pos="81.90" angle="0.00" stage="walking"/>
        </edge>
    </timestep>
    <timestep time="21.00">
        <edge id=":C_c2">
            <person id="p1" pos="7.90" angle="90.00" stage="walking"/>
            <person id="p0" pos="9.25" angle="90.00" stage="walking"/>
            <person id="p2" pos="10.85" angle="90.00" stage="walking"/>
        </edge>
        <edge id=":C_w2">
            <person id="p5" pos="0.19" angle="90.00" stage="walking"/>
            <person id="p3" pos="3.25" angle="119.79" stage="walking"/>
        </edge>
        <edge id="SC">
            <person id="p12" pos="78.20" angle="0.00" stage="walking"/>
            <person id="p11" pos="80.45" angle="0.00" stage="walking"/>
            <person id="p15" pos="80.60" angle="0.00" stage="walking"/>
            <person id="p10" pos="81.80" angle="0.00" stage="walking"/>
            <person id="p14" pos="81.95" angle="0.00" stage="walking"/>
            <person id="p13" pos="83.30" angle="0.00" stage="walking"/>
            <person id="p4" pos="85.11" angle="180.00" stage="walking"/>
        </edge>
    </timestep>
    <timestep time="22.00">
        <edge id=":C_c2">
            <person id="p1" pos="8.70" angle="90.00" stage="walking"/>
            <person id="p0" pos="10.05" angle="90.00" stage="walking"/>
            <person id="p2" pos="12.05" angle="90.00" stage="walking"/>
        </edge>
        <edge id=":C_w2">
            <person id="p5" pos="1.99" angle="119.79" stage="walking"/>
            <person id="p3" pos="3.46" angle="119.79" stage="walking"/>
        </edge>
        <edge id="SC">
            <person id="p12" pos="79.40" angle="0.00" stage="walking"/>
            <person id="p11" pos="81.25" angle="0.00" stage="walking"/>
            <person id="p15" pos="82.00" angle="0.00" stage="walking"/>
            <person id="p10" pos="82.60" angle="0.00" stage="walking"/>
            <person id="p14" pos="83.35" angle="0.00" stage="walking"/>
            <person id="p4" pos="83.51" angle="180.00" stage="walking"/>
            <person id="p13" pos="84.70" angle="0.00" stage="walking"/>
        </edge>
    </timestep>
    <timestep time="23.00">
        <edge id=":C_c2">
            <person id="p1" pos="9.50" angle="90.00" stage="walking"/>
            <person id="p0" pos="10.85" angle="90.00" stage="walking"/>
            <person id="p2" pos="13.25" angle="90.00" stage="walking"/>
        </edge>
        <edge id=":C_w2">
            <person id="p13" pos="0.70" angle="0.00" stage="walking"/>
            <person id="p5" pos="3.79" angle="180.00" stage="walking"/>
        </edge>
        <edge id="SC">
            <person id="p12" pos="80.60" angle="0.00" stage="walking"/>
            <person id="p4" pos="81.91" angle="180.00" stage="walking"/>
            <person id="p11" pos="82.05" angle="0.00" stage="walking"/>
            <person id="p15" pos="83.40" angle="0.00" stage="walking"/>
            <person id="p10" pos="83.40" angle="0.00" stage="walking"/>
            <person id="p14" pos="84.75" angle="0.00" stage="walking"/>
            <person id="p3" pos="85.06" angle="180.00" stage="walking"/>
        </edge>
    </timestep>
    <timestep time="24.00">
        <edge id=":C_c2">
            <person id="p1" pos="10.30" angle="90.00" stage="walking"/>
            <person id="p0" pos="11.65" angle="90.00" stage="walking"/>
            <person id="p2" pos="14.45" angle="90.00" stage="walking"/>
        </edge>
        <edge id=":C_w2">
            <person id="p14" pos="0.66" angle="0.00" stage="walking"/>
            <person id="p13" pos="2.10" angle="12.25" stage="walking"/>
        </edge>
        <edge id="SC">
            <person id="p4" pos="80.31" angle="180.00" stage="walking"/>
            <person id="p12" pos="81.80" angle="0.00" stage="walking"/>
            <person id="p11" pos="82.85" angle="0.00" stage="walking"/>
            <person id="p3" pos="83.66" angle="180.00" stage="walking"/>
            <person id="p10" pos="84.20" angle="0.00" stage="walking"/>
            <person id="p5" pos="84.32" angle="180.00" stage="walking"/>
            <person id="p15" pos="84.71" angle="0.00" stage="walking"/>
        </edge>
    </timestep>
    <timestep time="25.00">
        <edge id=":C_c2">
            <person id="p1" pos="11.10" angle="90.00" stage="walking"/>
            <person id="p0" pos="12.45" angle="90.00" stage="walking"/>
        </edge>
        <edge id=":C_w2">
            <person id="p2" pos="0.35" angle="90.00" stage="walking"/>
            <person id="p15" pos="0.71" angle="0.00" stage="walking"/>
            <person id="p14" pos="2.15" angle="12.25" stage="walking"/>
            <person id="p13" pos="3.50" angle="12.25" stage="walking"/>
        </edge>
        <edge id="SC">
            <person id="p4" pos="78.71" angle="180.00" stage="walking"/>
            <person id="p3" pos="82.26" angle="180.00" stage="walking"/>
            <person id="p5" pos="82.52" angle="180.00" stage="walking"/>
            <person id="p12" pos="83.00" angle="0.00" stage="walking"/>
            <person id="p11" pos="83.65" angle="0.00" stage="walking"/>
            <person id="p10" pos="85.00" angle="0.00" stage="walking"/>
        </edge>
    </timestep>
    <timestep time="26.00">
        <edge id=":C_c2">
            <person id="p1" pos="11.90" angle="90.00" stage="walking"/>
            <person id="p0" pos="13.25" angle="90.00" stage="walking"/>
        </edge>
        <edge id=":C_w2">
            <person id="p10" pos="0.40" angle="0.00" stage="walking"/>
            <person id="p2" pos="1.55" angle="119.79" stage="walking"/>
            <person id="p15" pos="2.51" angle="12.25" stage="walking"/>
            <person id="p14" pos="3.55" angle="12.25" stage="walking"/>
            <person id="p13" pos="4.90" angle="12.25" stage="walking"/>
        </edge>
        <edge id="SC">
            <person id="p4" pos="77.11" angle="180.00" stage="walking"/>
            <person id="p5" pos="80.72" angle="180.00" stage="walking"/>
            <person id="p3" pos="80.86" angle="180.00" stage="walking"/>
            <person id="p12" pos="84.20" angle="0.00" stage="walking"/>
            <person id="p11" pos="84.45" angle="0.00" stage="walking"/>
        </edge>
    </timestep>
    <timestep time="27.00">
        <edge id=":C_c2">
            <person id="p1" pos="12.70" angle="90.00" stage="walking"/>
            <person id="p0" pos="14.05" angle="90.00" stage="walking"/>
        </edge>
        <edge id=":C_w2">
            <person id="p12" pos="0.00" angle="0.00" stage="walking"/>
            <person id="p10" pos="1.20" angle="0.00" stage="walking"/>
            <person id="p2" pos="2.75" angle="119.79" stage="walking"/>
            <person id="p15" pos="3.60" angle="12.25" stage="walking"/>
            <person id="p14" pos="4.95" angle="12.25" stage="walking"/>
            <person id="p13" pos="6.30" angle="0.00" stage="walking"/>
        </edge>
        <edge id="SC">
            <person id="p4" pos="75.51" angle="180.00" stage="walking"/>
            <person id="p5" pos="78.92" angle="180.00" stage="walking"/>
            <person id="p3" pos="79.46" angle="180.00" stage="walking"/>
            <person id="p11" pos="85.25" angle="0.00" stage="walking"/>
        </edge>
    </timestep>
    <timestep time="28.00">
        <edge id=":C_c2">
            <person id="p1" pos="13.50" angle="90.00" stage="walking"/>
            <person id="p0" pos="14.85" angle="90.00" stage="walking"/>
        </edge>
        <edge id=":C_w2">
            <person id="p11" pos="0.40" angle="0.00" stage="walking"/>
            <person id="p12" pos="1.20" angle="0.00" stage="walking"/>
            <person id="p10" pos="2.00" angle="12.25" stage="walking"/>
            <person id="p2" pos="2.75" angle="119.79" stage="walking"/>
            <person id="p15" pos="4.33" angle="12.25" stage="walking"/>
            <person id="p14" pos="5.68" angle="0.00" stage="walking"/>
            <person id="p13" pos="7.03" angle="0.00" stage="walking"/>
        </edge>
        <edge id="SC">
            <person id="p4" pos="73.91" angle="180.00" stage="walking"/>
            <person id="p5" pos="77.12" angle="180.00" stage="walking"/>
            <person id="p3" pos="78.06" angle="180.00" stage="walking"/>
        </edge>
    </timestep>
    <timestep time="29.00">
        <edge id=":C_c2">
            <person id="p1" pos="14.30" angle="90.00" stage="walking"/>
        </edge>
        <edge id=":C_w2">
            <person id="p0" pos="0.35" angle="90.00" stage="walking"/>
            <person id="p11" pos="1.40" angle="0.00" stage="walking"/>
            <person id="p12" pos="2.40" angle="12.25" stage="walking"/>
            <person id="p10" pos="2.80" angle="12.25" stage="walking"/>
            <person id="p2" pos="3.95" angle="180.00" stage="walking"/>
            <person id="p14" pos="5.68" angle="0.00" stage="walking"/>
            <person id="p15" pos="5.68" angle="0.00" stage="walking"/>
            <person id="p13" pos="7.03" angle="0.00" stage="walking"/>
        </edge>
        <edge id="SC">
            <person id="p4" pos="72.31" angle="180.00" stage="walking"/>
            <person id="p5" pos="75.32" angle="180.00" stage="walking"/>
            <person id="p3" pos="76.66" angle="180.00" stage="walking"/>
        </edge>
    </timestep>
    <timestep time="30.00">
        <edge id=":C_c1">
            <person id="p14" pos="0.00" angle="0.00" stage="walking"/>
        </edge>
        <edge id=":C_c2">
            <person id="p1" pos="14.30" angle="90.00" stage="walking"/>
        </edge>
        <edge id=":C_w2">
            <person id="p0" pos="1.15" angle="119.79" stage="walking"/>
            <person id="p11" pos="2.25" angle="12.25" stage="walking"/>
            <person id="p10" pos="3.60" angle="12.25" stage="walking"/>
            <person id="p12" pos="3.60" angle="12.25" stage="walking"/>
            <person id="p15" pos="5.68" angle="0.00" stage="walking"/>
            <person id="p13" pos="7.03" angle="0.00" stage="walking"/>
        </edge>
        <edge id="SC">
            <person id="p4" pos="70.71" angle="180.00" stage="walking"/>
            <person id="p5" pos="73.52" angle="180.00" stage="walking"/>
            <person id="p3" pos="75.26" angle="180.00" stage="walking"/>
            <person id="p2" pos="84.77" angle="180.00" stage="walking"/>
        </edge>
    </timestep>
    <timestep time="31.00">
        <edge id=":C_c1">
            <person id="p14" pos="1.60" angle="0.00" stage="walking"/>
        </edge>
        <edge id=":C_c2">
            <person id="p1" pos="15.30" angle="90.00" stage="walking"/>
        </edge>
        <edge id=":C_w2">
            <person id="p0" pos="1.95" angle="119.79" stage="walking"/>
            <person id="p11" pos="2.98" angle="12.25" stage="walking"/>
            <person id="p12" pos="4.33" angle="12.25" stage="walking"/>
            <person id="p10" pos="4.40" angle="12.25" stage="walking"/>
            <person id="p15" pos="5.68" angle="0.00" stage="walking"/>
            <person id="p13" pos="7.03" angle="0.00" stage="walking"/>
        </edge>
        <edge id="SC">
            <person id="p4" pos="69.11" angle="180.00" stage="walking"/>
            <person id="p5" pos="71.72" angle="180.00" stage="walking"/>
            <person id="p3" pos="73.86" angle="180.00" stage="walking"/>
            <person id="p2" pos="83.57" angle="180.00" stage="walking"/>
        </edge>
    </timestep>
    <timestep time="32.00">
        <edge id=":C_c1">
            <person id="p15" pos="0.00" angle="0.00" stage="walking"/>
            <person id="p14" pos="3.20" angle="0.00" stage="walking"/>
        </edge>
        <edge id=":C_c2">
            <person id="p1" pos="15.30" angle="90.00" stage="walking"/>
        </edge>
        <edge id=":C_w2">
            <person id="p0" pos="2.75" angle="119.79" stage="walking"/>
            <person id="p11" pos="3.98" angle="12.25" stage="walking"/>
            <person id="p10" pos="5.20" angle="12.25" stage="walking"/>
            <person id="p12" pos="5.53" angle="0.00" stage="walking"/>
            <person id="p13" pos="7.03" angle="0.00" stage="walking"/>
        </edge>
        <edge id="SC">
            <person id="p4" pos="67.51" angle="180.00" stage="walking"/>
            <person id="p5" pos="69.92" angle="180.00" stage="walking"/>
            <person id="p3" pos="72.46" angle="180.00" stage="walking"/>
            <person id="p2" pos="82.37" angle="180.00" stage="walking"/>
        </edge>
    </timestep>
    <timestep time="33.00">
        <edge id=":C_c1">
            <person id="p15" pos="1.80" angle="0.00" stage="walking"/>
            <person id="p14" pos="4.80" angle="0.00" stage="walking"/>
        </edge>
        <edge id=":C_w2">
            <person id="p1" pos="0.60" angle="90.00" stage="walking"/>
            <person id="p0" pos="3.55" angle="180.00" stage="walking"/>
            <person id="p11" pos="4.98" angle="12.25" stage="walking"/>
            <person id="p10" pos="6.00" angle="0.00" stage="walking"/>
            <person id="p12" pos="6.73" angle="0.00" stage="walking"/>
            <person id="p13" pos="7.03" angle="0.00" stage="walking"/>
        </edge>
        <edge id="SC">
            <person id="p4" pos="65.91" angle="180.00" stage="walking"/>
            <person id="p5" pos="68.12" angle="180.00" stage="walking"/>
            <person id="p3" pos="71.06" angle="180.00" stage="walking"/>
            <person id="p2" pos="81.17" angle="180.00" stage="walking"/>
        </edge>
    </timestep>
    <timestep time="34.00">
        <edge id=":C_c1">
            <person id="p15" pos="3.60" angle="0.00" stage="walking"/>