<?xml version="1.0" encoding="UTF-8"?>

<!-- generated on 2021-12-10 14:07:46 by Eclipse SUMO sumo Version v1_11_0+0480-562403d
This data file and the accompanying materials
are made available under the terms of the Eclipse Public License v2.0
which accompanies this distribution, and is available at
http://www.eclipse.org/legal/epl-v20.html
SPDX-License-Identifier: EPL-2.0
<configuration xmlns:xsi="http://www.w3.org/2001/XMLSchema-instance" xsi:noNamespaceSchemaLocation="http://sumo.dlr.de/xsd/sumoConfiguration.xsd">

    <input>
        <net-file value="net.net.xml"/>
        <route-files value="input_routes.rou.xml"/>
    </input>

    <output>
        <write-license value="true"/>
        <tripinfo-output value="tripinfos.xml"/>
    </output>

    <time>
        <step-length value="0.1"/>
    </time>

    <processing>
        <lateral-resolution value="0.64"/>
        <collision.action value="warn"/>
        <collision.check-junctions value="true"/>
        <default.speeddev value="0"/>
    </processing>

    <report>
        <xml-validation value="never"/>
        <xml-validation.routes value="never"/>
        <duration-log.disable value="true"/>
        <no-step-log value="true"/>
    </report>

    <bluelight_device>
        <device.bluelight.reactiondist value="250"/>
    </bluelight_device>

    <gui_only>
        <tracker-interval value="0.1"/>
    </gui_only>

</configuration>
-->

<tripinfos xmlns:xsi="http://www.w3.org/2001/XMLSchema-instance" xsi:noNamespaceSchemaLocation="http://sumo.dlr.de/xsd/tripinfo_file.xsd">
    <tripinfo id="case_1_engine" depart="100.00" departLane="edge_5_0" departPos="8.10" departPosLat="0.00" departSpeed="0.00" departDelay="0.00" arrival="180.20" arrivalLane="edge_0_1" arrivalPos="489.60" arrivalPosLat="0.30" arrivalSpeed="19.58" duration="80.20" routeLength="990.46" waitingTime="0.00" waitingCount="0" stopTime="0.00" timeLoss="29.62" rerouteNo="0" devices="tripinfo_case_1_engine bluelight_case_1_engine" vType="engine" speedFactor="1.40" vaporized="">
        <bluelight/>
    </tripinfo>
    <tripinfo id="case_1_ladder" depart="104.40" departLane="edge_5_0" departPos="10.10" departPosLat="0.00" departSpeed="0.00" departDelay="4.40" arrival="192.90" arrivalLane="edge_0_1" arrivalPos="489.60" arrivalPosLat="-0.38" arrivalSpeed="19.56" duration="88.50" routeLength="988.46" waitingTime="0.20" waitingCount="2" stopTime="0.00" timeLoss="38.01" rerouteNo="0" devices="tripinfo_case_1_ladder bluelight_case_1_ladder" vType="ladder" speedFactor="1.40" vaporized="">
        <bluelight/>
    </tripinfo>
    <tripinfo id="0" depart="0.00" departLane="edge_5_0" departPos="5.10" departPosLat="0.00" departSpeed="0.00" departDelay="0.00" arrival="374.60" arrivalLane="edge_0_0" arrivalPos="489.60" arrivalPosLat="0.70" arrivalSpeed="13.96" duration="374.60" routeLength="974.10" waitingTime="300.10" waitingCount="1" stopTime="0.00" timeLoss="305.42" rerouteNo="0" devices="tripinfo_0" vType="car@0" speedFactor="1.00" vaporized=""/>
    <tripinfo id="2" depart="5.20" departLane="edge_5_0" departPos="5.10" departPosLat="0.00" departSpeed="0.00" departDelay="3.20" arrival="379.80" arrivalLane="edge_3_0" arrivalPos="489.60" arrivalPosLat="-0.70" arrivalSpeed="13.93" duration="374.60" routeLength="974.10" waitingTime="300.10" waitingCount="1" stopTime="0.00" timeLoss="305.43" rerouteNo="0" devices="tripinfo_2" vType="car@2" speedFactor="1.00" vaporized=""/>
    <tripinfo id="1" depart="2.60" departLane="edge_5_0" departPos="5.10" departPosLat="0.00" departSpeed="0.00" departDelay="1.60" arrival="677.80" arrivalLane="edge_0_0" arrivalPos="489.60" arrivalPosLat="0.70" arrivalSpeed="13.95" duration="675.20" routeLength="974.10" waitingTime="594.70" waitingCount="2" stopTime="0.00" timeLoss="606.03" rerouteNo="0" devices="tripinfo_1" vType="car@1" speedFactor="1.00" vaporized=""/>
    <tripinfo id="3" depart="7.90" departLane="edge_5_0" departPos="5.10" departPosLat="0.00" departSpeed="0.00" departDelay="4.90" arrival="683.00" arrivalLane="edge_3_0" arrivalPos="489.60" arrivalPosLat="-0.70" arrivalSpeed="13.98" duration="675.10" routeLength="974.10" waitingTime="594.50" waitingCount="2" stopTime="0.00" timeLoss="605.93" rerouteNo="0" devices="tripinfo_3" vType="car@3" speedFactor="1.00" vaporized=""/>
</tripinfos>
