<?xml version="1.0" encoding="UTF-8"?>

<!-- generated on Mon Oct 17 11:13:04 2016 by SUMO Version dev-SVN-r21661
<?xml version="1.0" encoding="UTF-8"?>

<configuration xmlns:xsi="http://www.w3.org/2001/XMLSchema-instance" xsi:noNamespaceSchemaLocation="http://sumo.dlr.de/xsd/sumoConfiguration.xsd">

    <input>
        <net-file value="net2.net.xml"/>
        <route-files value="input_routes.rou.xml"/>
    </input>

    <output>
        <fcd-output value="fcd.xml"/>
        <tripinfo-output value="tripinfos.xml"/>
    </output>

    <report>
        <xml-validation value="never"/>
        <no-step-log value="true"/>
    </report>

</configuration>
-->

<tripinfos xmlns:xsi="http://www.w3.org/2001/XMLSchema-instance" xsi:noNamespaceSchemaLocation="http://sumo.dlr.de/xsd/tripinfo_file.xsd">
    <tripinfo id="overtaking" depart="0.00" departLane="VODUGES_beg_0" departPos="0.00" departSpeed="0.00" departDelay="0.00" arrival="18.00" arrivalLane="VODUGES_end_0" arrivalPos="140.50" arrivalSpeed="12.65" duration="18.00" routeLength="195.25" waitSteps="0" timeLoss="3.43" rerouteNo="0" devices="tripinfo_overtaking" vType="DEFAULT_VEHTYPE" vaporized=""/>
    <tripinfo id="stopped" depart="0.00" departLane="VODUGES_beg_0" departPos="40.00" departSpeed="0.00" departDelay="0.00" arrival="119.00" arrivalLane="VODUGES_end_0" arrivalPos="140.50" arrivalSpeed="13.14" duration="119.00" routeLength="155.25" waitSteps="0" timeLoss="6.29" rerouteNo="0" devices="tripinfo_stopped" vType="DEFAULT_VEHTYPE" vaporized=""/>
</tripinfos>
