<?xml version="1.0" encoding="UTF-8"?>

<!-- generated on Thu Mar 12 08:41:45 2020 by Eclipse SUMO Version v1_5_0+0668-3019609
This data file and the accompanying materials
are made available under the terms of the Eclipse Public License v2.0
which accompanies this distribution, and is available at
http://www.eclipse.org/legal/epl-v20.html
SPDX-License-Identifier: EPL-2.0
<configuration xmlns:xsi="http://www.w3.org/2001/XMLSchema-instance" xsi:noNamespaceSchemaLocation="http://sumo.dlr.de/xsd/sumoConfiguration.xsd">

    <input>
        <net-file value="net.net.xml"/>
        <route-files value="input_routes.rou.xml"/>
        <additional-files value="input_additional.add.xml"/>
    </input>

    <output>
        <write-license value="true"/>
        <vehroute-output value="vehroutes.xml"/>
        <stop-output value="stopinfos.xml"/>
    </output>

    <processing>
        <default.speeddev value="0"/>
    </processing>

    <report>
        <xml-validation value="never"/>
        <no-step-log value="true"/>
    </report>

</configuration>
-->

<stops xmlns:xsi="http://www.w3.org/2001/XMLSchema-instance" xsi:noNamespaceSchemaLocation="http://sumo.dlr.de/xsd/stopinfo_file.xsd">
    <stopinfo id="veh.0" type="DEFAULT_VEHTYPE" lane="gneE0_0" pos="80.56" parking="1" started="13.00" ended="73.00" delay="-1.00" initialPersons="0" loadedPersons="0" unloadedPersons="0" initialContainers="0" loadedContainers="0" unloadedContainers="0" parkingArea="p2"/>
    <stopinfo id="veh.1" type="DEFAULT_VEHTYPE" lane="gneE0_0" pos="80.56" parking="1" started="73.00" ended="133.00" delay="-1.00" initialPersons="0" loadedPersons="0" unloadedPersons="0" initialContainers="0" loadedContainers="0" unloadedContainers="0" parkingArea="p2"/>
    <stopinfo id="veh.0" type="DEFAULT_VEHTYPE" lane="gneE1_0" pos="22.89" parking="1" started="82.00" ended="142.00" delay="-1.00" initialPersons="0" loadedPersons="0" unloadedPersons="0" initialContainers="0" loadedContainers="0" unloadedContainers="0" parkingArea="p3"/>
    <stopinfo id="veh.1" type="DEFAULT_VEHTYPE" lane="gneE1_0" pos="22.89" parking="1" started="149.00" ended="209.00" delay="-1.00" initialPersons="0" loadedPersons="0" unloadedPersons="0" initialContainers="0" loadedContainers="0" unloadedContainers="0" parkingArea="p3"/>
</stops>
