<?xml version="1.0" encoding="UTF-8"?>

<!-- generated on 2024-06-25 22:06:01 by Eclipse SUMO sumo Version v1_20_0+0819-bde33286170
<sumoConfiguration xmlns:xsi="http://www.w3.org/2001/XMLSchema-instance" xsi:noNamespaceSchemaLocation="http://sumo.dlr.de/xsd/sumoConfiguration.xsd">

    <input>
        <net-file value="net.net.xml"/>
        <route-files value="input_routes.rou.xml"/>
    </input>

    <output>
        <fcd-output value="fcd.xml"/>
        <stop-output value="stopinfos.xml"/>
    </output>

    <report>
        <duration-log.disable value="true"/>
        <no-step-log value="true"/>
    </report>

    <fcd_device>
        <device.fcd.probability value="0"/>
    </fcd_device>

    <taxi_device>
        <device.taxi.dispatch-period value="30"/>
    </taxi_device>

    <mesoscopic>
        <mesosim value="true"/>
    </mesoscopic>

</sumoConfiguration>
-->

<fcd-export xmlns:xsi="http://www.w3.org/2001/XMLSchema-instance" xsi:noNamespaceSchemaLocation="http://sumo.dlr.de/xsd/fcd_file.xsd">
    <timestep time="0.00">
        <vehicle id="trip_1" x="5.20" y="195.80" angle="90.00" type="taxi" speed="14.31" pos="0.00" edge="A2B2" slope="0.00"/>
    </timestep>
    <timestep time="1.00">
        <vehicle id="trip_1" x="5.20" y="195.80" angle="90.00" type="taxi" speed="14.31" pos="0.00" edge="A2B2" slope="0.00"/>
    </timestep>
    <timestep time="2.00">
        <vehicle id="trip_1" x="5.20" y="195.80" angle="90.00" type="taxi" speed="14.31" pos="0.00" edge="A2B2" slope="0.00"/>
    </timestep>
    <timestep time="3.00">
        <vehicle id="trip_1" x="5.20" y="195.80" angle="90.00" type="taxi" speed="14.31" pos="0.00" edge="A2B2" slope="0.00"/>
    </timestep>
    <timestep time="4.00">
        <vehicle id="trip_1" x="5.20" y="195.80" angle="90.00" type="taxi" speed="14.31" pos="0.00" edge="A2B2" slope="0.00"/>
    </timestep>
    <timestep time="5.00">
        <vehicle id="trip_1" x="5.20" y="195.80" angle="90.00" type="taxi" speed="14.31" pos="0.00" edge="A2B2" slope="0.00"/>
    </timestep>
    <timestep time="6.00">
        <vehicle id="trip_1" x="5.20" y="195.80" angle="90.00" type="taxi" speed="14.31" pos="0.00" edge="A2B2" slope="0.00"/>
    </timestep>
    <timestep time="7.00">
        <vehicle id="trip_1" x="101.07" y="195.80" angle="90.00" type="taxi" speed="0.00" pos="95.87" edge="A2B2" slope="0.00"/>
    </timestep>
    <timestep time="8.00">
        <vehicle id="trip_1" x="101.07" y="195.80" angle="90.00" type="taxi" speed="0.00" pos="95.87" edge="A2B2" slope="0.00"/>
    </timestep>
    <timestep time="9.00">
        <vehicle id="trip_1" x="101.07" y="195.80" angle="90.00" type="taxi" speed="0.00" pos="95.87" edge="A2B2" slope="0.00"/>
    </timestep>
    <timestep time="10.00">
        <vehicle id="trip_1" x="101.07" y="195.80" angle="90.00" type="taxi" speed="0.00" pos="95.87" edge="A2B2" slope="0.00"/>
    </timestep>
    <timestep time="11.00">
        <vehicle id="trip_1" x="101.07" y="195.80" angle="90.00" type="taxi" speed="0.00" pos="95.87" edge="A2B2" slope="0.00"/>
    </timestep>
    <timestep time="12.00">
        <vehicle id="trip_1" x="101.07" y="195.80" angle="90.00" type="taxi" speed="0.00" pos="95.87" edge="A2B2" slope="0.00"/>
    </timestep>
    <timestep time="13.00">
        <vehicle id="trip_1" x="101.07" y="195.80" angle="90.00" type="taxi" speed="0.00" pos="95.87" edge="A2B2" slope="0.00"/>
    </timestep>
    <timestep time="14.00">
        <vehicle id="trip_1" x="101.07" y="195.80" angle="90.00" type="taxi" speed="0.00" pos="95.87" edge="A2B2" slope="0.00"/>
    </timestep>
    <timestep time="15.00">
        <vehicle id="trip_1" x="101.07" y="195.80" angle="90.00" type="taxi" speed="0.00" pos="95.87" edge="A2B2" slope="0.00"/>
    </timestep>
    <timestep time="16.00">
        <vehicle id="trip_1" x="101.07" y="195.80" angle="90.00" type="taxi" speed="0.00" pos="95.87" edge="A2B2" slope="0.00"/>
    </timestep>
    <timestep time="17.00">
        <vehicle id="trip_1" x="101.07" y="195.80" angle="90.00" type="taxi" speed="0.00" pos="95.87" edge="A2B2" slope="0.00"/>
    </timestep>
    <timestep time="18.00">
        <vehicle id="trip_1" x="101.07" y="195.80" angle="90.00" type="taxi" speed="0.00" pos="95.87" edge="A2B2" slope="0.00"/>
    </timestep>
    <timestep time="19.00">
        <vehicle id="trip_1" x="101.07" y="195.80" angle="90.00" type="taxi" speed="0.00" pos="95.87" edge="A2B2" slope="0.00"/>
    </timestep>
    <timestep time="20.00">
        <vehicle id="trip_1" x="101.07" y="195.80" angle="90.00" type="taxi" speed="0.00" pos="95.87" edge="A2B2" slope="0.00"/>
    </timestep>
    <timestep time="21.00">
        <vehicle id="trip_1" x="101.07" y="195.80" angle="90.00" type="taxi" speed="0.00" pos="95.87" edge="A2B2" slope="0.00"/>
    </timestep>
    <timestep time="22.00">
        <vehicle id="trip_1" x="101.07" y="195.80" angle="90.00" type="taxi" speed="0.00" pos="95.87" edge="A2B2" slope="0.00"/>
    </timestep>
    <timestep time="23.00">
        <vehicle id="trip_1" x="101.07" y="195.80" angle="90.00" type="taxi" speed="0.00" pos="95.87" edge="A2B2" slope="0.00"/>
    </timestep>
    <timestep time="24.00">
        <vehicle id="trip_1" x="101.07" y="195.80" angle="90.00" type="taxi" speed="0.00" pos="95.87" edge="A2B2" slope="0.00"/>
    </timestep>
    <timestep time="25.00">
        <vehicle id="trip_1" x="101.07" y="195.80" angle="90.00" type="taxi" speed="0.00" pos="95.87" edge="A2B2" slope="0.00"/>
    </timestep>
    <timestep time="26.00">
        <vehicle id="trip_1" x="101.07" y="195.80" angle="90.00" type="taxi" speed="0.00" pos="95.87" edge="A2B2" slope="0.00"/>
    </timestep>
    <timestep time="27.00">
        <vehicle id="trip_1" x="101.07" y="195.80" angle="90.00" type="taxi" speed="0.00" pos="95.87" edge="A2B2" slope="0.00"/>
    </timestep>
    <timestep time="28.00">
        <vehicle id="trip_1" x="101.07" y="195.80" angle="90.00" type="taxi" speed="0.00" pos="95.87" edge="A2B2" slope="0.00"/>
    </timestep>
    <timestep time="29.00">
        <vehicle id="trip_1" x="101.07" y="195.80" angle="90.00" type="taxi" speed="0.00" pos="95.87" edge="A2B2" slope="0.00"/>
    </timestep>
    <timestep time="30.00">
        <vehicle id="trip_1" x="101.07" y="195.80" angle="90.00" type="taxi" speed="0.00" pos="95.87" edge="A2B2" slope="0.00"/>
    </timestep>
    <timestep time="31.00">
        <vehicle id="trip_1" x="101.07" y="195.80" angle="90.00" type="taxi" speed="6.94" pos="95.87" edge="A2B2" slope="0.00"/>
    </timestep>
    <timestep time="32.00">
        <vehicle id="trip_1" x="101.07" y="195.80" angle="90.00" type="taxi" speed="6.94" pos="95.87" edge="A2B2" slope="0.00"/>
    </timestep>
    <timestep time="33.00">
        <vehicle id="trip_1" x="101.07" y="195.80" angle="90.00" type="taxi" speed="6.94" pos="95.87" edge="A2B2" slope="0.00"/>
    </timestep>
    <timestep time="34.00">
        <vehicle id="trip_1" x="101.07" y="195.80" angle="90.00" type="taxi" speed="6.94" pos="95.87" edge="A2B2" slope="0.00"/>
    </timestep>
    <timestep time="35.00">
        <vehicle id="trip_1" x="101.07" y="195.80" angle="90.00" type="taxi" speed="6.94" pos="95.87" edge="A2B2" slope="0.00"/>
    </timestep>
    <timestep time="36.00">
        <vehicle id="trip_1" x="101.07" y="195.80" angle="90.00" type="taxi" speed="6.94" pos="95.87" edge="A2B2" slope="0.00"/>
    </timestep>
    <timestep time="37.00">
        <vehicle id="trip_1" x="101.07" y="195.80" angle="90.00" type="taxi" speed="6.94" pos="95.87" edge="A2B2" slope="0.00"/>
    </timestep>
    <timestep time="38.00">
        <vehicle id="trip_1" x="101.07" y="195.80" angle="90.00" type="taxi" speed="6.94" pos="95.87" edge="A2B2" slope="0.00"/>
    </timestep>
    <timestep time="39.00">
        <vehicle id="trip_1" x="101.07" y="195.80" angle="90.00" type="taxi" speed="6.94" pos="95.87" edge="A2B2" slope="0.00"/>
    </timestep>
    <timestep time="40.00">
        <vehicle id="trip_1" x="101.07" y="195.80" angle="90.00" type="taxi" speed="6.94" pos="95.87" edge="A2B2" slope="0.00"/>
    </timestep>
    <timestep time="41.00">
        <vehicle id="trip_1" x="101.07" y="195.80" angle="90.00" type="taxi" speed="6.94" pos="95.87" edge="A2B2" slope="0.00"/>
    </timestep>
    <timestep time="42.00">
        <vehicle id="trip_1" x="101.07" y="195.80" angle="90.00" type="taxi" speed="6.94" pos="95.87" edge="A2B2" slope="0.00"/>
    </timestep>
    <timestep time="43.00">
        <vehicle id="trip_1" x="101.07" y="195.80" angle="90.00" type="taxi" speed="6.94" pos="95.87" edge="A2B2" slope="0.00"/>
    </timestep>
    <timestep time="44.00">
        <vehicle id="trip_1" x="101.07" y="195.80" angle="90.00" type="taxi" speed="6.94" pos="95.87" edge="A2B2" slope="0.00"/>
    </timestep>
    <timestep time="45.00">
        <vehicle id="trip_1" x="196.93" y="195.80" angle="90.00" type="taxi" speed="6.94" pos="191.73" edge="A2B2" slope="0.00"/>
    </timestep>
    <timestep time="46.00">
        <vehicle id="trip_1" x="196.93" y="195.80" angle="90.00" type="taxi" speed="6.94" pos="191.73" edge="A2B2" slope="0.00"/>
    </timestep>
    <timestep time="47.00">
        <vehicle id="trip_1" x="196.93" y="195.80" angle="90.00" type="taxi" speed="6.94" pos="191.73" edge="A2B2" slope="0.00"/>
    </timestep>
    <timestep time="48.00">
        <vehicle id="trip_1" x="196.93" y="195.80" angle="90.00" type="taxi" speed="6.94" pos="191.73" edge="A2B2" slope="0.00"/>
    </timestep>
    <timestep time="49.00">
        <vehicle id="trip_1" x="196.93" y="195.80" angle="90.00" type="taxi" speed="6.94" pos="191.73" edge="A2B2" slope="0.00"/>
    </timestep>
    <timestep time="50.00">
        <vehicle id="trip_1" x="196.93" y="195.80" angle="90.00" type="taxi" speed="6.94" pos="191.73" edge="A2B2" slope="0.00"/>
    </timestep>
    <timestep time="51.00">
        <vehicle id="trip_1" x="196.93" y="195.80" angle="90.00" type="taxi" speed="6.94" pos="191.73" edge="A2B2" slope="0.00"/>
    </timestep>
    <timestep time="52.00">
        <vehicle id="trip_1" x="196.93" y="195.80" angle="90.00" type="taxi" speed="6.94" pos="191.73" edge="A2B2" slope="0.00"/>
    </timestep>
    <timestep time="53.00">
        <vehicle id="trip_1" x="196.93" y="195.80" angle="90.00" type="taxi" speed="6.94" pos="191.73" edge="A2B2" slope="0.00"/>
    </timestep>
    <timestep time="54.00">
        <vehicle id="trip_1" x="196.93" y="195.80" angle="90.00" type="taxi" speed="6.94" pos="191.73" edge="A2B2" slope="0.00"/>
    </timestep>
    <timestep time="55.00">
        <vehicle id="trip_1" x="196.93" y="195.80" angle="90.00" type="taxi" speed="6.94" pos="191.73" edge="A2B2" slope="0.00"/>
    </timestep>
    <timestep time="56.00">
        <vehicle id="trip_1" x="196.93" y="195.80" angle="90.00" type="taxi" speed="6.94" pos="191.73" edge="A2B2" slope="0.00"/>
    </timestep>
    <timestep time="57.00">
        <vehicle id="trip_1" x="196.93" y="195.80" angle="90.00" type="taxi" speed="6.94" pos="191.73" edge="A2B2" slope="0.00"/>
    </timestep>
    <timestep time="58.00">
        <vehicle id="trip_1" x="196.93" y="195.80" angle="90.00" type="taxi" speed="6.94" pos="191.73" edge="A2B2" slope="0.00"/>
    </timestep>
    <timestep time="59.00">
        <vehicle id="trip_1" x="307.20" y="195.80" angle="90.00" type="taxi" speed="14.31" pos="0.00" edge="B2C2" slope="0.00"/>
    </timestep>
    <timestep time="60.00">
        <vehicle id="trip_1" x="307.20" y="195.80" angle="90.00" type="taxi" speed="14.31" pos="0.00" edge="B2C2" slope="0.00"/>
    </timestep>
    <timestep time="61.00">
        <vehicle id="trip_1" x="307.20" y="195.80" angle="90.00" type="taxi" speed="14.31" pos="0.00" edge="B2C2" slope="0.00"/>
    </timestep>
    <timestep time="62.00">
        <vehicle id="trip_1" x="307.20" y="195.80" angle="90.00" type="taxi" speed="14.31" pos="0.00" edge="B2C2" slope="0.00"/>
    </timestep>
    <timestep time="63.00">
        <vehicle id="trip_1" x="307.20" y="195.80" angle="90.00" type="taxi" speed="14.31" pos="0.00" edge="B2C2" slope="0.00"/>
    </timestep>
    <timestep time="64.00">
        <vehicle id="trip_1" x="307.20" y="195.80" angle="90.00" type="taxi" speed="14.31" pos="0.00" edge="B2C2" slope="0.00"/>
    </timestep>
    <timestep time="65.00">
        <vehicle id="trip_1" x="402.40" y="195.80" angle="90.00" type="taxi" speed="14.31" pos="95.20" edge="B2C2" slope="0.00"/>
    </timestep>
    <timestep time="66.00">
        <vehicle id="trip_1" x="402.40" y="195.80" angle="90.00" type="taxi" speed="14.31" pos="95.20" edge="B2C2" slope="0.00"/>
    </timestep>
    <timestep time="67.00">
        <vehicle id="trip_1" x="402.40" y="195.80" angle="90.00" type="taxi" speed="14.31" pos="95.20" edge="B2C2" slope="0.00"/>
    </timestep>
    <timestep time="68.00">
        <vehicle id="trip_1" x="402.40" y="195.80" angle="90.00" type="taxi" speed="14.31" pos="95.20" edge="B2C2" slope="0.00"/>
    </timestep>
    <timestep time="69.00">
        <vehicle id="trip_1" x="402.40" y="195.80" angle="90.00" type="taxi" speed="14.31" pos="95.20" edge="B2C2" slope="0.00"/>
    </timestep>
    <timestep time="70.00">
        <vehicle id="trip_1" x="402.40" y="195.80" angle="90.00" type="taxi" speed="14.31" pos="95.20" edge="B2C2" slope="0.00"/>
    </timestep>
    <timestep time="71.00">
        <vehicle id="trip_1" x="402.40" y="195.80" angle="90.00" type="taxi" speed="14.31" pos="95.20" edge="B2C2" slope="0.00"/>
    </timestep>
    <timestep time="72.00">
        <vehicle id="trip_1" x="497.60" y="195.80" angle="90.00" type="taxi" speed="0.00" pos="190.40" edge="B2C2" slope="0.00"/>
    </timestep>
    <timestep time="73.00">
        <vehicle id="trip_1" x="497.60" y="195.80" angle="90.00" type="taxi" speed="0.00" pos="190.40" edge="B2C2" slope="0.00"/>
    </timestep>
    <timestep time="74.00">
        <vehicle id="trip_1" x="497.60" y="195.80" angle="90.00" type="taxi" speed="0.00" pos="190.40" edge="B2C2" slope="0.00"/>
    </timestep>
    <timestep time="75.00">
        <vehicle id="trip_1" x="497.60" y="195.80" angle="90.00" type="taxi" speed="0.00" pos="190.40" edge="B2C2" slope="0.00"/>
    </timestep>
    <timestep time="76.00">
        <vehicle id="trip_1" x="497.60" y="195.80" angle="90.00" type="taxi" speed="0.00" pos="190.40" edge="B2C2" slope="0.00"/>
    </timestep>
    <timestep time="77.00">
        <vehicle id="trip_1" x="497.60" y="195.80" angle="90.00" type="taxi" speed="0.00" pos="190.40" edge="B2C2" slope="0.00"/>
    </timestep>
    <timestep time="78.00">
        <vehicle id="trip_1" x="497.60" y="195.80" angle="90.00" type="taxi" speed="0.00" pos="190.40" edge="B2C2" slope="0.00"/>
    </timestep>
    <timestep time="79.00">
        <vehicle id="trip_1" x="497.60" y="195.80" angle="90.00" type="taxi" speed="0.00" pos="190.40" edge="B2C2" slope="0.00"/>
    </timestep>
    <timestep time="80.00">
        <vehicle id="trip_1" x="497.60" y="195.80" angle="90.00" type="taxi" speed="0.00" pos="190.40" edge="B2C2" slope="0.00"/>
    </timestep>
    <timestep time="81.00">
        <vehicle id="trip_1" x="497.60" y="195.80" angle="90.00" type="taxi" speed="0.00" pos="190.40" edge="B2C2" slope="0.00"/>
    </timestep>
    <timestep time="82.00">
        <vehicle id="trip_1" x="497.60" y="195.80" angle="90.00" type="taxi" speed="0.00" pos="190.40" edge="B2C2" slope="0.00"/>
    </timestep>
    <timestep time="83.00">
        <vehicle id="trip_1" x="497.60" y="195.80" angle="90.00" type="taxi" speed="0.00" pos="190.40" edge="B2C2" slope="0.00"/>
    </timestep>
    <timestep time="84.00">
        <vehicle id="trip_1" x="497.60" y="195.80" angle="90.00" type="taxi" speed="0.00" pos="190.40" edge="B2C2" slope="0.00"/>
    </timestep>
    <timestep time="85.00">
        <vehicle id="trip_1" x="497.60" y="195.80" angle="90.00" type="taxi" speed="0.00" pos="190.40" edge="B2C2" slope="0.00"/>
    </timestep>
    <timestep time="86.00">
        <vehicle id="trip_1" x="497.60" y="195.80" angle="90.00" type="taxi" speed="0.00" pos="190.40" edge="B2C2" slope="0.00"/>
    </timestep>
    <timestep time="87.00">
        <vehicle id="trip_1" x="497.60" y="195.80" angle="90.00" type="taxi" speed="0.00" pos="190.40" edge="B2C2" slope="0.00"/>
    </timestep>
    <timestep time="88.00">
        <vehicle id="trip_1" x="497.60" y="195.80" angle="90.00" type="taxi" speed="0.00" pos="190.40" edge="B2C2" slope="0.00"/>
    </timestep>
    <timestep time="89.00">
        <vehicle id="trip_1" x="497.60" y="195.80" angle="90.00" type="taxi" speed="0.00" pos="190.40" edge="B2C2" slope="0.00"/>
    </timestep>
    <timestep time="90.00">
        <vehicle id="trip_1" x="497.60" y="195.80" angle="90.00" type="taxi" speed="0.00" pos="190.40" edge="B2C2" slope="0.00"/>
    </timestep>
    <timestep time="91.00">
        <vehicle id="trip_1" x="497.60" y="195.80" angle="90.00" type="taxi" speed="0.00" pos="190.40" edge="B2C2" slope="0.00"/>
    </timestep>
    <timestep time="92.00">
        <vehicle id="trip_1" x="497.60" y="195.80" angle="90.00" type="taxi" speed="0.00" pos="190.40" edge="B2C2" slope="0.00"/>
    </timestep>
    <timestep time="93.00">
        <vehicle id="trip_1" x="497.60" y="195.80" angle="90.00" type="taxi" speed="0.00" pos="190.40" edge="B2C2" slope="0.00"/>
    </timestep>
    <timestep time="94.00">
        <vehicle id="trip_1" x="497.60" y="195.80" angle="90.00" type="taxi" speed="0.00" pos="190.40" edge="B2C2" slope="0.00"/>
    </timestep>
    <timestep time="95.00">
        <vehicle id="trip_1" x="497.60" y="195.80" angle="90.00" type="taxi" speed="0.00" pos="190.40" edge="B2C2" slope="0.00"/>
    </timestep>
    <timestep time="96.00">
        <vehicle id="trip_1" x="497.60" y="195.80" angle="90.00" type="taxi" speed="0.00" pos="190.40" edge="B2C2" slope="0.00"/>
    </timestep>
    <timestep time="97.00">
        <vehicle id="trip_1" x="497.60" y="195.80" angle="90.00" type="taxi" speed="0.00" pos="190.40" edge="B2C2" slope="0.00"/>
    </timestep>
    <timestep time="98.00">
        <vehicle id="trip_1" x="497.60" y="195.80" angle="90.00" type="taxi" speed="0.00" pos="190.40" edge="B2C2" slope="0.00"/>
    </timestep>
    <timestep time="99.00">
        <vehicle id="trip_1" x="497.60" y="195.80" angle="90.00" type="taxi" speed="0.00" pos="190.40" edge="B2C2" slope="0.00"/>
    </timestep>
    <timestep time="100.00">
        <vehicle id="trip_1" x="497.60" y="195.80" angle="90.00" type="taxi" speed="0.00" pos="190.40" edge="B2C2" slope="0.00"/>
    </timestep>
    <timestep time="101.00">
        <vehicle id="trip_1" x="497.60" y="195.80" angle="90.00" type="taxi" speed="0.00" pos="190.40" edge="B2C2" slope="0.00"/>
    </timestep>
    <timestep time="102.00">
        <vehicle id="trip_1" x="497.60" y="195.80" angle="90.00" type="taxi" speed="0.00" pos="190.40" edge="B2C2" slope="0.00"/>
    </timestep>
    <timestep time="103.00">
        <vehicle id="trip_1" x="497.60" y="195.80" angle="90.00" type="taxi" speed="0.00" pos="190.40" edge="B2C2" slope="0.00"/>
    </timestep>
    <timestep time="104.00">
        <vehicle id="trip_1" x="497.60" y="195.80" angle="90.00" type="taxi" speed="0.00" pos="190.40" edge="B2C2" slope="0.00"/>
    </timestep>
    <timestep time="105.00">
        <vehicle id="trip_1" x="497.60" y="195.80" angle="90.00" type="taxi" speed="0.00" pos="190.40" edge="B2C2" slope="0.00"/>
    </timestep>
    <timestep time="106.00">
        <vehicle id="trip_1" x="497.60" y="195.80" angle="90.00" type="taxi" speed="0.00" pos="190.40" edge="B2C2" slope="0.00"/>
    </timestep>
    <timestep time="107.00">
        <vehicle id="trip_1" x="497.60" y="195.80" angle="90.00" type="taxi" speed="0.00" pos="190.40" edge="B2C2" slope="0.00"/>
    </timestep>
    <timestep time="108.00">
        <vehicle id="trip_1" x="497.60" y="195.80" angle="90.00" type="taxi" speed="0.00" pos="190.40" edge="B2C2" slope="0.00"/>
    </timestep>
    <timestep time="109.00">
        <vehicle id="trip_1" x="497.60" y="195.80" angle="90.00" type="taxi" speed="0.00" pos="190.40" edge="B2C2" slope="0.00"/>
    </timestep>
    <timestep time="110.00">
        <vehicle id="trip_1" x="497.60" y="195.80" angle="90.00" type="taxi" speed="0.00" pos="190.40" edge="B2C2" slope="0.00"/>
    </timestep>
    <timestep time="111.00">
        <vehicle id="trip_1" x="497.60" y="195.80" angle="90.00" type="taxi" speed="0.00" pos="190.40" edge="B2C2" slope="0.00"/>
    </timestep>
    <timestep time="112.00">
        <vehicle id="trip_1" x="497.60" y="195.80" angle="90.00" type="taxi" speed="0.00" pos="190.40" edge="B2C2" slope="0.00"/>
    </timestep>
    <timestep time="113.00">
        <vehicle id="trip_1" x="497.60" y="195.80" angle="90.00" type="taxi" speed="0.00" pos="190.40" edge="B2C2" slope="0.00"/>
    </timestep>
    <timestep time="114.00">
        <vehicle id="trip_1" x="497.60" y="195.80" angle="90.00" type="taxi" speed="0.00" pos="190.40" edge="B2C2" slope="0.00"/>
    </timestep>
    <timestep time="115.00">
        <vehicle id="trip_1" x="497.60" y="195.80" angle="90.00" type="taxi" speed="0.00" pos="190.40" edge="B2C2" slope="0.00"/>
    </timestep>
    <timestep time="116.00">
        <vehicle id="trip_1" x="497.60" y="195.80" angle="90.00" type="taxi" speed="0.00" pos="190.40" edge="B2C2" slope="0.00"/>
    </timestep>
    <timestep time="117.00">
        <vehicle id="trip_1" x="497.60" y="195.80" angle="90.00" type="taxi" speed="0.00" pos="190.40" edge="B2C2" slope="0.00"/>
    </timestep>
    <timestep time="118.00">
        <vehicle id="trip_1" x="497.60" y="195.80" angle="90.00" type="taxi" speed="0.00" pos="190.40" edge="B2C2" slope="0.00"/>
    </timestep>
    <timestep time="119.00">
        <vehicle id="trip_1" x="497.60" y="195.80" angle="90.00" type="taxi" speed="0.00" pos="190.40" edge="B2C2" slope="0.00"/>
    </timestep>
    <timestep time="120.00">
        <vehicle id="trip_1" x="497.60" y="195.80" angle="90.00" type="taxi" speed="0.00" pos="190.40" edge="B2C2" slope="0.00"/>
    </timestep>
    <timestep time="121.00">
        <vehicle id="trip_1" x="497.60" y="195.80" angle="90.00" type="taxi" speed="0.00" pos="190.40" edge="B2C2" slope="0.00"/>
    </timestep>
    <timestep time="122.00">
        <vehicle id="trip_1" x="497.60" y="195.80" angle="90.00" type="taxi" speed="0.00" pos="190.40" edge="B2C2" slope="0.00"/>
    </timestep>
    <timestep time="123.00">
        <vehicle id="trip_1" x="497.60" y="195.80" angle="90.00" type="taxi" speed="0.00" pos="190.40" edge="B2C2" slope="0.00"/>
    </timestep>
    <timestep time="124.00">
        <vehicle id="trip_1" x="497.60" y="195.80" angle="90.00" type="taxi" speed="0.00" pos="190.40" edge="B2C2" slope="0.00"/>
    </timestep>
    <timestep time="125.00">
        <vehicle id="trip_1" x="497.60" y="195.80" angle="90.00" type="taxi" speed="0.00" pos="190.40" edge="B2C2" slope="0.00"/>
    </timestep>
    <timestep time="126.00">
        <vehicle id="trip_1" x="497.60" y="195.80" angle="90.00" type="taxi" speed="0.00" pos="190.40" edge="B2C2" slope="0.00"/>
    </timestep>
    <timestep time="127.00">
        <vehicle id="trip_1" x="497.60" y="195.80" angle="90.00" type="taxi" speed="0.00" pos="190.40" edge="B2C2" slope="0.00"/>
    </timestep>
    <timestep time="128.00">
        <vehicle id="trip_1" x="497.60" y="195.80" angle="90.00" type="taxi" speed="0.00" pos="190.40" edge="B2C2" slope="0.00"/>
    </timestep>
    <timestep time="129.00">
        <vehicle id="trip_1" x="497.60" y="195.80" angle="90.00" type="taxi" speed="0.00" pos="190.40" edge="B2C2" slope="0.00"/>
    </timestep>
    <timestep time="130.00">
        <vehicle id="trip_1" x="497.60" y="195.80" angle="90.00" type="taxi" speed="0.00" pos="190.40" edge="B2C2" slope="0.00"/>
    </timestep>
    <timestep time="131.00">
        <vehicle id="trip_1" x="497.60" y="195.80" angle="90.00" type="taxi" speed="0.00" pos="190.40" edge="B2C2" slope="0.00"/>
    </timestep>
    <timestep time="132.00">
        <vehicle id="trip_1" x="497.60" y="195.80" angle="90.00" type="taxi" speed="0.00" pos="190.40" edge="B2C2" slope="0.00"/>
    </timestep>
</fcd-export>
