<?xml version="1.0" encoding="UTF-8"?>

<!-- generated on 2022-06-10 15:34:24 by Eclipse SUMO sumo Version v1_13_0+0753-6c96432
This data file and the accompanying materials
are made available under the terms of the Eclipse Public License v2.0
which accompanies this distribution, and is available at
http://www.eclipse.org/legal/epl-v20.html
This file may also be made available under the following Secondary
Licenses when the conditions for such availability set forth in the Eclipse
Public License 2.0 are satisfied: GNU General Public License, version 2
or later which is available at
https://www.gnu.org/licenses/old-licenses/gpl-2.0-standalone.html
SPDX-License-Identifier: EPL-2.0 OR GPL-2.0-or-later
<configuration xmlns:xsi="http://www.w3.org/2001/XMLSchema-instance" xsi:noNamespaceSchemaLocation="http://sumo.dlr.de/xsd/sumoConfiguration.xsd">

    <input>
        <net-file value="net3.net.xml"/>
        <route-files value="input_routes2.rou.xml"/>
        <additional-files value="input_additional.add.xml"/>
    </input>

    <output>
        <write-license value="true"/>
    </output>

    <processing>
        <default.speeddev value="0"/>
    </processing>

    <report>
        <xml-validation value="never"/>
        <duration-log.disable value="true"/>
        <no-step-log value="true"/>
    </report>

</configuration>
-->

<detector xmlns:xsi="http://www.w3.org/2001/XMLSchema-instance" xsi:noNamespaceSchemaLocation="http://sumo.dlr.de/xsd/det_e1_file.xsd">
    <interval begin="0.00" end="278.00" id="all" nVehContrib="35" flow="453.24" occupancy="2.16" speed="1.26" harmonicMeanSpeed="1.25" length="0.21" nVehEntered="35"/>
    <interval begin="0.00" end="278.00" id="cSN" nVehContrib="20" flow="258.99" occupancy="1.22" speed="1.27" harmonicMeanSpeed="1.26" length="0.21" nVehEntered="20"/>
    <interval begin="0.00" end="278.00" id="cSW" nVehContrib="5" flow="64.75" occupancy="0.31" speed="1.26" harmonicMeanSpeed="1.26" length="0.21" nVehEntered="5"/>
</detector>
