<?xml version="1.0" encoding="UTF-8"?>

<!-- generated on Fri Jul  1 15:29:07 2016 by SUMO Version dev-SVN-r21086
<?xml version="1.0" encoding="UTF-8"?>

<configuration xmlns:xsi="http://www.w3.org/2001/XMLSchema-instance" xsi:noNamespaceSchemaLocation="http://sumo.dlr.de/xsd/sumoConfiguration.xsd">

    <input>
        <net-file value="three_split.net.xml"/>
        <route-files value="input_routes.rou.xml"/>
        <additional-files value="input_additional.add.xml"/>
    </input>

    <output>
        <vehroute-output value="vehroutes.xml"/>
    </output>

    <time>
        <begin value="0"/>
    </time>

    <processing>
        <ignore-route-errors value="true"/>
    </processing>

    <routing>
        <device.rerouting.pre-period value="0"/>
    </routing>

    <report>
        <xml-validation value="never"/>
        <duration-log.disable value="true"/>
        <no-step-log value="true"/>
    </report>

    <mesoscopic>
        <mesosim value="true"/>
    </mesoscopic>

</configuration>
-->

<routes xmlns:xsi="http://www.w3.org/2001/XMLSchema-instance" xsi:noNamespaceSchemaLocation="http://sumo.dlr.de/xsd/routes_file.xsd">
    <vehicle id="rerouting_device.2" depart="4.00" arrival="205.00">
        <routeDistribution>
            <route replacedOnEdge="beg" replacedAtTime="4.00" probability="0" edges="beg beg2left left left2end end rend"/>
            <route edges="beg beg2right right right2end end rend"/>
        </routeDistribution>
        <param key="has.rerouting.device" value="true"/>
    </vehicle>

    <vehicle id="rerouting_device.3" depart="6.00" arrival="209.00">
        <routeDistribution>
            <route replacedOnEdge="beg" replacedAtTime="6.00" probability="0" edges="beg beg2left left left2end end rend"/>
            <route edges="beg beg2right right right2end end rend"/>
        </routeDistribution>
        <param key="has.rerouting.device" value="true"/>
    </vehicle>

    <vehicle id="rerouting_device.4" depart="8.00" arrival="213.00">
        <routeDistribution>
            <route replacedOnEdge="beg" replacedAtTime="8.00" probability="0" edges="beg beg2left left left2end end rend"/>
            <route edges="beg beg2right right right2end end rend"/>
        </routeDistribution>
        <param key="has.rerouting.device" value="true"/>
    </vehicle>

    <vehicle id="rerouting_device.5" depart="10.00" arrival="217.00">
        <routeDistribution>
            <route replacedOnEdge="beg" replacedAtTime="10.00" probability="0" edges="beg beg2left left left2end end rend"/>
            <route edges="beg beg2right right right2end end rend"/>
        </routeDistribution>
        <param key="has.rerouting.device" value="true"/>
    </vehicle>

    <vehicle id="rerouting_device.6" depart="12.00" arrival="221.00">
        <routeDistribution>
            <route replacedOnEdge="beg" replacedAtTime="12.00" probability="0" edges="beg beg2left left left2end end rend"/>
            <route edges="beg beg2right right right2end end rend"/>
        </routeDistribution>
        <param key="has.rerouting.device" value="true"/>
    </vehicle>

    <vehicle id="rerouting_device.7" depart="14.00" arrival="225.00">
        <routeDistribution>
            <route replacedOnEdge="beg" replacedAtTime="14.00" probability="0" edges="beg beg2left left left2end end rend"/>
            <route edges="beg beg2right right right2end end rend"/>
        </routeDistribution>
        <param key="has.rerouting.device" value="true"/>
    </vehicle>

    <vehicle id="rerouting_device.8" depart="16.00" arrival="228.00">
        <routeDistribution>
            <route replacedOnEdge="beg" replacedAtTime="16.00" probability="0" edges="beg beg2left left left2end end rend"/>
            <route edges="beg beg2right right right2end end rend"/>
        </routeDistribution>
        <param key="has.rerouting.device" value="true"/>
    </vehicle>

    <vehicle id="rerouting_device.9" depart="18.00" arrival="231.00">
        <routeDistribution>
            <route replacedOnEdge="beg" replacedAtTime="18.00" probability="0" edges="beg beg2left left left2end end rend"/>
            <route edges="beg beg2right right right2end end rend"/>
        </routeDistribution>
        <param key="has.rerouting.device" value="true"/>
    </vehicle>

    <vehicle id="obstruction" type="slow" depart="0.00" arrival="500.00">
        <route edges="middle"/>
    </vehicle>

    <vehicle id="rerouting_device.0" depart="0.00" arrival="538.00">
        <routeDistribution>
            <route replacedOnEdge="beg" replacedAtTime="0.00" probability="0" edges="beg beg2left left left2end end rend"/>
            <route edges="beg middle end rend"/>
        </routeDistribution>
        <param key="has.rerouting.device" value="true"/>
    </vehicle>

    <vehicle id="no_device.0" depart="0.00" arrival="540.00">
        <routeDistribution>
            <route replacedOnEdge="beg" replacedAtTime="0.00" probability="0" edges="beg beg2left left left2end end rend"/>
            <route edges="beg middle end rend"/>
        </routeDistribution>
    </vehicle>

    <vehicle id="rerouting_device.1" depart="2.00" arrival="542.00">
        <routeDistribution>
            <route replacedOnEdge="beg" replacedAtTime="2.00" probability="0" edges="beg beg2left left left2end end rend"/>
            <route edges="beg middle end rend"/>
        </routeDistribution>
        <param key="has.rerouting.device" value="true"/>
    </vehicle>

    <vehicle id="no_device.1" depart="2.00" arrival="544.00">
        <routeDistribution>
            <route replacedOnEdge="beg" replacedAtTime="2.00" probability="0" edges="beg beg2left left left2end end rend"/>
            <route edges="beg middle end rend"/>
        </routeDistribution>
    </vehicle>

    <vehicle id="no_device.2" depart="4.00" arrival="546.00">
        <routeDistribution>
            <route replacedOnEdge="beg" replacedAtTime="4.00" probability="0" edges="beg beg2left left left2end end rend"/>
            <route edges="beg middle end rend"/>
        </routeDistribution>
    </vehicle>

    <vehicle id="no_device.3" depart="6.00" arrival="548.00">
        <routeDistribution>
            <route replacedOnEdge="beg" replacedAtTime="6.00" probability="0" edges="beg beg2left left left2end end rend"/>
            <route edges="beg middle end rend"/>
        </routeDistribution>
    </vehicle>

    <vehicle id="no_device.4" depart="8.00" arrival="550.00">
        <routeDistribution>
            <route replacedOnEdge="beg" replacedAtTime="8.00" probability="0" edges="beg beg2left left left2end end rend"/>
            <route edges="beg middle end rend"/>
        </routeDistribution>
    </vehicle>

    <vehicle id="no_device.5" depart="11.00" arrival="552.00">
        <routeDistribution>
            <route replacedOnEdge="beg" replacedAtTime="11.00" probability="0" edges="beg beg2left left left2end end rend"/>
            <route edges="beg middle end rend"/>
        </routeDistribution>
    </vehicle>

    <vehicle id="no_device.6" depart="12.00" arrival="553.00">
        <routeDistribution>
            <route replacedOnEdge="beg" replacedAtTime="12.00" probability="0" edges="beg beg2left left left2end end rend"/>
            <route edges="beg middle end rend"/>
        </routeDistribution>
    </vehicle>

    <vehicle id="no_device.7" depart="14.00" arrival="554.00">
        <routeDistribution>
            <route replacedOnEdge="beg" replacedAtTime="14.00" probability="0" edges="beg beg2left left left2end end rend"/>
            <route edges="beg middle end rend"/>
        </routeDistribution>
    </vehicle>

    <vehicle id="no_device.8" depart="17.00" arrival="556.00">
        <routeDistribution>
            <route replacedOnEdge="beg" replacedAtTime="17.00" probability="0" edges="beg beg2left left left2end end rend"/>
            <route edges="beg middle end rend"/>
        </routeDistribution>
    </vehicle>

    <vehicle id="no_device.9" depart="18.00" arrival="557.00">
        <routeDistribution>
            <route replacedOnEdge="beg" replacedAtTime="18.00" probability="0" edges="beg beg2left left left2end end rend"/>
            <route edges="beg middle end rend"/>
        </routeDistribution>
    </vehicle>

</routes>
