<?xml version="1.0" encoding="UTF-8"?>

<!-- generated on 2024-07-03 13:02:37 by Eclipse SUMO sumo Version v1_20_0+0506-4e6ee93087e
<sumoConfiguration xmlns:xsi="http://www.w3.org/2001/XMLSchema-instance" xsi:noNamespaceSchemaLocation="http://sumo.dlr.de/xsd/sumoConfiguration.xsd">

    <input>
        <net-file value="net.net.xml"/>
        <route-files value="input_routes2.rou.xml,input_routes.rou.xml"/>
    </input>

    <output>
        <tripinfo-output value="tripinfos.xml"/>
        <tripinfo-output.write-unfinished value="true"/>
        <statistic-output value="stats.xml"/>
    </output>

    <report>
        <no-step-log value="true"/>
    </report>

    <taxi_device>
        <device.taxi.dispatch-algorithm value="traci"/>
    </taxi_device>

    <traci_server>
        <remote-port value="54148"/>
    </traci_server>

</sumoConfiguration>
-->

<tripinfos xmlns:xsi="http://www.w3.org/2001/XMLSchema-instance" xsi:noNamespaceSchemaLocation="http://sumo.dlr.de/xsd/tripinfo_file.xsd">
    <personinfo id="0" depart="0.00" type="DEFAULT_PEDTYPE" speedFactor="1.06" duration="138.00" waitingTime="31.00" timeLoss="12.94" traveltime="107.00">
        <ride waitingTime="31.00" vehicle="v0" depart="31.00" arrival="138.00" arrivalPos="85.60" duration="107.00" routeLength="480.44" timeLoss="12.94"/>
    </personinfo>
    <personinfo id="1" depart="0.00" type="DEFAULT_PEDTYPE" speedFactor="0.94" duration="253.00" waitingTime="146.00" timeLoss="13.51" traveltime="107.00">
        <ride waitingTime="146.00" vehicle="v0" depart="146.00" arrival="253.00" arrivalPos="285.60" duration="107.00" routeLength="475.28" timeLoss="13.51"/>
    </personinfo>
    <tripinfo id="v0" depart="0.00" departLane="A0B0_1" departPos="5.10" departSpeed="0.00" departDelay="0.00" arrival="-1.00" arrivalLane="" arrivalPos="-1.00" arrivalSpeed="-1.00" duration="630.00" routeLength="1267.19" waitingTime="7.00" waitingCount="2" stopTime="500.00" timeLoss="37.74" rerouteNo="2" devices="tripinfo_v0 taxi_v0 person_v0" vType="taxi" speedFactor="1.01" vaporized="">
        <taxi customers="2" occupiedDistance="955.73" occupiedTime="100.00"/>
    </tripinfo>
</tripinfos>
