<?xml version="1.0" encoding="UTF-8"?>

<!-- generated on 2026-03-14T06:08:20.761079+01:00 by Eclipse SUMO sumo v1_26_0+0586-69dd46f7418
This data file and the accompanying materials
are made available under the terms of the Eclipse Public License v2.0
which accompanies this distribution, and is available at
http://www.eclipse.org/legal/epl-v20.html
This file may also be made available under the following Secondary
Licenses when the conditions for such availability set forth in the Eclipse
Public License 2.0 are satisfied: GNU General Public License, version 2
or later which is available at
https://www.gnu.org/licenses/old-licenses/gpl-2.0-standalone.html
SPDX-License-Identifier: EPL-2.0 OR GPL-2.0-or-later
<sumoConfiguration xmlns:xsi="http://www.w3.org/2001/XMLSchema-instance" xsi:noNamespaceSchemaLocation="http://sumo.dlr.de/xsd/sumoConfiguration.xsd">

    <input>
        <net-file value="net.net.xml"/>
        <additional-files value="input_routes.rou.xml,input_additional2.add.xml"/>
    </input>

    <output>
        <write-license value="true"/>
        <netstate-dump value="rawdump.xml"/>
        <fcd-output value="fcd.xml"/>
        <fcd-output.attributes value="speed,pos,lane,edge"/>
    </output>

    <time>
        <begin value="0"/>
        <end value="50"/>
        <step-length value="0.1"/>
    </time>

    <processing>
        <default.speeddev value="0"/>
    </processing>

    <report>
        <xml-validation value="never"/>
        <duration-log.disable value="true"/>
        <no-step-log value="true"/>
    </report>

</sumoConfiguration>
-->

<fcd-export xmlns:xsi="http://www.w3.org/2001/XMLSchema-instance" xsi:noNamespaceSchemaLocation="http://sumo.dlr.de/xsd/fcd_file.xsd">
    <timestep time="0.00">
        <vehicle id="0" speed="10.00" pos="100.00" lane="4/1to3/1_0"/>
    </timestep>
    <timestep time="0.10">
        <vehicle id="0" speed="10.00" pos="101.00" lane="4/1to3/1_0"/>
    </timestep>
    <timestep time="0.20">
        <vehicle id="0" speed="10.00" pos="102.00" lane="4/1to3/1_0"/>
    </timestep>
    <timestep time="0.30">
        <vehicle id="0" speed="10.00" pos="103.00" lane="4/1to3/1_0"/>
    </timestep>
    <timestep time="0.40">
        <vehicle id="0" speed="10.00" pos="104.00" lane="4/1to3/1_0"/>
    </timestep>
    <timestep time="0.50">
        <vehicle id="0" speed="10.00" pos="105.00" lane="4/1to3/1_0"/>
    </timestep>
    <timestep time="0.60">
        <vehicle id="0" speed="10.00" pos="106.00" lane="4/1to3/1_0"/>
    </timestep>
    <timestep time="0.70">
        <vehicle id="0" speed="10.00" pos="107.00" lane="4/1to3/1_0"/>
    </timestep>
    <timestep time="0.80">
        <vehicle id="0" speed="10.00" pos="108.00" lane="4/1to3/1_0"/>
    </timestep>
    <timestep time="0.90">
        <vehicle id="0" speed="10.00" pos="109.00" lane="4/1to3/1_0"/>
    </timestep>
    <timestep time="1.00">
        <vehicle id="0" speed="10.00" pos="110.00" lane="4/1to3/1_0"/>
    </timestep>
    <timestep time="1.10">
        <vehicle id="0" speed="10.00" pos="111.00" lane="4/1to3/1_0"/>
    </timestep>
    <timestep time="1.20">
        <vehicle id="0" speed="10.00" pos="112.00" lane="4/1to3/1_0"/>
    </timestep>
    <timestep time="1.30">
        <vehicle id="0" speed="10.00" pos="113.00" lane="4/1to3/1_0"/>
    </timestep>
    <timestep time="1.40">
        <vehicle id="0" speed="10.00" pos="114.00" lane="4/1to3/1_0"/>
    </timestep>
    <timestep time="1.50">
        <vehicle id="0" speed="10.00" pos="115.00" lane="4/1to3/1_0"/>
    </timestep>
    <timestep time="1.60">
        <vehicle id="0" speed="10.00" pos="116.00" lane="4/1to3/1_0"/>
    </timestep>
    <timestep time="1.70">
        <vehicle id="0" speed="10.00" pos="117.00" lane="4/1to3/1_0"/>
    </timestep>
    <timestep time="1.80">
        <vehicle id="0" speed="10.00" pos="118.00" lane="4/1to3/1_0"/>
    </timestep>
    <timestep time="1.90">
        <vehicle id="0" speed="10.00" pos="119.00" lane="4/1to3/1_0"/>
    </timestep>
    <timestep time="2.00">
        <vehicle id="0" speed="10.00" pos="120.00" lane="4/1to3/1_0"/>
    </timestep>
    <timestep time="2.10">
        <vehicle id="0" speed="10.00" pos="121.00" lane="4/1to3/1_0"/>
    </timestep>
    <timestep time="2.20">
        <vehicle id="0" speed="10.00" pos="122.00" lane="4/1to3/1_0"/>
    </timestep>
    <timestep time="2.30">
        <vehicle id="0" speed="10.00" pos="123.00" lane="4/1to3/1_0"/>
    </timestep>
    <timestep time="2.40">
        <vehicle id="0" speed="10.00" pos="124.00" lane="4/1to3/1_0"/>
    </timestep>
    <timestep time="2.50">
        <vehicle id="0" speed="10.00" pos="125.00" lane="4/1to3/1_0"/>
    </timestep>
    <timestep time="2.60">
        <vehicle id="0" speed="10.00" pos="126.00" lane="4/1to3/1_0"/>
    </timestep>
    <timestep time="2.70">
        <vehicle id="0" speed="10.00" pos="127.00" lane="4/1to3/1_0"/>
    </timestep>
    <timestep time="2.80">
        <vehicle id="0" speed="10.00" pos="128.00" lane="4/1to3/1_0"/>
    </timestep>
    <timestep time="2.90">
        <vehicle id="0" speed="10.00" pos="129.00" lane="4/1to3/1_0"/>
    </timestep>
    <timestep time="3.00">
        <vehicle id="0" speed="10.00" pos="130.00" lane="4/1to3/1_0"/>
    </timestep>
    <timestep time="3.10">
        <vehicle id="0" speed="10.00" pos="131.00" lane="4/1to3/1_0"/>
    </timestep>
    <timestep time="3.20">
        <vehicle id="0" speed="10.00" pos="132.00" lane="4/1to3/1_0"/>
    </timestep>
    <timestep time="3.30">
        <vehicle id="0" speed="10.00" pos="133.00" lane="4/1to3/1_0"/>
    </timestep>
    <timestep time="3.40">
        <vehicle id="0" speed="10.00" pos="134.00" lane="4/1to3/1_0"/>
    </timestep>
    <timestep time="3.50">
        <vehicle id="0" speed="10.00" pos="135.00" lane="4/1to3/1_0"/>
    </timestep>
    <timestep time="3.60">
        <vehicle id="0" speed="10.00" pos="136.00" lane="4/1to3/1_0"/>
    </timestep>
    <timestep time="3.70">
        <vehicle id="0" speed="10.00" pos="137.00" lane="4/1to3/1_0"/>
    </timestep>
    <timestep time="3.80">
        <vehicle id="0" speed="10.00" pos="138.00" lane="4/1to3/1_0"/>
    </timestep>
    <timestep time="3.90">
        <vehicle id="0" speed="10.00" pos="139.00" lane="4/1to3/1_0"/>
    </timestep>
    <timestep time="4.00">
        <vehicle id="0" speed="10.00" pos="140.00" lane="4/1to3/1_0"/>
    </timestep>
    <timestep time="4.10">
        <vehicle id="0" speed="10.00" pos="141.00" lane="4/1to3/1_0"/>
    </timestep>
    <timestep time="4.20">
        <vehicle id="0" speed="10.00" pos="142.00" lane="4/1to3/1_0"/>
    </timestep>
    <timestep time="4.30">
        <vehicle id="0" speed="10.00" pos="143.00" lane="4/1to3/1_0"/>
    </timestep>
    <timestep time="4.40">
        <vehicle id="0" speed="10.00" pos="144.00" lane="4/1to3/1_0"/>
    </timestep>
    <timestep time="4.50">
        <vehicle id="0" speed="10.00" pos="145.00" lane="4/1to3/1_0"/>
    </timestep>
    <timestep time="4.60">
        <vehicle id="0" speed="10.00" pos="146.00" lane="4/1to3/1_0"/>
    </timestep>
    <timestep time="4.70">
        <vehicle id="0" speed="10.00" pos="147.00" lane="4/1to3/1_0"/>
    </timestep>
    <timestep time="4.80">
        <vehicle id="0" speed="10.00" pos="148.00" lane="4/1to3/1_0"/>
    </timestep>
    <timestep time="4.90">
        <vehicle id="0" speed="10.00" pos="149.00" lane="4/1to3/1_0"/>
    </timestep>
    <timestep time="5.00">
        <vehicle id="0" speed="10.00" pos="150.00" lane="4/1to3/1_0"/>
    </timestep>
    <timestep time="5.10">
        <vehicle id="0" speed="10.00" pos="151.00" lane="4/1to3/1_0"/>
    </timestep>
    <timestep time="5.20">
        <vehicle id="0" speed="10.00" pos="152.00" lane="4/1to3/1_0"/>
    </timestep>
    <timestep time="5.30">
        <vehicle id="0" speed="10.00" pos="153.00" lane="4/1to3/1_0"/>
    </timestep>
    <timestep time="5.40">
        <vehicle id="0" speed="10.00" pos="154.00" lane="4/1to3/1_0"/>
    </timestep>
    <timestep time="5.50">
        <vehicle id="0" speed="10.00" pos="155.00" lane="4/1to3/1_0"/>
    </timestep>
    <timestep time="5.60">
        <vehicle id="0" speed="10.00" pos="156.00" lane="4/1to3/1_0"/>
    </timestep>
    <timestep time="5.70">
        <vehicle id="0" speed="10.00" pos="157.00" lane="4/1to3/1_0"/>
    </timestep>
    <timestep time="5.80">
        <vehicle id="0" speed="10.00" pos="158.00" lane="4/1to3/1_0"/>
    </timestep>
    <timestep time="5.90">
        <vehicle id="0" speed="10.00" pos="159.00" lane="4/1to3/1_0"/>
    </timestep>
    <timestep time="6.00">
        <vehicle id="0" speed="10.00" pos="160.00" lane="4/1to3/1_0"/>
    </timestep>
    <timestep time="6.10">
        <vehicle id="0" speed="10.00" pos="161.00" lane="4/1to3/1_0"/>
    </timestep>
    <timestep time="6.20">
        <vehicle id="0" speed="10.00" pos="162.00" lane="4/1to3/1_0"/>
    </timestep>
    <timestep time="6.30">
        <vehicle id="0" speed="10.00" pos="163.00" lane="4/1to3/1_0"/>
    </timestep>
    <timestep time="6.40">
        <vehicle id="0" speed="10.00" pos="164.00" lane="4/1to3/1_0"/>
    </timestep>
    <timestep time="6.50">
        <vehicle id="0" speed="10.00" pos="165.00" lane="4/1to3/1_0"/>
    </timestep>
    <timestep time="6.60">
        <vehicle id="0" speed="10.00" pos="166.00" lane="4/1to3/1_0"/>
    </timestep>
    <timestep time="6.70">
        <vehicle id="0" speed="10.00" pos="167.00" lane="4/1to3/1_0"/>
    </timestep>
    <timestep time="6.80">
        <vehicle id="0" speed="10.00" pos="168.00" lane="4/1to3/1_0"/>
    </timestep>
    <timestep time="6.90">
        <vehicle id="0" speed="10.00" pos="169.00" lane="4/1to3/1_0"/>
    </timestep>
    <timestep time="7.00">
        <vehicle id="0" speed="10.00" pos="170.00" lane="4/1to3/1_0"/>
    </timestep>
    <timestep time="7.10">
        <vehicle id="0" speed="10.00" pos="171.00" lane="4/1to3/1_0"/>
    </timestep>
    <timestep time="7.20">
        <vehicle id="0" speed="10.00" pos="172.00" lane="4/1to3/1_0"/>
    </timestep>
    <timestep time="7.30">
        <vehicle id="0" speed="10.00" pos="173.00" lane="4/1to3/1_0"/>
    </timestep>
    <timestep time="7.40">
        <vehicle id="0" speed="10.00" pos="174.00" lane="4/1to3/1_0"/>
    </timestep>
    <timestep time="7.50">
        <vehicle id="0" speed="10.00" pos="175.00" lane="4/1to3/1_0"/>
    </timestep>
    <timestep time="7.60">
        <vehicle id="0" speed="10.00" pos="176.00" lane="4/1to3/1_0"/>
    </timestep>
    <timestep time="7.70">
        <vehicle id="0" speed="10.00" pos="177.00" lane="4/1to3/1_0"/>
    </timestep>
    <timestep time="7.80">
        <vehicle id="0" speed="10.00" pos="178.00" lane="4/1to3/1_0"/>
    </timestep>
    <timestep time="7.90">
        <vehicle id="0" speed="10.00" pos="179.00" lane="4/1to3/1_0"/>
    </timestep>
    <timestep time="8.00">
        <vehicle id="0" speed="10.00" pos="180.00" lane="4/1to3/1_0"/>
    </timestep>
    <timestep time="8.10">
        <vehicle id="0" speed="10.00" pos="181.00" lane="4/1to3/1_0"/>
    </timestep>
    <timestep time="8.20">
        <vehicle id="0" speed="10.00" pos="182.00" lane="4/1to3/1_0"/>
    </timestep>
    <timestep time="8.30">
        <vehicle id="0" speed="10.00" pos="183.00" lane="4/1to3/1_0"/>
    </timestep>
    <timestep time="8.40">
        <vehicle id="0" speed="10.00" pos="184.00" lane="4/1to3/1_0"/>
    </timestep>
    <timestep time="8.50">
        <vehicle id="0" speed="10.00" pos="185.00" lane="4/1to3/1_0"/>
    </timestep>
    <timestep time="8.60">
        <vehicle id="0" speed="10.00" pos="186.00" lane="4/1to3/1_0"/>
    </timestep>
    <timestep time="8.70">
        <vehicle id="0" speed="10.00" pos="187.00" lane="4/1to3/1_0"/>
    </timestep>
    <timestep time="8.80">
        <vehicle id="0" speed="10.00" pos="188.00" lane="4/1to3/1_0"/>
    </timestep>
    <timestep time="8.90">
        <vehicle id="0" speed="10.00" pos="189.00" lane="4/1to3/1_0"/>
    </timestep>
    <timestep time="9.00">
        <vehicle id="0" speed="10.00" pos="190.00" lane="4/1to3/1_0"/>
    </timestep>
    <timestep time="9.10">
        <vehicle id="0" speed="10.00" pos="191.00" lane="4/1to3/1_0"/>
    </timestep>
    <timestep time="9.20">
        <vehicle id="0" speed="10.00" pos="192.00" lane="4/1to3/1_0"/>
    </timestep>
    <timestep time="9.30">
        <vehicle id="0" speed="10.00" pos="193.00" lane="4/1to3/1_0"/>
    </timestep>
    <timestep time="9.40">
        <vehicle id="0" speed="10.00" pos="194.00" lane="4/1to3/1_0"/>
    </timestep>
    <timestep time="9.50">
        <vehicle id="0" speed="10.00" pos="195.00" lane="4/1to3/1_0"/>
    </timestep>
    <timestep time="9.60">
        <vehicle id="0" speed="10.00" pos="196.00" lane="4/1to3/1_0"/>
    </timestep>
    <timestep time="9.70">
        <vehicle id="0" speed="10.00" pos="197.00" lane="4/1to3/1_0"/>
    </timestep>
    <timestep time="9.80">
        <vehicle id="0" speed="10.00" pos="198.00" lane="4/1to3/1_0"/>
    </timestep>
    <timestep time="9.90">
        <vehicle id="0" speed="10.00" pos="199.00" lane="4/1to3/1_0"/>
    </timestep>
    <timestep time="10.00">
        <vehicle id="0" speed="10.00" pos="200.00" lane="4/1to3/1_0"/>
    </timestep>
    <timestep time="10.10">
        <vehicle id="0" speed="10.00" pos="201.00" lane="4/1to3/1_0"/>
    </timestep>
    <timestep time="10.20">
        <vehicle id="0" speed="10.00" pos="202.00" lane="4/1to3/1_0"/>
    </timestep>
    <timestep time="10.30">
        <vehicle id="0" speed="10.00" pos="203.00" lane="4/1to3/1_0"/>
    </timestep>
    <timestep time="10.40">
        <vehicle id="0" speed="10.00" pos="204.00" lane="4/1to3/1_0"/>
    </timestep>
    <timestep time="10.50">
        <vehicle id="0" speed="10.00" pos="205.00" lane="4/1to3/1_0"/>
    </timestep>
    <timestep time="10.60">
        <vehicle id="0" speed="10.00" pos="206.00" lane="4/1to3/1_0"/>
    </timestep>
    <timestep time="10.70">
        <vehicle id="0" speed="10.00" pos="207.00" lane="4/1to3/1_0"/>
    </timestep>
    <timestep time="10.80">
        <vehicle id="0" speed="10.00" pos="208.00" lane="4/1to3/1_0"/>
    </timestep>
    <timestep time="10.90">
        <vehicle id="0" speed="10.00" pos="209.00" lane="4/1to3/1_0"/>
    </timestep>
    <timestep time="11.00">
        <vehicle id="0" speed="10.00" pos="210.00" lane="4/1to3/1_0"/>
    </timestep>
    <timestep time="11.10">
        <vehicle id="0" speed="10.00" pos="211.00" lane="4/1to3/1_0"/>
    </timestep>
    <timestep time="11.20">
        <vehicle id="0" speed="10.00" pos="212.00" lane="4/1to3/1_0"/>
    </timestep>
    <timestep time="11.30">
        <vehicle id="0" speed="10.00" pos="213.00" lane="4/1to3/1_0"/>
    </timestep>
    <timestep time="11.40">
        <vehicle id="0" speed="10.00" pos="214.00" lane="4/1to3/1_0"/>
    </timestep>
    <timestep time="11.50">
        <vehicle id="0" speed="10.00" pos="215.00" lane="4/1to3/1_0"/>
    </timestep>
    <timestep time="11.60">
        <vehicle id="0" speed="10.00" pos="216.00" lane="4/1to3/1_0"/>
    </timestep>
    <timestep time="11.70">
        <vehicle id="0" speed="10.00" pos="217.00" lane="4/1to3/1_0"/>
    </timestep>
    <timestep time="11.80">
        <vehicle id="0" speed="10.00" pos="218.00" lane="4/1to3/1_0"/>
    </timestep>
    <timestep time="11.90">
        <vehicle id="0" speed="10.00" pos="219.00" lane="4/1to3/1_0"/>
    </timestep>
    <timestep time="12.00">
        <vehicle id="0" speed="10.00" pos="220.00" lane="4/1to3/1_0"/>
    </timestep>
    <timestep time="12.10">
        <vehicle id="0" speed="10.00" pos="221.00" lane="4/1to3/1_0"/>
    </timestep>
    <timestep time="12.20">
        <vehicle id="0" speed="10.00" pos="222.00" lane="4/1to3/1_0"/>
    </timestep>
    <timestep time="12.30">
        <vehicle id="0" speed="10.00" pos="223.00" lane="4/1to3/1_0"/>
    </timestep>
    <timestep time="12.40">
        <vehicle id="0" speed="10.00" pos="224.00" lane="4/1to3/1_0"/>
    </timestep>
    <timestep time="12.50">
        <vehicle id="0" speed="10.00" pos="225.00" lane="4/1to3/1_0"/>
    </timestep>
    <timestep time="12.60">
        <vehicle id="0" speed="10.00" pos="226.00" lane="4/1to3/1_0"/>
    </timestep>
    <timestep time="12.70">
        <vehicle id="0" speed="10.00" pos="227.00" lane="4/1to3/1_0"/>
    </timestep>
    <timestep time="12.80">
        <vehicle id="0" speed="10.00" pos="228.00" lane="4/1to3/1_0"/>
    </timestep>
    <timestep time="12.90">
        <vehicle id="0" speed="10.00" pos="229.00" lane="4/1to3/1_0"/>
    </timestep>
    <timestep time="13.00">
        <vehicle id="0" speed="10.00" pos="230.00" lane="4/1to3/1_0"/>
    </timestep>
    <timestep time="13.10">
        <vehicle id="0" speed="10.00" pos="231.00" lane="4/1to3/1_0"/>
    </timestep>
    <timestep time="13.20">
        <vehicle id="0" speed="10.00" pos="232.00" lane="4/1to3/1_0"/>
    </timestep>
    <timestep time="13.30">
        <vehicle id="0" speed="10.00" pos="233.00" lane="4/1to3/1_0"/>
    </timestep>
    <timestep time="13.40">
        <vehicle id="0" speed="10.00" pos="234.00" lane="4/1to3/1_0"/>
    </timestep>
    <timestep time="13.50">
        <vehicle id="0" speed="10.00" pos="235.00" lane="4/1to3/1_0"/>
    </timestep>
    <timestep time="13.60">
        <vehicle id="0" speed="10.00" pos="236.00" lane="4/1to3/1_0"/>
    </timestep>
    <timestep time="13.70">
        <vehicle id="0" speed="10.00" pos="237.00" lane="4/1to3/1_0"/>
    </timestep>
    <timestep time="13.80">
        <vehicle id="0" speed="10.00" pos="238.00" lane="4/1to3/1_0"/>
    </timestep>
    <timestep time="13.90">
        <vehicle id="0" speed="10.00" pos="239.00" lane="4/1to3/1_0"/>
    </timestep>
    <timestep time="14.00">
        <vehicle id="0" speed="10.00" pos="240.00" lane="4/1to3/1_0"/>
    </timestep>
    <timestep time="14.10">
        <vehicle id="0" speed="10.00" pos="241.00" lane="4/1to3/1_0"/>
    </timestep>
    <timestep time="14.20">
        <vehicle id="0" speed="10.00" pos="242.00" lane="4/1to3/1_0"/>
    </timestep>
    <timestep time="14.30">
        <vehicle id="0" speed="10.00" pos="243.00" lane="4/1to3/1_0"/>
    </timestep>
    <timestep time="14.40">
        <vehicle id="0" speed="10.00" pos="244.00" lane="4/1to3/1_0"/>
    </timestep>
    <timestep time="14.50">
        <vehicle id="0" speed="10.00" pos="245.00" lane="4/1to3/1_0"/>
    </timestep>
    <timestep time="14.60">
        <vehicle id="0" speed="10.00" pos="246.00" lane="4/1to3/1_0"/>
    </timestep>
    <timestep time="14.70">
        <vehicle id="0" speed="10.00" pos="247.00" lane="4/1to3/1_0"/>
    </timestep>
    <timestep time="14.80">
        <vehicle id="0" speed="10.00" pos="248.00" lane="4/1to3/1_0"/>
    </timestep>
    <timestep time="14.90">
        <vehicle id="0" speed="10.00" pos="249.00" lane="4/1to3/1_0"/>
    </timestep>
    <timestep time="15.00">
        <vehicle id="0" speed="10.00" pos="250.00" lane="4/1to3/1_0"/>
    </timestep>
    <timestep time="15.10">
        <vehicle id="0" speed="10.00" pos="251.00" lane="4/1to3/1_0"/>
    </timestep>
    <timestep time="15.20">
        <vehicle id="0" speed="10.00" pos="252.00" lane="4/1to3/1_0"/>
    </timestep>
    <timestep time="15.30">
        <vehicle id="0" speed="10.00" pos="253.00" lane="4/1to3/1_0"/>
    </timestep>
    <timestep time="15.40">
        <vehicle id="0" speed="10.00" pos="254.00" lane="4/1to3/1_0"/>
    </timestep>
    <timestep time="15.50">
        <vehicle id="0" speed="10.00" pos="255.00" lane="4/1to3/1_0"/>
    </timestep>
    <timestep time="15.60">
        <vehicle id="0" speed="10.00" pos="256.00" lane="4/1to3/1_0"/>
    </timestep>
    <timestep time="15.70">
        <vehicle id="0" speed="10.00" pos="257.00" lane="4/1to3/1_0"/>
    </timestep>
    <timestep time="15.80">
        <vehicle id="0" speed="10.00" pos="258.00" lane="4/1to3/1_0"/>
    </timestep>
    <timestep time="15.90">
        <vehicle id="0" speed="10.00" pos="259.00" lane="4/1to3/1_0"/>
    </timestep>
    <timestep time="16.00">
        <vehicle id="0" speed="10.00" pos="260.00" lane="4/1to3/1_0"/>
    </timestep>
    <timestep time="16.10">
        <vehicle id="0" speed="10.00" pos="261.00" lane="4/1to3/1_0"/>
    </timestep>
    <timestep time="16.20">
        <vehicle id="0" speed="10.00" pos="262.00" lane="4/1to3/1_0"/>
    </timestep>
    <timestep time="16.30">
        <vehicle id="0" speed="10.00" pos="263.00" lane="4/1to3/1_0"/>
    </timestep>
    <timestep time="16.40">
        <vehicle id="0" speed="10.00" pos="264.00" lane="4/1to3/1_0"/>
    </timestep>
    <timestep time="16.50">
        <vehicle id="0" speed="10.00" pos="265.00" lane="4/1to3/1_0"/>
    </timestep>
    <timestep time="16.60">
        <vehicle id="0" speed="10.00" pos="266.00" lane="4/1to3/1_0"/>
    </timestep>
    <timestep time="16.70">
        <vehicle id="0" speed="10.00" pos="267.00" lane="4/1to3/1_0"/>
    </timestep>
    <timestep time="16.80">
        <vehicle id="0" speed="10.00" pos="268.00" lane="4/1to3/1_0"/>
    </timestep>
    <timestep time="16.90">
        <vehicle id="0" speed="10.00" pos="269.00" lane="4/1to3/1_0"/>
    </timestep>
    <timestep time="17.00">
        <vehicle id="0" speed="10.00" pos="270.00" lane="4/1to3/1_0"/>
    </timestep>
    <timestep time="17.10">
        <vehicle id="0" speed="10.00" pos="271.00" lane="4/1to3/1_0"/>
    </timestep>
    <timestep time="17.20">
        <vehicle id="0" speed="10.00" pos="272.00" lane="4/1to3/1_0"/>
    </timestep>
    <timestep time="17.30">
        <vehicle id="0" speed="10.00" pos="273.00" lane="4/1to3/1_0"/>
    </timestep>
    <timestep time="17.40">
        <vehicle id="0" speed="10.00" pos="274.00" lane="4/1to3/1_0"/>
    </timestep>
    <timestep time="17.50">
        <vehicle id="0" speed="10.00" pos="275.00" lane="4/1to3/1_0"/>
    </timestep>
    <timestep time="17.60">
        <vehicle id="0" speed="10.00" pos="276.00" lane="4/1to3/1_0"/>
    </timestep>
    <timestep time="17.70">
        <vehicle id="0" speed="10.00" pos="277.00" lane="4/1to3/1_0"/>
    </timestep>
    <timestep time="17.80">
        <vehicle id="0" speed="10.00" pos="278.00" lane="4/1to3/1_0"/>
    </timestep>
    <timestep time="17.90">
        <vehicle id="0" speed="10.00" pos="279.00" lane="4/1to3/1_0"/>
    </timestep>
    <timestep time="18.00">
        <vehicle id="0" speed="10.00" pos="280.00" lane="4/1to3/1_0"/>
    </timestep>
    <timestep time="18.10">
        <vehicle id="0" speed="10.00" pos="281.00" lane="4/1to3/1_0"/>
    </timestep>
    <timestep time="18.20">
        <vehicle id="0" speed="10.00" pos="282.00" lane="4/1to3/1_0"/>
    </timestep>
    <timestep time="18.30">
        <vehicle id="0" speed="10.00" pos="283.00" lane="4/1to3/1_0"/>
    </timestep>
    <timestep time="18.40">
        <vehicle id="0" speed="10.00" pos="284.00" lane="4/1to3/1_0"/>
    </timestep>
    <timestep time="18.50">
        <vehicle id="0" speed="10.00" pos="285.00" lane="4/1to3/1_0"/>
    </timestep>
    <timestep time="18.60">
        <vehicle id="0" speed="10.00" pos="286.00" lane="4/1to3/1_0"/>
    </timestep>
    <timestep time="18.70">
        <vehicle id="0" speed="10.00" pos="287.00" lane="4/1to3/1_0"/>
    </timestep>
    <timestep time="18.80">
        <vehicle id="0" speed="10.00" pos="288.00" lane="4/1to3/1_0"/>
    </timestep>
    <timestep time="18.90">
        <vehicle id="0" speed="10.00" pos="289.00" lane="4/1to3/1_0"/>
    </timestep>
    <timestep time="19.00">
        <vehicle id="0" speed="10.00" pos="290.00" lane="4/1to3/1_0"/>
    </timestep>
    <timestep time="19.10">
        <vehicle id="0" speed="10.00" pos="291.00" lane="4/1to3/1_0"/>
    </timestep>
    <timestep time="19.20">
        <vehicle id="0" speed="10.00" pos="292.00" lane="4/1to3/1_0"/>
    </timestep>
    <timestep time="19.30">
        <vehicle id="0" speed="10.00" pos="293.00" lane="4/1to3/1_0"/>
    </timestep>
    <timestep time="19.40">
        <vehicle id="0" speed="10.00" pos="294.00" lane="4/1to3/1_0"/>
    </timestep>
    <timestep time="19.50">
        <vehicle id="0" speed="10.00" pos="295.00" lane="4/1to3/1_0"/>
    </timestep>
    <timestep time="19.60">
        <vehicle id="0" speed="10.00" pos="296.00" lane="4/1to3/1_0"/>
    </timestep>
    <timestep time="19.70">
        <vehicle id="0" speed="10.00" pos="297.00" lane="4/1to3/1_0"/>
    </timestep>
    <timestep time="19.80">
        <vehicle id="0" speed="10.00" pos="298.00" lane="4/1to3/1_0"/>
    </timestep>
    <timestep time="19.90">
        <vehicle id="0" speed="10.00" pos="299.00" lane="4/1to3/1_0"/>
    </timestep>
    <timestep time="20.00">
        <vehicle id="0" speed="10.00" pos="300.00" lane="4/1to3/1_0"/>
    </timestep>
    <timestep time="20.10">
        <vehicle id="0" speed="10.00" pos="301.00" lane="4/1to3/1_0"/>
    </timestep>
    <timestep time="20.20">
        <vehicle id="0" speed="10.00" pos="302.00" lane="4/1to3/1_0"/>
    </timestep>
    <timestep time="20.30">
        <vehicle id="0" speed="10.00" pos="303.00" lane="4/1to3/1_0"/>
    </timestep>
    <timestep time="20.40">
        <vehicle id="0" speed="10.00" pos="304.00" lane="4/1to3/1_0"/>
    </timestep>
    <timestep time="20.50">
        <vehicle id="0" speed="10.00" pos="305.00" lane="4/1to3/1_0"/>
    </timestep>
    <timestep time="20.60">
        <vehicle id="0" speed="10.00" pos="306.00" lane="4/1to3/1_0"/>
    </timestep>
    <timestep time="20.70">
        <vehicle id="0" speed="10.00" pos="307.00" lane="4/1to3/1_0"/>
    </timestep>
    <timestep time="20.80">
        <vehicle id="0" speed="10.00" pos="308.00" lane="4/1to3/1_0"/>
    </timestep>
    <timestep time="20.90">
        <vehicle id="0" speed="10.00" pos="309.00" lane="4/1to3/1_0"/>
    </timestep>
    <timestep time="21.00">
        <vehicle id="0" speed="10.00" pos="310.00" lane="4/1to3/1_0"/>
    </timestep>
    <timestep time="21.10">
        <vehicle id="0" speed="10.00" pos="311.00" lane="4/1to3/1_0"/>
    </timestep>
    <timestep time="21.20">
        <vehicle id="0" speed="10.00" pos="312.00" lane="4/1to3/1_0"/>
    </timestep>
    <timestep time="21.30">
        <vehicle id="0" speed="10.00" pos="313.00" lane="4/1to3/1_0"/>
    </timestep>
    <timestep time="21.40">
        <vehicle id="0" speed="10.00" pos="314.00" lane="4/1to3/1_0"/>
    </timestep>
    <timestep time="21.50">
        <vehicle id="0" speed="10.00" pos="315.00" lane="4/1to3/1_0"/>
    </timestep>
    <timestep time="21.60">
        <vehicle id="0" speed="10.00" pos="316.00" lane="4/1to3/1_0"/>
    </timestep>
    <timestep time="21.70">
        <vehicle id="0" speed="10.00" pos="317.00" lane="4/1to3/1_0"/>
    </timestep>
    <timestep time="21.80">
        <vehicle id="0" speed="10.00" pos="318.00" lane="4/1to3/1_0"/>
    </timestep>
    <timestep time="21.90">
        <vehicle id="0" speed="10.00" pos="319.00" lane="4/1to3/1_0"/>
    </timestep>
    <timestep time="22.00">
        <vehicle id="0" speed="10.00" pos="320.00" lane="4/1to3/1_0"/>
    </timestep>
    <timestep time="22.10">
        <vehicle id="0" speed="10.00" pos="321.00" lane="4/1to3/1_0"/>
    </timestep>
    <timestep time="22.20">
        <vehicle id="0" speed="10.00" pos="322.00" lane="4/1to3/1_0"/>
    </timestep>
    <timestep time="22.30">
        <vehicle id="0" speed="10.00" pos="323.00" lane="4/1to3/1_0"/>
    </timestep>
    <timestep time="22.40">
        <vehicle id="0" speed="10.00" pos="324.00" lane="4/1to3/1_0"/>
    </timestep>
    <timestep time="22.50">
        <vehicle id="0" speed="10.00" pos="325.00" lane="4/1to3/1_0"/>
    </timestep>
    <timestep time="22.60">
        <vehicle id="0" speed="10.00" pos="326.00" lane="4/1to3/1_0"/>
    </timestep>
    <timestep time="22.70">
        <vehicle id="0" speed="10.00" pos="327.00" lane="4/1to3/1_0"/>
    </timestep>
    <timestep time="22.80">
        <vehicle id="0" speed="10.00" pos="328.00" lane="4/1to3/1_0"/>
    </timestep>
    <timestep time="22.90">
        <vehicle id="0" speed="10.00" pos="329.00" lane="4/1to3/1_0"/>
    </timestep>
    <timestep time="23.00">
        <vehicle id="0" speed="10.00" pos="330.00" lane="4/1to3/1_0"/>
    </timestep>
    <timestep time="23.10">
        <vehicle id="0" speed="10.00" pos="331.00" lane="4/1to3/1_0"/>
    </timestep>
    <timestep time="23.20">
        <vehicle id="0" speed="10.00" pos="332.00" lane="4/1to3/1_0"/>
    </timestep>
    <timestep time="23.30">
        <vehicle id="0" speed="10.00" pos="333.00" lane="4/1to3/1_0"/>
    </timestep>
    <timestep time="23.40">
        <vehicle id="0" speed="10.00" pos="334.00" lane="4/1to3/1_0"/>
    </timestep>
    <timestep time="23.50">
        <vehicle id="0" speed="10.00" pos="335.00" lane="4/1to3/1_0"/>
    </timestep>
    <timestep time="23.60">
        <vehicle id="0" speed="10.00" pos="336.00" lane="4/1to3/1_0"/>
    </timestep>
    <timestep time="23.70">
        <vehicle id="0" speed="10.00" pos="337.00" lane="4/1to3/1_0"/>
    </timestep>
    <timestep time="23.80">
        <vehicle id="0" speed="10.00" pos="338.00" lane="4/1to3/1_0"/>
    </timestep>
    <timestep time="23.90">
        <vehicle id="0" speed="10.00" pos="339.00" lane="4/1to3/1_0"/>
    </timestep>
    <timestep time="24.00">
        <vehicle id="0" speed="10.00" pos="340.00" lane="4/1to3/1_0"/>
    </timestep>
    <timestep time="24.10">
        <vehicle id="0" speed="10.00" pos="341.00" lane="4/1to3/1_0"/>
    </timestep>
    <timestep time="24.20">
        <vehicle id="0" speed="10.00" pos="342.00" lane="4/1to3/1_0"/>
    </timestep>
    <timestep time="24.30">
        <vehicle id="0" speed="10.00" pos="343.00" lane="4/1to3/1_0"/>
    </timestep>
    <timestep time="24.40">
        <vehicle id="0" speed="10.00" pos="344.00" lane="4/1to3/1_0"/>
    </timestep>
    <timestep time="24.50">
        <vehicle id="0" speed="10.00" pos="345.00" lane="4/1to3/1_0"/>
    </timestep>
    <timestep time="24.60">