<?xml version="1.0" encoding="UTF-8"?>

<!-- generated on Mon Jun 22 01:57:18 2020 by Eclipse SUMO Version v1_6_0+0887-0dd4682dc5
This data file and the accompanying materials
are made available under the terms of the Eclipse Public License v2.0
which accompanies this distribution, and is available at
http://www.eclipse.org/legal/epl-v20.html
SPDX-License-Identifier: EPL-2.0
<configuration xmlns:xsi="http://www.w3.org/2001/XMLSchema-instance" xsi:noNamespaceSchemaLocation="http://sumo.dlr.de/xsd/sumoConfiguration.xsd">

    <input>
        <net-file value="net.net.xml"/>
        <route-files value="input_routes.rou.xml"/>
    </input>

    <output>
        <write-license value="true"/>
        <fcd-output value="fcd.xml"/>
    </output>

    <processing>
        <default.speeddev value="0"/>
    </processing>

    <report>
        <xml-validation value="never"/>
        <duration-log.disable value="true"/>
        <no-step-log value="true"/>
    </report>

</configuration>
-->

<fcd-export xmlns:xsi="http://www.w3.org/2001/XMLSchema-instance" xsi:noNamespaceSchemaLocation="http://sumo.dlr.de/xsd/fcd_file.xsd">
    <timestep time="0.00">
        <vehicle id="EW" x="194.90" y="101.60" angle="270.00" type="DEFAULT_VEHTYPE" speed="13.89" pos="5.10" lane="EC_0" slope="0.00"/>
        <vehicle id="NS" x="98.40" y="194.90" angle="180.00" type="DEFAULT_VEHTYPE" speed="13.89" pos="5.10" lane="NC_0" slope="0.00"/>
        <vehicle id="WE" x="5.10" y="98.40" angle="90.00" type="DEFAULT_VEHTYPE" speed="13.89" pos="5.10" lane="WC_0" slope="0.00"/>
    </timestep>
    <timestep time="1.00">
        <vehicle id="EW" x="181.01" y="101.60" angle="270.00" type="DEFAULT_VEHTYPE" speed="13.89" pos="18.99" lane="EC_0" slope="0.00"/>
        <vehicle id="NS" x="98.40" y="181.01" angle="180.00" type="DEFAULT_VEHTYPE" speed="13.89" pos="18.99" lane="NC_0" slope="0.00"/>
        <vehicle id="WE" x="18.99" y="98.40" angle="90.00" type="DEFAULT_VEHTYPE" speed="13.89" pos="18.99" lane="WC_0" slope="0.00"/>
    </timestep>
    <timestep time="2.00">
        <vehicle id="EW" x="167.12" y="101.60" angle="270.00" type="DEFAULT_VEHTYPE" speed="13.89" pos="32.88" lane="EC_0" slope="0.00"/>
        <vehicle id="NS" x="98.40" y="167.12" angle="180.00" type="DEFAULT_VEHTYPE" speed="13.89" pos="32.88" lane="NC_0" slope="0.00"/>
        <vehicle id="WE" x="32.88" y="98.40" angle="90.00" type="DEFAULT_VEHTYPE" speed="13.89" pos="32.88" lane="WC_0" slope="0.00"/>
    </timestep>
    <timestep time="3.00">
        <vehicle id="EW" x="153.23" y="101.60" angle="270.00" type="DEFAULT_VEHTYPE" speed="13.89" pos="46.77" lane="EC_0" slope="0.00"/>
        <vehicle id="NS" x="98.40" y="153.23" angle="180.00" type="DEFAULT_VEHTYPE" speed="13.89" pos="46.77" lane="NC_0" slope="0.00"/>
        <vehicle id="WE" x="46.77" y="98.40" angle="90.00" type="DEFAULT_VEHTYPE" speed="13.89" pos="46.77" lane="WC_0" slope="0.00"/>
    </timestep>
    <timestep time="4.00">
        <vehicle id="EW" x="139.34" y="101.60" angle="270.00" type="DEFAULT_VEHTYPE" speed="13.89" pos="60.66" lane="EC_0" slope="0.00"/>
        <vehicle id="NS" x="98.40" y="139.34" angle="180.00" type="DEFAULT_VEHTYPE" speed="13.89" pos="60.66" lane="NC_0" slope="0.00"/>
        <vehicle id="WE" x="60.66" y="98.40" angle="90.00" type="DEFAULT_VEHTYPE" speed="13.89" pos="60.66" lane="WC_0" slope="0.00"/>
    </timestep>
    <timestep time="5.00">
        <vehicle id="EW" x="125.45" y="101.60" angle="270.00" type="DEFAULT_VEHTYPE" speed="13.89" pos="74.55" lane="EC_0" slope="0.00"/>
        <vehicle id="NS" x="98.40" y="125.45" angle="180.00" type="DEFAULT_VEHTYPE" speed="13.89" pos="74.55" lane="NC_0" slope="0.00"/>
        <vehicle id="WE" x="74.55" y="98.40" angle="90.00" type="DEFAULT_VEHTYPE" speed="13.89" pos="74.55" lane="WC_0" slope="0.00"/>
    </timestep>
    <timestep time="6.00">
        <vehicle id="EW" x="114.90" y="101.60" angle="270.00" type="DEFAULT_VEHTYPE" speed="10.55" pos="85.10" lane="EC_0" slope="0.00"/>
        <vehicle id="NS" x="98.40" y="114.90" angle="180.00" type="DEFAULT_VEHTYPE" speed="10.55" pos="85.10" lane="NC_0" slope="0.00"/>
        <vehicle id="WE" x="85.10" y="98.40" angle="90.00" type="DEFAULT_VEHTYPE" speed="10.55" pos="85.10" lane="WC_0" slope="0.00"/>
    </timestep>
    <timestep time="7.00">
        <vehicle id="EW" x="108.85" y="101.60" angle="270.00" type="DEFAULT_VEHTYPE" speed="6.05" pos="91.15" lane="EC_0" slope="0.00"/>
        <vehicle id="NS" x="98.40" y="108.85" angle="180.00" type="DEFAULT_VEHTYPE" speed="6.05" pos="91.15" lane="NC_0" slope="0.00"/>
        <vehicle id="WE" x="91.15" y="98.40" angle="90.00" type="DEFAULT_VEHTYPE" speed="6.05" pos="91.15" lane="WC_0" slope="0.00"/>
    </timestep>
    <timestep time="8.00">
        <vehicle id="EW" x="107.30" y="101.60" angle="270.00" type="DEFAULT_VEHTYPE" speed="1.55" pos="92.70" lane="EC_0" slope="0.00"/>
        <vehicle id="NS" x="98.40" y="107.30" angle="180.00" type="DEFAULT_VEHTYPE" speed="1.55" pos="92.70" lane="NC_0" slope="0.00"/>
        <vehicle id="WE" x="99.80" y="98.40" angle="90.00" type="DEFAULT_VEHTYPE" speed="8.65" pos="7.00" lane=":C_10_0" slope="0.00"/>
    </timestep>
    <timestep time="9.00">
        <vehicle id="EW" x="107.30" y="101.60" angle="270.00" type="DEFAULT_VEHTYPE" speed="0.00" pos="92.70" lane="EC_0" slope="0.00"/>
        <vehicle id="NS" x="98.40" y="103.15" angle="180.00" type="DEFAULT_VEHTYPE" speed="4.15" pos="4.05" lane=":C_1_0" slope="0.00"/>
        <vehicle id="WE" x="111.05" y="98.40" angle="90.00" type="DEFAULT_VEHTYPE" speed="11.25" pos="3.85" lane="CE_0" slope="0.00"/>
    </timestep>
    <timestep time="10.00">
        <vehicle id="EW" x="105.84" y="101.60" angle="270.00" type="DEFAULT_VEHTYPE" speed="1.46" pos="1.36" lane=":C_4_0" slope="0.00"/>
        <vehicle id="NS" x="98.40" y="96.40" angle="180.00" type="DEFAULT_VEHTYPE" speed="6.75" pos="10.80" lane=":C_1_0" slope="0.00"/>
        <vehicle id="WE" x="124.90" y="98.40" angle="90.00" type="DEFAULT_VEHTYPE" speed="13.85" pos="17.70" lane="CE_0" slope="0.00"/>
    </timestep>
    <timestep time="11.00">
        <vehicle id="EW" x="101.79" y="101.60" angle="270.00" type="DEFAULT_VEHTYPE" speed="4.06" pos="5.41" lane=":C_4_0" slope="0.00"/>
        <vehicle id="NS" x="98.40" y="87.05" angle="180.00" type="DEFAULT_VEHTYPE" speed="9.35" pos="5.75" lane="CS_0" slope="0.00"/>
        <vehicle id="WE" x="138.79" y="98.40" angle="90.00" type="DEFAULT_VEHTYPE" speed="13.89" pos="31.59" lane="CE_0" slope="0.00"/>
    </timestep>
    <timestep time="12.00">
        <vehicle id="EW" x="95.13" y="101.60" angle="270.00" type="DEFAULT_VEHTYPE" speed="6.66" pos="12.07" lane=":C_4_0" slope="0.00"/>
        <vehicle id="NS" x="98.40" y="75.10" angle="180.00" type="DEFAULT_VEHTYPE" speed="11.95" pos="17.70" lane="CS_0" slope="0.00"/>
        <vehicle id="WE" x="152.68" y="98.40" angle="90.00" type="DEFAULT_VEHTYPE" speed="13.89" pos="45.48" lane="CE_0" slope="0.00"/>
    </timestep>
    <timestep time="13.00">
        <vehicle id="EW" x="85.87" y="101.60" angle="270.00" type="DEFAULT_VEHTYPE" speed="9.26" pos="6.93" lane="CW_0" slope="0.00"/>
        <vehicle id="NS" x="98.40" y="61.21" angle="180.00" type="DEFAULT_VEHTYPE" speed="13.89" pos="31.59" lane="CS_0" slope="0.00"/>
        <vehicle id="WE" x="166.57" y="98.40" angle="90.00" type="DEFAULT_VEHTYPE" speed="13.89" pos="59.37" lane="CE_0" slope="0.00"/>
    </timestep>
    <timestep time="14.00">
        <vehicle id="EW" x="74.01" y="101.60" angle="270.00" type="DEFAULT_VEHTYPE" speed="11.86" pos="18.79" lane="CW_0" slope="0.00"/>
        <vehicle id="NS" x="98.40" y="47.32" angle="180.00" type="DEFAULT_VEHTYPE" speed="13.89" pos="45.48" lane="CS_0" slope="0.00"/>
        <vehicle id="WE" x="180.46" y="98.40" angle="90.00" type="DEFAULT_VEHTYPE" speed="13.89" pos="73.26" lane="CE_0" slope="0.00"/>
    </timestep>
    <timestep time="15.00">
        <vehicle id="EW" x="60.12" y="101.60" angle="270.00" type="DEFAULT_VEHTYPE" speed="13.89" pos="32.68" lane="CW_0" slope="0.00"/>
        <vehicle id="NS" x="98.40" y="33.43" angle="180.00" type="DEFAULT_VEHTYPE" speed="13.89" pos="59.37" lane="CS_0" slope="0.00"/>
        <vehicle id="WE" x="194.35" y="98.40" angle="90.00" type="DEFAULT_VEHTYPE" speed="13.89" pos="87.15" lane="CE_0" slope="0.00"/>
    </timestep>
    <timestep time="16.00">
        <vehicle id="EW" x="46.23" y="101.60" angle="270.00" type="DEFAULT_VEHTYPE" speed="13.89" pos="46.57" lane="CW_0" slope="0.00"/>
        <vehicle id="NS" x="98.40" y="19.54" angle="180.00" type="DEFAULT_VEHTYPE" speed="13.89" pos="73.26" lane="CS_0" slope="0.00"/>
    </timestep>
    <timestep time="17.00">
        <vehicle id="EW" x="32.34" y="101.60" angle="270.00" type="DEFAULT_VEHTYPE" speed="13.89" pos="60.46" lane="CW_0" slope="0.00"/>
        <vehicle id="NS" x="98.40" y="5.65" angle="180.00" type="DEFAULT_VEHTYPE" speed="13.89" pos="87.15" lane="CS_0" slope="0.00"/>
    </timestep>
    <timestep time="18.00">
        <vehicle id="EW" x="18.45" y="101.60" angle="270.00" type="DEFAULT_VEHTYPE" speed="13.89" pos="74.35" lane="CW_0" slope="0.00"/>
    </timestep>
    <timestep time="19.00">
        <vehicle id="EW" x="4.56" y="101.60" angle="270.00" type="DEFAULT_VEHTYPE" speed="13.89" pos="88.24" lane="CW_0" slope="0.00"/>
    </timestep>
    <timestep time="20.00"/>
</fcd-export>
