<?xml version="1.0" encoding="UTF-8"?>

<!-- generated on 05/02/13 15:06:32 by SUMO sumo Version 0.17.0
<?xml version="1.0" encoding="UTF-8"?>

<configuration xmlns:xsi="http://www.w3.org/2001/XMLSchema-instance" xsi:noNamespaceSchemaLocation="http://sumo-sim.org/xsd/sumoConfiguration.xsd">

    <input>
        <net-file value="net.net.xml"/>
        <additional-files value="input_routes.rou.xml"/>
    </input>

    <output>
        <fcd-output value="fcd.xml"/>
    </output>

    <report>
        <no-duration-log value="true"/>
        <no-step-log value="true"/>
    </report>

</configuration>
-->

<fcd-export>
    <timestep time="0.00">
        <vehicle id="1" x="0.00" y="-1.65" angle="90.00" type="t1" speed="20.00" pos="0.00" lane="1_0" slope="47.81"/>
    </timestep>
    <timestep time="1.00">
        <vehicle id="1" x="13.43" y="-1.65" angle="90.00" type="t1" speed="20.00" pos="20.00" lane="1_0" slope="47.81"/>
    </timestep>
    <timestep time="2.00">
        <vehicle id="1" x="26.86" y="-1.65" angle="90.00" type="t1" speed="20.00" pos="40.00" lane="1_0" slope="47.81"/>
    </timestep>
    <timestep time="3.00">
        <vehicle id="1" x="40.29" y="-1.65" angle="90.00" type="t1" speed="20.00" pos="60.00" lane="1_0" slope="47.81"/>
    </timestep>
    <timestep time="4.00">
        <vehicle id="1" x="53.72" y="-1.65" angle="90.00" type="t1" speed="20.00" pos="80.00" lane="1_0" slope="47.81"/>
    </timestep>
    <timestep time="5.00">
        <vehicle id="1" x="67.15" y="-1.65" angle="90.00" type="t1" speed="20.00" pos="100.00" lane="1_0" slope="47.81"/>
    </timestep>
    <timestep time="6.00">
        <vehicle id="1" x="80.58" y="-1.65" angle="90.00" type="t1" speed="20.00" pos="120.00" lane="1_0" slope="47.81"/>
    </timestep>
    <timestep time="7.00">
        <vehicle id="1" x="95.21" y="-1.65" angle="90.00" type="t1" speed="20.00" pos="5.04" lane="2_0" slope="-24.57"/>
    </timestep>
    <timestep time="8.00">
        <vehicle id="1" x="113.40" y="-1.65" angle="90.00" type="t1" speed="20.00" pos="25.04" lane="2_0" slope="-24.57"/>
    </timestep>
    <timestep time="9.00">
        <vehicle id="1" x="131.59" y="-1.65" angle="90.00" type="t1" speed="20.00" pos="45.04" lane="2_0" slope="-24.57"/>
    </timestep>
    <timestep time="10.00">
        <vehicle id="1" x="149.79" y="-1.65" angle="90.00" type="t1" speed="20.00" pos="65.04" lane="2_0" slope="-24.57"/>
    </timestep>
    <timestep time="11.00">
        <vehicle id="1" x="167.98" y="-1.65" angle="90.00" type="t1" speed="20.00" pos="85.04" lane="2_0" slope="-24.57"/>
    </timestep>
    <timestep time="12.00">
        <vehicle id="1" x="186.17" y="-1.65" angle="90.00" type="t1" speed="20.00" pos="105.04" lane="2_0" slope="-24.57"/>
    </timestep>
    <timestep time="13.00">
        <vehicle id="1" x="204.36" y="-1.65" angle="90.00" type="t1" speed="20.00" pos="4.79" lane="3_0" slope="24.57"/>
    </timestep>
    <timestep time="14.00">
        <vehicle id="1" x="222.55" y="-1.65" angle="90.00" type="t1" speed="20.00" pos="24.79" lane="3_0" slope="24.57"/>
    </timestep>
    <timestep time="15.00">
        <vehicle id="1" x="240.74" y="-1.65" angle="90.00" type="t1" speed="20.00" pos="44.79" lane="3_0" slope="24.57"/>
    </timestep>
    <timestep time="16.00">
        <vehicle id="1" x="258.93" y="-1.65" angle="90.00" type="t1" speed="20.00" pos="64.79" lane="3_0" slope="24.57"/>
    </timestep>
    <timestep time="17.00">
        <vehicle id="1" x="277.12" y="-1.65" angle="90.00" type="t1" speed="20.00" pos="84.79" lane="3_0" slope="24.57"/>
    </timestep>
    <timestep time="18.00">
        <vehicle id="1" x="295.31" y="-1.65" angle="90.00" type="t1" speed="20.00" pos="104.79" lane="3_0" slope="24.57"/>
    </timestep>
    <timestep time="19.00">
        <vehicle id="1" x="312.23" y="-1.65" angle="90.00" type="t1" speed="20.00" pos="4.54" lane="4_0" slope="-50.90"/>
    </timestep>
    <timestep time="20.00">
        <vehicle id="1" x="324.85" y="-1.65" angle="90.00" type="t1" speed="20.00" pos="24.54" lane="4_0" slope="-50.90"/>
    </timestep>
    <timestep time="21.00">
        <vehicle id="1" x="337.46" y="-1.65" angle="90.00" type="t1" speed="20.00" pos="44.54" lane="4_0" slope="-50.90"/>
    </timestep>
    <timestep time="22.00">
        <vehicle id="1" x="350.07" y="-1.65" angle="90.00" type="t1" speed="20.00" pos="64.54" lane="4_0" slope="-50.90"/>
    </timestep>
    <timestep time="23.00">
        <vehicle id="1" x="362.68" y="-1.65" angle="90.00" type="t1" speed="20.00" pos="84.54" lane="4_0" slope="-50.90"/>
    </timestep>
    <timestep time="24.00">
        <vehicle id="1" x="375.29" y="-1.65" angle="90.00" type="t1" speed="20.00" pos="104.54" lane="4_0" slope="-50.90"/>
    </timestep>
    <timestep time="25.00">
        <vehicle id="1" x="387.91" y="-1.65" angle="90.00" type="t1" speed="20.00" pos="124.54" lane="4_0" slope="-50.90"/>
    </timestep>
    <timestep time="26.00">
        <vehicle id="1" x="404.89" y="-1.65" angle="90.00" type="t1" speed="20.00" pos="15.68" lane="5_0" slope="24.57"/>
    </timestep>
    <timestep time="27.00">
        <vehicle id="1" x="423.08" y="-1.65" angle="90.00" type="t1" speed="20.00" pos="35.68" lane="5_0" slope="24.57"/>
    </timestep>
    <timestep time="28.00">
        <vehicle id="1" x="441.27" y="-1.65" angle="90.00" type="t1" speed="20.00" pos="55.68" lane="5_0" slope="24.57"/>
    </timestep>
    <timestep time="29.00">
        <vehicle id="1" x="459.46" y="-1.65" angle="90.00" type="t1" speed="20.00" pos="75.68" lane="5_0" slope="24.57"/>
    </timestep>
    <timestep time="30.00">
        <vehicle id="1" x="477.65" y="-1.65" angle="90.00" type="t1" speed="20.00" pos="95.68" lane="5_0" slope="24.57"/>
    </timestep>
    <timestep time="31.00">
        <vehicle id="1" x="495.84" y="-1.65" angle="90.00" type="t1" speed="20.00" pos="115.68" lane="5_0" slope="24.57"/>
    </timestep>
    <timestep time="32.00"/>
</fcd-export>
