<?xml version="1.0" encoding="UTF-8"?>

<!-- generated on 2022-01-19 21:19:02 by Eclipse SUMO sumo Version v1_11_0+1306-632dd7f6e03
This data file and the accompanying materials
are made available under the terms of the Eclipse Public License v2.0
which accompanies this distribution, and is available at
http://www.eclipse.org/legal/epl-v20.html
SPDX-License-Identifier: EPL-2.0
<configuration xmlns:xsi="http://www.w3.org/2001/XMLSchema-instance" xsi:noNamespaceSchemaLocation="http://sumo.dlr.de/xsd/sumoConfiguration.xsd">

    <input>
        <net-file value="net.net.xml"/>
        <route-files value="input_routes.rou.xml"/>
        <additional-files value="input_additional.add.xml,input_additional2.add.xml"/>
    </input>

    <output>
        <write-license value="true"/>
    </output>

    <processing>
        <collision.check-junctions value="true"/>
        <tls.actuated.show-detectors value="true"/>
        <default.speeddev value="0"/>
    </processing>

    <report>
        <xml-validation value="never"/>
        <xml-validation.routes value="never"/>
        <duration-log.disable value="true"/>
        <no-step-log value="true"/>
    </report>

</configuration>
-->

<detector xmlns:xsi="http://www.w3.org/2001/XMLSchema-instance" xsi:noNamespaceSchemaLocation="http://sumo.dlr.de/xsd/det_e2_file.xsd">
   <interval begin="0.00" end="300.00" id="Detector_1" sampledSeconds="87.13" nVehEntered="19" nVehLeft="17" nVehSeen="19" meanSpeed="3.05" meanTimeLoss="3.52" meanOccupancy="10.59" maxOccupancy="72.17" meanMaxJamLengthInVehicles="0.13" meanMaxJamLengthInMeters="0.62" maxJamLengthInVehicles="2" maxJamLengthInMeters="9.72" jamLengthInVehiclesSum="39" jamLengthInMetersSum="184.77" meanHaltingDuration="6.57" maxHaltingDuration="15.00" haltingDurationSum="46.00" meanIntervalHaltingDuration="6.57" maxIntervalHaltingDuration="15.00" intervalHaltingDurationSum="46.00" startedHalts="7.00" meanVehicleNumber="0.35" maxVehicleNumber="2" />
   <interval begin="0.00" end="300.00" id="Detector_6" sampledSeconds="264.75" nVehEntered="43" nVehLeft="42" nVehSeen="43" meanSpeed="2.41" meanTimeLoss="5.01" meanOccupancy="29.68" maxOccupancy="64.98" meanMaxJamLengthInVehicles="0.59" meanMaxJamLengthInMeters="2.67" maxJamLengthInVehicles="2" maxJamLengthInMeters="9.00" jamLengthInVehiclesSum="178" jamLengthInMetersSum="799.91" meanHaltingDuration="36.60" maxHaltingDuration="59.00" haltingDurationSum="183.00" meanIntervalHaltingDuration="36.60" maxIntervalHaltingDuration="59.00" intervalHaltingDurationSum="183.00" startedHalts="5.00" meanVehicleNumber="1.02" maxVehicleNumber="2" />
   <interval begin="0.00" end="300.00" id="Detector_2" sampledSeconds="235.63" nVehEntered="44" nVehLeft="43" nVehSeen="44" meanSpeed="2.78" meanTimeLoss="4.20" meanOccupancy="26.74" maxOccupancy="73.98" meanMaxJamLengthInVehicles="0.50" meanMaxJamLengthInMeters="2.25" maxJamLengthInVehicles="2" maxJamLengthInMeters="9.90" jamLengthInVehiclesSum="151" jamLengthInMetersSum="674.72" meanHaltingDuration="17.78" maxHaltingDuration="43.00" haltingDurationSum="160.00" meanIntervalHaltingDuration="17.78" maxIntervalHaltingDuration="43.00" intervalHaltingDurationSum="160.00" startedHalts="9.00" meanVehicleNumber="0.92" maxVehicleNumber="2" />
   <interval begin="0.00" end="300.00" id="Detector_5" sampledSeconds="194.42" nVehEntered="12" nVehLeft="10" nVehSeen="12" meanSpeed="0.83" meanTimeLoss="15.20" meanOccupancy="24.42" maxOccupancy="72.17" meanMaxJamLengthInVehicles="0.51" meanMaxJamLengthInMeters="2.38" maxJamLengthInVehicles="2" maxJamLengthInMeters="9.72" jamLengthInVehiclesSum="153" jamLengthInMetersSum="714.54" meanHaltingDuration="16.30" maxHaltingDuration="38.00" haltingDurationSum="163.00" meanIntervalHaltingDuration="16.30" maxIntervalHaltingDuration="38.00" intervalHaltingDurationSum="163.00" startedHalts="10.00" meanVehicleNumber="0.68" maxVehicleNumber="2" />
   <interval begin="0.00" end="300.00" id="Detector_4" sampledSeconds="124.75" nVehEntered="18" nVehLeft="18" nVehSeen="18" meanSpeed="2.16" meanTimeLoss="5.81" meanOccupancy="17.14" maxOccupancy="74.99" meanMaxJamLengthInVehicles="0.12" meanMaxJamLengthInMeters="0.56" maxJamLengthInVehicles="2" maxJamLengthInMeters="9.90" jamLengthInVehiclesSum="35" jamLengthInMetersSum="167.09" meanHaltingDuration="2.40" maxHaltingDuration="12.00" haltingDurationSum="60.00" meanIntervalHaltingDuration="2.40" maxIntervalHaltingDuration="12.00" intervalHaltingDurationSum="60.00" startedHalts="25.00" meanVehicleNumber="0.46" maxVehicleNumber="2" />
   <interval begin="0.00" end="300.00" id="Detector_7" sampledSeconds="0.00" nVehEntered="0" nVehLeft="0" nVehSeen="0" meanSpeed="-1.00" meanTimeLoss="-1.00" meanOccupancy="0.00" maxOccupancy="0.00" meanMaxJamLengthInVehicles="0.00" meanMaxJamLengthInMeters="0.00" maxJamLengthInVehicles="0" maxJamLengthInMeters="0.00" jamLengthInVehiclesSum="0" jamLengthInMetersSum="0.00" meanHaltingDuration="0.00" maxHaltingDuration="0.00" haltingDurationSum="0.00" meanIntervalHaltingDuration="0.00" maxIntervalHaltingDuration="0.00" intervalHaltingDurationSum="0.00" startedHalts="0.00" meanVehicleNumber="0.00" maxVehicleNumber="0" />
   <interval begin="0.00" end="300.00" id="Detector_8" sampledSeconds="392.22" nVehEntered="31" nVehLeft="30" nVehSeen="31" meanSpeed="1.15" meanTimeLoss="11.53" meanOccupancy="43.40" maxOccupancy="64.98" meanMaxJamLengthInVehicles="1.09" meanMaxJamLengthInMeters="4.87" maxJamLengthInVehicles="2" maxJamLengthInMeters="9.00" jamLengthInVehiclesSum="326" jamLengthInMetersSum="1460.34" meanHaltingDuration="37.22" maxHaltingDuration="71.00" haltingDurationSum="335.00" meanIntervalHaltingDuration="37.22" maxIntervalHaltingDuration="71.00" intervalHaltingDurationSum="335.00" startedHalts="9.00" meanVehicleNumber="1.41" maxVehicleNumber="2" />
   <interval begin="0.00" end="300.00" id="Detector_3" sampledSeconds="162.28" nVehEntered="7" nVehLeft="5" nVehSeen="7" meanSpeed="0.53" meanTimeLoss="22.24" meanOccupancy="20.31" maxOccupancy="65.38" meanMaxJamLengthInVehicles="0.48" meanMaxJamLengthInMeters="2.20" maxJamLengthInVehicles="2" maxJamLengthInMeters="9.00" jamLengthInVehiclesSum="143" jamLengthInMetersSum="661.45" meanHaltingDuration="36.75" maxHaltingDuration="66.00" haltingDurationSum="147.00" meanIntervalHaltingDuration="36.75" maxIntervalHaltingDuration="66.00" intervalHaltingDurationSum="147.00" startedHalts="4.00" meanVehicleNumber="0.56" maxVehicleNumber="2" />
   <interval begin="300.00" end="513.00" id="Detector_1" sampledSeconds="84.02" nVehEntered="7" nVehLeft="9" nVehSeen="9" meanSpeed="1.48" meanTimeLoss="8.28" meanOccupancy="14.62" maxOccupancy="64.98" meanMaxJamLengthInVehicles="0.30" meanMaxJamLengthInMeters="1.36" maxJamLengthInVehicles="2" maxJamLengthInMeters="9.00" jamLengthInVehiclesSum="63" jamLengthInMetersSum="289.48" meanHaltingDuration="18.25" maxHaltingDuration="28.00" haltingDurationSum="73.00" meanIntervalHaltingDuration="16.25" maxIntervalHaltingDuration="23.00" intervalHaltingDurationSum="65.00" startedHalts="2.00" meanVehicleNumber="0.43" maxVehicleNumber="2" />
   <interval begin="300.00" end="513.00" id="Detector_6" sampledSeconds="154.11" nVehEntered="14" nVehLeft="15" nVehSeen="15" meanSpeed="1.40" meanTimeLoss="9.16" meanOccupancy="25.08" maxOccupancy="64.98" meanMaxJamLengthInVehicles="0.59" meanMaxJamLengthInMeters="2.66" maxJamLengthInVehicles="2" maxJamLengthInMeters="9.00" jamLengthInVehiclesSum="125" jamLengthInMetersSum="565.94" meanHaltingDuration="33.00" maxHaltingDuration="39.00" haltingDurationSum="132.00" meanIntervalHaltingDuration="32.00" maxIntervalHaltingDuration="37.00" intervalHaltingDurationSum="128.00" startedHalts="3.00" meanVehicleNumber="0.79" maxVehicleNumber="2" />
   <interval begin="300.00" end="513.00" id="Detector_2" sampledSeconds="191.33" nVehEntered="23" nVehLeft="24" nVehSeen="24" meanSpeed="1.83" meanTimeLoss="6.84" meanOccupancy="29.93" maxOccupancy="64.98" meanMaxJamLengthInVehicles="0.70" meanMaxJamLengthInMeters="3.16" maxJamLengthInVehicles="2" maxJamLengthInMeters="9.00" jamLengthInVehiclesSum="150" jamLengthInMetersSum="672.93" meanHaltingDuration="38.50" maxHaltingDuration="43.00" haltingDurationSum="154.00" meanIntervalHaltingDuration="38.50" maxIntervalHaltingDuration="43.00" intervalHaltingDurationSum="154.00" startedHalts="4.00" meanVehicleNumber="1.01" maxVehicleNumber="2" />
   <interval begin="300.00" end="513.00" id="Detector_5" sampledSeconds="111.09" nVehEntered="8" nVehLeft="10" nVehSeen="10" meanSpeed="1.26" meanTimeLoss="10.05" meanOccupancy="17.21" maxOccupancy="64.98" meanMaxJamLengthInVehicles="0.41" meanMaxJamLengthInMeters="1.84" maxJamLengthInVehicles="2" maxJamLengthInMeters="9.00" jamLengthInVehiclesSum="88" jamLengthInMetersSum="391.96" meanHaltingDuration="26.75" maxHaltingDuration="31.00" haltingDurationSum="107.00" meanIntervalHaltingDuration="22.50" maxIntervalHaltingDuration="24.00" intervalHaltingDurationSum="90.00" startedHalts="2.00" meanVehicleNumber="0.56" maxVehicleNumber="2" />
   <interval begin="300.00" end="513.00" id="Detector_4" sampledSeconds="36.50" nVehEntered="7" nVehLeft="7" nVehSeen="7" meanSpeed="2.88" meanTimeLoss="4.09" meanOccupancy="6.74" maxOccupancy="73.98" meanMaxJamLengthInVehicles="0.01" meanMaxJamLengthInMeters="0.06" maxJamLengthInVehicles="1" maxJamLengthInMeters="5.00" jamLengthInVehiclesSum="3" jamLengthInMetersSum="12.40" meanHaltingDuration="1.33" maxHaltingDuration="2.00" haltingDurationSum="12.00" meanIntervalHaltingDuration="1.33" maxIntervalHaltingDuration="2.00" intervalHaltingDurationSum="12.00" startedHalts="9.00" meanVehicleNumber="0.20" maxVehicleNumber="2" />
   <interval begin="300.00" end="513.00" id="Detector_7" sampledSeconds="0.00" nVehEntered="0" nVehLeft="0" nVehSeen="0" meanSpeed="-1.00" meanTimeLoss="-1.00" meanOccupancy="0.00" maxOccupancy="0.00" meanMaxJamLengthInVehicles="0.00" meanMaxJamLengthInMeters="0.00" maxJamLengthInVehicles="0" maxJamLengthInMeters="0.00" jamLengthInVehiclesSum="0" jamLengthInMetersSum="0.00" meanHaltingDuration="0.00" maxHaltingDuration="0.00" haltingDurationSum="0.00" meanIntervalHaltingDuration="0.00" maxIntervalHaltingDuration="0.00" intervalHaltingDurationSum="0.00" startedHalts="0.00" meanVehicleNumber="0.00" maxVehicleNumber="0" />
   <interval begin="300.00" end="513.00" id="Detector_8" sampledSeconds="270.07" nVehEntered="31" nVehLeft="32" nVehSeen="32" meanSpeed="1.77" meanTimeLoss="7.29" meanOccupancy="41.92" maxOccupancy="73.98" meanMaxJamLengthInVehicles="0.98" meanMaxJamLengthInMeters="4.37" maxJamLengthInVehicles="2" maxJamLengthInMeters="9.90" jamLengthInVehiclesSum="208" jamLengthInMetersSum="930.19" meanHaltingDuration="35.67" maxHaltingDuration="59.00" haltingDurationSum="214.00" meanIntervalHaltingDuration="35.67" maxIntervalHaltingDuration="59.00" intervalHaltingDurationSum="214.00" startedHalts="6.00" meanVehicleNumber="1.42" maxVehicleNumber="2" />
   <interval begin="300.00" end="513.00" id="Detector_3" sampledSeconds="67.64" nVehEntered="5" nVehLeft="7" nVehSeen="7" meanSpeed="1.38" meanTimeLoss="8.63" meanOccupancy="14.71" maxOccupancy="50.00" meanMaxJamLengthInVehicles="0.24" meanMaxJamLengthInMeters="1.22" maxJamLengthInVehicles="1" maxJamLengthInMeters="5.00" jamLengthInVehiclesSum="52" jamLengthInMetersSum="260.00" meanHaltingDuration="18.33" maxHaltingDuration="53.00" haltingDurationSum="55.00" meanIntervalHaltingDuration="18.00" maxIntervalHaltingDuration="53.00" intervalHaltingDurationSum="54.00" startedHalts="2.00" meanVehicleNumber="0.35" maxVehicleNumber="2" />
</detector>
