<?xml version="1.0" encoding="UTF-8"?>

<!-- generated on 07/10/17 11:59:56 by SUMO dfrouter Version dev-SVN-r25136
<?xml version="1.0" encoding="UTF-8"?>

<configuration xmlns:xsi="http://www.w3.org/2001/XMLSchema-instance" xsi:noNamespaceSchemaLocation="http://sumo.dlr.de/xsd/dfrouterConfiguration.xsd">

    <input>
        <net-file value="input_tri.net.xml"/>
        <detector-files value="input_tri.det.xml"/>
        <measure-files value="input_tri_flows.txt"/>
    </input>

    <output>
        <routes-output value="routes.rou.xml"/>
        <emitters-output value="emitters.add.xml"/>
    </output>

    <processing>
        <keep-longer-routes value="true"/>
        <randomize-flows value="true"/>
        <include-unused-routes value="true"/>
    </processing>

    <time>
        <end value="60"/>
    </time>

    <report>
        <xml-validation value="never"/>
    </report>

    <random_number>
        <seed value="123"/>
    </random_number>

</configuration>
-->

<additional xmlns:xsi="http://www.w3.org/2001/XMLSchema-instance" xsi:noNamespaceSchemaLocation="http://sumo.dlr.de/xsd/additional_file.xsd">
    <vType id="DEFAULT_VEHTYPE" speedFactor="1.43"/>
    <routeDistribution id="MQ_beg">
        <route refId="beg_to_end" probability="1.00"/>
        <route refId="beg_to_end_1" probability="0.00"/>
        <route refId="beg_to_end_2" probability="0.00"/>
    </routeDistribution>
    <vehicle id="emitter_MQ_beg_8610" depart="8.61" departLane="0" departPos="5.00" departSpeed="27.78" route="beg_to_end"/>
    <vehicle id="emitter_MQ_beg_12382" depart="12.38" departLane="0" departPos="5.00" departSpeed="27.78" route="beg_to_end"/>
    <vehicle id="emitter_MQ_beg_19789" depart="19.79" departLane="0" departPos="5.00" departSpeed="27.78" route="beg_to_end"/>
    <vehicle id="emitter_MQ_beg_27842" depart="27.84" departLane="0" departPos="5.00" departSpeed="27.78" route="beg_to_end"/>
    <vehicle id="emitter_MQ_beg_35699" depart="35.70" departLane="0" departPos="5.00" departSpeed="27.78" route="beg_to_end"/>
    <vehicle id="emitter_MQ_beg_38886" depart="38.89" departLane="0" departPos="5.00" departSpeed="27.78" route="beg_to_end"/>
    <vehicle id="emitter_MQ_beg_39102" depart="39.10" departLane="0" departPos="5.00" departSpeed="27.78" route="beg_to_end"/>
    <vehicle id="emitter_MQ_beg_39580" depart="39.58" departLane="0" departPos="5.00" departSpeed="27.78" route="beg_to_end"/>
    <vehicle id="emitter_MQ_beg_39754" depart="39.75" departLane="0" departPos="5.00" departSpeed="27.78" route="beg_to_end"/>
    <vehicle id="emitter_MQ_beg_47057" depart="47.06" departLane="0" departPos="5.00" departSpeed="27.78" route="beg_to_end"/>
</additional>
