<?xml version="1.0" encoding="UTF-8"?>

<!-- generated on 2025-10-09T21:49:42.737524+01:00 by Eclipse SUMO sumo v1_24_0+1329-e45c39789b9
This data file and the accompanying materials
are made available under the terms of the Eclipse Public License v2.0
which accompanies this distribution, and is available at
http://www.eclipse.org/legal/epl-v20.html
This file may also be made available under the following Secondary
Licenses when the conditions for such availability set forth in the Eclipse
Public License 2.0 are satisfied: GNU General Public License, version 2
or later which is available at
https://www.gnu.org/licenses/old-licenses/gpl-2.0-standalone.html
SPDX-License-Identifier: EPL-2.0 OR GPL-2.0-or-later
<sumoConfiguration xmlns:xsi="http://www.w3.org/2001/XMLSchema-instance" xsi:noNamespaceSchemaLocation="http://sumo.dlr.de/xsd/sumoConfiguration.xsd">

    <input>
        <net-file value="net.net.xml"/>
        <route-files value="input_routes.rou.xml"/>
    </input>

    <output>
        <write-license value="true"/>
        <fcd-output value="fcd.xml"/>
        <tripinfo-output value="tripinfos.xml"/>
    </output>

    <processing>
        <ignore-route-errors value="true"/>
        <default.speeddev value="0"/>
        <pedestrian.model value="nonInteracting"/>
        <pedestrian.striping.dawdling value="0.0"/>
    </processing>

    <report>
        <xml-validation value="never"/>
        <no-step-log value="true"/>
    </report>

</sumoConfiguration>
-->

<fcd-export xmlns:xsi="http://www.w3.org/2001/XMLSchema-instance" xsi:noNamespaceSchemaLocation="http://sumo.dlr.de/xsd/fcd_file.xsd">
    <timestep time="0.00">
        <person id="p0" x="108.25" y="78.65" angle="0.00" type="DEFAULT_PEDTYPE" speed="1.39" pos="78.65" edge="SC" slope="0.00"/>
    </timestep>
    <timestep time="1.00">
        <person id="p0" x="108.25" y="79.87" angle="0.00" type="DEFAULT_PEDTYPE" speed="1.39" pos="79.87" edge="SC" slope="0.00"/>
    </timestep>
    <timestep time="2.00">
        <person id="p0" x="108.25" y="81.09" angle="0.00" type="DEFAULT_PEDTYPE" speed="1.39" pos="81.09" edge="SC" slope="0.00"/>
    </timestep>
    <timestep time="3.00">
        <person id="p0" x="108.25" y="82.31" angle="0.00" type="DEFAULT_PEDTYPE" speed="1.39" pos="82.31" edge="SC" slope="0.00"/>
    </timestep>
    <timestep time="4.00">
        <person id="p0" x="108.25" y="83.53" angle="0.00" type="DEFAULT_PEDTYPE" speed="1.39" pos="83.53" edge="SC" slope="0.00"/>
    </timestep>
    <timestep time="5.00">
        <person id="p0" x="108.25" y="84.75" angle="0.00" type="DEFAULT_PEDTYPE" speed="1.39" pos="84.75" edge="SC" slope="0.00"/>
    </timestep>
    <timestep time="6.00">
        <person id="p0" x="108.25" y="85.97" angle="0.00" type="DEFAULT_PEDTYPE" speed="1.39" pos="85.97" edge="SC" slope="0.00"/>
    </timestep>
    <timestep time="7.00">
        <person id="p0" x="108.25" y="87.19" angle="0.00" type="DEFAULT_PEDTYPE" speed="1.39" pos="87.19" edge="SC" slope="0.00"/>
    </timestep>
    <timestep time="8.00">
        <person id="p0" x="88.65" y="108.25" angle="270.00" type="DEFAULT_PEDTYPE" speed="1.39" pos="0.00" edge="CW" slope="0.00"/>
    </timestep>
    <timestep time="9.00">
        <person id="p0" x="87.43" y="108.25" angle="270.00" type="DEFAULT_PEDTYPE" speed="1.39" pos="1.22" edge="CW" slope="0.00"/>
    </timestep>
    <timestep time="10.00">
        <person id="p0" x="86.21" y="108.25" angle="270.00" type="DEFAULT_PEDTYPE" speed="1.39" pos="2.44" edge="CW" slope="0.00"/>
    </timestep>
    <timestep time="11.00">
        <person id="p0" x="84.99" y="108.25" angle="270.00" type="DEFAULT_PEDTYPE" speed="1.39" pos="3.66" edge="CW" slope="0.00"/>
    </timestep>
    <timestep time="12.00">
        <person id="p0" x="83.77" y="108.25" angle="270.00" type="DEFAULT_PEDTYPE" speed="1.39" pos="4.88" edge="CW" slope="0.00"/>
    </timestep>
    <timestep time="13.00">
        <person id="p0" x="82.55" y="108.25" angle="270.00" type="DEFAULT_PEDTYPE" speed="1.39" pos="6.10" edge="CW" slope="0.00"/>
    </timestep>
    <timestep time="14.00">
        <person id="p0" x="81.33" y="108.25" angle="270.00" type="DEFAULT_PEDTYPE" speed="1.39" pos="7.32" edge="CW" slope="0.00"/>
    </timestep>
    <timestep time="15.00">
        <person id="p0" x="80.11" y="108.25" angle="270.00" type="DEFAULT_PEDTYPE" speed="1.39" pos="8.54" edge="CW" slope="0.00"/>
    </timestep>
    <timestep time="16.00"/>
</fcd-export>
