<?xml version="1.0" encoding="UTF-8"?>

<!-- generated on 2024-05-05 14:35:38 by Eclipse SUMO sumo Version v1_19_0+2063-e658c060a45
This data file and the accompanying materials
are made available under the terms of the Eclipse Public License v2.0
which accompanies this distribution, and is available at
http://www.eclipse.org/legal/epl-v20.html
This file may also be made available under the following Secondary
Licenses when the conditions for such availability set forth in the Eclipse
Public License 2.0 are satisfied: GNU General Public License, version 2
or later which is available at
https://www.gnu.org/licenses/old-licenses/gpl-2.0-standalone.html
SPDX-License-Identifier: EPL-2.0 OR GPL-2.0-or-later
<configuration xmlns:xsi="http://www.w3.org/2001/XMLSchema-instance" xsi:noNamespaceSchemaLocation="http://sumo.dlr.de/xsd/sumoConfiguration.xsd">

    <input>
        <net-file value="net.net.xml"/>
        <route-files value="input_routes.rou.xml"/>
    </input>

    <output>
        <write-license value="true"/>
        <tripinfo-output value="tripinfos.xml"/>
        <vehroute-output value="vehroutes.xml"/>
    </output>

    <time>
        <end value="1000"/>
    </time>

    <processing>
        <default.speeddev value="0"/>
    </processing>

    <report>
        <xml-validation value="never"/>
        <duration-log.disable value="true"/>
        <no-step-log value="true"/>
    </report>

</configuration>
-->

<routes xmlns:xsi="http://www.w3.org/2001/XMLSchema-instance" xsi:noNamespaceSchemaLocation="http://sumo.dlr.de/xsd/routes_file.xsd">
    <person id="p0" depart="0.00" arrival="228.00">
        <ride from="B2C2" to="A0B0" arrivalPos="287.60" lines="taxi"/>
    </person>

    <person id="p1" depart="0.00" arrival="229.00">
        <ride from="B2C2" to="A0B0" arrivalPos="287.60" lines="taxi"/>
    </person>

    <vehicle id="trip_0" type="taxi" depart="0.00" arrival="230.00">
        <routeDistribution>
            <route replacedOnEdge="A0B0" reason="taxi:prepare_dispatch" replacedAtTime="0.00" probability="0" edges="A0B0 B0C0"/>
            <route replacedOnEdge="A0B0" reason="taxi:dispatch" replacedAtTime="0.00" probability="0" edges="A0B0 B2C2 A0B0"/>
            <route edges="A0B0 B0B1 B1B2 B2C2 C2B2 B2A2 A2A1 A1A0 A0B0"/>
        </routeDistribution>
        <stop lane="B2C2_1" permitted="p0 p1" actType="pickup p0 p1 (0)"/>
        <stop lane="A0B0_1" actType="dropOff p0 p1 (0)"/>
    </vehicle>

</routes>
