<?xml version="1.0" encoding="UTF-8"?>

<!-- generated on Wed Apr 27 17:26:13 2016 by SUMO Version dev-SVN-r20568
<?xml version="1.0" encoding="UTF-8"?>

<configuration xmlns:xsi="http://www.w3.org/2001/XMLSchema-instance" xsi:noNamespaceSchemaLocation="http://sumo.dlr.de/xsd/sumoConfiguration.xsd">

    <input>
        <net-file value="net.net.xml"/>
        <route-files value="input_routes.rou.xml"/>
    </input>

    <output>
        <fcd-output value="fcd.xml"/>
        <tripinfo-output value="tripinfos.xml"/>
    </output>

    <report>
        <xml-validation value="never"/>
        <no-step-log value="true"/>
    </report>

</configuration>
-->

<fcd-export xmlns:xsi="http://www.w3.org/2001/XMLSchema-instance" xsi:noNamespaceSchemaLocation="http://sumo.dlr.de/xsd/fcd_file.xsd">
    <timestep time="0.00">
        <vehicle id="oncoming1" x="100.00" y="1.65" angle="270.00" type="DEFAULT_VEHTYPE" speed="0.00" pos="100.00" lane="-VODUGES_beg_0" slope="0.00"/>
        <vehicle id="oncoming2" x="200.00" y="1.65" angle="270.00" type="DEFAULT_VEHTYPE" speed="0.00" pos="0.00" lane="-VODUGES_beg_0" slope="0.00"/>
        <vehicle id="overtaking" x="0.00" y="-1.65" angle="90.00" type="DEFAULT_VEHTYPE" speed="0.00" pos="0.00" lane="VODUGES_beg_0" slope="0.00"/>
        <vehicle id="slow" x="40.00" y="-1.65" angle="90.00" type="slow" speed="0.00" pos="40.00" lane="VODUGES_beg_0" slope="0.00"/>
    </timestep>
    <timestep time="1.00">
        <vehicle id="oncoming1" x="97.46" y="1.65" angle="270.00" type="DEFAULT_VEHTYPE" speed="2.54" pos="102.54" lane="-VODUGES_beg_0" slope="0.00"/>
        <vehicle id="oncoming2" x="198.04" y="1.65" angle="270.00" type="DEFAULT_VEHTYPE" speed="1.96" pos="1.96" lane="-VODUGES_beg_0" slope="0.00"/>
        <vehicle id="overtaking" x="1.67" y="-1.65" angle="90.00" type="DEFAULT_VEHTYPE" speed="1.67" pos="1.67" lane="VODUGES_beg_0" slope="0.00"/>
        <vehicle id="slow" x="40.55" y="-1.65" angle="90.00" type="slow" speed="0.55" pos="40.55" lane="VODUGES_beg_0" slope="0.00"/>
    </timestep>
    <timestep time="2.00">
        <vehicle id="oncoming1" x="93.28" y="1.65" angle="270.00" type="DEFAULT_VEHTYPE" speed="4.17" pos="106.72" lane="-VODUGES_beg_0" slope="0.00"/>
        <vehicle id="oncoming2" x="193.80" y="1.65" angle="270.00" type="DEFAULT_VEHTYPE" speed="4.24" pos="6.20" lane="-VODUGES_beg_0" slope="0.00"/>
        <vehicle id="overtaking" x="5.89" y="-1.65" angle="90.00" type="DEFAULT_VEHTYPE" speed="4.22" pos="5.89" lane="VODUGES_beg_0" slope="0.00"/>
        <vehicle id="slow" x="41.26" y="-1.65" angle="90.00" type="slow" speed="0.71" pos="41.26" lane="VODUGES_beg_0" slope="0.00"/>
    </timestep>
    <timestep time="3.00">
        <vehicle id="oncoming1" x="86.52" y="1.65" angle="270.00" type="DEFAULT_VEHTYPE" speed="6.77" pos="113.48" lane="-VODUGES_beg_0" slope="0.00"/>
        <vehicle id="oncoming2" x="187.84" y="1.65" angle="270.00" type="DEFAULT_VEHTYPE" speed="5.96" pos="12.16" lane="-VODUGES_beg_0" slope="0.00"/>
        <vehicle id="overtaking" x="11.74" y="-1.65" angle="90.00" type="DEFAULT_VEHTYPE" speed="5.85" pos="11.74" lane="VODUGES_beg_0" slope="0.00"/>
        <vehicle id="slow" x="41.99" y="-1.65" angle="90.00" type="slow" speed="0.73" pos="41.99" lane="VODUGES_beg_0" slope="0.00"/>
    </timestep>
    <timestep time="4.00">
        <vehicle id="oncoming1" x="77.89" y="1.65" angle="270.00" type="DEFAULT_VEHTYPE" speed="8.63" pos="122.11" lane="-VODUGES_beg_0" slope="0.00"/>
        <vehicle id="oncoming2" x="179.61" y="1.65" angle="270.00" type="DEFAULT_VEHTYPE" speed="8.22" pos="20.39" lane="-VODUGES_beg_0" slope="0.00"/>
        <vehicle id="overtaking" x="19.60" y="-1.65" angle="90.00" type="DEFAULT_VEHTYPE" speed="7.86" pos="19.60" lane="VODUGES_beg_0" slope="0.00"/>
        <vehicle id="slow" x="42.75" y="-1.65" angle="90.00" type="slow" speed="0.77" pos="42.75" lane="VODUGES_beg_0" slope="0.00"/>
    </timestep>
    <timestep time="5.00">
        <vehicle id="oncoming1" x="67.07" y="1.65" angle="270.00" type="DEFAULT_VEHTYPE" speed="10.81" pos="132.93" lane="-VODUGES_beg_0" slope="0.00"/>
        <vehicle id="oncoming2" x="169.68" y="1.65" angle="270.00" type="DEFAULT_VEHTYPE" speed="9.93" pos="30.32" lane="-VODUGES_beg_0" slope="0.00"/>
        <vehicle id="overtaking" x="28.18" y="-1.65" angle="90.00" type="DEFAULT_VEHTYPE" speed="8.58" pos="28.18" lane="VODUGES_beg_0" slope="0.00"/>
        <vehicle id="slow" x="43.72" y="-1.65" angle="90.00" type="slow" speed="0.97" pos="43.72" lane="VODUGES_beg_0" slope="0.00"/>
    </timestep>
    <timestep time="6.00">
        <vehicle id="oncoming1" x="54.06" y="1.65" angle="270.00" type="DEFAULT_VEHTYPE" speed="13.01" pos="145.94" lane="-VODUGES_beg_0" slope="0.00"/>
        <vehicle id="oncoming2" x="157.97" y="1.65" angle="270.00" type="DEFAULT_VEHTYPE" speed="11.71" pos="42.03" lane="-VODUGES_beg_0" slope="0.00"/>
        <vehicle id="overtaking" x="33.78" y="-1.65" angle="90.00" type="DEFAULT_VEHTYPE" speed="5.60" pos="33.78" lane="VODUGES_beg_0" slope="0.00"/>
        <vehicle id="slow" x="44.70" y="-1.65" angle="90.00" type="slow" speed="0.98" pos="44.70" lane="VODUGES_beg_0" slope="0.00"/>
    </timestep>
    <timestep time="7.00">
        <vehicle id="oncoming1" x="41.33" y="1.65" angle="270.00" type="DEFAULT_VEHTYPE" speed="12.74" pos="158.67" lane="-VODUGES_beg_0" slope="0.00"/>
        <vehicle id="oncoming2" x="144.60" y="1.65" angle="270.00" type="DEFAULT_VEHTYPE" speed="13.37" pos="55.40" lane="-VODUGES_beg_0" slope="0.00"/>
        <vehicle id="overtaking" x="36.13" y="-1.65" angle="90.00" type="DEFAULT_VEHTYPE" speed="2.34" pos="36.13" lane="VODUGES_beg_0" slope="0.00"/>
        <vehicle id="slow" x="45.23" y="-1.65" angle="90.00" type="slow" speed="0.53" pos="45.23" lane="VODUGES_beg_0" slope="0.00"/>
    </timestep>
    <timestep time="8.00">
        <vehicle id="oncoming1" x="27.48" y="1.65" angle="270.00" type="DEFAULT_VEHTYPE" speed="13.85" pos="172.52" lane="-VODUGES_beg_0" slope="0.00"/>
        <vehicle id="oncoming2" x="131.10" y="1.65" angle="270.00" type="DEFAULT_VEHTYPE" speed="13.50" pos="68.90" lane="-VODUGES_beg_0" slope="0.00"/>
        <vehicle id="overtaking" x="37.54" y="-1.65" angle="90.00" type="DEFAULT_VEHTYPE" speed="1.41" pos="37.54" lane="VODUGES_beg_0" slope="0.00"/>
        <vehicle id="slow" x="45.96" y="-1.65" angle="90.00" type="slow" speed="0.73" pos="45.96" lane="VODUGES_beg_0" slope="0.00"/>
    </timestep>
    <timestep time="9.00">
        <vehicle id="oncoming1" x="14.83" y="1.65" angle="270.00" type="DEFAULT_VEHTYPE" speed="12.65" pos="185.17" lane="-VODUGES_beg_0" slope="0.00"/>
        <vehicle id="oncoming2" x="117.25" y="1.65" angle="270.00" type="DEFAULT_VEHTYPE" speed="13.85" pos="82.75" lane="-VODUGES_beg_0" slope="0.00"/>
        <vehicle id="overtaking" x="38.38" y="-1.65" angle="90.00" type="DEFAULT_VEHTYPE" speed="0.84" pos="38.38" lane="VODUGES_beg_0" slope="0.00"/>
        <vehicle id="slow" x="46.58" y="-1.65" angle="90.00" type="slow" speed="0.62" pos="46.58" lane="VODUGES_beg_0" slope="0.00"/>
    </timestep>
    <timestep time="10.00">
        <vehicle id="oncoming1" x="1.11" y="1.65" angle="270.00" type="DEFAULT_VEHTYPE" speed="13.72" pos="198.89" lane="-VODUGES_beg_0" slope="0.00"/>
        <vehicle id="oncoming2" x="103.52" y="1.65" angle="270.00" type="DEFAULT_VEHTYPE" speed="13.73" pos="96.48" lane="-VODUGES_beg_0" slope="0.00"/>
        <vehicle id="overtaking" x="38.96" y="-1.65" angle="90.00" type="DEFAULT_VEHTYPE" speed="0.58" pos="38.96" lane="VODUGES_beg_0" slope="0.00"/>
        <vehicle id="slow" x="47.23" y="-1.65" angle="90.00" type="slow" speed="0.66" pos="47.23" lane="VODUGES_beg_0" slope="0.00"/>
    </timestep>
    <timestep time="11.00">
        <vehicle id="oncoming2" x="89.92" y="1.65" angle="270.00" type="DEFAULT_VEHTYPE" speed="13.60" pos="110.08" lane="-VODUGES_beg_0" slope="0.00"/>
        <vehicle id="overtaking" x="39.36" y="-1.65" angle="90.00" type="DEFAULT_VEHTYPE" speed="0.40" pos="39.36" lane="VODUGES_beg_0" slope="0.00"/>
        <vehicle id="slow" x="48.03" y="-1.65" angle="90.00" type="slow" speed="0.79" pos="48.03" lane="VODUGES_beg_0" slope="0.00"/>
    </timestep>
    <timestep time="12.00">
        <vehicle id="oncoming2" x="76.35" y="1.65" angle="270.00" type="DEFAULT_VEHTYPE" speed="13.58" pos="123.65" lane="-VODUGES_beg_0" slope="0.00"/>
        <vehicle id="overtaking" x="40.19" y="-1.65" angle="90.00" type="DEFAULT_VEHTYPE" speed="0.83" pos="40.19" lane="VODUGES_beg_0" slope="0.00"/>
        <vehicle id="slow" x="48.94" y="-1.65" angle="90.00" type="slow" speed="0.92" pos="48.94" lane="VODUGES_beg_0" slope="0.00"/>
    </timestep>
    <timestep time="13.00">
        <vehicle id="oncoming2" x="63.33" y="1.65" angle="270.00" type="DEFAULT_VEHTYPE" speed="13.02" pos="136.67" lane="-VODUGES_beg_0" slope="0.00"/>
        <vehicle id="overtaking" x="41.39" y="-1.65" angle="90.00" type="DEFAULT_VEHTYPE" speed="1.19" pos="41.39" lane="VODUGES_beg_0" slope="0.00"/>
        <vehicle id="slow" x="49.54" y="-1.65" angle="90.00" type="slow" speed="0.59" pos="49.54" lane="VODUGES_beg_0" slope="0.00"/>
    </timestep>
    <timestep time="14.00">
        <vehicle id="oncoming2" x="50.34" y="1.65" angle="270.00" type="DEFAULT_VEHTYPE" speed="12.99" pos="149.66" lane="-VODUGES_beg_0" slope="0.00"/>
        <vehicle id="overtaking" x="41.84" y="-1.65" angle="90.00" type="DEFAULT_VEHTYPE" speed="0.46" pos="41.84" lane="VODUGES_beg_0" slope="0.00"/>
        <vehicle id="slow" x="50.18" y="-1.65" angle="90.00" type="slow" speed="0.64" pos="50.18" lane="VODUGES_beg_0" slope="0.00"/>
    </timestep>
    <timestep time="15.00">
        <vehicle id="oncoming2" x="36.85" y="1.65" angle="270.00" type="DEFAULT_VEHTYPE" speed="13.49" pos="163.15" lane="-VODUGES_beg_0" slope="0.00"/>
        <vehicle id="overtaking" x="42.28" y="-1.65" angle="90.00" type="DEFAULT_VEHTYPE" speed="0.43" pos="42.28" lane="VODUGES_beg_0" slope="0.00"/>
        <vehicle id="slow" x="50.71" y="-1.65" angle="90.00" type="slow" speed="0.53" pos="50.71" lane="VODUGES_beg_0" slope="0.00"/>
    </timestep>
    <timestep time="16.00">
        <vehicle id="oncoming2" x="23.17" y="1.65" angle="270.00" type="DEFAULT_VEHTYPE" speed="13.67" pos="176.83" lane="-VODUGES_beg_0" slope="0.00"/>
        <vehicle id="overtaking" x="42.94" y="-1.65" angle="90.00" type="DEFAULT_VEHTYPE" speed="0.66" pos="42.94" lane="VODUGES_beg_0" slope="0.00"/>
        <vehicle id="slow" x="51.47" y="-1.65" angle="90.00" type="slow" speed="0.75" pos="51.47" lane="VODUGES_beg_0" slope="0.00"/>
    </timestep>
    <timestep time="17.00">
        <vehicle id="oncoming2" x="10.12" y="1.65" angle="270.00" type="DEFAULT_VEHTYPE" speed="13.06" pos="189.88" lane="-VODUGES_beg_0" slope="0.00"/>
        <vehicle id="overtaking" x="43.87" y="-1.65" angle="90.00" type="DEFAULT_VEHTYPE" speed="0.93" pos="43.87" lane="VODUGES_beg_0" slope="0.00"/>
        <vehicle id="slow" x="51.99" y="-1.65" angle="90.00" type="slow" speed="0.52" pos="51.99" lane="VODUGES_beg_0" slope="0.00"/>
    </timestep>
    <timestep time="18.00">
        <vehicle id="overtaking" x="44.48" y="-1.65" angle="90.00" type="DEFAULT_VEHTYPE" speed="0.61" pos="44.48" lane="VODUGES_beg_0" slope="0.00"/>
        <vehicle id="slow" x="52.91" y="-1.65" angle="90.00" type="slow" speed="0.92" pos="52.91" lane="VODUGES_beg_0" slope="0.00"/>
    </timestep>
    <timestep time="19.00">
        <vehicle id="overtaking" x="44.98" y="-1.65" angle="90.00" type="DEFAULT_VEHTYPE" speed="0.50" pos="44.98" lane="VODUGES_beg_0" slope="0.00"/>
        <vehicle id="slow" x="53.64" y="-1.65" angle="90.00" type="slow" speed="0.73" pos="53.64" lane="VODUGES_beg_0" slope="0.00"/>
    </timestep>
    <timestep time="20.00">
        <vehicle id="overtaking" x="46.04" y="-1.65" angle="90.00" type="DEFAULT_VEHTYPE" speed="1.06" pos="46.04" lane="VODUGES_beg_0" slope="0.00"/>
        <vehicle id="slow" x="54.61" y="-1.65" angle="90.00" type="slow" speed="0.97" pos="54.61" lane="VODUGES_beg_0" slope="0.00"/>
    </timestep>
    <timestep time="21.00">
        <vehicle id="overtaking" x="46.94" y="-1.65" angle="90.00" type="DEFAULT_VEHTYPE" speed="0.90" pos="46.94" lane="VODUGES_beg_0" slope="0.00"/>
        <vehicle id="slow" x="55.11" y="-1.65" angle="90.00" type="slow" speed="0.50" pos="55.11" lane="VODUGES_beg_0" slope="0.00"/>
    </timestep>
    <timestep time="22.00">
        <vehicle id="overtaking" x="47.58" y="1.65" angle="90.00" type="DEFAULT_VEHTYPE" speed="0.64" pos="152.42" lane="-VODUGES_beg_0" slope="0.00"/>
        <vehicle id="slow" x="55.94" y="-1.65" angle="90.00" type="slow" speed="0.83" pos="55.94" lane="VODUGES_beg_0" slope="0.00"/>
    </timestep>
    <timestep time="23.00">
        <vehicle id="overtaking" x="50.09" y="1.65" angle="90.00" type="DEFAULT_VEHTYPE" speed="2.51" pos="149.91" lane="-VODUGES_beg_0" slope="0.00"/>
        <vehicle id="slow" x="56.84" y="-1.65" angle="90.00" type="slow" speed="0.90" pos="56.84" lane="VODUGES_beg_0" slope="0.00"/>
    </timestep>
    <timestep time="24.00">
        <vehicle id="overtaking" x="54.96" y="1.65" angle="90.00" type="DEFAULT_VEHTYPE" speed="4.87" pos="145.04" lane="-VODUGES_beg_0" slope="0.00"/>
        <vehicle id="slow" x="57.81" y="-1.65" angle="90.00" type="slow" speed="0.98" pos="57.81" lane="VODUGES_beg_0" slope="0.00"/>
    </timestep>
    <timestep time="25.00">
        <vehicle id="overtaking" x="62.32" y="1.65" angle="90.00" type="DEFAULT_VEHTYPE" speed="7.37" pos="137.68" lane="-VODUGES_beg_0" slope="0.00"/>
        <vehicle id="slow" x="58.45" y="-1.65" angle="90.00" type="slow" speed="0.64" pos="58.45" lane="VODUGES_beg_0" slope="0.00"/>
    </timestep>
    <timestep time="26.00">
        <vehicle id="overtaking" x="71.83" y="-1.65" angle="90.00" type="DEFAULT_VEHTYPE" speed="9.51" pos="71.83" lane="VODUGES_beg_0" slope="0.00"/>
        <vehicle id="slow" x="59.31" y="-1.65" angle="90.00" type="slow" speed="0.85" pos="59.31" lane="VODUGES_beg_0" slope="0.00"/>
    </timestep>
    <timestep time="27.00">
        <vehicle id="overtaking" x="83.67" y="-1.65" angle="90.00" type="DEFAULT_VEHTYPE" speed="11.83" pos="83.67" lane="VODUGES_beg_0" slope="0.00"/>
        <vehicle id="slow" x="59.97" y="-1.65" angle="90.00" type="slow" speed="0.66" pos="59.97" lane="VODUGES_beg_0" slope="0.00"/>
    </timestep>
    <timestep time="28.00">
        <vehicle id="overtaking" x="97.01" y="-1.65" angle="90.00" type="DEFAULT_VEHTYPE" speed="13.34" pos="97.01" lane="VODUGES_beg_0" slope="0.00"/>
        <vehicle id="slow" x="60.66" y="-1.65" angle="90.00" type="slow" speed="0.69" pos="60.66" lane="VODUGES_beg_0" slope="0.00"/>
    </timestep>
    <timestep time="29.00">
        <vehicle id="overtaking" x="110.39" y="-1.65" angle="90.00" type="DEFAULT_VEHTYPE" speed="13.38" pos="110.39" lane="VODUGES_beg_0" slope="0.00"/>
        <vehicle id="slow" x="61.40" y="-1.65" angle="90.00" type="slow" speed="0.74" pos="61.40" lane="VODUGES_beg_0" slope="0.00"/>
    </timestep>
    <timestep time="30.00">
        <vehicle id="overtaking" x="123.21" y="-1.65" angle="90.00" type="DEFAULT_VEHTYPE" speed="12.82" pos="123.21" lane="VODUGES_beg_0" slope="0.00"/>
        <vehicle id="slow" x="62.11" y="-1.65" angle="90.00" type="slow" speed="0.71" pos="62.11" lane="VODUGES_beg_0" slope="0.00"/>
    </timestep>
    <timestep time="31.00">
        <vehicle id="overtaking" x="136.55" y="-1.65" angle="90.00" type="DEFAULT_VEHTYPE" speed="13.35" pos="136.55" lane="VODUGES_beg_0" slope="0.00"/>
        <vehicle id="slow" x="62.93" y="-1.65" angle="90.00" type="slow" speed="0.82" pos="62.93" lane="VODUGES_beg_0" slope="0.00"/>
    </timestep>
    <timestep time="32.00">
        <vehicle id="overtaking" x="149.17" y="-1.65" angle="90.00" type="DEFAULT_VEHTYPE" speed="12.62" pos="149.17" lane="VODUGES_beg_0" slope="0.00"/>
        <vehicle id="slow" x="63.92" y="-1.65" angle="90.00" type="slow" speed="0.99" pos="63.92" lane="VODUGES_beg_0" slope="0.00"/>
    </timestep>
    <timestep time="33.00">
        <vehicle id="overtaking" x="162.67" y="-1.65" angle="90.00" type="DEFAULT_VEHTYPE" speed="13.50" pos="162.67" lane="VODUGES_beg_0" slope="0.00"/>
        <vehicle id="slow" x="64.87" y="-1.65" angle="90.00" type="slow" speed="0.95" pos="64.87" lane="VODUGES_beg_0" slope="0.00"/>
    </timestep>
    <timestep time="34.00">
        <vehicle id="overtaking" x="175.42" y="-1.65" angle="90.00" type="DEFAULT_VEHTYPE" speed="12.75" pos="175.42" lane="VODUGES_beg_0" slope="0.00"/>
        <vehicle id="slow" x="65.55" y="-1.65" angle="90.00" type="slow" speed="0.69" pos="65.55" lane="VODUGES_beg_0" slope="0.00"/>
    </timestep>
    <timestep time="35.00">
        <vehicle id="overtaking" x="188.11" y="-1.65" angle="90.00" type="DEFAULT_VEHTYPE" speed="12.69" pos="188.11" lane="VODUGES_beg_0" slope="0.00"/>
        <vehicle id="slow" x="66.31" y="-1.65" angle="90.00" type="slow" speed="0.75" pos="66.31" lane="VODUGES_beg_0" slope="0.00"/>
    </timestep>
    <timestep time="36.00">
        <vehicle id="slow" x="66.95" y="-1.65" angle="90.00" type="slow" speed="0.64" pos="66.95" lane="VODUGES_beg_0" slope="0.00"/>
    </timestep>
    <timestep time="37.00">
        <vehicle id="slow" x="67.72" y="-1.65" angle="90.00" type="slow" speed="0.77" pos="67.72" lane="VODUGES_beg_0" slope="0.00"/>
    </timestep>
    <timestep time="38.00">
        <vehicle id="slow" x="68.29" y="-1.65" angle="90.00" type="slow" speed="0.56" pos="68.29" lane="VODUGES_beg_0" slope="0.00"/>
    </timestep>
    <timestep time="39.00">
        <vehicle id="slow" x="69.00" y="-1.65" angle="90.00" type="slow" speed="0.71" pos="69.00" lane="VODUGES_beg_0" slope="0.00"/>
    </timestep>
    <timestep time="40.00">
        <vehicle id="slow" x="69.51" y="-1.65" angle="90.00" type="slow" speed="0.51" pos="69.51" lane="VODUGES_beg_0" slope="0.00"/>
    </timestep>
    <timestep time="41.00">
        <vehicle id="slow" x="70.37" y="-1.65" angle="90.00" type="slow" speed="0.85" pos="70.37" lane="VODUGES_beg_0" slope="0.00"/>
    </timestep>
    <timestep time="42.00">
        <vehicle id="slow" x="71.16" y="-1.65" angle="90.00" type="slow" speed="0.79" pos="71.16" lane="VODUGES_beg_0" slope="0.00"/>
    </timestep>
    <timestep time="43.00">
        <vehicle id="slow" x="71.99" y="-1.65" angle="90.00" type="slow" speed="0.83" pos="71.99" lane="VODUGES_beg_0" slope="0.00"/>
    </timestep>
    <timestep time="44.00">
        <vehicle id="slow" x="72.64" y="-1.65" angle="90.00" type="slow" speed="0.65" pos="72.64" lane="VODUGES_beg_0" slope="0.00"/>
    </timestep>
    <timestep time="45.00">
        <vehicle id="slow" x="73.59" y="-1.65" angle="90.00" type="slow" speed="0.95" pos="73.59" lane="VODUGES_beg_0" slope="0.00"/>
    </timestep>
    <timestep time="46.00">
        <vehicle id="slow" x="74.35" y="-1.65" angle="90.00" type="slow" speed="0.77" pos="74.35" lane="VODUGES_beg_0" slope="0.00"/>
    </timestep>
    <timestep time="47.00">
        <vehicle id="slow" x="75.02" y="-1.65" angle="90.00" type="slow" speed="0.67" pos="75.02" lane="VODUGES_beg_0" slope="0.00"/>
    </timestep>
    <timestep time="48.00">
        <vehicle id="slow" x="75.63" y="-1.65" angle="90.00" type="slow" speed="0.61" pos="75.63" lane="VODUGES_beg_0" slope="0.00"/>
    </timestep>
    <timestep time="49.00">
        <vehicle id="slow" x="76.49" y="-1.65" angle="90.00" type="slow" speed="0.86" pos="76.49" lane="VODUGES_beg_0" slope="0.00"/>
    </timestep>
    <timestep time="50.00">
        <vehicle id="slow" x="77.14" y="-1.65" angle="90.00" type="slow" speed="0.64" pos="77.14" lane="VODUGES_beg_0" slope="0.00"/>
    </timestep>
    <timestep time="51.00">
        <vehicle id="slow" x="78.07" y="-1.65" angle="90.00" type="slow" speed="0.94" pos="78.07" lane="VODUGES_beg_0" slope="0.00"/>
    </timestep>
    <timestep time="52.00">
        <vehicle id="slow" x="78.72" y="-1.65" angle="90.00" type="slow" speed="0.64" pos="78.72" lane="VODUGES_beg_0" slope="0.00"/>
    </timestep>
    <timestep time="53.00">
        <vehicle id="slow" x="79.65" y="-1.65" angle="90.00" type="slow" speed="0.93" pos="79.65" lane="VODUGES_beg_0" slope="0.00"/>
    </timestep>
    <timestep time="54.00">
        <vehicle id="slow" x="80.21" y="-1.65" angle="90.00" type="slow" speed="0.56" pos="80.21" lane="VODUGES_beg_0" slope="0.00"/>
    </timestep>
    <timestep time="55.00">
        <vehicle id="slow" x="81.02" y="-1.65" angle="90.00" type="slow" speed="0.81" pos="81.02" lane="VODUGES_beg_0" slope="0.00"/>
    </timestep>
    <timestep time="56.00">
        <vehicle id="slow" x="81.78" y="-1.65" angle="90.00" type="slow" speed="0.76" pos="81.78" lane="VODUGES_beg_0" slope="0.00"/>
    </timestep>
    <timestep time="57.00">
        <vehicle id="slow" x="82.76" y="-1.65" angle="90.00" type="slow" speed="0.98" pos="82.76" lane="VODUGES_beg_0" slope="0.00"/>
    </timestep>
    <timestep time="58.00">
        <vehicle id="slow" x="83.56" y="-1.65" angle="90.00" type="slow" speed="0.80" pos="83.56" lane="VODUGES_beg_0" slope="0.00"/>
    </timestep>
    <timestep time="59.00">
        <vehicle id="slow" x="84.23" y="-1.65" angle="90.00" type="slow" speed="0.66" pos="84.23" lane="VODUGES_beg_0" slope="0.00"/>
    </timestep>
    <timestep time="60.00">
        <vehicle id="slow" x="84.74" y="-1.65" angle="90.00" type="slow" speed="0.51" pos="84.74" lane="VODUGES_beg_0" slope="0.00"/>
    </timestep>
    <timestep time="61.00">
        <vehicle id="slow" x="85.31" y="-1.65" angle="90.00" type="slow" speed="0.58" pos="85.31" lane="VODUGES_beg_0" slope="0.00"/>
    </timestep>
    <timestep time="62.00">
        <vehicle id="slow" x="86.24" y="-1.65" angle="90.00" type="slow" speed="0.92" pos="86.24" lane="VODUGES_beg_0" slope="0.00"/>
    </timestep>
    <timestep time="63.00">
        <vehicle id="slow" x="86.79" y="-1.65" angle="90.00" type="slow" speed="0.55" pos="86.79" lane="VODUGES_beg_0" slope="0.00"/>
    </timestep>
    <timestep time="64.00">
        <vehicle id="slow" x="87.61" y="-1.65" angle="90.00" type="slow" speed="0.83" pos="87.61" lane="VODUGES_beg_0" slope="0.00"/>
    </timestep>
    <timestep time="65.00">
        <vehicle id="slow" x="88.28" y="-1.65" angle="90.00" type="slow" speed="0.67" pos="88.28" lane="VODUGES_beg_0" slope="0.00"/>
    </timestep>
    <timestep time="66.00">
        <vehicle id="slow" x="89.07" y="-1.65" angle="90.00" type="slow" speed="0.78" pos="89.07" lane="VODUGES_beg_0" slope="0.00"/>
    </timestep>
    <timestep time="67.00">
        <vehicle id="slow" x="89.77" y="-1.65" angle="90.00" type="slow" speed="0.71" pos="89.77" lane="VODUGES_beg_0" slope="0.00"/>
    </timestep>
    <timestep time="68.00">
        <vehicle id="slow" x="90.63" y="-1.65" angle="90.00" type="slow" speed="0.86" pos="90.63" lane="VODUGES_beg_0" slope="0.00"/>
    </timestep>
    <timestep time="69.00">
        <vehicle id="slow" x="91.44" y="-1.65" angle="90.00" type="slow" speed="0.81" pos="91.44" lane="VODUGES_beg_0" slope="0.00"/>
    </timestep>
    <timestep time="70.00">
        <vehicle id="slow" x="92.10" y="-1.65" angle="90.00" type="slow" speed="0.66" pos="92.10" lane="VODUGES_beg_0" slope="0.00"/>
    </timestep>
    <timestep time="71.00">
        <vehicle id="slow" x="92.81" y="-1.65" angle="90.00" type="slow" speed="0.70" pos="92.81" lane="VODUGES_beg_0" slope="0.00"/>
    </timestep>
    <timestep time="72.00">
        <vehicle id="slow" x="93.52" y="-1.65" angle="90.00" type="slow" speed="0.71" pos="93.52" lane="VODUGES_beg_0" slope="0.00"/>
    </timestep>
    <timestep time="73.00">
        <vehicle id="slow" x="94.47" y="-1.65" angle="90.00" type="slow" speed="0.95" pos="94.47" lane="VODUGES_beg_0" slope="0.00"/>
    </timestep>
    <timestep time="74.00">
        <vehicle id="slow" x="95.04" y="-1.65" angle="90.00" type="slow" speed="0.57" pos="95.04" lane="VODUGES_beg_0" slope="0.00"/>
    </timestep>
    <timestep time="75.00">
        <vehicle id="slow" x="95.72" y="-1.65" angle="90.00" type="slow" speed="0.68" pos="95.72" lane="VODUGES_beg_0" slope="0.00"/>
    </timestep>
    <timestep time="76.00">
        <vehicle id="slow" x="96.31" y="-1.65" angle="90.00" type="slow" speed="0.59" pos="96.31" lane="VODUGES_beg_0" slope="0.00"/>
    </timestep>
    <timestep time="77.00">
        <vehicle id="slow" x="96.84" y="-1.65" angle="90.00" type="slow" speed="0.53" pos="96.84" lane="VODUGES_beg_0" slope="0.00"/>
    </timestep>
    <timestep time="78.00">
        <vehicle id="slow" x="97.56" y="-1.65" angle="90.00" type="slow" speed="0.73" pos="97.56" lane="VODUGES_beg_0" slope="0.00"/>
    </timestep>
    <timestep time="79.00">
        <vehicle id="slow" x="98.55" y="-1.65" angle="90.00" type="slow" speed="0.99" pos="98.55" lane="VODUGES_beg_0" slope="0.00"/>
    </timestep>
    <timestep time="80.00">
        <vehicle id="slow" x="99.06" y="-1.65" angle="90.00" type="slow" speed="0.51" pos="99.06" lane="VODUGES_beg_0" slope="0.00"/>
    </timestep>
    <timestep time="81.00">
        <vehicle id="slow" x="99.62" y="-1.65" angle="90.00" type="slow" speed="0.56" pos="99.62" lane="VODUGES_beg_0" slope="0.00"/>
    </timestep>
    <timestep time="82.00">
        <vehicle id="slow" x="100.38" y="-1.65" angle="90.00" type="slow" speed="0.76" pos="100.38" lane="VODUGES_beg_0" slope="0.00"/>
    </timestep>
    <timestep time="83.00">
        <vehicle id="slow" x="100.93" y="-1.65" angle="90.00" type="slow" speed="0.55" pos="100.93" lane="VODUGES_beg_0" slope="0.00"/>
    </timestep>
    <timestep time="84.00">
        <vehicle id="slow" x="101.84" y="-1.65" angle="90.00" type="slow" speed="0.92" pos="101.84" lane="VODUGES_beg_0" slope="0.00"/>
    </timestep>
    <timestep time="85.00">
        <vehicle id="slow" x="102.67" y="-1.65" angle="90.00" type="slow" speed="0.83" pos="102.67" lane="VODUGES_beg_0" slope="0.00"/>
    </timestep>
    <timestep time="86.00">
        <vehicle id="slow" x="103.27" y="-1.65" angle="90.00" type="slow" speed="0.60" pos="103.27" lane="VODUGES_beg_0" slope="0.00"/>
    </timestep>
    <timestep time="87.00">
        <vehicle id="slow" x="104.04" y="-1.65" angle="90.00" type="slow" speed="0.76" pos="104.04" lane="VODUGES_beg_0" slope="0.00"/>
    </timestep>
    <timestep time="88.00">
        <vehicle id="slow" x="104.87" y="-1.65" angle="90.00" type="slow" speed="0.83" pos="104.87" lane="VODUGES_beg_0" slope="0.00"/>
    </timestep>
    <timestep time="89.00">
        <vehicle id="slow" x="105.87" y="-1.65" angle="90.00" type="slow" speed="1.00" pos="105.87" lane="VODUGES_beg_0" slope="0.00"/>
    </timestep>
    <timestep time="90.00">
        <vehicle id="slow" x="106.54" y="-1.65" angle="90.00" type="slow" speed="0.67" pos="106.54" lane="VODUGES_beg_0" slope="0.00"/>
    </timestep>
    <timestep time="91.00">
        <vehicle id="slow" x="107.08" y="-1.65" angle="90.00" type="slow" speed="0.54" pos="107.08" lane="VODUGES_beg_0" slope="0.00"/>
    </timestep>
    <timestep time="92.00">
        <vehicle id="slow" x="108.07" y="-1.65" angle="90.00" type="slow" speed="0.99" pos="108.07" lane="VODUGES_beg_0" slope="0.00"/>
    </timestep>
    <timestep time="93.00">
        <vehicle id="slow" x="108.83" y="-1.65" angle="90.00" type="slow" speed="0.76" pos="108.83" lane="VODUGES_beg_0" slope="0.00"/>
    </timestep>
    <timestep time="94.00">
        <vehicle id="slow" x="109.37" y="-1.65" angle="90.00" type="slow" speed="0.55" pos="109.37" lane="VODUGES_beg_0" slope="0.00"/>
    </timestep>
    <timestep time="95.00">
        <vehicle id="slow" x="110.17" y="-1.65" angle="90.00" type="slow" speed="0.79" pos="110.17" lane="VODUGES_beg_0" slope="0.00"/>
    </timestep>
    <timestep time="96.00">
        <vehicle id="slow" x="111.11" y="-1.65" angle="90.00" type="slow" speed="0.94" pos="111.11" lane="VODUGES_beg_0" slope="0.00"/>
    </timestep>
    <timestep time="97.00">
        <vehicle id="slow" x="111.69" y="-1.65" angle="90.00" type="slow" speed="0.57" pos="111.69" lane="VODUGES_beg_0" slope="0.00"/>
    </timestep>
    <timestep time="98.00">
        <vehicle id="slow" x="112.28" y="-1.65" angle="90.00" type="slow" speed="0.59" pos="112.28" lane="VODUGES_beg_0" slope="0.00"/>
    </timestep>
    <timestep time="99.00">
        <vehicle id="slow" x="113.08" y="-1.65" angle="90.00" type="slow" speed="0.80" pos="113.08" lane="VODUGES_beg_0" slope="0.00"/>
    </timestep>
    <timestep time="100.00">
        <vehicle id="slow" x="113.58" y="-1.65" angle="90.00" type="slow" speed="0.50" pos="113.58" lane="VODUGES_beg_0" slope="0.00"/>
    </timestep>
    <timestep time="101.00">
        <vehicle id="slow" x="114.34" y="-1.65" angle="90.00" type="slow" speed="0.76" pos="114.34" lane="VODUGES_beg_0" slope="0.00"/>
    </timestep>
    <timestep time="102.00">
        <vehicle id="slow" x="114.87" y="-1.65" angle="90.00" type="slow" speed="0.53" pos="114.87" lane="VODUGES_beg_0" slope="0.00"/>
    </timestep>
    <timestep time="103.00">
        <vehicle id="slow" x="115.48" y="-1.65" angle="90.00" type="slow" speed="0.61" pos="115.48" lane="VODUGES_beg_0" slope="0.00"/>
    </timestep>
    <timestep time="104.00">
        <vehicle id="slow" x="116.25" y="-1.65" angle="90.00" type="slow" speed="0.77" pos="116.25" lane="VODUGES_beg_0" slope="0.00"/>
    </timestep>
    <timestep time="105.00">
        <vehicle id="slow" x="116.82" y="-1.65" angle="90.00" type="slow" speed="0.58" pos="116.82" lane="VODUGES_beg_0" slope="0.00"/>
    </timestep>
    <timestep time="106.00">
        <vehicle id="slow" x="117.66" y="-1.65" angle="90.00" type="slow" speed="0.83" pos="117.66" lane="VODUGES_beg_0" slope="0.00"/>
    </timestep>
    <timestep time="107.00">
        <vehicle id="slow" x="118.55" y="-1.65" angle="90.00" type="slow" speed="0.90" pos="118.55" lane="VODUGES_beg_0" slope="0.00"/>
    </timestep>
    <timestep time="108.00">