<?xml version="1.0" encoding="UTF-8"?>

<!-- generated on 2022-02-10 08:01:52 by Eclipse SUMO sumo Version v1_12_0+0435-fe833cb
This data file and the accompanying materials
are made available under the terms of the Eclipse Public License v2.0
which accompanies this distribution, and is available at
http://www.eclipse.org/legal/epl-v20.html
This file may also be made available under the following Secondary
Licenses when the conditions for such availability set forth in the Eclipse
Public License 2.0 are satisfied: GNU General Public License, version 2
or later which is available at
https://www.gnu.org/licenses/old-licenses/gpl-2.0-standalone.html
SPDX-License-Identifier: EPL-2.0 OR GPL-2.0-or-later
<configuration xmlns:xsi="http://www.w3.org/2001/XMLSchema-instance" xsi:noNamespaceSchemaLocation="http://sumo.dlr.de/xsd/sumoConfiguration.xsd">

    <input>
        <net-file value="net2.net.xml"/>
        <route-files value="input_routes.rou.xml"/>
    </input>

    <output>
        <write-license value="true"/>
        <tripinfo-output value="tripinfos.xml"/>
    </output>

    <processing>
        <scale value="2"/>
        <default.speeddev value="0"/>
    </processing>

    <report>
        <xml-validation value="never"/>
        <xml-validation.routes value="never"/>
        <no-step-log value="true"/>
    </report>

</configuration>
-->

<tripinfos xmlns:xsi="http://www.w3.org/2001/XMLSchema-instance" xsi:noNamespaceSchemaLocation="http://sumo.dlr.de/xsd/tripinfo_file.xsd">
    <tripinfo id="f.0" depart="0.00" departLane="SC_0" departPos="5.10" departSpeed="0.00" departDelay="0.00" arrival="17.00" arrivalLane="CN_0" arrivalPos="91.95" arrivalSpeed="13.89" duration="17.00" routeLength="194.90" waitingTime="0.00" waitingCount="0" stopTime="0.00" timeLoss="2.19" rerouteNo="0" devices="tripinfo_f.0" vType="DEFAULT_VEHTYPE" speedFactor="1.00" vaporized=""/>
    <tripinfo id="f.1" depart="600.00" departLane="SC_0" departPos="5.10" departSpeed="0.00" departDelay="0.00" arrival="640.00" arrivalLane="CN_0" arrivalPos="91.95" arrivalSpeed="13.89" duration="40.00" routeLength="194.90" waitingTime="19.00" waitingCount="1" stopTime="0.00" timeLoss="25.01" rerouteNo="0" devices="tripinfo_f.1" vType="DEFAULT_VEHTYPE" speedFactor="1.00" vaporized=""/>
    <tripinfo id="f.2" depart="1200.00" departLane="SC_0" departPos="5.10" departSpeed="0.00" departDelay="0.00" arrival="1270.00" arrivalLane="CN_0" arrivalPos="91.95" arrivalSpeed="13.89" duration="70.00" routeLength="194.90" waitingTime="49.00" waitingCount="1" stopTime="0.00" timeLoss="55.01" rerouteNo="0" devices="tripinfo_f.2" vType="DEFAULT_VEHTYPE" speedFactor="1.00" vaporized=""/>
    <tripinfo id="f.3" depart="1800.00" departLane="SC_0" departPos="5.10" departSpeed="0.00" departDelay="0.00" arrival="1817.00" arrivalLane="CN_0" arrivalPos="91.95" arrivalSpeed="13.89" duration="17.00" routeLength="194.90" waitingTime="0.00" waitingCount="0" stopTime="0.00" timeLoss="2.19" rerouteNo="0" devices="tripinfo_f.3" vType="DEFAULT_VEHTYPE" speedFactor="1.00" vaporized=""/>
    <tripinfo id="f.4" depart="2400.00" departLane="SC_0" departPos="5.10" departSpeed="0.00" departDelay="0.00" arrival="2440.00" arrivalLane="CN_0" arrivalPos="91.95" arrivalSpeed="13.89" duration="40.00" routeLength="194.90" waitingTime="19.00" waitingCount="1" stopTime="0.00" timeLoss="25.01" rerouteNo="0" devices="tripinfo_f.4" vType="DEFAULT_VEHTYPE" speedFactor="1.00" vaporized=""/>
    <tripinfo id="f.5" depart="3000.00" departLane="SC_0" departPos="5.10" departSpeed="0.00" departDelay="0.00" arrival="3070.00" arrivalLane="CN_0" arrivalPos="91.95" arrivalSpeed="13.89" duration="70.00" routeLength="194.90" waitingTime="49.00" waitingCount="1" stopTime="0.00" timeLoss="55.01" rerouteNo="0" devices="tripinfo_f.5" vType="DEFAULT_VEHTYPE" speedFactor="1.00" vaporized=""/>
</tripinfos>
