<?xml version="1.0" encoding="UTF-8"?>

<!-- generated on 2024-08-01 12:32:08 by Eclipse SUMO sumo Version v1_20_0+0496-93162477c77
This data file and the accompanying materials
are made available under the terms of the Eclipse Public License v2.0
which accompanies this distribution, and is available at
http://www.eclipse.org/legal/epl-v20.html
This file may also be made available under the following Secondary
Licenses when the conditions for such availability set forth in the Eclipse
Public License 2.0 are satisfied: GNU General Public License, version 2
or later which is available at
https://www.gnu.org/licenses/old-licenses/gpl-2.0-standalone.html
SPDX-License-Identifier: EPL-2.0 OR GPL-2.0-or-later
<configuration xmlns:xsi="http://www.w3.org/2001/XMLSchema-instance" xsi:noNamespaceSchemaLocation="http://sumo.dlr.de/xsd/sumoConfiguration.xsd">

    <input>
        <net-file value="net.net.xml"/>
        <route-files value="input_routes.rou.xml"/>
    </input>

    <output>
        <write-license value="true"/>
        <tripinfo-output value="tripinfos.xml"/>
        <vehroute-output value="vehroutes.xml"/>
        <railsignal-block-output value="railsignal_blocks.xml"/>
    </output>

    <processing>
        <default.speeddev value="0"/>
    </processing>

    <routing>
        <device.rerouting.period value="10"/>
        <device.rerouting.adaptation-steps value="10"/>
    </routing>

    <report>
        <xml-validation value="never"/>
        <duration-log.disable value="true"/>
        <no-step-log value="true"/>
    </report>

</configuration>
-->

<railsignal-block-output>
    <railSignal id="11">
        <link linkIndex="0" from="T23_0_0" to=":11_1_0">
            <driveWay id="11.0" edges="T24_0">
                <forward lanes=":11_1_0 T24_0_0"/>
                <bidi lanes="T24_1_0"/>
                <flank lanes=""/>
                <protectingSwitches links=""/>
                <conflictLinks signals=""/>
                <foes driveWays="11.0"/>
            </driveWay>
        </link>
    </railSignal>
    <railSignal id="A">
        <link linkIndex="0" from="T17_0_0" to=":A_1_0">
            <driveWay id="A.1" edges="T18_0 T29_0 T19_0 T20_0 T21_0 T30_0">
                <forward lanes=":A_1_0 T18_0_0 :w7_2_0 T29_0_0 :w8_2_0 T19_0_0 :P1_1_0 T20_0_0"/>
                <bidi lanes=":A_0_0 T18_1_0 :w7_1_0 T29_1_0 :w8_1_0 T19_1_0 :P1_0_0 T20_1_0 :N1_0_0 T21_1_0 :w9_1_0"
                    deadlockCheck="T30_1_0 :w10_0_0 T25_1_0 :G_0_0"/>
                <flank lanes=":w7_3_0 T13_0_0 :w1_2_0 :w8_0_0 T14_1_0 :w2_1_0"/>
                <protectingSwitches links="w9_1 w1_2 w2_1"/>
                <conflictLinks signals="G_0 P3_0 P2_0"/>
                <foes driveWays="P2.0.1 P3.0.1 A.1 G.2 P1.0.0"/>
            </driveWay>
            <subDriveWay id="A.1.0" edges="T18_0 T29_0">
                <forward lanes=":A_1_0 T18_0_0 :w7_2_0 T29_0_0"/>
            </subDriveWay>
            <subDriveWay id="A.1.1" edges="T18_0 T29_0 T19_0">
                <forward lanes=":A_1_0 T18_0_0 :w7_2_0 T29_0_0 :w8_2_0 T19_0_0 :P1_1_0"/>
            </subDriveWay>
        </link>
    </railSignal>
    <railSignal id="B">
        <link linkIndex="0" from="T1_0_0" to=":B_1_0">
            <driveWay id="B.1" edges="T5_0 T6_0 T27_0 T7_0 T8_0 T9_0 T15_0 T30_0 T25_0 T26_0">
                <forward lanes=":B_1_0 T5_0_0 :w1_3_0 T6_0_0 :w2_3_0 T27_0_0 :w3_2_0 T7_0_0 :P2_1_0 T8_0_0"/>
                <bidi lanes=":B_0_0 T5_1_0 :w1_0_0 T6_1_0 :w2_0_0 T27_1_0 :w3_1_0 T7_1_0 :P2_0_0 T8_1_0 :N2_0_0 T9_1_0 :w4_1_0 T15_1_0 :w9_0_0"
                    deadlockCheck="T30_1_0 :w10_0_0 T25_1_0 :G_0_0 T26_1_0"/>
                <flank lanes=":w1_1_0 T13_1_0 :w7_0_0 :w2_2_0 T14_0_0 :w8_3_0 :w3_0_0 T2_1_0 :P3_0_0 :w4_0_0 T10_1_0 :w5_1_0"/>
                <protectingSwitches links="w9_0 w7_0 w8_3 w5_1"/>
                <conflictLinks signals="F_0 P3_0 G_0"/>
                <foes driveWays="F.0 P2.0.0 P3.0.0 B.1 G.0 P2.1.1 B.2 G.1 F.2"/>
            </driveWay>
            <subDriveWay id="B.1.0" edges="T5_0 T6_0 T27_0 T7_0">
                <forward lanes=":B_1_0 T5_0_0 :w1_3_0 T6_0_0 :w2_3_0 T27_0_0 :w3_2_0 T7_0_0 :P2_1_0"/>
            </subDriveWay>
            <subDriveWay id="B.1.1" edges="T5_0 T6_0 T27_0">
                <forward lanes=":B_1_0 T5_0_0 :w1_3_0 T6_0_0 :w2_3_0 T27_0_0"/>
            </subDriveWay>
            <driveWay id="B.2" edges="T5_0 T6_0 T27_0 T7_0 T8_0 T9_0 T15_0 T30_0">
                <forward lanes=":B_1_0 T5_0_0 :w1_3_0 T6_0_0 :w2_3_0 T27_0_0 :w3_2_0 T7_0_0 :P2_1_0 T8_0_0"/>
                <bidi lanes=":B_0_0 T5_1_0 :w1_0_0 T6_1_0 :w2_0_0 T27_1_0 :w3_1_0 T7_1_0 :P2_0_0 T8_1_0 :N2_0_0 T9_1_0 :w4_1_0 T15_1_0 :w9_0_0"
                    deadlockCheck="T30_1_0 :w10_0_0 T25_1_0 :G_0_0"/>
                <flank lanes=":w1_1_0 T13_1_0 :w7_0_0 :w2_2_0 T14_0_0 :w8_3_0 :w3_0_0 T2_1_0 :P3_0_0 :w4_0_0 T10_1_0 :w5_1_0"/>
                <protectingSwitches links="w9_0 w7_0 w8_3 w5_1"/>
                <conflictLinks signals="F_0 G_0 P3_0"/>
                <foes driveWays="F.0 P2.0.0 P3.0.0 B.1 G.0 P2.1.1 B.2 G.1 F.2"/>
            </driveWay>
            <subDriveWay id="B.2.0" edges="T5_0 T6_0 T27_0 T7_0">
                <forward lanes=":B_1_0 T5_0_0 :w1_3_0 T6_0_0 :w2_3_0 T27_0_0 :w3_2_0 T7_0_0 :P2_1_0"/>
            </subDriveWay>
            <subDriveWay id="B.2.1" edges="T5_0 T6_0 T27_0">
                <forward lanes=":B_1_0 T5_0_0 :w1_3_0 T6_0_0 :w2_3_0 T27_0_0"/>
            </subDriveWay>
        </link>
    </railSignal>
    <railSignal id="F">
        <link linkIndex="0" from="T12_1_0" to=":F_0_0">
            <driveWay id="F.0" edges="T11_1 T28_1 T10_1 T9_1 T8_1 T7_1 T27_1 T14_1 T29_1 T18_1 T17_1" core="8">
                <forward lanes=":F_0_0 T11_1_0 :w6_0_0 T28_1_0 :w5_1_0 T10_1_0 :w4_0_0 T9_1_0 :N2_0_0 T8_1_0"/>
                <bidi lanes="T28_0_0 :w5_2_0 T10_0_0 :w4_3_0 T9_0_0 :N2_1_0 T8_0_0 :P2_1_0 T7_0_0 :w3_2_0"
                    deadlockCheck="T27_0_0 :w2_2_0 T14_0_0 :w8_3_0 :w2_3_0 T6_0_0 :w1_3_0"/>
                <flank lanes=":w4_1_0 T15_1_0 :w9_0_0 :w5_3_0 T4_0_0 :N3_1_0"/>
                <protectingSwitches links="w3_2 w9_0 w1_3"/>
                <conflictLinks signals="B_0 N3_0 G_0"/>
                <foes driveWays="N2.0.0 F.0 F.1.0 B.1 G.0 B.2 N2.1.1 G.1 F.2"/>
            </driveWay>
            <subDriveWay id="F.0.0" edges="T11_1 T28_1 T10_1 T9_1">
                <forward lanes=":F_0_0 T11_1_0 :w6_0_0 T28_1_0 :w5_1_0 T10_1_0 :w4_0_0 T9_1_0 :N2_0_0"/>
            </subDriveWay>
            <subDriveWay id="F.0.1" edges="T11_1 T28_1">
                <forward lanes=":F_0_0 T11_1_0 :w6_0_0 T28_1_0"/>
            </subDriveWay>
            <driveWay id="F.1" edges="T11_1 T28_1 T4_1 T3_1 T2_1 T27_1 T14_1 T29_1 T18_1 T17_1" core="5">
                <forward lanes=":F_0_0 T11_1_0 :w6_0_0 T28_1_0 :w5_0_0 T4_1_0 :N3_0_0 T3_1_0"/>
                <bidi lanes="T28_0_0 :w5_3_0 T4_0_0 :N3_1_0 T3_0_0 :P3_1_0 T2_0_0 :w3_3_0"/>
                <flank lanes=":w5_2_0 T10_0_0 :w4_3_0"/>
                <protectingSwitches links="w4_3"/>
                <conflictLinks signals=""/>
                <foes driveWays="F.0.1 F.1 F.2.1"/>
            </driveWay>
            <subDriveWay id="F.1.0" edges="T11_1 T28_1">
                <forward lanes=":F_0_0 T11_1_0 :w6_0_0 T28_1_0"/>
            </subDriveWay>
            <driveWay id="F.2" edges="T11_1 T28_1 T10_1 T9_1 T8_1 T7_1 T27_1 T6_1 T5_1 T1_1">
                <forward lanes=":F_0_0 T11_1_0 :w6_0_0 T28_1_0 :w5_1_0 T10_1_0 :w4_0_0 T9_1_0 :N2_0_0 T8_1_0"/>
                <bidi lanes="T28_0_0 :w5_2_0 T10_0_0 :w4_3_0 T9_0_0 :N2_1_0 T8_0_0 :P2_1_0 T7_0_0 :w3_2_0"
                    deadlockCheck="T27_0_0 :w2_3_0 T6_0_0 :w1_3_0 T5_0_0 :B_1_0 T1_0_0 :w2_2_0 T14_0_0 :w8_3_0"/>
                <flank lanes=":w4_1_0 T15_1_0 :w9_0_0 :w5_3_0 T4_0_0 :N3_1_0"/>
                <protectingSwitches links="w3_2 w1_3 w9_0 w8_3"/>
                <conflictLinks signals="B_0 G_0 N3_0"/>
                <foes driveWays="N2.0.0 F.0 F.1.0 B.1 G.0 B.2 N2.1.1 G.1 F.2"/>
            </driveWay>
            <subDriveWay id="F.2.0" edges="T11_1 T28_1 T10_1 T9_1">
                <forward lanes=":F_0_0 T11_1_0 :w6_0_0 T28_1_0 :w5_1_0 T10_1_0 :w4_0_0 T9_1_0 :N2_0_0"/>
            </subDriveWay>
            <subDriveWay id="F.2.1" edges="T11_1 T28_1">
                <forward lanes=":F_0_0 T11_1_0 :w6_0_0 T28_1_0"/>
            </subDriveWay>
        </link>
    </railSignal>
    <railSignal id="G">
        <link linkIndex="0" from="T26_1_0" to=":G_0_0">
            <driveWay id="G.0" edges="T25_1 T30_1 T15_1 T9_1 T8_1 T7_1 T27_1 T6_1 T5_1 T1_1">
                <forward lanes=":G_0_0 T25_1_0 :w10_0_0 T30_1_0 :w9_0_0 T15_1_0 :w4_1_0 T9_1_0 :N2_0_0 T8_1_0"/>
                <bidi lanes=":G_1_0 T25_0_0 :w10_1_0 T30_0_0 :w9_3_0 T15_0_0 :w4_2_0 T9_0_0 :N2_1_0 T8_0_0 :P2_1_0 T7_0_0 :w3_2_0"
                    deadlockCheck="T27_0_0 :w2_3_0 T6_0_0 :w1_3_0 T5_0_0 :B_1_0 T1_0_0 :w2_2_0 T14_0_0 :w8_3_0"/>
                <flank lanes=":w4_0_0 T10_1_0 :w5_1_0 :w9_2_0 T21_0_0 :N1_1_0"/>
                <protectingSwitches links="w3_2 w1_3 w5_1 w8_3"/>
                <conflictLinks signals="F_0 B_0 N1_0"/>
                <foes driveWays="N2.0.2 F.0 N1.0.0 B.1 G.0 B.2 N2.1.0 G.1 G.2.0 F.2"/>
            </driveWay>
            <subDriveWay id="G.0.0" edges="T25_1 T30_1 T15_1 T9_1">
                <forward lanes=":G_0_0 T25_1_0 :w10_0_0 T30_1_0 :w9_0_0 T15_1_0 :w4_1_0 T9_1_0 :N2_0_0"/>
            </subDriveWay>
            <subDriveWay id="G.0.1" edges="T25_1 T30_1">
                <forward lanes=":G_0_0 T25_1_0 :w10_0_0 T30_1_0"/>
            </subDriveWay>
            <driveWay id="G.1" edges="T25_1 T30_1 T15_1 T9_1 T8_1 T7_1 T27_1 T14_1 T29_1 T18_1 T17_1" core="8">
                <forward lanes=":G_0_0 T25_1_0 :w10_0_0 T30_1_0 :w9_0_0 T15_1_0 :w4_1_0 T9_1_0 :N2_0_0 T8_1_0"/>
                <bidi lanes=":G_1_0 T25_0_0 :w10_1_0 T30_0_0 :w9_3_0 T15_0_0 :w4_2_0 T9_0_0 :N2_1_0 T8_0_0 :P2_1_0 T7_0_0 :w3_2_0"
                    deadlockCheck="T27_0_0 :w2_2_0 T14_0_0 :w8_3_0 :w2_3_0 T6_0_0 :w1_3_0"/>
                <flank lanes=":w4_0_0 T10_1_0 :w5_1_0 :w9_2_0 T21_0_0 :N1_1_0"/>
                <protectingSwitches links="w3_2 w5_1 w1_3"/>
                <conflictLinks signals="F_0 B_0 N1_0"/>
                <foes driveWays="N2.0.2 F.0 N1.0.0 B.1 G.0 B.2 N2.1.0 G.1 G.2.0 F.2"/>
            </driveWay>
            <subDriveWay id="G.1.0" edges="T25_1 T30_1 T15_1 T9_1">
                <forward lanes=":G_0_0 T25_1_0 :w10_0_0 T30_1_0 :w9_0_0 T15_1_0 :w4_1_0 T9_1_0 :N2_0_0"/>
            </subDriveWay>
            <subDriveWay id="G.1.1" edges="T25_1 T30_1">
                <forward lanes=":G_0_0 T25_1_0 :w10_0_0 T30_1_0"/>
            </subDriveWay>
            <driveWay id="G.2" edges="T25_1 T30_1 T21_1 T20_1 T19_1 T29_1 T18_1 T17_1">
                <forward lanes=":G_0_0 T25_1_0 :w10_0_0 T30_1_0 :w9_1_0 T21_1_0 :N1_0_0 T20_1_0"/>
                <bidi lanes=":G_1_0 T25_0_0 :w10_1_0 T30_0_0 :w9_2_0 T21_0_0 :N1_1_0 T20_0_0 :P1_1_0 T19_0_0 :w8_2_0"
                    deadlockCheck="T29_0_0 :w7_2_0 T18_0_0 :A_1_0 T17_0_0 :w7_3_0 T13_0_0 :w1_2_0"/>
                <flank lanes=":w9_3_0 T15_0_0 :w4_2_0"/>
                <protectingSwitches links="w8_2 w4_2 w1_2"/>
                <conflictLinks signals="A_0 N2_0"/>
                <foes driveWays="N2.0.2 N1.0.0 G.0.1 N2.1.0 G.1.1 A.1 G.2"/>
            </driveWay>
            <subDriveWay id="G.2.0" edges="T25_1 T30_1">
                <forward lanes=":G_0_0 T25_1_0 :w10_0_0 T30_1_0"/>
            </subDriveWay>
            <subDriveWay id="G.2.1" edges="T25_1 T30_1 T21_1">
                <forward lanes=":G_0_0 T25_1_0 :w10_0_0 T30_1_0 :w9_1_0 T21_1_0 :N1_0_0"/>
            </subDriveWay>
        </link>
    </railSignal>
    <railSignal id="N1">
        <link linkIndex="0" from="T20_0_0" to=":N1_1_0">
            <driveWay id="N1.0" edges="T21_0 T30_0 T22_0 T23_0">
                <forward lanes=":N1_1_0 T21_0_0 :w9_2_0 T30_0_0 :w10_2_0 T22_0_0 :w11_0_0 T23_0_0"/>
                <bidi lanes=":N1_0_0 T21_1_0 :w9_1_0 T30_1_0"/>
                <flank lanes=":w10_0_0 T25_1_0 :G_0_0 :w11_1_0 T16_0_0 :w6_1_0 T28_0_0 :w5_2_0 T10_0_0 :w4_3_0 :w5_3_0 T4_0_0 :N3_1_0 :w9_3_0 T15_0_0 :w4_2_0"/>
                <protectingSwitches links="w4_3 w4_2"/>
                <conflictLinks signals="G_0 N3_0 N2_0"/>
                <foes driveWays="N2.0.1 N1.0 G.0.1 N2.1 G.1.1 G.2.1"/>
            </driveWay>
            <subDriveWay id="N1.0.0" edges="T21_0 T30_0">
                <forward lanes=":N1_1_0 T21_0_0 :w9_2_0 T30_0_0"/>
            </subDriveWay>
        </link>
    </railSignal>
    <railSignal id="N2">
        <link linkIndex="0" from="T8_0_0" to=":N2_1_0">
            <driveWay id="N2.0" edges="T9_0 T15_0 T30_0 T25_0 T26_0">
                <forward lanes=":N2_1_0 T9_0_0 :w4_2_0 T15_0_0 :w9_3_0 T30_0_0 :w10_1_0 T25_0_0 :G_1_0 T26_0_0"/>
                <bidi lanes=":N2_0_0 T9_1_0 :w4_1_0 T15_1_0 :w9_0_0 T30_1_0 :w10_0_0 T25_1_0 :G_0_0 T26_1_0"/>
                <flank lanes=":w4_0_0 T10_1_0 :w5_1_0 :w9_2_0 T21_0_0 :N1_1_0"/>
                <protectingSwitches links="w5_1"/>
                <conflictLinks signals="N1_0 F_0"/>
                <foes driveWays="N2.0 F.0.0 N1.0.0 G.0.0 e5.d3 N2.1.0 e5.d5 G.1.0 G.2.0 F.2.0 e5.d6"/>
            </driveWay>
            <subDriveWay id="N2.0.0" edges="T9_0">
                <forward lanes=":N2_1_0 T9_0_0"/>
            </subDriveWay>
            <subDriveWay id="N2.0.1" edges="T9_0 T15_0 T30_0">
                <forward lanes=":N2_1_0 T9_0_0 :w4_2_0 T15_0_0 :w9_3_0 T30_0_0"/>
            </subDriveWay>
            <subDriveWay id="N2.0.2" edges="T9_0 T15_0 T30_0 T25_0">
                <forward lanes=":N2_1_0 T9_0_0 :w4_2_0 T15_0_0 :w9_3_0 T30_0_0 :w10_1_0 T25_0_0 :G_1_0"/>
            </subDriveWay>
            <driveWay id="N2.1" edges="T9_0 T15_0 T30_0 T22_0 T23_0">
                <forward lanes=":N2_1_0 T9_0_0 :w4_2_0 T15_0_0 :w9_3_0 T30_0_0 :w10_2_0 T22_0_0 :w11_0_0 T23_0_0"/>
                <bidi lanes=":N2_0_0 T9_1_0 :w4_1_0 T15_1_0 :w9_0_0 T30_1_0"/>
                <flank lanes=":w10_0_0 T25_1_0 :G_0_0 :w11_1_0 T16_0_0 :w6_1_0 T28_0_0 :w5_2_0 T10_0_0 :w4_3_0 :w5_3_0 T4_0_0 :N3_1_0 :w4_0_0 T10_1_0 :w5_1_0 :w9_2_0 T21_0_0 :N1_1_0"/>
                <protectingSwitches links="w5_1"/>
                <conflictLinks signals="F_0 N1_0 G_0 N3_0"/>
                <foes driveWays="N2.0.1 F.0.0 N1.0 G.0.0 N2.1 G.1.0 G.2.0 F.2.0"/>
            </driveWay>
            <subDriveWay id="N2.1.0" edges="T9_0 T15_0 T30_0">
                <forward lanes=":N2_1_0 T9_0_0 :w4_2_0 T15_0_0 :w9_3_0 T30_0_0"/>
            </subDriveWay>
            <subDriveWay id="N2.1.1" edges="T9_0">
                <forward lanes=":N2_1_0 T9_0_0"/>
            </subDriveWay>
        </link>
    </railSignal>
    <railSignal id="N3">
        <link linkIndex="0" from="T3_0_0" to=":N3_1_0"/>
    </railSignal>
    <railSignal id="P1">
        <link linkIndex="0" from="T20_1_0" to=":P1_0_0">
            <driveWay id="P1.0" edges="T19_1 T29_1 T18_1 T17_1">
                <forward lanes=":P1_0_0 T19_1_0 :w8_1_0 T29_1_0 :w7_1_0 T18_1_0 :A_0_0 T17_1_0"/>
                <bidi lanes=":P1_1_0 T19_0_0 :w8_2_0 T29_0_0 :w7_2_0 T18_0_0 :A_1_0 T17_0_0"/>
                <flank lanes=":w7_3_0 T13_0_0 :w1_2_0 :w8_0_0 T14_1_0 :w2_1_0"/>
                <protectingSwitches links="w1_2 w2_1"/>
                <conflictLinks signals="P3_0 P2_0"/>
                <foes driveWays="P2.0 P3.0 A.1.1 e3.d2 P1.0"/>
            </driveWay>
            <subDriveWay id="P1.0.0" edges="T19_1 T29_1 T18_1">
                <forward lanes=":P1_0_0 T19_1_0 :w8_1_0 T29_1_0 :w7_1_0 T18_1_0 :A_0_0"/>
            </subDriveWay>
        </link>
    </railSignal>
    <railSignal id="P2">
        <link linkIndex="0" from="T8_1_0" to=":P2_0_0">
            <driveWay id="P2.0" edges="T7_1 T27_1 T14_1 T29_1 T18_1 T17_1">
                <forward lanes=":P2_0_0 T7_1_0 :w3_1_0 T27_1_0 :w2_1_0 T14_1_0 :w8_0_0 T29_1_0 :w7_1_0 T18_1_0 :A_0_0 T17_1_0"/>
                <bidi lanes=":P2_1_0 T7_0_0 :w3_2_0 T27_0_0 :w2_2_0 T14_0_0 :w8_3_0 T29_0_0 :w7_2_0 T18_0_0 :A_1_0 T17_0_0"/>
                <flank lanes=":w2_3_0 T6_0_0 :w1_3_0 :w3_0_0 T2_1_0 :P3_0_0 :w7_3_0 T13_0_0 :w1_2_0 :w8_1_0 T19_1_0 :P1_0_0"/>
                <protectingSwitches links="w1_3 w1_2"/>
                <conflictLinks signals="B_0 P1_0 P3_0"/>
                <foes driveWays="P2.0 P3.0 B.1.0 P2.1.0 B.2.0 A.1.0 e3.d2 P1.0"/>
            </driveWay>
            <subDriveWay id="P2.0.0" edges="T7_1 T27_1">
                <forward lanes=":P2_0_0 T7_1_0 :w3_1_0 T27_1_0"/>
            </subDriveWay>
            <subDriveWay id="P2.0.1" edges="T7_1 T27_1 T14_1 T29_1 T18_1">
                <forward lanes=":P2_0_0 T7_1_0 :w3_1_0 T27_1_0 :w2_1_0 T14_1_0 :w8_0_0 T29_1_0 :w7_1_0 T18_1_0 :A_0_0"/>
            </subDriveWay>
            <driveWay id="P2.1" edges="T7_1 T27_1 T6_1 T5_1 T1_1">
                <forward lanes=":P2_0_0 T7_1_0 :w3_1_0 T27_1_0 :w2_0_0 T6_1_0 :w1_0_0 T5_1_0 :B_0_0 T1_1_0"/>
                <bidi lanes=":P2_1_0 T7_0_0 :w3_2_0 T27_0_0 :w2_3_0 T6_0_0 :w1_3_0 T5_0_0 :B_1_0 T1_0_0"/>
                <flank lanes=":w1_1_0 T13_1_0 :w7_0_0 :w2_2_0 T14_0_0 :w8_3_0 :w3_0_0 T2_1_0 :P3_0_0"/>
                <protectingSwitches links="w7_0 w8_3"/>
                <conflictLinks signals="P3_0"/>
                <foes driveWays="P2.0.0 P3.0.0 B.1.0 e1.d0 P2.1 e1.d4 B.2.0"/>
            </driveWay>
            <subDriveWay id="P2.1.0" edges="T7_1 T27_1">
                <forward lanes=":P2_0_0 T7_1_0 :w3_1_0 T27_1_0"/>
            </subDriveWay>
            <subDriveWay id="P2.1.1" edges="T7_1 T27_1 T6_1 T5_1">
                <forward lanes=":P2_0_0 T7_1_0 :w3_1_0 T27_1_0 :w2_0_0 T6_1_0 :w1_0_0 T5_1_0 :B_0_0"/>
            </subDriveWay>
        </link>
    </railSignal>
    <railSignal id="P3">
        <link linkIndex="0" from="T3_1_0" to=":P3_0_0">
            <driveWay id="P3.0" edges="T2_1 T27_1 T14_1 T29_1 T18_1 T17_1">
                <forward lanes=":P3_0_0 T2_1_0 :w3_0_0 T27_1_0 :w2_1_0 T14_1_0 :w8_0_0 T29_1_0 :w7_1_0 T18_1_0 :A_0_0 T17_1_0"/>
                <bidi lanes=":P3_1_0 T2_0_0 :w3_3_0 T27_0_0 :w2_2_0 T14_0_0 :w8_3_0 T29_0_0 :w7_2_0 T18_0_0 :A_1_0 T17_0_0"/>
                <flank lanes=":w2_3_0 T6_0_0 :w1_3_0 :w3_1_0 T7_1_0 :P2_0_0 :w7_3_0 T13_0_0 :w1_2_0 :w8_1_0 T19_1_0 :P1_0_0"/>
                <protectingSwitches links="w1_3 w1_2"/>
                <conflictLinks signals="B_0 P1_0 P2_0"/>
                <foes driveWays="P2.0 P3.0 B.1.1 P2.1.0 B.2.1 A.1.0 e3.d2 P1.0"/>
            </driveWay>
            <subDriveWay id="P3.0.0" edges="T2_1 T27_1">
                <forward lanes=":P3_0_0 T2_1_0 :w3_0_0 T27_1_0"/>
            </subDriveWay>
            <subDriveWay id="P3.0.1" edges="T2_1 T27_1 T14_1 T29_1 T18_1">
                <forward lanes=":P3_0_0 T2_1_0 :w3_0_0 T27_1_0 :w2_1_0 T14_1_0 :w8_0_0 T29_1_0 :w7_1_0 T18_1_0 :A_0_0"/>
            </subDriveWay>
        </link>
    </railSignal>
    <departJunction id="e2">
        <driveWay id="e2.d1" edges="T12_1">
            <forward lanes="T12_1_0"/>
            <bidi lanes=""/>
            <flank lanes=""/>
            <protectingSwitches links=""/>
            <conflictLinks signals=""/>
            <foes driveWays="e2.d1"/>
        </driveWay>
    </departJunction>
    <departJunction id="e3">
        <driveWay id="e3.d2" edges="T17_0 T18_0 T29_0 T19_0 T20_0 T21_0 T30_0">
            <forward lanes="T17_0_0"/>
            <bidi lanes="T17_1_0 :A_0_0 T18_1_0 :w7_1_0"
                    deadlockCheck="T29_1_0 :w8_1_0 T19_1_0 :P1_0_0 T20_1_0 :N1_0_0 T21_1_0 :w9_1_0 T30_1_0 :w10_0_0 T25_1_0 :G_0_0 :w8_0_0 T14_1_0 :w2_1_0"/>
            <flank lanes=""/>
            <protectingSwitches links="w7_1 w9_1 w2_1"/>
            <conflictLinks signals="G_0 P3_0 P2_0 P1_0"/>
            <foes driveWays="P2.0 P3.0 e3.d2 P1.0"/>
        </driveWay>
    </departJunction>
    <departJunction id="e1">
        <driveWay id="e1.d0" edges="T1_0 T5_0 T6_0 T27_0 T7_0 T8_0 T9_0 T15_0 T30_0 T25_0 T26_0">
            <forward lanes="T1_0_0"/>
            <bidi lanes="T1_1_0 :B_0_0 T5_1_0 :w1_0_0 T6_1_0 :w2_0_0"
                    deadlockCheck="T27_1_0 :w3_1_0 T7_1_0 :P2_0_0 T8_1_0 :N2_0_0 T9_1_0 :w4_1_0 T15_1_0 :w9_0_0 T30_1_0 :w10_0_0 T25_1_0 :G_0_0 T26_1_0 :w3_0_0 T2_1_0 :P3_0_0 :w4_0_0 T10_1_0 :w5_1_0"/>
            <flank lanes=":w1_1_0 T13_1_0 :w7_0_0"/>
            <protectingSwitches links="w2_0 w9_0 w7_0 w5_1"/>
            <conflictLinks signals="P3_0 P2_0"/>
            <foes driveWays="e1.d0 P2.1 e1.d4"/>
        </driveWay>
        <driveWay id="e1.d4" edges="T1_0 T5_0 T6_0 T27_0 T7_0 T8_0 T9_0 T15_0 T30_0">
            <forward lanes="T1_0_0"/>
            <bidi lanes="T1_1_0 :B_0_0 T5_1_0 :w1_0_0 T6_1_0 :w2_0_0"
                    deadlockCheck="T27_1_0 :w3_1_0 T7_1_0 :P2_0_0 T8_1_0 :N2_0_0 T9_1_0 :w4_1_0 T15_1_0 :w9_0_0 T30_1_0 :w10_0_0 T25_1_0 :G_0_0 :w3_0_0 T2_1_0 :P3_0_0 :w4_0_0 T10_1_0 :w5_1_0"/>
            <flank lanes=":w1_1_0 T13_1_0 :w7_0_0"/>
            <protectingSwitches links="w2_0 w9_0 w7_0 w5_1"/>
            <conflictLinks signals="G_0 P3_0 P2_0"/>
            <foes driveWays="e1.d0 P2.1 e1.d4"/>
        </driveWay>
    </departJunction>
    <departJunction id="e5">
        <driveWay id="e5.d3" edges="T26_1 T25_1 T30_1 T15_1 T9_1 T8_1 T7_1 T27_1 T6_1 T5_1 T1_1">
            <forward lanes="T26_1_0"/>
            <bidi lanes="T26_0_0 :G_1_0 T25_0_0 :w10_1_0"
                    deadlockCheck="T30_0_0 :w9_3_0 T15_0_0 :w4_2_0 T9_0_0 :N2_1_0 T8_0_0 :P2_1_0 T7_0_0 :w3_2_0 T27_0_0 :w2_3_0 T6_0_0 :w1_3_0 T5_0_0 :B_1_0 T1_0_0 :w2_2_0 T14_0_0 :w8_3_0 :w9_2_0 T21_0_0 :N1_1_0"/>
            <flank lanes=""/>
            <protectingSwitches links="w3_2 w10_1 w1_3 w4_2 w8_3"/>
            <conflictLinks signals="N1_0 N2_0"/>
            <foes driveWays="N2.0 e5.d3 e5.d5 e5.d6"/>
        </driveWay>
        <driveWay id="e5.d5" edges="T26_1 T25_1 T30_1 T15_1 T9_1 T8_1 T7_1 T27_1 T14_1 T29_1 T18_1 T17_1" core="9">
            <forward lanes="T26_1_0"/>
            <bidi lanes="T26_0_0 :G_1_0 T25_0_0 :w10_1_0"
                    deadlockCheck="T30_0_0 :w9_3_0 T15_0_0 :w4_2_0 T9_0_0 :N2_1_0 T8_0_0 :P2_1_0 T7_0_0 :w3_2_0 T27_0_0 :w2_2_0 T14_0_0 :w8_3_0 :w2_3_0 T6_0_0 :w1_3_0 :w9_2_0 T21_0_0 :N1_1_0"/>
            <flank lanes=""/>
            <protectingSwitches links="w3_2 w10_1 w4_2 w1_3"/>
            <conflictLinks signals="N1_0 N2_0"/>
            <foes driveWays="N2.0 e5.d3 e5.d5 e5.d6"/>
        </driveWay>
        <driveWay id="e5.d6" edges="T26_1 T25_1 T30_1 T21_1 T20_1 T19_1 T29_1 T18_1 T17_1">
            <forward lanes="T26_1_0"/>
            <bidi lanes="T26_0_0 :G_1_0 T25_0_0 :w10_1_0"
                    deadlockCheck="T30_0_0 :w9_2_0 T21_0_0 :N1_1_0 T20_0_0 :P1_1_0 T19_0_0 :w8_2_0 T29_0_0 :w7_2_0 T18_0_0 :A_1_0 T17_0_0 :w7_3_0 T13_0_0 :w1_2_0 :w9_3_0 T15_0_0 :w4_2_0"/>
            <flank lanes=""/>
            <protectingSwitches links="w8_2 w10_1 w1_2 w4_2"/>
            <conflictLinks signals="N2_0"/>
            <foes driveWays="N2.0 e5.d3 e5.d5 e5.d6"/>
        </driveWay>
    </departJunction>
</railsignal-block-output>
