<?xml version="1.0" encoding="UTF-8"?>

<!-- generated on Fri Mar 13 14:29:27 2020 by Eclipse SUMO Version v1_5_0+0714-ebbe88b
This data file and the accompanying materials
are made available under the terms of the Eclipse Public License v2.0
which accompanies this distribution, and is available at
http://www.eclipse.org/legal/epl-v20.html
SPDX-License-Identifier: EPL-2.0
<configuration xmlns:xsi="http://www.w3.org/2001/XMLSchema-instance" xsi:noNamespaceSchemaLocation="http://sumo.dlr.de/xsd/sumoConfiguration.xsd">

    <input>
        <net-file value="net.net.xml"/>
        <route-files value="input_routes.rou.xml"/>
    </input>

    <output>
        <write-license value="true"/>
        <tripinfo-output value="tripinfos.xml"/>
        <vehroute-output value="vehroutes.xml"/>
        <railsignal-block-output value="railsignal_blocks.xml"/>
    </output>

    <processing>
        <default.speeddev value="0"/>
    </processing>

    <routing>
        <device.rerouting.period value="10"/>
        <device.rerouting.adaptation-steps value="10"/>
    </routing>

    <report>
        <xml-validation value="never"/>
        <duration-log.disable value="true"/>
        <no-step-log value="true"/>
    </report>

</configuration>
-->

<tripinfos xmlns:xsi="http://www.w3.org/2001/XMLSchema-instance" xsi:noNamespaceSchemaLocation="http://sumo.dlr.de/xsd/tripinfo_file.xsd">
    <tripinfo id="rail1" depart="1.00" departLane="T1_0_0" departPos="512.10" departSpeed="33.33" departDelay="0.00" arrival="181.00" arrivalLane="T26_0_0" arrivalPos="300.00" arrivalSpeed="13.12" duration="180.00" routeLength="2508.53" waitingTime="0.00" waitingCount="0" stopTime="0.00" timeLoss="101.32" rerouteNo="1" devices="vehroute_rail1 tripinfo_rail1 routing_rail1" vType="Freight" speedFactor="1.00" vaporized=""/>
    <tripinfo id="rail2" depart="40.00" departLane="T17_0_0" departPos="207.10" departSpeed="38.89" departDelay="0.00" arrival="313.00" arrivalLane="T24_0_0" arrivalPos="400.00" arrivalSpeed="37.60" duration="273.00" routeLength="4447.00" waitingTime="45.00" waitingCount="1" stopTime="0.00" timeLoss="158.16" rerouteNo="1" devices="vehroute_rail2 tripinfo_rail2 routing_rail2" vType="REDosto7" speedFactor="1.00" vaporized=""/>
    <tripinfo id="rail3" depart="1.00" departLane="T12_1_0" departPos="512.10" departSpeed="33.33" departDelay="0.00" arrival="391.00" arrivalLane="T17_1_0" arrivalPos="1000.00" arrivalSpeed="21.14" duration="390.00" routeLength="4162.09" waitingTime="12.00" waitingCount="1" stopTime="0.00" timeLoss="252.03" rerouteNo="4" devices="vehroute_rail3 tripinfo_rail3 routing_rail3" vType="Freight" speedFactor="1.00" vaporized=""/>
    <tripinfo id="rail4" depart="300.00" departLane="T26_1_0" departPos="300.00" departSpeed="12.66" departDelay="0.00" arrival="499.00" arrivalLane="T1_1_0" arrivalPos="900.00" arrivalSpeed="26.49" duration="199.00" routeLength="2720.63" waitingTime="0.00" waitingCount="0" stopTime="0.00" timeLoss="113.65" rerouteNo="1" devices="vehroute_rail4 tripinfo_rail4 routing_rail4" vType="Freight" speedFactor="1.00" vaporized=""/>
    <tripinfo id="rail6" depart="510.00" departLane="T26_1_0" departPos="300.00" departSpeed="16.67" departDelay="0.00" arrival="646.00" arrivalLane="T17_1_0" arrivalPos="1000.00" arrivalSpeed="28.67" duration="136.00" routeLength="2943.97" waitingTime="0.00" waitingCount="0" stopTime="0.00" timeLoss="45.60" rerouteNo="1" devices="vehroute_rail6 tripinfo_rail6 routing_rail6" vType="Freight" speedFactor="1.00" vaporized=""/>
    <tripinfo id="rail5" depart="500.00" departLane="T1_0_0" departPos="512.10" departSpeed="33.33" departDelay="0.00" arrival="696.00" arrivalLane="T24_0_0" arrivalPos="400.00" arrivalSpeed="24.52" duration="196.00" routeLength="3918.66" waitingTime="0.00" waitingCount="0" stopTime="0.00" timeLoss="76.57" rerouteNo="3" devices="vehroute_rail5 tripinfo_rail5 routing_rail5" vType="Freight" speedFactor="1.00" vaporized=""/>
    <tripinfo id="rail8" depart="1301.00" departLane="T26_1_0" departPos="207.10" departSpeed="19.67" departDelay="0.00" arrival="1405.00" arrivalLane="T17_1_0" arrivalPos="1000.00" arrivalSpeed="38.89" duration="104.00" routeLength="3036.87" waitingTime="0.00" waitingCount="0" stopTime="0.00" timeLoss="23.94" rerouteNo="1" devices="vehroute_rail8 tripinfo_rail8 routing_rail8" vType="REDosto7" speedFactor="1.00" vaporized=""/>
    <tripinfo id="rail7" depart="1300.00" departLane="T12_1_0" departPos="207.10" departSpeed="38.89" departDelay="0.00" arrival="1411.00" arrivalLane="T1_1_0" arrivalPos="900.00" arrivalSpeed="38.89" duration="111.00" routeLength="4316.71" waitingTime="0.00" waitingCount="0" stopTime="0.00" timeLoss="0.00" rerouteNo="1" devices="vehroute_rail7 tripinfo_rail7 routing_rail7" vType="REDosto7" speedFactor="1.00" vaporized=""/>
</tripinfos>
