<?xml version="1.0" encoding="UTF-8"?>

<!-- generated on Thu Jan  5 14:45:26 2017 by SUMO Version dev-SVN-r22466
<?xml version="1.0" encoding="UTF-8"?>

<configuration xmlns:xsi="http://www.w3.org/2001/XMLSchema-instance" xsi:noNamespaceSchemaLocation="http://sumo.dlr.de/xsd/sumoConfiguration.xsd">

    <input>
        <net-file value="net.net.xml"/>
        <additional-files value="input_routes.rou.xml,input_additional.add.xml,input_additional2.add.xml"/>
    </input>

    <time>
        <begin value="0"/>
        <end value="1000"/>
    </time>

    <processing>
        <time-to-teleport value="-1"/>
    </processing>

    <report>
        <xml-validation value="never"/>
        <duration-log.disable value="true"/>
        <no-step-log value="true"/>
    </report>

    <mesoscopic>
        <mesosim value="true"/>
    </mesoscopic>

</configuration>
-->

<meandata xmlns:xsi="http://www.w3.org/2001/XMLSchema-instance" xsi:noNamespaceSchemaLocation="http://sumo.dlr.de/xsd/meandata_file.xsd">
    <interval begin="600.00" end="660.00" id="dump_60">
        <edge id="2/1to1/1" sampledSeconds="780.00" CO_abs="127734.254917" CO2_abs="2042238.390833" HC_abs="629.556590" PMx_abs="51.106859" NOx_abs="936.003093" fuel_abs="877.929986" electricity_abs="0"
            CO_normed="19160.138237" CO2_normed="306335.758625" HC_normed="94.433488" PMx_normed="7.666029" NOx_normed="140.400464" fuel_normed="131.689498" electricity_normed="0"
            traveltime="8000.00" CO_perVeh="1310094.922222" CO2_perVeh="20946034.777778" HC_perVeh="6456.990667" PMx_perVeh="524.172917" NOx_perVeh="9600.031722" fuel_perVeh="9004.410108" electricity_perVeh="0"/>
        <edge id="3/1to2/1" sampledSeconds="3120.00" CO_abs="510664.924411" CO2_abs="8167224.325272" HC_abs="2516.935326" PMx_abs="204.306832" NOx_abs="3742.824006" fuel_abs="3510.976534" electricity_abs="0"
            CO_normed="76599.738662" CO2_normed="1225083.648791" HC_normed="377.540299" PMx_normed="30.646025" NOx_normed="561.423601" fuel_normed="526.646480" electricity_normed="0"
            traveltime="7366.62" CO_perVeh="1205729.679877" CO2_perVeh="19283612.992498" HC_perVeh="5942.729723" PMx_perVeh="482.388351" NOx_perVeh="8837.172429" fuel_perVeh="8289.757940" electricity_perVeh="0"/>
        <edge id="4/1to3/1" sampledSeconds="780.00" CO_abs="127598.036090" CO2_abs="2041372.782776" HC_abs="628.910264" PMx_abs="51.046483" NOx_abs="935.408193" fuel_abs="877.557856" electricity_abs="0"
            CO_normed="19139.705413" CO2_normed="306205.917416" HC_normed="94.336540" PMx_normed="7.656972" NOx_normed="140.311229" fuel_normed="131.633678" electricity_normed="0"
            traveltime="6824.82" CO_perVeh="1116453.452993" CO2_perVeh="17861542.089642" HC_perVeh="5502.820081" PMx_perVeh="446.644982" NOx_perVeh="8184.606430" fuel_perVeh="7678.429298" electricity_perVeh="0"/>
    </interval>
</meandata>
