<?xml version="1.0" encoding="UTF-8"?>

<!-- generated on 2024-05-07 06:52:48 by Eclipse SUMO sumo Version v1_19_0+2101-44e1d32403a
<configuration xmlns:xsi="http://www.w3.org/2001/XMLSchema-instance" xsi:noNamespaceSchemaLocation="http://sumo.dlr.de/xsd/sumoConfiguration.xsd">

    <input>
        <net-file value="net.net.xml"/>
        <route-files value="input_routes2.rou.xml,input_routes.rou.xml"/>
    </input>

    <output>
        <tripinfo-output value="tripinfos.xml"/>
        <tripinfo-output.write-unfinished value="true"/>
        <statistic-output value="stats.xml"/>
    </output>

    <report>
        <no-step-log value="true"/>
    </report>

    <taxi_device>
        <device.taxi.dispatch-algorithm value="traci"/>
    </taxi_device>

    <traci_server>
        <remote-port value="47913"/>
    </traci_server>

</configuration>
-->

<tripinfos xmlns:xsi="http://www.w3.org/2001/XMLSchema-instance" xsi:noNamespaceSchemaLocation="http://sumo.dlr.de/xsd/tripinfo_file.xsd">
    <personinfo id="1" depart="0.00" type="DEFAULT_PEDTYPE" speedFactor="0.94" duration="100.00" waitingTime="60.00" timeLoss="13.14" traveltime="100.00">
        <ride waitingTime="60.00" vehicle="v0" depart="60.00" arrival="160.00" arrivalPos="85.60" duration="100.00" routeLength="380.47" timeLoss="13.14"/>
    </personinfo>
    <personinfo id="0" depart="0.00" type="DEFAULT_PEDTYPE" speedFactor="1.06" duration="247.00" waitingTime="31.00" timeLoss="32.49" traveltime="247.00">
        <ride waitingTime="31.00" vehicle="v0" depart="31.00" arrival="278.00" arrivalPos="285.60" duration="247.00" routeLength="1270.50" timeLoss="32.49"/>
    </personinfo>
    <tripinfo id="v0" depart="0.00" departLane="A0B0_1" departPos="5.10" departSpeed="0.00" departDelay="0.00" arrival="-1.00" arrivalLane="" arrivalPos="-1.00" arrivalSpeed="-1.00" duration="630.00" routeLength="1572.35" waitingTime="7.00" waitingCount="2" stopTime="475.00" timeLoss="39.87" rerouteNo="2" devices="tripinfo_v0 taxi_v0 person_v0" vType="taxi" speedFactor="1.01" vaporized="">
        <taxi customers="2" occupiedDistance="1270.50" occupiedTime="130.00"/>
    </tripinfo>
</tripinfos>
