<?xml version="1.0" encoding="UTF-8"?>

<!-- generated on 2022-06-15 13:01:54 by Eclipse SUMO sumo Version v1_13_0+0844-22f88dc7bc3
This data file and the accompanying materials
are made available under the terms of the Eclipse Public License v2.0
which accompanies this distribution, and is available at
http://www.eclipse.org/legal/epl-v20.html
This file may also be made available under the following Secondary
Licenses when the conditions for such availability set forth in the Eclipse
Public License 2.0 are satisfied: GNU General Public License, version 2
or later which is available at
https://www.gnu.org/licenses/old-licenses/gpl-2.0-standalone.html
SPDX-License-Identifier: EPL-2.0 OR GPL-2.0-or-later
<configuration xmlns:xsi="http://www.w3.org/2001/XMLSchema-instance" xsi:noNamespaceSchemaLocation="http://sumo.dlr.de/xsd/sumoConfiguration.xsd">

    <input>
        <net-file value="net.net.xml"/>
        <additional-files value="input_routes.rou.xml,input_additional.add.xml,input_additional2.add.xml"/>
    </input>

    <output>
        <write-license value="true"/>
    </output>

    <time>
        <begin value="0"/>
        <end value="150"/>
    </time>

    <processing>
        <default.speeddev value="0"/>
    </processing>

    <report>
        <xml-validation value="never"/>
        <duration-log.disable value="true"/>
        <no-step-log value="true"/>
    </report>

</configuration>
-->

<meandata xmlns:xsi="http://www.w3.org/2001/XMLSchema-instance" xsi:noNamespaceSchemaLocation="http://sumo.dlr.de/xsd/meandata_file.xsd">
    <interval begin="0.00" end="15.00" id="dump_all_15">
        <edge id="4/1to3/1">
            <lane id="4/1to3/1_0" sampledSeconds="23.00" CO_abs="526.790000" CO2_abs="48406.511111" HC_abs="3.439078" PMx_abs="0.305199" NOx_abs="16.141164" fuel_abs="15439.946111" electricity_abs="0"
            CO_normed="316.074000" CO2_normed="29043.906667" HC_normed="2.063447" PMx_normed="0.183119" NOx_normed="9.684698" fuel_normed="9263.967667" electricity_normed="0"
            traveltime="41.63" CO_perVeh="953.466063" CO2_perVeh="87613.594771" HC_perVeh="6.224575" PMx_perVeh="0.552396" NOx_perVeh="29.214776" fuel_perVeh="27945.603821" electricity_perVeh="0"/>
        </edge>
    </interval>
    <interval begin="0.00" end="15.00" id="dump_t1_15">
        <edge id="4/1to3/1">
            <lane id="4/1to3/1_0" sampledSeconds="14.00" CO_abs="269.500000" CO2_abs="29571.111111" HC_abs="1.862778" PMx_abs="0.174611" NOx_abs="9.733889" fuel_abs="9432.111111" electricity_abs="0"
            CO_normed="161.700000" CO2_normed="17742.666667" HC_normed="1.117667" PMx_normed="0.104767" NOx_normed="5.840333" fuel_normed="5659.266667" electricity_normed="0"
            traveltime="40.00" CO_perVeh="770.000000" CO2_perVeh="84488.888889" HC_perVeh="5.322222" PMx_perVeh="0.498889" NOx_perVeh="27.811111" fuel_perVeh="26948.888889" electricity_perVeh="0"/>
        </edge>
    </interval>
    <interval begin="0.00" end="15.00" id="dump_t2_15">
        <edge id="4/1to3/1">
            <lane id="4/1to3/1_0" sampledSeconds="9.00" CO_abs="257.290000" CO2_abs="18835.400000" HC_abs="1.576300" PMx_abs="0.130588" NOx_abs="6.407275" fuel_abs="6007.835000" electricity_abs="0"
            CO_normed="154.374000" CO2_normed="11301.240000" HC_normed="0.945780" PMx_normed="0.078353" NOx_normed="3.844365" fuel_normed="3604.701000" electricity_normed="0"
            traveltime="44.44" CO_perVeh="1270.567901" CO2_perVeh="93014.320988" HC_perVeh="7.784198" PMx_perVeh="0.644877" NOx_perVeh="31.640864" fuel_perVeh="29668.320988" electricity_perVeh="0"/>
        </edge>
    </interval>
    <interval begin="15.00" end="30.00" id="dump_all_15">
        <edge id="4/1to3/1">
            <lane id="4/1to3/1_0" sampledSeconds="30.00" CO_abs="717.566667" CO2_abs="63075.666667" HC_abs="4.623000" PMx_abs="0.404729" NOx_abs="21.107958" fuel_abs="20118.891667" electricity_abs="0"
            CO_normed="430.540000" CO2_normed="37845.400000" HC_normed="2.773800" PMx_normed="0.242838" NOx_normed="12.664775" fuel_normed="12071.335000" electricity_normed="0"
            traveltime="42.11" CO_perVeh="1007.111111" CO2_perVeh="88527.251462" HC_perVeh="6.488421" PMx_perVeh="0.568041" NOx_perVeh="29.625205" fuel_perVeh="28237.040936" electricity_perVeh="0"/>
        </edge>
    </interval>
    <interval begin="15.00" end="30.00" id="dump_t1_15">
        <edge id="4/1to3/1">
            <lane id="4/1to3/1_0" sampledSeconds="15.00" CO_abs="288.750000" CO2_abs="31683.333333" HC_abs="1.995833" PMx_abs="0.187083" NOx_abs="10.429167" fuel_abs="10105.833333" electricity_abs="0"
            CO_normed="173.250000" CO2_normed="19010.000000" HC_normed="1.197500" PMx_normed="0.112250" NOx_normed="6.257500" fuel_normed="6063.500000" electricity_normed="0"
            traveltime="40.00" CO_perVeh="770.000000" CO2_perVeh="84488.888889" HC_perVeh="5.322222" PMx_perVeh="0.498889" NOx_perVeh="27.811111" fuel_perVeh="26948.888889" electricity_perVeh="0"/>
        </edge>
    </interval>
    <interval begin="15.00" end="30.00" id="dump_t2_15">
        <edge id="4/1to3/1">
            <lane id="4/1to3/1_0" sampledSeconds="15.00" CO_abs="428.816667" CO2_abs="31392.333333" HC_abs="2.627167" PMx_abs="0.217646" NOx_abs="10.678792" fuel_abs="10013.058333" electricity_abs="0"
            CO_normed="257.290000" CO2_normed="18835.400000" HC_normed="1.576300" PMx_normed="0.130588" NOx_normed="6.407275" fuel_normed="6007.835000" electricity_normed="0"
            traveltime="44.44" CO_perVeh="1270.567901" CO2_perVeh="93014.320988" HC_perVeh="7.784198" PMx_perVeh="0.644877" NOx_perVeh="31.640864" fuel_perVeh="29668.320988" electricity_perVeh="0"/>
        </edge>
    </interval>
    <interval begin="30.00" end="45.00" id="dump_all_15">
        <edge id="3/1to2/1">
            <lane id="3/1to2/1_0" sampledSeconds="19.67" CO_abs="431.497407" CO2_abs="41430.437037" HC_abs="2.855263" PMx_abs="0.256833" NOx_abs="13.768099" fuel_abs="13214.822037" electricity_abs="0"
            CO_normed="258.898444" CO2_normed="24858.262222" HC_normed="1.713158" PMx_normed="0.154100" NOx_normed="8.260859" fuel_normed="7928.893222" electricity_normed="0"
            traveltime="41.19" CO_perVeh="903.659492" CO2_perVeh="86765.313167" HC_perVeh="5.979608" PMx_perVeh="0.537870" NOx_perVeh="28.833715" fuel_perVeh="27675.019973" electricity_perVeh="0"/>
        </edge>
        <edge id="4/1to3/1">
            <lane id="4/1to3/1_0" sampledSeconds="10.97" CO_abs="301.373519" CO2_abs="22976.503704" HC_abs="1.866035" PMx_abs="0.156475" NOx_abs="7.785749" fuel_abs="7328.698704" electricity_abs="0"
            CO_normed="180.824111" CO2_normed="13785.902222" HC_normed="1.119621" PMx_normed="0.093885" NOx_normed="4.671449" fuel_normed="4397.219222" electricity_normed="0"
            traveltime="43.87" CO_perVeh="1205.494074" CO2_perVeh="91906.014815" HC_perVeh="7.464141" PMx_perVeh="0.625898" NOx_perVeh="31.142996" fuel_perVeh="29314.794815" electricity_perVeh="0"/>
        </edge>
    </interval>
    <interval begin="30.00" end="45.00" id="dump_t1_15">
        <edge id="3/1to2/1">
            <lane id="3/1to2/1_0" sampledSeconds="14.00" CO_abs="269.500000" CO2_abs="29571.111111" HC_abs="1.862778" PMx_abs="0.174611" NOx_abs="9.733889" fuel_abs="9432.111111" electricity_abs="0"
            CO_normed="161.700000" CO2_normed="17742.666667" HC_normed="1.117667" PMx_normed="0.104767" NOx_normed="5.840333" fuel_normed="5659.266667" electricity_normed="0"
            traveltime="40.00" CO_perVeh="770.000000" CO2_perVeh="84488.888889" HC_perVeh="5.322222" PMx_perVeh="0.498889" NOx_perVeh="27.811111" fuel_perVeh="26948.888889" electricity_perVeh="0"/>
        </edge>
        <edge id="4/1to3/1">
            <lane id="4/1to3/1_0" sampledSeconds="1.30" CO_abs="25.025000" CO2_abs="2745.888889" HC_abs="0.172972" PMx_abs="0.016214" NOx_abs="0.903861" fuel_abs="875.838889" electricity_abs="0"
            CO_normed="15.015000" CO2_normed="1647.533333" HC_normed="0.103783" PMx_normed="0.009728" NOx_normed="0.542317" fuel_normed="525.503333" electricity_normed="0"
            traveltime="40.00" CO_perVeh="770.000000" CO2_perVeh="84488.888889" HC_perVeh="5.322222" PMx_perVeh="0.498889" NOx_perVeh="27.811111" fuel_perVeh="26948.888889" electricity_perVeh="0"/>
        </edge>
    </interval>
    <interval begin="30.00" end="45.00" id="dump_t2_15">
        <edge id="3/1to2/1">
            <lane id="3/1to2/1_0" sampledSeconds="5.67" CO_abs="161.997407" CO2_abs="11859.325926" HC_abs="0.992485" PMx_abs="0.082222" NOx_abs="4.034210" fuel_abs="3782.710926" electricity_abs="0"
            CO_normed="97.198444" CO2_normed="7115.595556" HC_normed="0.595491" PMx_normed="0.049333" NOx_normed="2.420526" fuel_normed="2269.626556" electricity_normed="0"
            traveltime="44.44" CO_perVeh="1270.567901" CO2_perVeh="93014.320988" HC_perVeh="7.784198" PMx_perVeh="0.644877" NOx_perVeh="31.640864" fuel_perVeh="29668.320988" electricity_perVeh="0"/>
        </edge>
        <edge id="4/1to3/1">
            <lane id="4/1to3/1_0" sampledSeconds="9.67" CO_abs="276.348519" CO2_abs="20230.614815" HC_abs="1.693063" PMx_abs="0.140261" NOx_abs="6.881888" fuel_abs="6452.859815" electricity_abs="0"
            CO_normed="165.809111" CO2_normed="12138.368889" HC_normed="1.015838" PMx_normed="0.084156" NOx_normed="4.129133" fuel_normed="3871.715889" electricity_normed="0"
            traveltime="44.44" CO_perVeh="1270.567901" CO2_perVeh="93014.320988" HC_perVeh="7.784198" PMx_perVeh="0.644877" NOx_perVeh="31.640864" fuel_perVeh="29668.320988" electricity_perVeh="0"/>
        </edge>
    </interval>
    <interval begin="45.00" end="60.00" id="dump_all_15">
        <edge id="3/1to2/1">
            <lane id="3/1to2/1_0" sampledSeconds="30.00" CO_abs="717.566667" CO2_abs="63075.666667" HC_abs="4.623000" PMx_abs="0.404729" NOx_abs="21.107958" fuel_abs="20118.891667" electricity_abs="0"
            CO_normed="430.540000" CO2_normed="37845.400000" HC_normed="2.773800" PMx_normed="0.242838" NOx_normed="12.664775" fuel_normed="12071.335000" electricity_normed="0"
            traveltime="42.11" CO_perVeh="1007.111111" CO2_perVeh="88527.251462" HC_perVeh="6.488421" PMx_perVeh="0.568041" NOx_perVeh="29.625205" fuel_perVeh="28237.040936" electricity_perVeh="0"/>
        </edge>
    </interval>
    <interval begin="45.00" end="60.00" id="dump_t1_15">
        <edge id="3/1to2/1">
            <lane id="3/1to2/1_0" sampledSeconds="15.00" CO_abs="288.750000" CO2_abs="31683.333333" HC_abs="1.995833" PMx_abs="0.187083" NOx_abs="10.429167" fuel_abs="10105.833333" electricity_abs="0"
            CO_normed="173.250000" CO2_normed="19010.000000" HC_normed="1.197500" PMx_normed="0.112250" NOx_normed="6.257500" fuel_normed="6063.500000" electricity_normed="0"
            traveltime="40.00" CO_perVeh="770.000000" CO2_perVeh="84488.888889" HC_perVeh="5.322222" PMx_perVeh="0.498889" NOx_perVeh="27.811111" fuel_perVeh="26948.888889" electricity_perVeh="0"/>
        </edge>
    </interval>
    <interval begin="45.00" end="60.00" id="dump_t2_15">
        <edge id="3/1to2/1">
            <lane id="3/1to2/1_0" sampledSeconds="15.00" CO_abs="428.816667" CO2_abs="31392.333333" HC_abs="2.627167" PMx_abs="0.217646" NOx_abs="10.678792" fuel_abs="10013.058333" electricity_abs="0"
            CO_normed="257.290000" CO2_normed="18835.400000" HC_normed="1.576300" PMx_normed="0.130588" NOx_normed="6.407275" fuel_normed="6007.835000" electricity_normed="0"
            traveltime="44.44" CO_perVeh="1270.567901" CO2_perVeh="93014.320988" HC_perVeh="7.784198" PMx_perVeh="0.644877" NOx_perVeh="31.640864" fuel_perVeh="29668.320988" electricity_perVeh="0"/>
        </edge>
    </interval>
    <interval begin="60.00" end="75.00" id="dump_all_15">
        <edge id="2/1to1/1">
            <lane id="2/1to1/1_0" sampledSeconds="4.00" CO_abs="77.000000" CO2_abs="8448.888889" HC_abs="0.532222" PMx_abs="0.049889" NOx_abs="2.781111" fuel_abs="2694.888889" electricity_abs="0"
            CO_normed="46.200000" CO2_normed="5069.333333" HC_normed="0.319333" PMx_normed="0.029933" NOx_normed="1.668667" fuel_normed="1616.933333" electricity_normed="0"
            traveltime="40.00" CO_perVeh="770.000000" CO2_perVeh="84488.888889" HC_perVeh="5.322222" PMx_perVeh="0.498889" NOx_perVeh="27.811111" fuel_perVeh="26948.888889" electricity_perVeh="0"/>
        </edge>
        <edge id="3/1to2/1">
            <lane id="3/1to2/1_0" sampledSeconds="26.30" CO_abs="646.341667" CO2_abs="55260.444444" HC_abs="4.130694" PMx_abs="0.358582" NOx_abs="18.535431" fuel_abs="17626.119444" electricity_abs="0"
            CO_normed="387.805000" CO2_normed="33156.266667" HC_normed="2.478417" PMx_normed="0.215149" NOx_normed="11.121258" fuel_normed="10575.671667" electricity_normed="0"
            traveltime="42.42" CO_perVeh="1042.486559" CO2_perVeh="89129.749104" HC_perVeh="6.662410" PMx_perVeh="0.578358" NOx_perVeh="29.895856" fuel_perVeh="28429.224910" electricity_perVeh="0"/>
        </edge>
    </interval>
    <interval begin="60.00" end="75.00" id="dump_t1_15">
        <edge id="2/1to1/1">
            <lane id="2/1to1/1_0" sampledSeconds="4.00" CO_abs="77.000000" CO2_abs="8448.888889" HC_abs="0.532222" PMx_abs="0.049889" NOx_abs="2.781111" fuel_abs="2694.888889" electricity_abs="0"
            CO_normed="46.200000" CO2_normed="5069.333333" HC_normed="0.319333" PMx_normed="0.029933" NOx_normed="1.668667" fuel_normed="1616.933333" electricity_normed="0"
            traveltime="40.00" CO_perVeh="770.000000" CO2_perVeh="84488.888889" HC_perVeh="5.322222" PMx_perVeh="0.498889" NOx_perVeh="27.811111" fuel_perVeh="26948.888889" electricity_perVeh="0"/>
        </edge>
        <edge id="3/1to2/1">
            <lane id="3/1to2/1_0" sampledSeconds="11.30" CO_abs="217.525000" CO2_abs="23868.111111" HC_abs="1.503528" PMx_abs="0.140936" NOx_abs="7.856639" fuel_abs="7613.061111" electricity_abs="0"
            CO_normed="130.515000" CO2_normed="14320.866667" HC_normed="0.902117" PMx_normed="0.084562" NOx_normed="4.713983" fuel_normed="4567.836667" electricity_normed="0"
            traveltime="40.00" CO_perVeh="770.000000" CO2_perVeh="84488.888889" HC_perVeh="5.322222" PMx_perVeh="0.498889" NOx_perVeh="27.811111" fuel_perVeh="26948.888889" electricity_perVeh="0"/>
        </edge>
    </interval>
    <interval begin="60.00" end="75.00" id="dump_t2_15">
        <edge id="3/1to2/1">
            <lane id="3/1to2/1_0" sampledSeconds="15.00" CO_abs="428.816667" CO2_abs="31392.333333" HC_abs="2.627167" PMx_abs="0.217646" NOx_abs="10.678792" fuel_abs="10013.058333" electricity_abs="0"
            CO_normed="257.290000" CO2_normed="18835.400000" HC_normed="1.576300" PMx_normed="0.130588" NOx_normed="6.407275" fuel_normed="6007.835000" electricity_normed="0"
            traveltime="44.44" CO_perVeh="1270.567901" CO2_perVeh="93014.320988" HC_perVeh="7.784198" PMx_perVeh="0.644877" NOx_perVeh="31.640864" fuel_perVeh="29668.320988" electricity_perVeh="0"/>
        </edge>
    </interval>
    <interval begin="75.00" end="90.00" id="dump_all_15">
        <edge id="2/1to1/1">
            <lane id="2/1to1/1_0" sampledSeconds="21.22" CO_abs="466.629506" CO2_abs="44705.338272" HC_abs="3.085621" PMx_abs="0.277366" NOx_abs="14.858888" fuel_abs="14259.398272" electricity_abs="0"
            CO_normed="279.977704" CO2_normed="26823.202963" HC_normed="1.851373" PMx_normed="0.166420" NOx_normed="8.915333" fuel_normed="8555.638963" electricity_normed="0"
            traveltime="41.21" CO_perVeh="906.076711" CO2_perVeh="86806.482081" HC_perVeh="5.991497" PMx_perVeh="0.538575" NOx_perVeh="28.852209" fuel_perVeh="27688.151984" electricity_perVeh="0"/>
        </edge>
        <edge id="3/1to2/1">
            <lane id="3/1to2/1_0" sampledSeconds="9.11" CO_abs="260.466420" CO2_abs="19067.935802" HC_abs="1.595760" PMx_abs="0.132200" NOx_abs="6.486377" fuel_abs="6082.005802" electricity_abs="0"
            CO_normed="156.279852" CO2_normed="11440.761481" HC_normed="0.957456" PMx_normed="0.079320" NOx_normed="3.891826" fuel_normed="3649.203481" electricity_normed="0"
            traveltime="44.44" CO_perVeh="1270.567901" CO2_perVeh="93014.320988" HC_perVeh="7.784198" PMx_perVeh="0.644877" NOx_perVeh="31.640864" fuel_perVeh="29668.320988" electricity_perVeh="0"/>
        </edge>
    </interval>
    <interval begin="75.00" end="90.00" id="dump_t1_15">
        <edge id="2/1to1/1">
            <lane id="2/1to1/1_0" sampledSeconds="15.00" CO_abs="288.750000" CO2_abs="31683.333333" HC_abs="1.995833" PMx_abs="0.187083" NOx_abs="10.429167" fuel_abs="10105.833333" electricity_abs="0"
            CO_normed="173.250000" CO2_normed="19010.000000" HC_normed="1.197500" PMx_normed="0.112250" NOx_normed="6.257500" fuel_normed="6063.500000" electricity_normed="0"
            traveltime="40.00" CO_perVeh="770.000000" CO2_perVeh="84488.888889" HC_perVeh="5.322222" PMx_perVeh="0.498889" NOx_perVeh="27.811111" fuel_perVeh="26948.888889" electricity_perVeh="0"/>
        </edge>
    </interval>
    <interval begin="75.00" end="90.00" id="dump_t2_15">
        <edge id="2/1to1/1">
            <lane id="2/1to1/1_0" sampledSeconds="6.22" CO_abs="177.879506" CO2_abs="13022.004938" HC_abs="1.089788" PMx_abs="0.090283" NOx_abs="4.429721" fuel_abs="4153.564938" electricity_abs="0"
            CO_normed="106.727704" CO2_normed="7813.202963" HC_normed="0.653873" PMx_normed="0.054170" NOx_normed="2.657833" fuel_normed="2492.138963" electricity_normed="0"
            traveltime="44.44" CO_perVeh="1270.567901" CO2_perVeh="93014.320988" HC_perVeh="7.784198" PMx_perVeh="0.644877" NOx_perVeh="31.640864" fuel_perVeh="29668.320988" electricity_perVeh="0"/>
        </edge>
        <edge id="3/1to2/1">
            <lane id="3/1to2/1_0" sampledSeconds="9.11" CO_abs="260.466420" CO2_abs="19067.935802" HC_abs="1.595760" PMx_abs="0.132200" NOx_abs="6.486377" fuel_abs="6082.005802" electricity_abs="0"
            CO_normed="156.279852" CO2_normed="11440.761481" HC_normed="0.957456" PMx_normed="0.079320" NOx_normed="3.891826" fuel_normed="3649.203481" electricity_normed="0"
            traveltime="44.44" CO_perVeh="1270.567901" CO2_perVeh="93014.320988" HC_perVeh="7.784198" PMx_perVeh="0.644877" NOx_perVeh="31.640864" fuel_perVeh="29668.320988" electricity_perVeh="0"/>
        </edge>
    </interval>
    <interval begin="90.00" end="105.00" id="dump_all_15">
        <edge id="2/1to1/1">
            <lane id="2/1to1/1_0" sampledSeconds="30.00" CO_abs="717.566667" CO2_abs="63075.666667" HC_abs="4.623000" PMx_abs="0.404729" NOx_abs="21.107958" fuel_abs="20118.891667" electricity_abs="0"
            CO_normed="430.540000" CO2_normed="37845.400000" HC_normed="2.773800" PMx_normed="0.242838" NOx_normed="12.664775" fuel_normed="12071.335000" electricity_normed="0"
            traveltime="42.11" CO_perVeh="1007.111111" CO2_perVeh="88527.251462" HC_perVeh="6.488421" PMx_perVeh="0.568041" NOx_perVeh="29.625205" fuel_perVeh="28237.040936" electricity_perVeh="0"/>
        </edge>
    </interval>
    <interval begin="90.00" end="105.00" id="dump_t1_15">
        <edge id="2/1to1/1">
            <lane id="2/1to1/1_0" sampledSeconds="15.00" CO_abs="288.750000" CO2_abs="31683.333333" HC_abs="1.995833" PMx_abs="0.187083" NOx_abs="10.429167" fuel_abs="10105.833333" electricity_abs="0"
            CO_normed="173.250000" CO2_normed="19010.000000" HC_normed="1.197500" PMx_normed="0.112250" NOx_normed="6.257500" fuel_normed="6063.500000" electricity_normed="0"
            traveltime="40.00" CO_perVeh="770.000000" CO2_perVeh="84488.888889" HC_perVeh="5.322222" PMx_perVeh="0.498889" NOx_perVeh="27.811111" fuel_perVeh="26948.888889" electricity_perVeh="0"/>
        </edge>
    </interval>
    <interval begin="90.00" end="105.00" id="dump_t2_15">
        <edge id="2/1to1/1">
            <lane id="2/1to1/1_0" sampledSeconds="15.00" CO_abs="428.816667" CO2_abs="31392.333333" HC_abs="2.627167" PMx_abs="0.217646" NOx_abs="10.678792" fuel_abs="10013.058333" electricity_abs="0"
            CO_normed="257.290000" CO2_normed="18835.400000" HC_normed="1.576300" PMx_normed="0.130588" NOx_normed="6.407275" fuel_normed="6007.835000" electricity_normed="0"
            traveltime="44.44" CO_perVeh="1270.567901" CO2_perVeh="93014.320988" HC_perVeh="7.784198" PMx_perVeh="0.644877" NOx_perVeh="31.640864" fuel_perVeh="29668.320988" electricity_perVeh="0"/>
        </edge>
    </interval>
    <interval begin="105.00" end="120.00" id="dump_all_15">
        <edge id="1/1to0/1">
            <lane id="1/1to0/1_0" sampledSeconds="9.00" CO_abs="173.250000" CO2_abs="19010.000000" HC_abs="1.197500" PMx_abs="0.112250" NOx_abs="6.257500" fuel_abs="6063.500000" electricity_abs="0"
            CO_normed="103.950000" CO2_normed="11406.000000" HC_normed="0.718500" PMx_normed="0.067350" NOx_normed="3.754500" fuel_normed="3638.100000" electricity_normed="0"
            traveltime="40.00" CO_perVeh="770.000000" CO2_perVeh="84488.888889" HC_perVeh="5.322222" PMx_perVeh="0.498889" NOx_perVeh="27.811111" fuel_perVeh="26948.888889" electricity_perVeh="0"/>
        </edge>
        <edge id="2/1to1/1">
            <lane id="2/1to1/1_0" sampledSeconds="21.30" CO_abs="550.091667" CO2_abs="44699.333333" HC_abs="3.465417" PMx_abs="0.296221" NOx_abs="15.059042" fuel_abs="14257.508333" electricity_abs="0"
            CO_normed="330.055000" CO2_normed="26819.600000" HC_normed="2.079250" PMx_normed="0.177733" NOx_normed="9.035425" fuel_normed="8554.505000" electricity_normed="0"
            traveltime="43.03" CO_perVeh="1111.296296" CO2_perVeh="90301.683502" HC_perVeh="7.000842" PMx_perVeh="0.598426" NOx_perVeh="30.422306" fuel_perVeh="28803.047138" electricity_perVeh="0"/>
        </edge>
    </interval>
    <interval begin="105.00" end="120.00" id="dump_t1_15">
        <edge id="1/1to0/1">
            <lane id="1/1to0/1_0" sampledSeconds="9.00" CO_abs="173.250000" CO2_abs="19010.000000" HC_abs="1.197500" PMx_abs="0.112250" NOx_abs="6.257500" fuel_abs="6063.500000" electricity_abs="0"
            CO_normed="103.950000" CO2_normed="11406.000000" HC_normed="0.718500" PMx_normed="0.067350" NOx_normed="3.754500" fuel_normed="3638.100000" electricity_normed="0"
            traveltime="40.00" CO_perVeh="770.000000" CO2_perVeh="84488.888889" HC_perVeh="5.322222" PMx_perVeh="0.498889" NOx_perVeh="27.811111" fuel_perVeh="26948.888889" electricity_perVeh="0"/>
        </edge>
        <edge id="2/1to1/1">
            <lane id="2/1to1/1_0" sampledSeconds="6.30" CO_abs="121.275000" CO2_abs="13307.000000" HC_abs="0.838250" PMx_abs="0.078575" NOx_abs="4.380250" fuel_abs="4244.450000" electricity_abs="0"
            CO_normed="72.765000" CO2_normed="7984.200000" HC_normed="0.502950" PMx_normed="0.047145" NOx_normed="2.628150" fuel_normed="2546.670000" electricity_normed="0"
            traveltime="40.00" CO_perVeh="770.000000" CO2_perVeh="84488.888889" HC_perVeh="5.322222" PMx_perVeh="0.498889" NOx_perVeh="27.811111" fuel_perVeh="26948.888889" electricity_perVeh="0"/>
        </edge>
    </interval>
    <interval begin="105.00" end="120.00" id="dump_t2_15">
        <edge id="2/1to1/1">
            <lane id="2/1to1/1_0" sampledSeconds="15.00" CO_abs="428.816667" CO2_abs="31392.333333" HC_abs="2.627167" PMx_abs="0.217646" NOx_abs="10.678792" fuel_abs="10013.058333" electricity_abs="0"
            CO_normed="257.290000" CO2_normed="18835.400000" HC_normed="1.576300" PMx_normed="0.130588" NOx_normed="6.407275" fuel_normed="6007.835000" electricity_normed="0"
            traveltime="44.44" CO_perVeh="1270.567901" CO2_perVeh="93014.320988" HC_perVeh="7.784198" PMx_perVeh="0.644877" NOx_perVeh="31.640864" fuel_perVeh="29668.320988" electricity_perVeh="0"/>
        </edge>
    </interval>
    <interval begin="120.00" end="135.00" id="dump_all_15">
        <edge id="1/1to0/1">
            <lane id="1/1to0/1_0" sampledSeconds="21.78" CO_abs="482.511605" CO2_abs="45868.017284" HC_abs="3.182923" PMx_abs="0.285427" NOx_abs="15.254398" fuel_abs="14630.252284" electricity_abs="0"
            CO_normed="289.506963" CO2_normed="27520.810370" HC_normed="1.909754" PMx_normed="0.171256" NOx_normed="9.152639" fuel_normed="8778.151370" electricity_normed="0"
            traveltime="41.28" CO_perVeh="914.713943" CO2_perVeh="86953.587268" HC_perVeh="6.033978" PMx_perVeh="0.541094" NOx_perVeh="28.918291" fuel_perVeh="27735.075420" electricity_perVeh="0"/>
        </edge>
        <edge id="2/1to1/1">
            <lane id="2/1to1/1_0" sampledSeconds="8.56" CO_abs="244.584321" CO2_abs="17905.256790" HC_abs="1.498458" PMx_abs="0.124139" NOx_abs="6.090866" fuel_abs="5711.151790" electricity_abs="0"
            CO_normed="146.750593" CO2_normed="10743.154074" HC_normed="0.899075" PMx_normed="0.074483" NOx_normed="3.654520" fuel_normed="3426.691074" electricity_normed="0"
            traveltime="44.44" CO_perVeh="1270.567901" CO2_perVeh="93014.320988" HC_perVeh="7.784198" PMx_perVeh="0.644877" NOx_perVeh="31.640864" fuel_perVeh="29668.320988" electricity_perVeh="0"/>
        </edge>
    </interval>
    <interval begin="120.00" end="135.00" id="dump_t1_15">
        <edge id="1/1to0/1">
            <lane id="1/1to0/1_0" sampledSeconds="15.00" CO_abs="288.750000" CO2_abs="31683.333333" HC_abs="1.995833" PMx_abs="0.187083" NOx_abs="10.429167" fuel_abs="10105.833333" electricity_abs="0"
            CO_normed="173.250000" CO2_normed="19010.000000" HC_normed="1.197500" PMx_normed="0.112250" NOx_normed="6.257500" fuel_normed="6063.500000" electricity_normed="0"
            traveltime="40.00" CO_perVeh="770.000000" CO2_perVeh="84488.888889" HC_perVeh="5.322222" PMx_perVeh="0.498889" NOx_perVeh="27.811111" fuel_perVeh="26948.888889" electricity_perVeh="0"/>
        </edge>
    </interval>
    <interval begin="120.00" end="135.00" id="dump_t2_15">
        <edge id="1/1to0/1">
            <lane id="1/1to0/1_0" sampledSeconds="6.78" CO_abs="193.761605" CO2_abs="14184.683951" HC_abs="1.187090" PMx_abs="0.098344" NOx_abs="4.825232" fuel_abs="4524.418951" electricity_abs="0"
            CO_normed="116.256963" CO2_normed="8510.810370" HC_normed="0.712254" PMx_normed="0.059006" NOx_normed="2.895139" fuel_normed="2714.651370" electricity_normed="0"
            traveltime="44.44" CO_perVeh="1270.567901" CO2_perVeh="93014.320988" HC_perVeh="7.784198" PMx_perVeh="0.644877" NOx_perVeh="31.640864" fuel_perVeh="29668.320988" electricity_perVeh="0"/>
        </edge>
        <edge id="2/1to1/1">
            <lane id="2/1to1/1_0" sampledSeconds="8.56" CO_abs="244.584321" CO2_abs="17905.256790" HC_abs="1.498458" PMx_abs="0.124139" NOx_abs="6.090866" fuel_abs="5711.151790" electricity_abs="0"
            CO_normed="146.750593" CO2_normed="10743.154074" HC_normed="0.899075" PMx_normed="0.074483" NOx_normed="3.654520" fuel_normed="3426.691074" electricity_normed="0"
            traveltime="44.44" CO_perVeh="1270.567901" CO2_perVeh="93014.320988" HC_perVeh="7.784198" PMx_perVeh="0.644877" NOx_perVeh="31.640864" fuel_perVeh="29668.320988" electricity_perVeh="0"/>
        </edge>
    </interval>
    <interval begin="135.00" end="150.00" id="dump_all_15">
        <edge id="1/1to0/1">
            <lane id="1/1to0/1_0" sampledSeconds="30.00" CO_abs="717.566667" CO2_abs="63075.666667" HC_abs="4.623000" PMx_abs="0.404729" NOx_abs="21.107958" fuel_abs="20118.891667" electricity_abs="0"
            CO_normed="430.540000" CO2_normed="37845.400000" HC_normed="2.773800" PMx_normed="0.242838" NOx_normed="12.664775" fuel_normed="12071.335000" electricity_normed="0"
            traveltime="42.11" CO_perVeh="1007.111111" CO2_perVeh="88527.251462" HC_perVeh="6.488421" PMx_perVeh="0.568041" NOx_perVeh="29.625205" fuel_perVeh="28237.040936" electricity_perVeh="0"/>
        </edge>
    </interval>
    <interval begin="135.00" end="150.00" id="dump_t1_15">
        <edge id="1/1to0/1">
            <lane id="1/1to0/1_0" sampledSeconds="15.00" CO_abs="288.750000" CO2_abs="31683.333333" HC_abs="1.995833" PMx_abs="0.187083" NOx_abs="10.429167" fuel_abs="10105.833333" electricity_abs="0"
            CO_normed="173.250000" CO2_normed="19010.000000" HC_normed="1.197500" PMx_normed="0.112250" NOx_normed="6.257500" fuel_normed="6063.500000" electricity_normed="0"
            traveltime="40.00" CO_perVeh="770.000000" CO2_perVeh="84488.888889" HC_perVeh="5.322222" PMx_perVeh="0.498889" NOx_perVeh="27.811111" fuel_perVeh="26948.888889" electricity_perVeh="0"/>
        </edge>
    </interval>
    <interval begin="135.00" end="150.00" id="dump_t2_15">
        <edge id="1/1to0/1">
            <lane id="1/1to0/1_0" sampledSeconds="15.00" CO_abs="428.816667" CO2_abs="31392.333333" HC_abs="2.627167" PMx_abs="0.217646" NOx_abs="10.678792" fuel_abs="10013.058333" electricity_abs="0"
            CO_normed="257.290000" CO2_normed="18835.400000" HC_normed="1.576300" PMx_normed="0.130588" NOx_normed="6.407275" fuel_normed="6007.835000" electricity_normed="0"
            traveltime="44.44" CO_perVeh="1270.567901" CO2_perVeh="93014.320988" HC_perVeh="7.784198" PMx_perVeh="0.644877" NOx_perVeh="31.640864" fuel_perVeh="29668.320988" electricity_perVeh="0"/>
        </edge>
    </interval>
</meandata>
