<?xml version="1.0" encoding="UTF-8"?>

<!-- generated on Fri Nov 27 09:17:24 2020 by Eclipse SUMO sumo Version v1_7_0+1330-045eb6693b
This data file and the accompanying materials
are made available under the terms of the Eclipse Public License v2.0
which accompanies this distribution, and is available at
http://www.eclipse.org/legal/epl-v20.html
SPDX-License-Identifier: EPL-2.0
<configuration xmlns:xsi="http://www.w3.org/2001/XMLSchema-instance" xsi:noNamespaceSchemaLocation="http://sumo.dlr.de/xsd/sumoConfiguration.xsd">

    <input>
        <net-file value="net.net.xml"/>
        <route-files value="input_routes.rou.xml"/>
        <additional-files value="input_additional.add.xml"/>
    </input>

    <output>
        <write-license value="true"/>
        <vehroute-output value="vehroutes.xml"/>
    </output>

    <time>
        <end value="1440"/>
    </time>

    <processing>
        <default.speeddev value="0"/>
        <pedestrian.model value="nonInteracting"/>
    </processing>

    <report>
        <verbose value="true"/>
        <xml-validation value="never"/>
        <xml-validation.routes value="never"/>
        <duration-log.statistics value="true"/>
        <no-step-log value="true"/>
    </report>

    <mesoscopic>
        <mesosim value="true"/>
    </mesoscopic>

</configuration>
-->

<meandata xmlns:xsi="http://www.w3.org/2001/XMLSchema-instance" xsi:noNamespaceSchemaLocation="http://sumo.dlr.de/xsd/meandata_file.xsd">
    <interval begin="0.00" end="360.00" id="expect_300_vehs">
        <edge id="bottleneck" sampledSeconds="746.81" traveltime="2.86" overlapTraveltime="3.00" density="21.06" laneDensity="21.06" occupancy="10.53" waitingTime="0.00" timeLoss="33.83" speed="34.47" departed="0" arrived="0" entered="263" left="260" laneChangedFrom="0" laneChangedTo="0"/>
        <edge id="end" sampledSeconds="717.86" traveltime="2.77" overlapTraveltime="2.91" density="19.94" laneDensity="19.94" occupancy="9.97" waitingTime="0.00" timeLoss="0.00" speed="36.11" departed="0" arrived="258" entered="260" left="0" laneChangedFrom="0" laneChangedTo="0"/>
        <edge id="jam" sampledSeconds="5628.54" traveltime="20.81" overlapTraveltime="21.86" density="158.73" laneDensity="79.36" occupancy="39.68" waitingTime="0.00" timeLoss="4890.70" speed="4.73" departed="0" arrived="0" entered="272" left="263" laneChangedFrom="0" laneChangedTo="0"/>
        <edge id="middle" sampledSeconds="1266.21" traveltime="4.47" overlapTraveltime="4.69" density="35.17" laneDensity="17.59" occupancy="8.79" waitingTime="0.00" timeLoss="480.96" speed="22.40" departed="0" arrived="0" entered="297" left="272" laneChangedFrom="0" laneChangedTo="0"/>
        <edge id="start" sampledSeconds="825.39" traveltime="2.77" overlapTraveltime="2.91" density="22.93" laneDensity="11.46" occupancy="5.73" waitingTime="0.00" timeLoss="0.00" speed="36.11" departed="300" arrived="0" entered="0" left="297" laneChangedFrom="0" laneChangedTo="0"/>
    </interval>
    <interval begin="360.00" end="720.00" id="expect_300_vehs">
        <edge id="bottleneck" sampledSeconds="729.70" traveltime="2.79" overlapTraveltime="2.93" density="20.58" laneDensity="20.58" occupancy="10.29" waitingTime="0.00" timeLoss="16.53" speed="35.29" departed="0" arrived="0" entered="261" left="262" laneChangedFrom="0" laneChangedTo="0"/>
        <edge id="end" sampledSeconds="724.13" traveltime="2.77" overlapTraveltime="2.91" density="20.11" laneDensity="20.11" occupancy="10.06" waitingTime="0.00" timeLoss="0.00" speed="36.11" departed="0" arrived="262" entered="262" left="0" laneChangedFrom="0" laneChangedTo="0"/>
        <edge id="jam" sampledSeconds="3611.93" traveltime="13.88" overlapTraveltime="14.58" density="101.86" laneDensity="50.93" occupancy="25.46" waitingTime="0.00" timeLoss="2901.86" speed="7.10" departed="0" arrived="0" entered="264" left="261" laneChangedFrom="0" laneChangedTo="0"/>
        <edge id="middle" sampledSeconds="4069.26" traveltime="16.01" overlapTraveltime="16.81" density="113.03" laneDensity="56.52" occupancy="28.26" waitingTime="0.00" timeLoss="3365.43" speed="6.25" departed="0" arrived="0" entered="242" left="264" laneChangedFrom="0" laneChangedTo="0"/>
        <edge id="start" sampledSeconds="5790.92" traveltime="23.31" overlapTraveltime="24.48" density="160.86" laneDensity="80.43" occupancy="40.21" waitingTime="0.00" timeLoss="5103.05" speed="4.29" departed="250" arrived="0" entered="0" left="242" laneChangedFrom="0" laneChangedTo="0"/>
    </interval>
    <interval begin="720.00" end="1080.00" id="expect_300_vehs">
        <edge id="bottleneck" sampledSeconds="734.98" traveltime="2.78" overlapTraveltime="2.92" density="20.73" laneDensity="20.73" occupancy="10.36" waitingTime="0.00" timeLoss="14.05" speed="35.42" departed="0" arrived="0" entered="264" left="264" laneChangedFrom="0" laneChangedTo="0"/>
        <edge id="end" sampledSeconds="731.76" traveltime="2.77" overlapTraveltime="2.91" density="20.33" laneDensity="20.33" occupancy="10.16" waitingTime="0.00" timeLoss="0.00" speed="36.11" departed="0" arrived="264" entered="264" left="0" laneChangedFrom="0" laneChangedTo="0"/>
        <edge id="jam" sampledSeconds="4378.15" traveltime="16.96" overlapTraveltime="17.82" density="123.47" laneDensity="61.73" occupancy="30.87" waitingTime="0.00" timeLoss="3673.92" speed="5.81" departed="0" arrived="0" entered="253" left="264" laneChangedFrom="0" laneChangedTo="0"/>
        <edge id="middle" sampledSeconds="4079.91" traveltime="15.06" overlapTraveltime="15.81" density="113.33" laneDensity="56.67" occupancy="28.33" waitingTime="0.00" timeLoss="3329.74" speed="6.64" departed="0" arrived="0" entered="276" left="253" laneChangedFrom="0" laneChangedTo="0"/>
        <edge id="start" sampledSeconds="5056.61" traveltime="17.84" overlapTraveltime="18.73" density="140.46" laneDensity="70.23" occupancy="35.12" waitingTime="0.00" timeLoss="4271.47" speed="5.61" departed="289" arrived="0" entered="0" left="276" laneChangedFrom="0" laneChangedTo="0"/>
    </interval>
    <interval begin="1080.00" end="1440.00" id="expect_300_vehs">
        <edge id="bottleneck" sampledSeconds="732.81" traveltime="2.78" overlapTraveltime="2.92" density="20.67" laneDensity="20.67" occupancy="10.33" waitingTime="0.00" timeLoss="13.21" speed="35.46" departed="0" arrived="0" entered="264" left="264" laneChangedFrom="0" laneChangedTo="0"/>
        <edge id="end" sampledSeconds="730.53" traveltime="2.77" overlapTraveltime="2.91" density="20.29" laneDensity="20.29" occupancy="10.15" waitingTime="0.00" timeLoss="0.00" speed="36.11" departed="0" arrived="264" entered="264" left="0" laneChangedFrom="0" laneChangedTo="0"/>
        <edge id="jam" sampledSeconds="3772.01" traveltime="13.84" overlapTraveltime="14.54" density="106.37" laneDensity="53.19" occupancy="26.59" waitingTime="0.00" timeLoss="3028.39" speed="7.12" departed="0" arrived="0" entered="280" left="264" laneChangedFrom="0" laneChangedTo="0"/>
        <edge id="middle" sampledSeconds="3572.65" traveltime="13.64" overlapTraveltime="14.32" density="99.24" laneDensity="49.62" occupancy="24.81" waitingTime="0.00" timeLoss="2847.50" speed="7.33" departed="0" arrived="0" entered="257" left="280" laneChangedFrom="0" laneChangedTo="0"/>
        <edge id="start" sampledSeconds="5949.47" traveltime="24.20" overlapTraveltime="25.41" density="165.26" laneDensity="82.63" occupancy="41.32" waitingTime="0.00" timeLoss="5268.70" speed="4.13" departed="240" arrived="0" entered="0" left="257" laneChangedFrom="0" laneChangedTo="0"/>
    </interval>
</meandata>
