<?xml version="1.0" encoding="UTF-8"?>

<!-- generated on 2022-12-04 10:24:18 by Eclipse SUMO sumo Version v1_15_0+0749-de9f6f8
This data file and the accompanying materials
are made available under the terms of the Eclipse Public License v2.0
which accompanies this distribution, and is available at
http://www.eclipse.org/legal/epl-v20.html
This file may also be made available under the following Secondary
Licenses when the conditions for such availability set forth in the Eclipse
Public License 2.0 are satisfied: GNU General Public License, version 2
or later which is available at
https://www.gnu.org/licenses/old-licenses/gpl-2.0-standalone.html
SPDX-License-Identifier: EPL-2.0 OR GPL-2.0-or-later
<configuration xmlns:xsi="http://www.w3.org/2001/XMLSchema-instance" xsi:noNamespaceSchemaLocation="http://sumo.dlr.de/xsd/sumoConfiguration.xsd">

    <input>
        <net-file value="net.net.xml"/>
        <route-files value="input_routes.rou.xml"/>
        <additional-files value="input_additional.add.xml"/>
    </input>

    <output>
        <write-license value="true"/>
        <vehroute-output value="vehroutes.xml"/>
    </output>

    <time>
        <end value="1440"/>
    </time>

    <processing>
        <default.speeddev value="0"/>
    </processing>

    <report>
        <xml-validation value="never"/>
        <duration-log.statistics value="true"/>
        <no-step-log value="true"/>
    </report>

</configuration>
-->

<meandata xmlns:xsi="http://www.w3.org/2001/XMLSchema-instance" xsi:noNamespaceSchemaLocation="http://sumo.dlr.de/xsd/meandata_file.xsd">
    <interval begin="0.00" end="360.00" id="expect_300_vehs">
        <edge id="bottleneck" sampledSeconds="888.91" traveltime="3.25" overlapTraveltime="3.40" density="25.07" laneDensity="25.07" occupancy="11.91" waitingTime="0.00" timeLoss="138.83" speed="30.47" speedRelative="0.84" departed="0" arrived="0" entered="263" left="261" laneChangedFrom="0" laneChangedTo="0"/>
        <edge id="end" sampledSeconds="778.92" traveltime="2.87" overlapTraveltime="3.01" density="21.64" laneDensity="21.64" occupancy="10.32" waitingTime="0.00" timeLoss="26.50" speed="34.88" speedRelative="0.97" departed="0" arrived="259" entered="261" left="0" laneChangedFrom="0" laneChangedTo="0"/>
        <edge id="jam" sampledSeconds="1649.60" traveltime="6.02" overlapTraveltime="6.21" density="46.52" laneDensity="23.26" occupancy="11.09" waitingTime="210.00" timeLoss="888.25" speed="16.67" speedRelative="0.46" departed="0" arrived="0" entered="273" left="263" laneChangedFrom="80" laneChangedTo="80"/>
        <edge id="middle" sampledSeconds="1671.86" traveltime="5.59" overlapTraveltime="5.93" density="46.44" laneDensity="23.22" occupancy="11.09" waitingTime="248.00" timeLoss="852.70" speed="17.69" speedRelative="0.49" departed="0" arrived="0" entered="290" left="273" laneChangedFrom="46" laneChangedTo="46"/>
        <edge id="start" sampledSeconds="1191.37" traveltime="3.82" overlapTraveltime="4.06" density="33.09" laneDensity="16.55" occupancy="7.84" waitingTime="29.00" timeLoss="337.07" speed="25.89" speedRelative="0.72" departed="300" arrived="0" entered="0" left="290" laneChangedFrom="9" laneChangedTo="9"/>
    </interval>
    <interval begin="360.00" end="720.00" id="expect_300_vehs">
        <edge id="bottleneck" sampledSeconds="925.79" traveltime="4.18" overlapTraveltime="4.35" density="26.11" laneDensity="26.11" occupancy="12.38" waitingTime="0.00" timeLoss="315.48" speed="23.80" speedRelative="0.66" departed="0" arrived="0" entered="213" left="213" laneChangedFrom="0" laneChangedTo="0"/>
        <edge id="end" sampledSeconds="675.71" traveltime="3.04" overlapTraveltime="3.18" density="18.77" laneDensity="18.77" occupancy="8.94" waitingTime="0.00" timeLoss="58.14" speed="33.00" speedRelative="0.91" departed="0" arrived="213" entered="213" left="0" laneChangedFrom="0" laneChangedTo="0"/>
        <edge id="jam" sampledSeconds="3406.74" traveltime="15.82" overlapTraveltime="16.10" density="96.07" laneDensity="48.04" occupancy="22.80" waitingTime="845.00" timeLoss="2800.21" speed="6.43" speedRelative="0.18" departed="0" arrived="0" entered="208" left="213" laneChangedFrom="117" laneChangedTo="117"/>
        <edge id="middle" sampledSeconds="6770.24" traveltime="31.07" overlapTraveltime="32.54" density="188.06" laneDensity="94.03" occupancy="44.98" waitingTime="3216.00" timeLoss="6165.18" speed="3.23" speedRelative="0.09" departed="0" arrived="0" entered="213" left="208" laneChangedFrom="14" laneChangedTo="14"/>
        <edge id="start" sampledSeconds="6626.18" traveltime="30.47" overlapTraveltime="31.90" density="184.06" laneDensity="92.03" occupancy="43.12" waitingTime="2861.00" timeLoss="6022.11" speed="3.29" speedRelative="0.09" departed="227" arrived="0" entered="0" left="213" laneChangedFrom="17" laneChangedTo="17"/>
    </interval>
    <interval begin="720.00" end="1080.00" id="expect_300_vehs">
        <edge id="bottleneck" sampledSeconds="900.82" traveltime="4.30" overlapTraveltime="4.47" density="25.40" laneDensity="25.40" occupancy="12.04" waitingTime="0.00" timeLoss="323.61" speed="23.14" speedRelative="0.64" departed="0" arrived="0" entered="202" left="201" laneChangedFrom="0" laneChangedTo="0"/>
        <edge id="end" sampledSeconds="644.65" traveltime="3.07" overlapTraveltime="3.21" density="17.91" laneDensity="17.91" occupancy="8.53" waitingTime="0.00" timeLoss="60.90" speed="32.70" speedRelative="0.91" departed="0" arrived="201" entered="201" left="0" laneChangedFrom="0" laneChangedTo="0"/>
        <edge id="jam" sampledSeconds="3911.05" traveltime="18.87" overlapTraveltime="19.17" density="110.29" laneDensity="55.15" occupancy="26.03" waitingTime="1358.00" timeLoss="3326.42" speed="5.40" speedRelative="0.15" departed="0" arrived="0" entered="208" left="202" laneChangedFrom="127" laneChangedTo="127"/>
        <edge id="middle" sampledSeconds="7088.26" traveltime="31.97" overlapTraveltime="33.69" density="196.90" laneDensity="98.45" occupancy="47.01" waitingTime="3600.00" timeLoss="6476.53" speed="3.12" speedRelative="0.09" departed="0" arrived="0" entered="210" left="208" laneChangedFrom="0" laneChangedTo="0"/>
        <edge id="start" sampledSeconds="6958.43" traveltime="33.78" overlapTraveltime="35.19" density="193.29" laneDensity="96.64" occupancy="45.39" waitingTime="3348.00" timeLoss="6383.39" speed="2.98" speedRelative="0.08" departed="200" arrived="0" entered="0" left="210" laneChangedFrom="20" laneChangedTo="20"/>
    </interval>
    <interval begin="1080.00" end="1440.00" id="expect_300_vehs">
        <edge id="bottleneck" sampledSeconds="962.53" traveltime="4.40" overlapTraveltime="4.58" density="27.14" laneDensity="27.14" occupancy="12.87" waitingTime="0.00" timeLoss="360.14" speed="22.60" speedRelative="0.63" departed="0" arrived="0" entered="210" left="210" laneChangedFrom="0" laneChangedTo="0"/>
        <edge id="end" sampledSeconds="679.95" traveltime="3.10" overlapTraveltime="3.25" density="18.89" laneDensity="18.89" occupancy="9.01" waitingTime="0.00" timeLoss="70.95" speed="32.34" speedRelative="0.90" departed="0" arrived="210" entered="210" left="0" laneChangedFrom="0" laneChangedTo="0"/>
        <edge id="jam" sampledSeconds="4166.54" traveltime="19.43" overlapTraveltime="19.74" density="117.50" laneDensity="58.75" occupancy="27.82" waitingTime="1149.00" timeLoss="3561.67" speed="5.24" speedRelative="0.15" departed="0" arrived="0" entered="212" left="210" laneChangedFrom="134" laneChangedTo="134"/>
        <edge id="middle" sampledSeconds="7058.27" traveltime="31.88" overlapTraveltime="33.48" density="196.06" laneDensity="98.03" occupancy="46.73" waitingTime="3150.00" timeLoss="6445.29" speed="3.14" speedRelative="0.09" departed="0" arrived="0" entered="210" left="212" laneChangedFrom="2" laneChangedTo="2"/>
        <edge id="start" sampledSeconds="6837.96" traveltime="32.93" overlapTraveltime="34.60" density="189.94" laneDensity="94.97" occupancy="44.60" waitingTime="2978.00" timeLoss="6263.21" speed="3.04" speedRelative="0.08" departed="212" arrived="0" entered="0" left="210" laneChangedFrom="12" laneChangedTo="12"/>
    </interval>
</meandata>
