<?xml version="1.0" encoding="UTF-8"?>

<!-- generated on 2026-04-09T16:35:14.244847+01:00 by Eclipse SUMO sumo v1_26_0+1034-8d7c6592743
This data file and the accompanying materials
are made available under the terms of the Eclipse Public License v2.0
which accompanies this distribution, and is available at
http://www.eclipse.org/legal/epl-v20.html
This file may also be made available under the following Secondary
Licenses when the conditions for such availability set forth in the Eclipse
Public License 2.0 are satisfied: GNU General Public License, version 2
or later which is available at
https://www.gnu.org/licenses/old-licenses/gpl-2.0-standalone.html
SPDX-License-Identifier: EPL-2.0 OR GPL-2.0-or-later
<sumoConfiguration xmlns:xsi="http://www.w3.org/2001/XMLSchema-instance" xsi:noNamespaceSchemaLocation="http://sumo.dlr.de/xsd/sumoConfiguration.xsd">

    <input>
        <net-file value="net.net.xml"/>
        <route-files value="input_routes.rou.xml"/>
        <additional-files value="input_additional.add.xml"/>
    </input>

    <output>
        <write-license value="true"/>
        <vehroute-output value="vehroutes.xml"/>
    </output>

    <time>
        <end value="1440"/>
    </time>

    <processing>
        <default.speeddev value="0"/>
    </processing>

    <report>
        <xml-validation value="never"/>
        <duration-log.statistics value="true"/>
        <no-step-log value="true"/>
    </report>

    <mesoscopic>
        <mesosim value="true"/>
    </mesoscopic>

</sumoConfiguration>
-->

<meandata xmlns:xsi="http://www.w3.org/2001/XMLSchema-instance" xsi:noNamespaceSchemaLocation="http://sumo.dlr.de/xsd/meandata_file.xsd">
    <interval begin="0.00" end="360.00" id="expect_300_vehs">
        <edge id="bottleneck" sampledSeconds="712.64" traveltime="2.73" overlapTraveltime="2.87" density="20.10" overlapDensity="20.10" laneDensity="20.10" occupancy="10.05" waitingTime="0.00" timeLoss="0.06" speed="36.11" speedRelative="1.00" departed="0" arrived="0" entered="262" left="260" laneChangedFrom="0" laneChangedTo="0" flow="2612.33"/>
        <edge id="end" sampledSeconds="717.65" traveltime="2.77" overlapTraveltime="2.91" density="19.93" overlapDensity="19.93" laneDensity="19.93" occupancy="9.97" waitingTime="0.00" timeLoss="0.00" speed="36.11" speedRelative="1.00" departed="0" arrived="258" entered="260" left="0" laneChangedFrom="0" laneChangedTo="0" flow="2591.73"/>
        <edge id="jam" sampledSeconds="5692.32" traveltime="20.45" overlapTraveltime="21.48" density="160.53" overlapDensity="160.53" laneDensity="80.26" occupancy="40.13" waitingTime="104.00" timeLoss="4932.88" speed="4.82" speedRelative="0.13" departed="0" arrived="0" entered="288" left="263" laneChangedFrom="0" laneChangedTo="0" flow="2784.13"/>
        <edge id="middle" sampledSeconds="1017.45" traveltime="3.46" overlapTraveltime="3.64" density="28.26" overlapDensity="28.26" laneDensity="14.13" occupancy="7.07" waitingTime="26.00" timeLoss="203.87" speed="28.88" speedRelative="0.80" departed="0" arrived="0" entered="297" left="289" laneChangedFrom="0" laneChangedTo="0" flow="2938.10"/>
        <edge id="start" sampledSeconds="825.39" traveltime="2.77" overlapTraveltime="2.91" density="22.93" overlapDensity="22.93" laneDensity="11.46" occupancy="5.73" waitingTime="0.00" timeLoss="0.00" speed="36.11" speedRelative="1.00" departed="300" arrived="0" entered="0" left="297" laneChangedFrom="0" laneChangedTo="0" flow="2980.83"/>
    </interval>
    <interval begin="360.00" end="720.00" id="expect_300_vehs">
        <edge id="bottleneck" sampledSeconds="734.55" traveltime="2.73" overlapTraveltime="2.87" density="20.71" overlapDensity="20.71" laneDensity="20.71" occupancy="10.36" waitingTime="0.00" timeLoss="0.06" speed="36.11" speedRelative="1.00" departed="0" arrived="0" entered="270" left="269" laneChangedFrom="0" laneChangedTo="0" flow="2692.63"/>
        <edge id="end" sampledSeconds="745.56" traveltime="2.77" overlapTraveltime="2.91" density="20.71" overlapDensity="20.71" laneDensity="20.71" occupancy="10.35" waitingTime="0.00" timeLoss="0.00" speed="36.11" speedRelative="1.00" departed="0" arrived="269" entered="269" left="0" laneChangedFrom="0" laneChangedTo="0" flow="2692.51"/>
        <edge id="jam" sampledSeconds="9209.06" traveltime="34.17" overlapTraveltime="35.91" density="259.70" overlapDensity="259.70" laneDensity="129.85" occupancy="64.93" waitingTime="99.00" timeLoss="8473.95" speed="2.88" speedRelative="0.08" departed="0" arrived="0" entered="270" left="269" laneChangedFrom="0" laneChangedTo="0" flow="2694.90"/>
        <edge id="middle" sampledSeconds="7475.60" traveltime="26.72" overlapTraveltime="28.06" density="207.66" overlapDensity="207.66" laneDensity="103.83" occupancy="51.91" waitingTime="100.00" timeLoss="6700.92" speed="3.74" speedRelative="0.10" departed="0" arrived="0" entered="286" left="269" laneChangedFrom="0" laneChangedTo="0" flow="2797.38"/>
        <edge id="start" sampledSeconds="1333.41" traveltime="4.60" overlapTraveltime="4.83" density="37.04" overlapDensity="37.04" laneDensity="18.52" occupancy="9.26" waitingTime="55.00" timeLoss="530.71" speed="21.74" speedRelative="0.60" departed="291" arrived="0" entered="0" left="287" laneChangedFrom="0" laneChangedTo="0" flow="2898.74"/>
    </interval>
    <interval begin="720.00" end="1080.00" id="expect_300_vehs">
        <edge id="bottleneck" sampledSeconds="734.56" traveltime="2.73" overlapTraveltime="2.87" density="20.72" overlapDensity="20.72" laneDensity="20.72" occupancy="10.36" waitingTime="0.00" timeLoss="0.06" speed="36.11" speedRelative="1.00" departed="0" arrived="0" entered="269" left="270" laneChangedFrom="0" laneChangedTo="0" flow="2692.66"/>
        <edge id="end" sampledSeconds="745.65" traveltime="2.77" overlapTraveltime="2.91" density="20.71" overlapDensity="20.71" laneDensity="20.71" occupancy="10.36" waitingTime="0.00" timeLoss="0.00" speed="36.11" speedRelative="1.00" departed="0" arrived="270" entered="270" left="0" laneChangedFrom="0" laneChangedTo="0" flow="2692.85"/>
        <edge id="jam" sampledSeconds="9209.36" traveltime="34.24" overlapTraveltime="35.98" density="259.71" overlapDensity="259.71" laneDensity="129.86" occupancy="64.93" waitingTime="100.00" timeLoss="8475.72" speed="2.88" speedRelative="0.08" departed="0" arrived="0" entered="269" left="269" laneChangedFrom="0" laneChangedTo="0" flow="2689.52"/>
        <edge id="middle" sampledSeconds="9183.90" traveltime="34.11" overlapTraveltime="35.81" density="255.11" overlapDensity="255.11" laneDensity="127.55" occupancy="63.78" waitingTime="99.00" timeLoss="8438.19" speed="2.93" speedRelative="0.08" departed="0" arrived="0" entered="269" left="269" laneChangedFrom="0" laneChangedTo="0" flow="2692.76"/>
        <edge id="start" sampledSeconds="2267.49" traveltime="8.44" overlapTraveltime="8.86" density="62.99" overlapDensity="62.99" laneDensity="31.49" occupancy="15.75" waitingTime="114.00" timeLoss="1523.52" speed="11.85" speedRelative="0.33" departed="268" arrived="0" entered="0" left="268" laneChangedFrom="0" laneChangedTo="0" flow="2686.48"/>
    </interval>
    <interval begin="1080.00" end="1440.00" id="expect_300_vehs">
        <edge id="bottleneck" sampledSeconds="734.53" traveltime="2.73" overlapTraveltime="2.87" density="20.71" overlapDensity="20.71" laneDensity="20.71" occupancy="10.36" waitingTime="0.00" timeLoss="0.06" speed="36.11" speedRelative="1.00" departed="0" arrived="0" entered="269" left="269" laneChangedFrom="0" laneChangedTo="0" flow="2692.54"/>
        <edge id="end" sampledSeconds="745.56" traveltime="2.77" overlapTraveltime="2.91" density="20.71" overlapDensity="20.71" laneDensity="20.71" occupancy="10.35" waitingTime="0.00" timeLoss="0.00" speed="36.11" speedRelative="1.00" departed="0" arrived="269" entered="269" left="0" laneChangedFrom="0" laneChangedTo="0" flow="2692.51"/>
        <edge id="jam" sampledSeconds="9209.25" traveltime="34.19" overlapTraveltime="35.93" density="259.71" overlapDensity="259.71" laneDensity="129.85" occupancy="64.93" waitingTime="100.00" timeLoss="8474.58" speed="2.88" speedRelative="0.08" departed="0" arrived="0" entered="269" left="270" laneChangedFrom="0" laneChangedTo="0" flow="2693.28"/>
        <edge id="middle" sampledSeconds="9232.56" traveltime="34.33" overlapTraveltime="36.04" density="256.46" overlapDensity="256.46" laneDensity="128.23" occupancy="64.12" waitingTime="100.00" timeLoss="8487.71" speed="2.91" speedRelative="0.08" departed="0" arrived="0" entered="270" left="269" laneChangedFrom="0" laneChangedTo="0" flow="2689.65"/>
        <edge id="start" sampledSeconds="2338.41" traveltime="8.68" overlapTraveltime="9.11" density="64.96" overlapDensity="64.96" laneDensity="32.48" occupancy="16.24" waitingTime="103.00" timeLoss="1592.19" speed="11.52" speedRelative="0.32" departed="270" arrived="0" entered="0" left="270" laneChangedFrom="0" laneChangedTo="0" flow="2694.59"/>
    </interval>
</meandata>
