<?xml version="1.0" encoding="UTF-8"?>

<!-- generated on Fri Oct 20 16:35:35 2017 by SUMO Version svn
<?xml version="1.0" encoding="UTF-8"?>

<configuration xmlns:xsi="http://www.w3.org/2001/XMLSchema-instance" xsi:noNamespaceSchemaLocation="http://sumo.dlr.de/xsd/sumoConfiguration.xsd">

    <input>
        <net-file value="net.net.xml"/>
        <route-files value="input_routes.rou.xml"/>
        <additional-files value="input_additional.add.xml"/>
    </input>

    <output>
        <vehroute-output value="vehroutes.xml"/>
    </output>

    <time>
        <end value="1440"/>
    </time>

    <report>
        <xml-validation value="never"/>
        <duration-log.disable value="true"/>
        <no-step-log value="true"/>
    </report>

</configuration>
-->

<meandata xmlns:xsi="http://www.w3.org/2001/XMLSchema-instance" xsi:noNamespaceSchemaLocation="http://sumo.dlr.de/xsd/meandata_file.xsd">
    <interval begin="0.00" end="360.00" id="expect_300_vehs">
        <edge id="bottleneck" sampledSeconds="852.16" traveltime="3.26" overlapTraveltime="3.41" density="24.03" occupancy="11.42" waitingTime="0.00" speed="30.40" departed="0" arrived="0" entered="252" left="249" laneChangedFrom="0" laneChangedTo="0"/>
        <edge id="end" sampledSeconds="742.95" traveltime="2.87" overlapTraveltime="3.00" density="20.64" occupancy="9.85" waitingTime="0.00" speed="34.95" departed="0" arrived="247" entered="249" left="0" laneChangedFrom="0" laneChangedTo="0"/>
        <edge id="jam" sampledSeconds="1654.54" traveltime="6.25" overlapTraveltime="6.45" density="46.66" occupancy="11.07" waitingTime="138.00" speed="16.05" departed="0" arrived="0" entered="265" left="252" laneChangedFrom="56" laneChangedTo="56"/>
        <edge id="middle" sampledSeconds="2361.09" traveltime="8.14" overlapTraveltime="8.58" density="65.59" occupancy="15.64" waitingTime="493.00" speed="12.24" departed="0" arrived="0" entered="284" left="265" laneChangedFrom="69" laneChangedTo="69"/>
        <edge id="start" sampledSeconds="1864.69" traveltime="6.09" overlapTraveltime="6.46" density="51.80" occupancy="12.23" waitingTime="339.00" speed="16.26" departed="297" arrived="0" entered="0" left="284" laneChangedFrom="6" laneChangedTo="6"/>
    </interval>
    <interval begin="360.00" end="720.00" id="expect_300_vehs">
        <edge id="bottleneck" sampledSeconds="886.76" traveltime="4.29" overlapTraveltime="4.47" density="25.01" occupancy="11.85" waitingTime="0.00" speed="23.18" departed="0" arrived="0" entered="198" left="199" laneChangedFrom="0" laneChangedTo="0"/>
        <edge id="end" sampledSeconds="636.48" traveltime="3.07" overlapTraveltime="3.21" density="17.68" occupancy="8.42" waitingTime="0.00" speed="32.69" departed="0" arrived="199" entered="199" left="0" laneChangedFrom="0" laneChangedTo="0"/>
        <edge id="jam" sampledSeconds="3718.61" traveltime="18.65" overlapTraveltime="18.94" density="104.87" occupancy="24.62" waitingTime="950.00" speed="5.46" departed="0" arrived="0" entered="194" left="198" laneChangedFrom="126" laneChangedTo="126"/>
        <edge id="middle" sampledSeconds="7201.76" traveltime="35.72" overlapTraveltime="37.44" density="200.00" occupancy="47.59" waitingTime="3187.00" speed="2.80" departed="0" arrived="0" entered="194" left="194" laneChangedFrom="5" laneChangedTo="5"/>
        <edge id="start" sampledSeconds="7085.42" traveltime="34.81" overlapTraveltime="36.89" density="196.82" occupancy="46.33" waitingTime="3107.00" speed="2.85" departed="201" arrived="0" entered="0" left="194" laneChangedFrom="13" laneChangedTo="13"/>
    </interval>
    <interval begin="720.00" end="1080.00" id="expect_300_vehs">
        <edge id="bottleneck" sampledSeconds="928.23" traveltime="4.41" overlapTraveltime="4.59" density="26.18" occupancy="12.40" waitingTime="0.00" speed="22.56" departed="0" arrived="0" entered="203" left="202" laneChangedFrom="0" laneChangedTo="0"/>
        <edge id="end" sampledSeconds="653.86" traveltime="3.10" overlapTraveltime="3.24" density="18.16" occupancy="8.66" waitingTime="0.00" speed="32.38" departed="0" arrived="203" entered="202" left="0" laneChangedFrom="0" laneChangedTo="0"/>
        <edge id="jam" sampledSeconds="3773.39" traveltime="18.29" overlapTraveltime="18.61" density="106.41" occupancy="25.47" waitingTime="866.00" speed="5.56" departed="0" arrived="0" entered="202" left="203" laneChangedFrom="127" laneChangedTo="127"/>
        <edge id="middle" sampledSeconds="6753.36" traveltime="32.09" overlapTraveltime="33.29" density="187.59" occupancy="44.85" waitingTime="3036.00" speed="3.15" departed="0" arrived="0" entered="206" left="202" laneChangedFrom="9" laneChangedTo="9"/>
        <edge id="start" sampledSeconds="7108.81" traveltime="34.91" overlapTraveltime="36.75" density="197.47" occupancy="46.63" waitingTime="3406.00" speed="2.86" departed="206" arrived="0" entered="0" left="206" laneChangedFrom="12" laneChangedTo="12"/>
    </interval>
    <interval begin="1080.00" end="1440.00" id="expect_300_vehs">
        <edge id="bottleneck" sampledSeconds="916.15" traveltime="4.18" overlapTraveltime="4.35" density="25.84" occupancy="12.25" waitingTime="0.00" speed="23.81" departed="0" arrived="0" entered="210" left="211" laneChangedFrom="0" laneChangedTo="0"/>
        <edge id="end" sampledSeconds="668.14" traveltime="3.04" overlapTraveltime="3.18" density="18.56" occupancy="8.85" waitingTime="0.00" speed="33.00" departed="0" arrived="210" entered="211" left="0" laneChangedFrom="0" laneChangedTo="0"/>
        <edge id="jam" sampledSeconds="3492.30" traveltime="16.40" overlapTraveltime="16.69" density="98.49" occupancy="23.24" waitingTime="880.00" speed="6.20" departed="0" arrived="0" entered="209" left="210" laneChangedFrom="112" laneChangedTo="112"/>
        <edge id="middle" sampledSeconds="6678.87" traveltime="30.14" overlapTraveltime="31.50" density="185.52" occupancy="44.19" waitingTime="3091.00" speed="3.33" departed="0" arrived="0" entered="212" left="209" laneChangedFrom="14" laneChangedTo="14"/>
        <edge id="start" sampledSeconds="6839.48" traveltime="32.37" overlapTraveltime="34.24" density="189.99" occupancy="44.67" waitingTime="3318.00" speed="3.07" departed="214" arrived="0" entered="0" left="212" laneChangedFrom="23" laneChangedTo="23"/>
    </interval>
</meandata>
