<?xml version="1.0"?>

<!-- generated on 03/18/10 13:43:13 by SUMO sumo Version dev-SVN-r8460
<configuration>

    <input>
        <net-file value="three_split.net.xml"/>
        <additional-files value="input_routes.rou.xml"/>
    </input>

    <output>
        <vehroute-output value="vehroutes.xml"/>
    </output>

    <time>
        <begin value="0"/>
    </time>

    <report>
        <no-duration-log value="true"/>
        <no-step-log value="true"/>
    </report>

    <routing>
        <device.routing.knownveh value="0,2,4,6,8"/>
    </routing>

</configuration>
-->

<routes>
    <vehicle id="0" depart="0" arrival="77.00">
        <routeDistribution>
            <route replacedOnEdge="beg" replacedAtTime="0.00" probability="0" edges="beg beg2right right right2end end rend"/>
            <route edges="beg middle end rend"/>
        </routeDistribution>
    </vehicle>

    <vehicle id="2" depart="40" arrival="117.00">
        <routeDistribution>
            <route replacedOnEdge="beg" replacedAtTime="0.00" probability="0" edges="beg beg2right right right2end end rend"/>
            <route edges="beg middle end rend"/>
        </routeDistribution>
    </vehicle>

    <vehicle id="4" depart="80" arrival="157.00">
        <routeDistribution>
            <route replacedOnEdge="beg" replacedAtTime="0.00" probability="0" edges="beg beg2right right right2end end rend"/>
            <route edges="beg middle end rend"/>
        </routeDistribution>
    </vehicle>

    <vehicle id="6" depart="120" arrival="197.00">
        <routeDistribution>
            <route replacedOnEdge="beg" replacedAtTime="0.00" probability="0" edges="beg beg2right right right2end end rend"/>
            <route edges="beg middle end rend"/>
        </routeDistribution>
    </vehicle>

    <vehicle id="1" depart="20" arrival="208.00">
        <route edges="beg beg2right right right2end end rend"/>
    </vehicle>

    <vehicle id="8" depart="160" arrival="237.00">
        <routeDistribution>
            <route replacedOnEdge="beg" replacedAtTime="0.00" probability="0" edges="beg beg2right right right2end end rend"/>
            <route edges="beg middle end rend"/>
        </routeDistribution>
    </vehicle>

    <vehicle id="3" depart="60" arrival="248.00">
        <route edges="beg beg2right right right2end end rend"/>
    </vehicle>

    <vehicle id="5" depart="100" arrival="288.00">
        <route edges="beg beg2right right right2end end rend"/>
    </vehicle>

    <vehicle id="7" depart="140" arrival="328.00">
        <route edges="beg beg2right right right2end end rend"/>
    </vehicle>

    <vehicle id="9" depart="180" arrival="368.00">
        <route edges="beg beg2right right right2end end rend"/>
    </vehicle>

</routes>
