<?xml version="1.0"?>

<!-- generated on 04/17/08 12:06:35 by SUMO sumo Version 0.9.7
<configuration>

   <input>
      <net-file>net.net.xml</net-file>
      <route-files>input_routes.rou.xml</route-files>
   </input>

   <output>
      <vehroute-output>vehroutes.xml</vehroute-output>
   </output>

   <time>
      <begin>0</begin>
   </time>

   <processing>
      <incremental-dua-step>10</incremental-dua-step>
      <no-duration-log>true</no-duration-log>
      <no-step-log>true</no-step-log>
   </processing>

</configuration>
-->

<routes>
   <vehicle id="horizontal01" depart="100" arrival="333">
      <route>2fi 2si 1o 1fi 1si 2o 2fi</route>
   </vehicle>

   <vehicle id="horizontal02" depart="105" arrival="335">
      <route>2fi 2si 1o 1fi 1si 2o 2fi</route>
   </vehicle>

   <vehicle id="horizontal03" depart="110" arrival="336">
      <route>2fi 2si 1o 1fi 1si 2o 2fi</route>
   </vehicle>

   <vehicle id="horizontal04" depart="115" arrival="338">
      <route>2fi 2si 1o 1fi 1si 2o 2fi</route>
   </vehicle>

   <vehicle id="horizontal05" depart="120" arrival="340">
      <route>2fi 2si 1o 1fi 1si 2o 2fi</route>
   </vehicle>

   <vehicle id="horizontal06" depart="125" arrival="341">
      <route>2fi 2si 1o 1fi 1si 2o 2fi</route>
   </vehicle>

   <vehicle id="horizontal07" depart="130" arrival="394">
      <route>2fi 2si 1o 1fi 1si 2o 2fi</route>
   </vehicle>

   <vehicle id="horizontal08" depart="135" arrival="397">
      <route>2fi 2si 1o 1fi 1si 2o 2fi</route>
   </vehicle>

   <vehicle id="horizontal09" depart="140" arrival="398">
      <route>2fi 2si 1o 1fi 1si 2o 2fi</route>
   </vehicle>

   <vehicle id="horizontal10" depart="145" arrival="400">
      <route>2fi 2si 1o 1fi 1si 2o 2fi</route>
   </vehicle>

</routes>
