<?xml version="1.0"?>

<!-- generated on 12/14/09 11:37:05 by SUMO sumo Version dev-SVN-r8086
<configuration>

    <input>
        <net-file value="net.net.xml"/>
        <route-files value="input_routes.rou.xml"/>
    </input>

    <output>
        <vehroute-output value="vehroutes.xml"/>
    </output>

    <time>
        <begin value="0"/>
    </time>

    <processing>
        <incremental-dua-step value="10"/>
    </processing>

    <report>
        <no-duration-log value="true"/>
        <no-step-log value="true"/>
    </report>

</configuration>
-->

<routes>
    <vehicle id="horizontal01" depart="100" arrival="270">
        <route edges="2fi 2si 1o 1fi 1si 2o 2fi"/>
   </vehicle>

    <vehicle id="horizontal02" depart="102" arrival="273">
        <route edges="2fi 2si 1o 1fi 1si 2o 2fi"/>
   </vehicle>

    <vehicle id="horizontal03" depart="105" arrival="275">
        <route edges="2fi 2si 1o 1fi 1si 2o 2fi"/>
   </vehicle>

    <vehicle id="horizontal04" depart="108" arrival="278">
        <route edges="2fi 2si 1o 1fi 1si 2o 2fi"/>
   </vehicle>

    <vehicle id="horizontal05" depart="111" arrival="281">
        <route edges="2fi 2si 1o 1fi 1si 2o 2fi"/>
   </vehicle>

    <vehicle id="horizontal06" depart="113" arrival="284">
        <route edges="2fi 2si 1o 1fi 1si 2o 2fi"/>
   </vehicle>

    <vehicle id="horizontal07" depart="116" arrival="286">
        <route edges="2fi 2si 1o 1fi 1si 2o 2fi"/>
   </vehicle>

    <vehicle id="horizontal08" depart="119" arrival="289">
        <route edges="2fi 2si 1o 1fi 1si 2o 2fi"/>
   </vehicle>

    <vehicle id="horizontal09" depart="122" arrival="292">
        <route edges="2fi 2si 1o 1fi 1si 2o 2fi"/>
   </vehicle>

    <vehicle id="horizontal10" depart="124" arrival="360">
        <route edges="2fi 2si 1o 1fi 1si 2o 2fi"/>
   </vehicle>

</routes>
