<?xml version="1.0" encoding="UTF-8"?>

<!-- generated on Mon Feb  1 08:51:57 2021 by Eclipse SUMO sumo Version v1_8_0+0850-297f6a0
This data file and the accompanying materials
are made available under the terms of the Eclipse Public License v2.0
which accompanies this distribution, and is available at
http://www.eclipse.org/legal/epl-v20.html
SPDX-License-Identifier: EPL-2.0
<configuration xmlns:xsi="http://www.w3.org/2001/XMLSchema-instance" xsi:noNamespaceSchemaLocation="http://sumo.dlr.de/xsd/sumoConfiguration.xsd">

    <input>
        <net-file value="net2.net.xml"/>
        <route-files value="input_routes.rou.xml"/>
    </input>

    <output>
        <write-license value="true"/>
        <fcd-output value="fcd.xml"/>
        <fcd-output.acceleration value="true"/>
    </output>

    <time>
        <begin value="29"/>
        <step-length value="0.2"/>
    </time>

    <processing>
        <default.speeddev value="0"/>
        <pedestrian.model value="nonInteracting"/>
    </processing>

    <report>
        <xml-validation value="never"/>
        <xml-validation.routes value="never"/>
        <duration-log.disable value="true"/>
        <no-step-log value="true"/>
    </report>

    <mesoscopic>
        <mesosim value="true"/>
        <meso-junction-control value="true"/>
    </mesoscopic>

    <gui_only>
        <tracker-interval value="0.2"/>
    </gui_only>

</configuration>
-->

<fcd-export xmlns:xsi="http://www.w3.org/2001/XMLSchema-instance" xsi:noNamespaceSchemaLocation="http://sumo.dlr.de/xsd/fcd_file.xsd">
    <timestep time="29.00"/>
    <timestep time="29.20"/>
    <timestep time="29.40"/>
    <timestep time="29.60"/>
    <timestep time="29.80"/>
    <timestep time="30.00">
        <vehicle id="ego" x="104.95" y="0.00" angle="0.00" type="t0" speed="13.89" pos="0.00" edge="SC" slope="0.00"/>
    </timestep>
    <timestep time="30.20">
        <vehicle id="ego" x="104.95" y="0.00" angle="0.00" type="t0" speed="13.89" pos="0.00" edge="SC" slope="0.00"/>
    </timestep>
    <timestep time="30.40">
        <vehicle id="ego" x="104.95" y="0.00" angle="0.00" type="t0" speed="13.89" pos="0.00" edge="SC" slope="0.00"/>
    </timestep>
    <timestep time="30.60">
        <vehicle id="ego" x="104.95" y="0.00" angle="0.00" type="t0" speed="13.89" pos="0.00" edge="SC" slope="0.00"/>
    </timestep>
    <timestep time="30.80">
        <vehicle id="ego" x="104.95" y="0.00" angle="0.00" type="t0" speed="13.89" pos="0.00" edge="SC" slope="0.00"/>
    </timestep>
    <timestep time="31.00">
        <vehicle id="ego" x="104.95" y="0.00" angle="0.00" type="t0" speed="13.89" pos="0.00" edge="SC" slope="0.00"/>
    </timestep>
    <timestep time="31.20">
        <vehicle id="ego" x="104.95" y="0.00" angle="0.00" type="t0" speed="13.89" pos="0.00" edge="SC" slope="0.00"/>
    </timestep>
    <timestep time="31.40">
        <vehicle id="ego" x="104.95" y="0.00" angle="0.00" type="t0" speed="13.89" pos="0.00" edge="SC" slope="0.00"/>
    </timestep>
    <timestep time="31.60">
        <vehicle id="ego" x="104.95" y="0.00" angle="0.00" type="t0" speed="13.89" pos="0.00" edge="SC" slope="0.00"/>
    </timestep>
    <timestep time="31.80">
        <vehicle id="ego" x="104.95" y="0.00" angle="0.00" type="t0" speed="13.89" pos="0.00" edge="SC" slope="0.00"/>
    </timestep>
    <timestep time="32.00">
        <vehicle id="ego" x="104.95" y="0.00" angle="0.00" type="t0" speed="13.89" pos="0.00" edge="SC" slope="0.00"/>
    </timestep>
    <timestep time="32.20">
        <vehicle id="ego" x="104.95" y="0.00" angle="0.00" type="t0" speed="13.89" pos="0.00" edge="SC" slope="0.00"/>
    </timestep>
    <timestep time="32.40">
        <vehicle id="ego" x="104.95" y="0.00" angle="0.00" type="t0" speed="13.89" pos="0.00" edge="SC" slope="0.00"/>
    </timestep>
    <timestep time="32.60">
        <vehicle id="ego" x="104.95" y="0.00" angle="0.00" type="t0" speed="13.89" pos="0.00" edge="SC" slope="0.00"/>
    </timestep>
    <timestep time="32.80">
        <vehicle id="ego" x="104.95" y="0.00" angle="0.00" type="t0" speed="13.89" pos="0.00" edge="SC" slope="0.00"/>
    </timestep>
    <timestep time="33.00">
        <vehicle id="ego" x="104.95" y="0.00" angle="0.00" type="t0" speed="13.89" pos="0.00" edge="SC" slope="0.00"/>
    </timestep>
    <timestep time="33.20">
        <vehicle id="ego" x="104.95" y="0.00" angle="0.00" type="t0" speed="13.89" pos="0.00" edge="SC" slope="0.00"/>
    </timestep>
    <timestep time="33.40">
        <vehicle id="ego" x="104.95" y="0.00" angle="0.00" type="t0" speed="13.89" pos="0.00" edge="SC" slope="0.00"/>
    </timestep>
    <timestep time="33.60">
        <vehicle id="ego" x="104.95" y="0.00" angle="0.00" type="t0" speed="13.89" pos="0.00" edge="SC" slope="0.00"/>
    </timestep>
    <timestep time="33.80">
        <vehicle id="ego" x="104.95" y="0.00" angle="0.00" type="t0" speed="13.89" pos="0.00" edge="SC" slope="0.00"/>
    </timestep>
    <timestep time="34.00">
        <vehicle id="ego" x="104.95" y="0.00" angle="0.00" type="t0" speed="13.89" pos="0.00" edge="SC" slope="0.00"/>
    </timestep>
    <timestep time="34.20">
        <vehicle id="ego" x="104.95" y="0.00" angle="0.00" type="t0" speed="13.89" pos="0.00" edge="SC" slope="0.00"/>
    </timestep>
    <timestep time="34.40">
        <vehicle id="ego" x="104.95" y="0.00" angle="0.00" type="t0" speed="13.89" pos="0.00" edge="SC" slope="0.00"/>
    </timestep>
    <timestep time="34.60">
        <vehicle id="ego" x="104.95" y="0.00" angle="0.00" type="t0" speed="13.89" pos="0.00" edge="SC" slope="0.00"/>
    </timestep>
    <timestep time="34.80">
        <vehicle id="ego" x="104.95" y="0.00" angle="0.00" type="t0" speed="13.89" pos="0.00" edge="SC" slope="0.00"/>
    </timestep>
    <timestep time="35.00">
        <vehicle id="ego" x="104.95" y="0.00" angle="0.00" type="t0" speed="13.89" pos="0.00" edge="SC" slope="0.00"/>
    </timestep>
    <timestep time="35.20">
        <vehicle id="ego" x="104.95" y="0.00" angle="0.00" type="t0" speed="13.89" pos="0.00" edge="SC" slope="0.00"/>
    </timestep>
    <timestep time="35.40">
        <vehicle id="ego" x="104.95" y="0.00" angle="0.00" type="t0" speed="13.89" pos="0.00" edge="SC" slope="0.00"/>
    </timestep>
    <timestep time="35.60">
        <vehicle id="ego" x="104.95" y="0.00" angle="0.00" type="t0" speed="13.89" pos="0.00" edge="SC" slope="0.00"/>
    </timestep>
    <timestep time="35.80">
        <vehicle id="ego" x="104.95" y="0.00" angle="0.00" type="t0" speed="13.89" pos="0.00" edge="SC" slope="0.00"/>
    </timestep>
    <timestep time="36.00">
        <vehicle id="ego" x="104.95" y="0.00" angle="0.00" type="t0" speed="13.89" pos="0.00" edge="SC" slope="0.00"/>
    </timestep>
    <timestep time="36.20">
        <vehicle id="ego" x="104.95" y="0.00" angle="0.00" type="t0" speed="13.89" pos="0.00" edge="SC" slope="0.00"/>
    </timestep>
    <timestep time="36.40">
        <vehicle id="ego" x="104.95" y="0.00" angle="0.00" type="t0" speed="13.89" pos="0.00" edge="SC" slope="0.00"/>
    </timestep>
    <timestep time="36.60">
        <vehicle id="ego" x="104.95" y="0.00" angle="0.00" type="t0" speed="13.89" pos="0.00" edge="SC" slope="0.00"/>
    </timestep>
    <timestep time="36.80">
        <vehicle id="ego" x="104.95" y="0.00" angle="0.00" type="t0" speed="0.00" pos="0.00" edge="SC" slope="0.00"/>
    </timestep>
    <timestep time="37.00">
        <vehicle id="ego" x="104.95" y="0.00" angle="0.00" type="t0" speed="0.00" pos="0.00" edge="SC" slope="0.00"/>
    </timestep>
    <timestep time="37.20">
        <vehicle id="ego" x="104.95" y="0.00" angle="0.00" type="t0" speed="0.00" pos="0.00" edge="SC" slope="0.00"/>
    </timestep>
    <timestep time="37.40">
        <vehicle id="ego" x="104.95" y="0.00" angle="0.00" type="t0" speed="0.00" pos="0.00" edge="SC" slope="0.00"/>
    </timestep>
    <timestep time="37.60">
        <vehicle id="ego" x="104.95" y="0.00" angle="0.00" type="t0" speed="0.00" pos="0.00" edge="SC" slope="0.00"/>
    </timestep>
    <timestep time="37.80">
        <vehicle id="ego" x="104.95" y="0.00" angle="0.00" type="t0" speed="0.00" pos="0.00" edge="SC" slope="0.00"/>
    </timestep>
    <timestep time="38.00">
        <vehicle id="ego" x="104.95" y="0.00" angle="0.00" type="t0" speed="0.00" pos="0.00" edge="SC" slope="0.00"/>
    </timestep>
    <timestep time="38.20">
        <vehicle id="ego" x="104.95" y="0.00" angle="0.00" type="t0" speed="0.00" pos="0.00" edge="SC" slope="0.00"/>
    </timestep>
    <timestep time="38.40">
        <vehicle id="ego" x="104.95" y="0.00" angle="0.00" type="t0" speed="0.00" pos="0.00" edge="SC" slope="0.00"/>
    </timestep>
    <timestep time="38.60">
        <vehicle id="ego" x="104.95" y="0.00" angle="0.00" type="t0" speed="0.00" pos="0.00" edge="SC" slope="0.00"/>
    </timestep>
    <timestep time="38.80">
        <vehicle id="ego" x="104.95" y="0.00" angle="0.00" type="t0" speed="0.00" pos="0.00" edge="SC" slope="0.00"/>
    </timestep>
    <timestep time="39.00">
        <vehicle id="ego" x="104.95" y="0.00" angle="0.00" type="t0" speed="0.00" pos="0.00" edge="SC" slope="0.00"/>
    </timestep>
    <timestep time="39.20">
        <vehicle id="ego" x="104.95" y="0.00" angle="0.00" type="t0" speed="0.00" pos="0.00" edge="SC" slope="0.00"/>
    </timestep>
    <timestep time="39.40">
        <vehicle id="ego" x="104.95" y="0.00" angle="0.00" type="t0" speed="0.00" pos="0.00" edge="SC" slope="0.00"/>
    </timestep>
    <timestep time="39.60">
        <vehicle id="ego" x="104.95" y="0.00" angle="0.00" type="t0" speed="0.00" pos="0.00" edge="SC" slope="0.00"/>
    </timestep>
    <timestep time="39.80">
        <vehicle id="ego" x="104.95" y="0.00" angle="0.00" type="t0" speed="0.00" pos="0.00" edge="SC" slope="0.00"/>
    </timestep>
    <timestep time="40.00">
        <vehicle id="ego" x="104.95" y="0.00" angle="0.00" type="t0" speed="0.00" pos="0.00" edge="SC" slope="0.00"/>
    </timestep>
    <timestep time="40.20">
        <vehicle id="ego" x="104.95" y="0.00" angle="0.00" type="t0" speed="0.00" pos="0.00" edge="SC" slope="0.00"/>
    </timestep>
    <timestep time="40.40">
        <vehicle id="ego" x="104.95" y="0.00" angle="0.00" type="t0" speed="0.00" pos="0.00" edge="SC" slope="0.00"/>
    </timestep>
    <timestep time="40.60">
        <vehicle id="ego" x="104.95" y="0.00" angle="0.00" type="t0" speed="0.00" pos="0.00" edge="SC" slope="0.00"/>
    </timestep>
    <timestep time="40.80">
        <vehicle id="ego" x="104.95" y="0.00" angle="0.00" type="t0" speed="0.00" pos="0.00" edge="SC" slope="0.00"/>
    </timestep>
    <timestep time="41.00">
        <vehicle id="ego" x="104.95" y="0.00" angle="0.00" type="t0" speed="0.00" pos="0.00" edge="SC" slope="0.00"/>
    </timestep>
    <timestep time="41.20">
        <vehicle id="ego" x="104.95" y="0.00" angle="0.00" type="t0" speed="0.00" pos="0.00" edge="SC" slope="0.00"/>
    </timestep>
    <timestep time="41.40">
        <vehicle id="ego" x="104.95" y="0.00" angle="0.00" type="t0" speed="0.00" pos="0.00" edge="SC" slope="0.00"/>
    </timestep>
    <timestep time="41.60">
        <vehicle id="ego" x="104.95" y="0.00" angle="0.00" type="t0" speed="0.00" pos="0.00" edge="SC" slope="0.00"/>
    </timestep>
    <timestep time="41.80">
        <vehicle id="ego" x="104.95" y="0.00" angle="0.00" type="t0" speed="0.00" pos="0.00" edge="SC" slope="0.00"/>
    </timestep>
    <timestep time="42.00">
        <vehicle id="ego" x="104.95" y="0.00" angle="0.00" type="t0" speed="0.00" pos="0.00" edge="SC" slope="0.00"/>
    </timestep>
    <timestep time="42.20">
        <vehicle id="ego" x="104.95" y="0.00" angle="0.00" type="t0" speed="0.00" pos="0.00" edge="SC" slope="0.00"/>
    </timestep>
    <timestep time="42.40">
        <vehicle id="ego" x="104.95" y="0.00" angle="0.00" type="t0" speed="0.00" pos="0.00" edge="SC" slope="0.00"/>
    </timestep>
    <timestep time="42.60">
        <vehicle id="ego" x="104.95" y="0.00" angle="0.00" type="t0" speed="0.00" pos="0.00" edge="SC" slope="0.00"/>
    </timestep>
    <timestep time="42.80">
        <vehicle id="ego" x="104.95" y="0.00" angle="0.00" type="t0" speed="0.00" pos="0.00" edge="SC" slope="0.00"/>
    </timestep>
    <timestep time="43.00">
        <vehicle id="ego" x="104.95" y="0.00" angle="0.00" type="t0" speed="0.00" pos="0.00" edge="SC" slope="0.00"/>
    </timestep>
    <timestep time="43.20">
        <vehicle id="ego" x="104.95" y="0.00" angle="0.00" type="t0" speed="0.00" pos="0.00" edge="SC" slope="0.00"/>
    </timestep>
    <timestep time="43.40">
        <vehicle id="ego" x="104.95" y="0.00" angle="0.00" type="t0" speed="0.00" pos="0.00" edge="SC" slope="0.00"/>
    </timestep>
    <timestep time="43.60">
        <vehicle id="ego" x="104.95" y="0.00" angle="0.00" type="t0" speed="0.00" pos="0.00" edge="SC" slope="0.00"/>
    </timestep>
    <timestep time="43.80">
        <vehicle id="ego" x="104.95" y="0.00" angle="0.00" type="t0" speed="0.00" pos="0.00" edge="SC" slope="0.00"/>
    </timestep>
    <timestep time="44.00">
        <vehicle id="ego" x="104.95" y="0.00" angle="0.00" type="t0" speed="0.00" pos="0.00" edge="SC" slope="0.00"/>
    </timestep>
    <timestep time="44.20">
        <vehicle id="ego" x="104.95" y="0.00" angle="0.00" type="t0" speed="0.00" pos="0.00" edge="SC" slope="0.00"/>
    </timestep>
    <timestep time="44.40">
        <vehicle id="ego" x="104.95" y="0.00" angle="0.00" type="t0" speed="0.00" pos="0.00" edge="SC" slope="0.00"/>
    </timestep>
    <timestep time="44.60">
        <vehicle id="ego" x="104.95" y="0.00" angle="0.00" type="t0" speed="0.00" pos="0.00" edge="SC" slope="0.00"/>
    </timestep>
    <timestep time="44.80">
        <vehicle id="ego" x="104.95" y="0.00" angle="0.00" type="t0" speed="0.00" pos="0.00" edge="SC" slope="0.00"/>
    </timestep>
    <timestep time="45.00">
        <vehicle id="ego" x="104.95" y="0.00" angle="0.00" type="t0" speed="0.00" pos="0.00" edge="SC" slope="0.00"/>
    </timestep>
    <timestep time="45.20">
        <vehicle id="ego" x="104.95" y="0.00" angle="0.00" type="t0" speed="0.00" pos="0.00" edge="SC" slope="0.00"/>
    </timestep>
    <timestep time="45.40">
        <vehicle id="ego" x="104.95" y="0.00" angle="0.00" type="t0" speed="0.00" pos="0.00" edge="SC" slope="0.00"/>
    </timestep>
    <timestep time="45.60">
        <vehicle id="ego" x="104.95" y="0.00" angle="0.00" type="t0" speed="0.00" pos="0.00" edge="SC" slope="0.00"/>
    </timestep>
    <timestep time="45.80">
        <vehicle id="ego" x="104.95" y="0.00" angle="0.00" type="t0" speed="0.00" pos="0.00" edge="SC" slope="0.00"/>
    </timestep>
    <timestep time="46.00">
        <vehicle id="ego" x="104.95" y="0.00" angle="0.00" type="t0" speed="0.00" pos="0.00" edge="SC" slope="0.00"/>
    </timestep>
    <timestep time="46.20">
        <vehicle id="ego" x="104.95" y="0.00" angle="0.00" type="t0" speed="0.00" pos="0.00" edge="SC" slope="0.00"/>
    </timestep>
    <timestep time="46.40">
        <vehicle id="ego" x="104.95" y="0.00" angle="0.00" type="t0" speed="0.00" pos="0.00" edge="SC" slope="0.00"/>
    </timestep>
    <timestep time="46.60">
        <vehicle id="ego" x="104.95" y="0.00" angle="0.00" type="t0" speed="0.00" pos="0.00" edge="SC" slope="0.00"/>
    </timestep>
    <timestep time="46.80">
        <vehicle id="ego" x="104.95" y="0.00" angle="0.00" type="t0" speed="0.00" pos="0.00" edge="SC" slope="0.00"/>
    </timestep>
    <timestep time="47.00">
        <vehicle id="ego" x="104.95" y="0.00" angle="0.00" type="t0" speed="0.00" pos="0.00" edge="SC" slope="0.00"/>
    </timestep>
    <timestep time="47.20">
        <vehicle id="ego" x="104.95" y="0.00" angle="0.00" type="t0" speed="0.00" pos="0.00" edge="SC" slope="0.00"/>
    </timestep>
    <timestep time="47.40">
        <vehicle id="ego" x="104.95" y="0.00" angle="0.00" type="t0" speed="0.00" pos="0.00" edge="SC" slope="0.00"/>
    </timestep>
    <timestep time="47.60">
        <vehicle id="ego" x="104.95" y="0.00" angle="0.00" type="t0" speed="0.00" pos="0.00" edge="SC" slope="0.00"/>
    </timestep>
    <timestep time="47.80">
        <vehicle id="ego" x="104.95" y="0.00" angle="0.00" type="t0" speed="0.00" pos="0.00" edge="SC" slope="0.00"/>
    </timestep>
    <timestep time="48.00">
        <vehicle id="ego" x="104.95" y="0.00" angle="0.00" type="t0" speed="0.00" pos="0.00" edge="SC" slope="0.00"/>
    </timestep>
    <timestep time="48.20">
        <vehicle id="ego" x="104.95" y="0.00" angle="0.00" type="t0" speed="0.00" pos="0.00" edge="SC" slope="0.00"/>
    </timestep>
    <timestep time="48.40">
        <vehicle id="ego" x="104.95" y="0.00" angle="0.00" type="t0" speed="0.00" pos="0.00" edge="SC" slope="0.00"/>
    </timestep>
    <timestep time="48.60">
        <vehicle id="ego" x="104.95" y="0.00" angle="0.00" type="t0" speed="0.00" pos="0.00" edge="SC" slope="0.00"/>
    </timestep>
    <timestep time="48.80">
        <vehicle id="ego" x="104.95" y="0.00" angle="0.00" type="t0" speed="0.00" pos="0.00" edge="SC" slope="0.00"/>
    </timestep>
    <timestep time="49.00">
        <vehicle id="ego" x="104.95" y="0.00" angle="0.00" type="t0" speed="0.00" pos="0.00" edge="SC" slope="0.00"/>
    </timestep>
    <timestep time="49.20">
        <vehicle id="ego" x="104.95" y="0.00" angle="0.00" type="t0" speed="0.00" pos="0.00" edge="SC" slope="0.00"/>
    </timestep>
    <timestep time="49.40">
        <vehicle id="ego" x="104.95" y="0.00" angle="0.00" type="t0" speed="0.00" pos="0.00" edge="SC" slope="0.00"/>
    </timestep>
    <timestep time="49.60">
        <vehicle id="ego" x="104.95" y="0.00" angle="0.00" type="t0" speed="0.00" pos="0.00" edge="SC" slope="0.00"/>
    </timestep>
    <timestep time="49.80">
        <vehicle id="ego" x="104.95" y="0.00" angle="0.00" type="t0" speed="0.00" pos="0.00" edge="SC" slope="0.00"/>
    </timestep>
    <timestep time="50.00">
        <vehicle id="ego" x="104.95" y="0.00" angle="0.00" type="t0" speed="0.00" pos="0.00" edge="SC" slope="0.00"/>
    </timestep>
    <timestep time="50.20">
        <vehicle id="ego" x="104.95" y="0.00" angle="0.00" type="t0" speed="0.00" pos="0.00" edge="SC" slope="0.00"/>
    </timestep>
    <timestep time="50.40">
        <vehicle id="ego" x="104.95" y="0.00" angle="0.00" type="t0" speed="0.00" pos="0.00" edge="SC" slope="0.00"/>
    </timestep>
    <timestep time="50.60">
        <vehicle id="ego" x="104.95" y="0.00" angle="0.00" type="t0" speed="0.00" pos="0.00" edge="SC" slope="0.00"/>
    </timestep>
    <timestep time="50.80">
        <vehicle id="ego" x="104.95" y="0.00" angle="0.00" type="t0" speed="0.00" pos="0.00" edge="SC" slope="0.00"/>
    </timestep>
    <timestep time="51.00">
        <vehicle id="ego" x="104.95" y="0.00" angle="0.00" type="t0" speed="0.00" pos="0.00" edge="SC" slope="0.00"/>
    </timestep>
    <timestep time="51.20">
        <vehicle id="ego" x="104.95" y="0.00" angle="0.00" type="t0" speed="0.00" pos="0.00" edge="SC" slope="0.00"/>
    </timestep>
    <timestep time="51.40">
        <vehicle id="ego" x="104.95" y="0.00" angle="0.00" type="t0" speed="0.00" pos="0.00" edge="SC" slope="0.00"/>
    </timestep>
    <timestep time="51.60">
        <vehicle id="ego" x="104.95" y="0.00" angle="0.00" type="t0" speed="0.00" pos="0.00" edge="SC" slope="0.00"/>
    </timestep>
    <timestep time="51.80">
        <vehicle id="ego" x="104.95" y="0.00" angle="0.00" type="t0" speed="0.00" pos="0.00" edge="SC" slope="0.00"/>
    </timestep>
    <timestep time="52.00">
        <vehicle id="ego" x="104.95" y="0.00" angle="0.00" type="t0" speed="0.00" pos="0.00" edge="SC" slope="0.00"/>
    </timestep>
    <timestep time="52.20">
        <vehicle id="ego" x="104.95" y="0.00" angle="0.00" type="t0" speed="0.00" pos="0.00" edge="SC" slope="0.00"/>
    </timestep>
    <timestep time="52.40">
        <vehicle id="ego" x="104.95" y="0.00" angle="0.00" type="t0" speed="0.00" pos="0.00" edge="SC" slope="0.00"/>
    </timestep>
    <timestep time="52.60">
        <vehicle id="ego" x="104.95" y="0.00" angle="0.00" type="t0" speed="0.00" pos="0.00" edge="SC" slope="0.00"/>
    </timestep>
    <timestep time="52.80">
        <vehicle id="ego" x="104.95" y="0.00" angle="0.00" type="t0" speed="0.00" pos="0.00" edge="SC" slope="0.00"/>
    </timestep>
    <timestep time="53.00">
        <vehicle id="ego" x="104.95" y="0.00" angle="0.00" type="t0" speed="0.00" pos="0.00" edge="SC" slope="0.00"/>
    </timestep>
    <timestep time="53.20">
        <vehicle id="ego" x="104.95" y="0.00" angle="0.00" type="t0" speed="0.00" pos="0.00" edge="SC" slope="0.00"/>
    </timestep>
    <timestep time="53.40">
        <vehicle id="ego" x="104.95" y="0.00" angle="0.00" type="t0" speed="0.00" pos="0.00" edge="SC" slope="0.00"/>
    </timestep>
    <timestep time="53.60">
        <vehicle id="ego" x="104.95" y="0.00" angle="0.00" type="t0" speed="0.00" pos="0.00" edge="SC" slope="0.00"/>
    </timestep>
    <timestep time="53.80">
        <vehicle id="ego" x="104.95" y="0.00" angle="0.00" type="t0" speed="0.00" pos="0.00" edge="SC" slope="0.00"/>
    </timestep>
    <timestep time="54.00">
        <vehicle id="ego" x="104.95" y="0.00" angle="0.00" type="t0" speed="0.00" pos="0.00" edge="SC" slope="0.00"/>
    </timestep>
    <timestep time="54.20">
        <vehicle id="ego" x="104.95" y="0.00" angle="0.00" type="t0" speed="0.00" pos="0.00" edge="SC" slope="0.00"/>
    </timestep>
    <timestep time="54.40">
        <vehicle id="ego" x="104.95" y="0.00" angle="0.00" type="t0" speed="0.00" pos="0.00" edge="SC" slope="0.00"/>
    </timestep>
    <timestep time="54.60">
        <vehicle id="ego" x="104.95" y="0.00" angle="0.00" type="t0" speed="0.00" pos="0.00" edge="SC" slope="0.00"/>
    </timestep>
    <timestep time="54.80">
        <vehicle id="ego" x="104.95" y="0.00" angle="0.00" type="t0" speed="0.00" pos="0.00" edge="SC" slope="0.00"/>
    </timestep>
    <timestep time="55.00">
        <vehicle id="ego" x="104.95" y="0.00" angle="0.00" type="t0" speed="0.00" pos="0.00" edge="SC" slope="0.00"/>
    </timestep>
    <timestep time="55.20">
        <vehicle id="ego" x="104.95" y="0.00" angle="0.00" type="t0" speed="0.00" pos="0.00" edge="SC" slope="0.00"/>
    </timestep>
    <timestep time="55.40">
        <vehicle id="ego" x="104.95" y="0.00" angle="0.00" type="t0" speed="0.00" pos="0.00" edge="SC" slope="0.00"/>
    </timestep>
    <timestep time="55.60">
        <vehicle id="ego" x="104.95" y="0.00" angle="0.00" type="t0" speed="0.00" pos="0.00" edge="SC" slope="0.00"/>
    </timestep>
    <timestep time="55.80">
        <vehicle id="ego" x="104.95" y="0.00" angle="0.00" type="t0" speed="0.00" pos="0.00" edge="SC" slope="0.00"/>
    </timestep>
    <timestep time="56.00">
        <vehicle id="ego" x="104.95" y="0.00" angle="0.00" type="t0" speed="0.00" pos="0.00" edge="SC" slope="0.00"/>
    </timestep>
    <timestep time="56.20">
        <vehicle id="ego" x="104.95" y="0.00" angle="0.00" type="t0" speed="0.00" pos="0.00" edge="SC" slope="0.00"/>
    </timestep>
    <timestep time="56.40">
        <vehicle id="ego" x="104.95" y="0.00" angle="0.00" type="t0" speed="0.00" pos="0.00" edge="SC" slope="0.00"/>
    </timestep>
    <timestep time="56.60">
        <vehicle id="ego" x="104.95" y="0.00" angle="0.00" type="t0" speed="0.00" pos="0.00" edge="SC" slope="0.00"/>
    </timestep>
    <timestep time="56.80">
        <vehicle id="ego" x="104.95" y="0.00" angle="0.00" type="t0" speed="0.00" pos="0.00" edge="SC" slope="0.00"/>
    </timestep>
    <timestep time="57.00">
        <vehicle id="ego" x="104.95" y="0.00" angle="0.00" type="t0" speed="0.00" pos="0.00" edge="SC" slope="0.00"/>
    </timestep>
    <timestep time="57.20">
        <vehicle id="ego" x="104.95" y="0.00" angle="0.00" type="t0" speed="0.00" pos="0.00" edge="SC" slope="0.00"/>
    </timestep>
    <timestep time="57.40">
        <vehicle id="ego" x="104.95" y="0.00" angle="0.00" type="t0" speed="0.00" pos="0.00" edge="SC" slope="0.00"/>
    </timestep>
    <timestep time="57.60">
        <vehicle id="ego" x="104.95" y="0.00" angle="0.00" type="t0" speed="0.00" pos="0.00" edge="SC" slope="0.00"/>
    </timestep>
    <timestep time="57.80">
        <vehicle id="ego" x="104.95" y="0.00" angle="0.00" type="t0" speed="0.00" pos="0.00" edge="SC" slope="0.00"/>
    </timestep>
    <timestep time="58.00">
        <vehicle id="ego" x="104.95" y="0.00" angle="0.00" type="t0" speed="0.00" pos="0.00" edge="SC" slope="0.00"/>
    </timestep>
    <timestep time="58.20">
        <vehicle id="ego" x="104.95" y="0.00" angle="0.00" type="t0" speed="0.00" pos="0.00" edge="SC" slope="0.00"/>
    </timestep>
    <timestep time="58.40">
        <vehicle id="ego" x="104.95" y="0.00" angle="0.00" type="t0" speed="0.00" pos="0.00" edge="SC" slope="0.00"/>
    </timestep>
    <timestep time="58.60">
        <vehicle id="ego" x="104.95" y="0.00" angle="0.00" type="t0" speed="0.00" pos="0.00" edge="SC" slope="0.00"/>
    </timestep>
    <timestep time="58.80">
        <vehicle id="ego" x="104.95" y="0.00" angle="0.00" type="t0" speed="0.00" pos="0.00" edge="SC" slope="0.00"/>
    </timestep>
    <timestep time="59.00">
        <vehicle id="ego" x="104.95" y="0.00" angle="0.00" type="t0" speed="0.00" pos="0.00" edge="SC" slope="0.00"/>
    </timestep>
    <timestep time="59.20">
        <vehicle id="ego" x="104.95" y="0.00" angle="0.00" type="t0" speed="0.00" pos="0.00" edge="SC" slope="0.00"/>
    </timestep>
    <timestep time="59.40">
        <vehicle id="ego" x="104.95" y="0.00" angle="0.00" type="t0" speed="0.00" pos="0.00" edge="SC" slope="0.00"/>
    </timestep>
    <timestep time="59.60">
        <vehicle id="ego" x="104.95" y="0.00" angle="0.00" type="t0" speed="0.00" pos="0.00" edge="SC" slope="0.00"/>
    </timestep>
    <timestep time="59.80">
        <vehicle id="ego" x="104.95" y="0.00" angle="0.00" type="t0" speed="0.00" pos="0.00" edge="SC" slope="0.00"/>
    </timestep>
    <timestep time="60.00">
        <vehicle id="ego" x="104.95" y="0.00" angle="0.00" type="t0" speed="0.00" pos="0.00" edge="SC" slope="0.00"/>
    </timestep>
    <timestep time="60.20">
        <vehicle id="ego" x="104.95" y="0.00" angle="0.00" type="t0" speed="0.00" pos="0.00" edge="SC" slope="0.00"/>
    </timestep>
    <timestep time="60.40">
        <vehicle id="ego" x="104.95" y="0.00" angle="0.00" type="t0" speed="0.00" pos="0.00" edge="SC" slope="0.00"/>
    </timestep>
    <timestep time="60.60">
        <vehicle id="ego" x="104.95" y="0.00" angle="0.00" type="t0" speed="0.00" pos="0.00" edge="SC" slope="0.00"/>
    </timestep>
    <timestep time="60.80">
        <vehicle id="ego" x="104.95" y="0.00" angle="0.00" type="t0" speed="0.00" pos="0.00" edge="SC" slope="0.00"/>
    </timestep>
    <timestep time="61.00">
        <vehicle id="ego" x="104.95" y="0.00" angle="0.00" type="t0" speed="0.00" pos="0.00" edge="SC" slope="0.00"/>
    </timestep>
    <timestep time="61.20">
        <vehicle id="ego" x="104.95" y="0.00" angle="0.00" type="t0" speed="0.00" pos="0.00" edge="SC" slope="0.00"/>
    </timestep>
    <timestep time="61.40">
        <vehicle id="ego" x="104.95" y="0.00" angle="0.00" type="t0" speed="0.00" pos="0.00" edge="SC" slope="0.00"/>
    </timestep>
    <timestep time="61.60">
        <vehicle id="ego" x="104.95" y="0.00" angle="0.00" type="t0" speed="0.00" pos="0.00" edge="SC" slope="0.00"/>
    </timestep>
    <timestep time="61.80">
        <vehicle id="ego" x="104.95" y="0.00" angle="0.00" type="t0" speed="0.00" pos="0.00" edge="SC" slope="0.00"/>
    </timestep>
    <timestep time="62.00">
        <vehicle id="ego" x="104.95" y="0.00" angle="0.00" type="t0" speed="0.00" pos="0.00" edge="SC" slope="0.00"/>
    </timestep>
    <timestep time="62.20">
        <vehicle id="ego" x="104.95" y="0.00" angle="0.00" type="t0" speed="0.00" pos="0.00" edge="SC" slope="0.00"/>
    </timestep>
    <timestep time="62.40">
        <vehicle id="ego" x="104.95" y="0.00" angle="0.00" type="t0" speed="0.00" pos="0.00" edge="SC" slope="0.00"/>
    </timestep>
    <timestep time="62.60">
        <vehicle id="ego" x="104.95" y="0.00" angle="0.00" type="t0" speed="0.00" pos="0.00" edge="SC" slope="0.00"/>
    </timestep>
    <timestep time="62.80">
        <vehicle id="ego" x="104.95" y="0.00" angle="0.00" type="t0" speed="0.00" pos="0.00" edge="SC" slope="0.00"/>
    </timestep>
    <timestep time="63.00">
        <vehicle id="ego" x="104.95" y="0.00" angle="0.00" type="t0" speed="0.00" pos="0.00" edge="SC" slope="0.00"/>
    </timestep>
    <timestep time="63.20">
        <vehicle id="ego" x="104.95" y="0.00" angle="0.00" type="t0" speed="0.00" pos="0.00" edge="SC" slope="0.00"/>
    </timestep>
    <timestep time="63.40">
        <vehicle id="ego" x="104.95" y="0.00" angle="0.00" type="t0" speed="0.00" pos="0.00" edge="SC" slope="0.00"/>
    </timestep>
    <timestep time="63.60">
        <vehicle id="ego" x="104.95" y="0.00" angle="0.00" type="t0" speed="0.00" pos="0.00" edge="SC" slope="0.00"/>
    </timestep>
    <timestep time="63.80">
        <vehicle id="ego" x="104.95" y="0.00" angle="0.00" type="t0" speed="0.00" pos="0.00" edge="SC" slope="0.00"/>
    </timestep>
    <timestep time="64.00">
        <vehicle id="ego" x="104.95" y="0.00" angle="0.00" type="t0" speed="0.00" pos="0.00" edge="SC" slope="0.00"/>
    </timestep>
    <timestep time="64.20">
        <vehicle id="ego" x="104.95" y="0.00" angle="0.00" type="t0" speed="0.00" pos="0.00" edge="SC" slope="0.00"/>
    </timestep>
    <timestep time="64.40">
        <vehicle id="ego" x="104.95" y="0.00" angle="0.00" type="t0" speed="0.00" pos="0.00" edge="SC" slope="0.00"/>
    </timestep>
    <timestep time="64.60">
        <vehicle id="ego" x="104.95" y="0.00" angle="0.00" type="t0" speed="0.00" pos="0.00" edge="SC" slope="0.00"/>
    </timestep>
    <timestep time="64.80">