<?xml version="1.0" encoding="UTF-8"?>

<!-- generated on 2025-05-15 10:22:34 by Eclipse SUMO sumo Version v1_23_1+0050-0740a6fa2d2
This data file and the accompanying materials
are made available under the terms of the Eclipse Public License v2.0
which accompanies this distribution, and is available at
http://www.eclipse.org/legal/epl-v20.html
This file may also be made available under the following Secondary
Licenses when the conditions for such availability set forth in the Eclipse
Public License 2.0 are satisfied: GNU General Public License, version 2
or later which is available at
https://www.gnu.org/licenses/old-licenses/gpl-2.0-standalone.html
SPDX-License-Identifier: EPL-2.0 OR GPL-2.0-or-later
<sumoConfiguration xmlns:xsi="http://www.w3.org/2001/XMLSchema-instance" xsi:noNamespaceSchemaLocation="http://sumo.dlr.de/xsd/sumoConfiguration.xsd">

    <input>
        <net-file value="net.net.xml"/>
        <route-files value="input_routes.rou.xml"/>
    </input>

    <output>
        <write-license value="true"/>
        <vehroute-output value="vehroutes.xml"/>
    </output>

    <processing>
        <default.speeddev value="0"/>
    </processing>

    <report>
        <xml-validation value="never"/>
        <no-step-log value="true"/>
    </report>

    <mesoscopic>
        <mesosim value="true"/>
        <meso-tls-penalty value="1.0"/>
    </mesoscopic>

</sumoConfiguration>
-->

<routes xmlns:xsi="http://www.w3.org/2001/XMLSchema-instance" xsi:noNamespaceSchemaLocation="http://sumo.dlr.de/xsd/routes_file.xsd">
    <vehicle id="route_first" depart="0.00" arrival="182.00">
        <route edges="beg beg2left left left2end end"/>
    </vehicle>

    <vehicle id="avoid_tls" depart="1.00" arrival="185.00">
        <route edges="beg beg2left left left2end end"/>
    </vehicle>

    <vehicle id="via_tls" depart="1.00" arrival="205.00">
        <route edges="beg middle1 middle2 end"/>
    </vehicle>

    <vehicle id="route_second" depart="500.00" arrival="682.00">
        <route edges="beg beg2left left left2end end"/>
    </vehicle>

</routes>
