<?xml version="1.0"?>

<!-- generated on 11/03/08 15:03:08 by SUMO sumo Version dev-SVN-r6273
<configuration>

   <input>
      <net-file>net.net.xml</net-file>
      <additional-files>input_routes.rou.xml,input_additional2.add.xml</additional-files>
   </input>

   <output>
      <netstate-dump>rawdump.xml</netstate-dump>
   </output>

   <time>
      <begin>0</begin>
      <end>1000</end>
   </time>

   <processing>
      <no-duration-log>true</no-duration-log>
      <no-step-log>true</no-step-log>
   </processing>

</configuration>
-->

<sumo-netstate>
   <timestep time="0">
      <edge id="4/1to3/1">
         <lane id="4/1to3/1_0">
            <vehicle id="0" pos="100.00" speed="10.00"/>
         </lane>
      </edge>
   </timestep>
   <timestep time="1">
      <edge id="4/1to3/1">
         <lane id="4/1to3/1_0">
            <vehicle id="0" pos="110.00" speed="10.00"/>
         </lane>
      </edge>
   </timestep>
   <timestep time="2">
      <edge id="4/1to3/1">
         <lane id="4/1to3/1_0">
            <vehicle id="0" pos="120.00" speed="10.00"/>
         </lane>
      </edge>
   </timestep>
   <timestep time="3">
      <edge id="4/1to3/1">
         <lane id="4/1to3/1_0">
            <vehicle id="0" pos="130.00" speed="10.00"/>
         </lane>
      </edge>
   </timestep>
   <timestep time="4">
      <edge id="4/1to3/1">
         <lane id="4/1to3/1_0">
            <vehicle id="0" pos="140.00" speed="10.00"/>
         </lane>
      </edge>
   </timestep>
   <timestep time="5">
      <edge id="4/1to3/1">
         <lane id="4/1to3/1_0">
            <vehicle id="0" pos="150.00" speed="10.00"/>
         </lane>
      </edge>
   </timestep>
   <timestep time="6">
      <edge id="4/1to3/1">
         <lane id="4/1to3/1_0">
            <vehicle id="0" pos="160.00" speed="10.00"/>
         </lane>
      </edge>
   </timestep>
   <timestep time="7">
      <edge id="4/1to3/1">
         <lane id="4/1to3/1_0">
            <vehicle id="0" pos="170.00" speed="10.00"/>
         </lane>
      </edge>
   </timestep>
   <timestep time="8">
      <edge id="4/1to3/1">
         <lane id="4/1to3/1_0">
            <vehicle id="0" pos="180.00" speed="10.00"/>
         </lane>
      </edge>
   </timestep>
   <timestep time="9">
      <edge id="4/1to3/1">
         <lane id="4/1to3/1_0">
            <vehicle id="0" pos="190.00" speed="10.00"/>
         </lane>
      </edge>
   </timestep>
   <timestep time="10">
      <edge id="4/1to3/1">
         <lane id="4/1to3/1_0">
            <vehicle id="0" pos="200.00" speed="10.00"/>
         </lane>
      </edge>
   </timestep>
   <timestep time="11">
      <edge id="4/1to3/1">
         <lane id="4/1to3/1_0">
            <vehicle id="0" pos="210.00" speed="10.00"/>
         </lane>
      </edge>
   </timestep>
   <timestep time="12">
      <edge id="4/1to3/1">
         <lane id="4/1to3/1_0">
            <vehicle id="0" pos="220.00" speed="10.00"/>
         </lane>
      </edge>
   </timestep>
   <timestep time="13">
      <edge id="4/1to3/1">
         <lane id="4/1to3/1_0">
            <vehicle id="0" pos="230.00" speed="10.00"/>
         </lane>
      </edge>
   </timestep>
   <timestep time="14">
      <edge id="4/1to3/1">
         <lane id="4/1to3/1_0">
            <vehicle id="0" pos="240.00" speed="10.00"/>
         </lane>
      </edge>
   </timestep>
   <timestep time="15">
      <edge id="4/1to3/1">
         <lane id="4/1to3/1_0">
            <vehicle id="0" pos="250.00" speed="10.00"/>
         </lane>
      </edge>
   </timestep>
   <timestep time="16">
      <edge id="4/1to3/1">
         <lane id="4/1to3/1_0">
            <vehicle id="0" pos="260.00" speed="10.00"/>
         </lane>
      </edge>
   </timestep>
   <timestep time="17">
      <edge id="4/1to3/1">
         <lane id="4/1to3/1_0">
            <vehicle id="0" pos="270.00" speed="10.00"/>
         </lane>
      </edge>
   </timestep>
   <timestep time="18">
      <edge id="4/1to3/1">
         <lane id="4/1to3/1_0">
            <vehicle id="0" pos="280.00" speed="10.00"/>
         </lane>
      </edge>
   </timestep>
   <timestep time="19">
      <edge id="4/1to3/1">
         <lane id="4/1to3/1_0">
            <vehicle id="0" pos="290.00" speed="10.00"/>
         </lane>
      </edge>
   </timestep>
   <timestep time="20">
      <edge id="4/1to3/1">
         <lane id="4/1to3/1_0">
            <vehicle id="0" pos="300.00" speed="10.00"/>
         </lane>
      </edge>
   </timestep>
   <timestep time="21">
      <edge id="4/1to3/1">
         <lane id="4/1to3/1_0">
            <vehicle id="0" pos="310.00" speed="10.00"/>
         </lane>
      </edge>
   </timestep>
   <timestep time="22">
      <edge id="4/1to3/1">
         <lane id="4/1to3/1_0">
            <vehicle id="0" pos="320.00" speed="10.00"/>
         </lane>
      </edge>
   </timestep>
   <timestep time="23">
      <edge id="4/1to3/1">
         <lane id="4/1to3/1_0">
            <vehicle id="0" pos="330.00" speed="10.00"/>
         </lane>
      </edge>
   </timestep>
   <timestep time="24">
      <edge id="4/1to3/1">
         <lane id="4/1to3/1_0">
            <vehicle id="0" pos="340.00" speed="10.00"/>
         </lane>
      </edge>
   </timestep>
   <timestep time="25">
      <edge id="4/1to3/1">
         <lane id="4/1to3/1_0">
            <vehicle id="0" pos="350.00" speed="10.00"/>
         </lane>
      </edge>
   </timestep>
   <timestep time="26">
      <edge id="4/1to3/1">
         <lane id="4/1to3/1_0">
            <vehicle id="0" pos="360.00" speed="10.00"/>
         </lane>
      </edge>
   </timestep>
   <timestep time="27">
      <edge id="4/1to3/1">
         <lane id="4/1to3/1_0">
            <vehicle id="0" pos="370.00" speed="10.00"/>
         </lane>
      </edge>
   </timestep>
   <timestep time="28">
      <edge id="4/1to3/1">
         <lane id="4/1to3/1_0">
            <vehicle id="0" pos="380.00" speed="10.00"/>
         </lane>
      </edge>
   </timestep>
   <timestep time="29">
      <edge id="4/1to3/1">
         <lane id="4/1to3/1_0">
            <vehicle id="0" pos="390.00" speed="10.00"/>
         </lane>
      </edge>
   </timestep>
   <timestep time="30">
      <edge id="3/1to2/1">
         <lane id="3/1to2/1_0">
            <vehicle id="0" pos="9.50" speed="10.00"/>
         </lane>
      </edge>
   </timestep>
   <timestep time="31">
      <edge id="3/1to2/1">
         <lane id="3/1to2/1_0">
            <vehicle id="0" pos="19.50" speed="10.00"/>
         </lane>
      </edge>
   </timestep>
   <timestep time="32">
      <edge id="3/1to2/1">
         <lane id="3/1to2/1_0">
            <vehicle id="0" pos="29.50" speed="10.00"/>
         </lane>
      </edge>
   </timestep>
   <timestep time="33">
      <edge id="3/1to2/1">
         <lane id="3/1to2/1_0">
            <vehicle id="0" pos="39.50" speed="10.00"/>
         </lane>
      </edge>
   </timestep>
   <timestep time="34">
      <edge id="3/1to2/1">
         <lane id="3/1to2/1_0">
            <vehicle id="0" pos="49.50" speed="10.00"/>
         </lane>
      </edge>
   </timestep>
   <timestep time="35">
      <edge id="3/1to2/1">
         <lane id="3/1to2/1_0">
            <vehicle id="0" pos="59.50" speed="10.00"/>
         </lane>
      </edge>
   </timestep>
   <timestep time="36">
      <edge id="3/1to2/1">
         <lane id="3/1to2/1_0">
            <vehicle id="0" pos="69.50" speed="10.00"/>
         </lane>
      </edge>
   </timestep>
   <timestep time="37">
      <edge id="3/1to2/1">
         <lane id="3/1to2/1_0">
            <vehicle id="0" pos="79.50" speed="10.00"/>
         </lane>
      </edge>
   </timestep>
   <timestep time="38">
      <edge id="3/1to2/1">
         <lane id="3/1to2/1_0">
            <vehicle id="0" pos="89.50" speed="10.00"/>
         </lane>
      </edge>
   </timestep>
   <timestep time="39">
      <edge id="3/1to2/1">
         <lane id="3/1to2/1_0">
            <vehicle id="0" pos="99.50" speed="10.00"/>
         </lane>
      </edge>
   </timestep>
   <timestep time="40">
      <edge id="3/1to2/1">
         <lane id="3/1to2/1_0">
            <vehicle id="0" pos="109.50" speed="10.00"/>
         </lane>
      </edge>
   </timestep>
   <timestep time="41">
      <edge id="3/1to2/1">
         <lane id="3/1to2/1_0">
            <vehicle id="0" pos="119.50" speed="10.00"/>
         </lane>
      </edge>
   </timestep>
   <timestep time="42">
      <edge id="3/1to2/1">
         <lane id="3/1to2/1_0">
            <vehicle id="0" pos="129.50" speed="10.00"/>
         </lane>
      </edge>
   </timestep>
   <timestep time="43">
      <edge id="3/1to2/1">
         <lane id="3/1to2/1_0">
            <vehicle id="0" pos="139.50" speed="10.00"/>
         </lane>
      </edge>
   </timestep>
   <timestep time="44">
      <edge id="3/1to2/1">
         <lane id="3/1to2/1_0">
            <vehicle id="0" pos="149.50" speed="10.00"/>
         </lane>
      </edge>
   </timestep>
   <timestep time="45">
      <edge id="3/1to2/1">
         <lane id="3/1to2/1_0">
            <vehicle id="0" pos="159.50" speed="10.00"/>
         </lane>
      </edge>
   </timestep>
   <timestep time="46">
      <edge id="3/1to2/1">
         <lane id="3/1to2/1_0">
            <vehicle id="0" pos="169.50" speed="10.00"/>
         </lane>
      </edge>
   </timestep>
   <timestep time="47">
      <edge id="3/1to2/1">
         <lane id="3/1to2/1_0">
            <vehicle id="0" pos="179.50" speed="10.00"/>
         </lane>
      </edge>
   </timestep>
   <timestep time="48">
      <edge id="3/1to2/1">
         <lane id="3/1to2/1_0">
            <vehicle id="0" pos="189.50" speed="10.00"/>
         </lane>
      </edge>
   </timestep>
   <timestep time="49">
      <edge id="3/1to2/1">
         <lane id="3/1to2/1_0">
            <vehicle id="0" pos="199.50" speed="10.00"/>
         </lane>
      </edge>
   </timestep>
   <timestep time="50">
      <edge id="3/1to2/1">
         <lane id="3/1to2/1_0">
            <vehicle id="0" pos="209.50" speed="10.00"/>
         </lane>
      </edge>
   </timestep>
   <timestep time="51">
      <edge id="3/1to2/1">
         <lane id="3/1to2/1_0">
            <vehicle id="0" pos="219.50" speed="10.00"/>
         </lane>
      </edge>
   </timestep>
   <timestep time="52">
      <edge id="3/1to2/1">
         <lane id="3/1to2/1_0">
            <vehicle id="0" pos="229.50" speed="10.00"/>
         </lane>
      </edge>
   </timestep>
   <timestep time="53">
      <edge id="3/1to2/1">
         <lane id="3/1to2/1_0">
            <vehicle id="0" pos="239.50" speed="10.00"/>
         </lane>
      </edge>
   </timestep>
   <timestep time="54">
      <edge id="3/1to2/1">
         <lane id="3/1to2/1_0">
            <vehicle id="0" pos="249.50" speed="10.00"/>
         </lane>
      </edge>
   </timestep>
   <timestep time="55">
      <edge id="3/1to2/1">
         <lane id="3/1to2/1_0">
            <vehicle id="0" pos="259.50" speed="10.00"/>
         </lane>
      </edge>
   </timestep>
   <timestep time="56">
      <edge id="3/1to2/1">
         <lane id="3/1to2/1_0">
            <vehicle id="0" pos="269.50" speed="10.00"/>
         </lane>
      </edge>
   </timestep>
   <timestep time="57">
      <edge id="3/1to2/1">
         <lane id="3/1to2/1_0">
            <vehicle id="0" pos="279.50" speed="10.00"/>
         </lane>
      </edge>
   </timestep>
   <timestep time="58">
      <edge id="3/1to2/1">
         <lane id="3/1to2/1_0">
            <vehicle id="0" pos="289.50" speed="10.00"/>
         </lane>
      </edge>
   </timestep>
   <timestep time="59">
      <edge id="3/1to2/1">
         <lane id="3/1to2/1_0">
            <vehicle id="0" pos="299.50" speed="10.00"/>
         </lane>
      </edge>
   </timestep>
   <timestep time="60">
      <edge id="3/1to2/1">
         <lane id="3/1to2/1_0">
            <vehicle id="0" pos="309.50" speed="10.00"/>
         </lane>
      </edge>
   </timestep>
   <timestep time="61">
      <edge id="3/1to2/1">
         <lane id="3/1to2/1_0">
            <vehicle id="0" pos="319.50" speed="10.00"/>
         </lane>
      </edge>
   </timestep>
   <timestep time="62">
      <edge id="3/1to2/1">
         <lane id="3/1to2/1_0">
            <vehicle id="0" pos="329.50" speed="10.00"/>
         </lane>
      </edge>
   </timestep>
   <timestep time="63">
      <edge id="3/1to2/1">
         <lane id="3/1to2/1_0">
            <vehicle id="0" pos="339.50" speed="10.00"/>
         </lane>
      </edge>
   </timestep>
   <timestep time="64">
      <edge id="3/1to2/1">
         <lane id="3/1to2/1_0">
            <vehicle id="0" pos="349.50" speed="10.00"/>
         </lane>
      </edge>
   </timestep>
   <timestep time="65">
      <edge id="3/1to2/1">
         <lane id="3/1to2/1_0">
            <vehicle id="0" pos="359.50" speed="10.00"/>
         </lane>
      </edge>
   </timestep>
   <timestep time="66">
      <edge id="3/1to2/1">
         <lane id="3/1to2/1_0">
            <vehicle id="0" pos="369.50" speed="10.00"/>
         </lane>
      </edge>
   </timestep>
   <timestep time="67">
      <edge id="3/1to2/1">
         <lane id="3/1to2/1_0">
            <vehicle id="0" pos="379.50" speed="10.00"/>
         </lane>
      </edge>
   </timestep>
   <timestep time="68">
      <edge id="3/1to2/1">
         <lane id="3/1to2/1_0">
            <vehicle id="0" pos="389.50" speed="10.00"/>
         </lane>
      </edge>
   </timestep>
   <timestep time="69">
      <edge id="2/1to1/1">
         <lane id="2/1to1/1_0">
            <vehicle id="0" pos="9.00" speed="10.00"/>
         </lane>
      </edge>
   </timestep>
   <timestep time="70">
      <edge id="2/1to1/1">
         <lane id="2/1to1/1_0">
            <vehicle id="0" pos="19.00" speed="10.00"/>
         </lane>
      </edge>
   </timestep>
   <timestep time="71">
      <edge id="2/1to1/1">
         <lane id="2/1to1/1_0">
            <vehicle id="0" pos="29.00" speed="10.00"/>
         </lane>
      </edge>
   </timestep>
   <timestep time="72">
      <edge id="2/1to1/1">
         <lane id="2/1to1/1_0">
            <vehicle id="0" pos="39.00" speed="10.00"/>
         </lane>
      </edge>
   </timestep>
   <timestep time="73">
      <edge id="2/1to1/1">
         <lane id="2/1to1/1_0">
            <vehicle id="0" pos="49.00" speed="10.00"/>
         </lane>
      </edge>
   </timestep>
   <timestep time="74">
      <edge id="2/1to1/1">
         <lane id="2/1to1/1_0">
            <vehicle id="0" pos="59.00" speed="10.00"/>
         </lane>
      </edge>
   </timestep>
   <timestep time="75">
      <edge id="2/1to1/1">
         <lane id="2/1to1/1_0">
            <vehicle id="0" pos="69.00" speed="10.00"/>
         </lane>
      </edge>
   </timestep>
   <timestep time="76">
      <edge id="2/1to1/1">
         <lane id="2/1to1/1_0">
            <vehicle id="0" pos="79.00" speed="10.00"/>
         </lane>
      </edge>
   </timestep>
   <timestep time="77">
      <edge id="2/1to1/1">
         <lane id="2/1to1/1_0">
            <vehicle id="0" pos="89.00" speed="10.00"/>
         </lane>
      </edge>
   </timestep>
   <timestep time="78">
      <edge id="2/1to1/1">
         <lane id="2/1to1/1_0">
            <vehicle id="0" pos="99.00" speed="10.00"/>
         </lane>
      </edge>
   </timestep>
   <timestep time="79">
      <edge id="2/1to1/1">
         <lane id="2/1to1/1_0">
            <vehicle id="0" pos="109.00" speed="10.00"/>
         </lane>
      </edge>
   </timestep>
   <timestep time="80">
      <edge id="2/1to1/1">
         <lane id="2/1to1/1_0">
            <vehicle id="0" pos="119.00" speed="10.00"/>
         </lane>
      </edge>
   </timestep>
   <timestep time="81">
      <edge id="2/1to1/1">
         <lane id="2/1to1/1_0">
            <vehicle id="0" pos="129.00" speed="10.00"/>
         </lane>
      </edge>
   </timestep>
   <timestep time="82">
      <edge id="2/1to1/1">
         <lane id="2/1to1/1_0">
            <vehicle id="0" pos="139.00" speed="10.00"/>
         </lane>
      </edge>
   </timestep>
   <timestep time="83">
      <edge id="2/1to1/1">
         <lane id="2/1to1/1_0">
            <vehicle id="0" pos="149.00" speed="10.00"/>
         </lane>
      </edge>
   </timestep>
   <timestep time="84">
      <edge id="2/1to1/1">
         <lane id="2/1to1/1_0">
            <vehicle id="0" pos="159.00" speed="10.00"/>
         </lane>
      </edge>
   </timestep>
   <timestep time="85">
      <edge id="2/1to1/1">
         <lane id="2/1to1/1_0">
            <vehicle id="0" pos="169.00" speed="10.00"/>
         </lane>
      </edge>
   </timestep>
   <timestep time="86">
      <edge id="2/1to1/1">
         <lane id="2/1to1/1_0">
            <vehicle id="0" pos="179.00" speed="10.00"/>
         </lane>
      </edge>
   </timestep>
   <timestep time="87">
      <edge id="2/1to1/1">
         <lane id="2/1to1/1_0">
            <vehicle id="0" pos="189.00" speed="10.00"/>
         </lane>
      </edge>
   </timestep>
   <timestep time="88">
      <edge id="2/1to1/1">
         <lane id="2/1to1/1_0">
            <vehicle id="0" pos="199.00" speed="10.00"/>
         </lane>
      </edge>
   </timestep>
   <timestep time="89">
      <edge id="2/1to1/1">
         <lane id="2/1to1/1_0">
            <vehicle id="0" pos="209.00" speed="10.00"/>
         </lane>
      </edge>
   </timestep>
   <timestep time="90">
      <edge id="2/1to1/1">
         <lane id="2/1to1/1_0">
            <vehicle id="0" pos="219.00" speed="10.00"/>
         </lane>
      </edge>
   </timestep>
   <timestep time="91">
      <edge id="2/1to1/1">
         <lane id="2/1to1/1_0">
            <vehicle id="0" pos="229.00" speed="10.00"/>
         </lane>
      </edge>
   </timestep>
   <timestep time="92">
      <edge id="2/1to1/1">
         <lane id="2/1to1/1_0">
            <vehicle id="0" pos="239.00" speed="10.00"/>
         </lane>
      </edge>
   </timestep>
   <timestep time="93">
      <edge id="2/1to1/1">
         <lane id="2/1to1/1_0">
            <vehicle id="0" pos="249.00" speed="10.00"/>
         </lane>
      </edge>
   </timestep>
   <timestep time="94">
      <edge id="2/1to1/1">
         <lane id="2/1to1/1_0">
            <vehicle id="0" pos="259.00" speed="10.00"/>
         </lane>
      </edge>
   </timestep>
   <timestep time="95">
      <edge id="2/1to1/1">
         <lane id="2/1to1/1_0">
            <vehicle id="0" pos="269.00" speed="10.00"/>
         </lane>
      </edge>
   </timestep>
   <timestep time="96">
      <edge id="2/1to1/1">
         <lane id="2/1to1/1_0">
            <vehicle id="0" pos="279.00" speed="10.00"/>
         </lane>
      </edge>
   </timestep>
   <timestep time="97">
      <edge id="2/1to1/1">
         <lane id="2/1to1/1_0">
            <vehicle id="0" pos="289.00" speed="10.00"/>
         </lane>
      </edge>
   </timestep>
   <timestep time="98">
      <edge id="2/1to1/1">
         <lane id="2/1to1/1_0">
            <vehicle id="0" pos="299.00" speed="10.00"/>
         </lane>
      </edge>
   </timestep>
   <timestep time="99">
      <edge id="2/1to1/1">
         <lane id="2/1to1/1_0">
            <vehicle id="0" pos="309.00" speed="10.00"/>
         </lane>
      </edge>
   </timestep>
   <timestep time="100">
      <edge id="2/1to1/1">
         <lane id="2/1to1/1_0">
            <vehicle id="0" pos="319.00" speed="10.00"/>
         </lane>
      </edge>
   </timestep>
   <timestep time="101">
      <edge id="2/1to1/1">
         <lane id="2/1to1/1_0">
            <vehicle id="0" pos="329.00" speed="10.00"/>
         </lane>
      </edge>
   </timestep>
   <timestep time="102">
      <edge id="2/1to1/1">
         <lane id="2/1to1/1_0">
            <vehicle id="0" pos="339.00" speed="10.00"/>
         </lane>
      </edge>
   </timestep>
   <timestep time="103">
      <edge id="2/1to1/1">
         <lane id="2/1to1/1_0">
            <vehicle id="0" pos="349.00" speed="10.00"/>
         </lane>
      </edge>
   </timestep>
   <timestep time="104">
      <edge id="2/1to1/1">
         <lane id="2/1to1/1_0">
            <vehicle id="0" pos="359.00" speed="10.00"/>
         </lane>
      </edge>
   </timestep>
   <timestep time="105">
      <edge id="2/1to1/1">
         <lane id="2/1to1/1_0">
            <vehicle id="0" pos="369.00" speed="10.00"/>
         </lane>
      </edge>
   </timestep>
   <timestep time="106">
      <edge id="2/1to1/1">
         <lane id="2/1to1/1_0">
            <vehicle id="0" pos="379.00" speed="10.00"/>
         </lane>
      </edge>
   </timestep>
   <timestep time="107">
      <edge id="2/1to1/1">
         <lane id="2/1to1/1_0">
            <vehicle id="0" pos="389.00" speed="10.00"/>
         </lane>
      </edge>
   </timestep>
   <timestep time="108">
   </timestep>
</sumo-netstate>
