<?xml version="1.0" encoding="UTF-8"?>

<!-- generated on 2022-06-18 12:23:16 by Eclipse SUMO sumo Version v1_13_0+0980-15ac9f724ae
This data file and the accompanying materials
are made available under the terms of the Eclipse Public License v2.0
which accompanies this distribution, and is available at
http://www.eclipse.org/legal/epl-v20.html
This file may also be made available under the following Secondary
Licenses when the conditions for such availability set forth in the Eclipse
Public License 2.0 are satisfied: GNU General Public License, version 2
or later which is available at
https://www.gnu.org/licenses/old-licenses/gpl-2.0-standalone.html
SPDX-License-Identifier: EPL-2.0 OR GPL-2.0-or-later
<configuration xmlns:xsi="http://www.w3.org/2001/XMLSchema-instance" xsi:noNamespaceSchemaLocation="http://sumo.dlr.de/xsd/sumoConfiguration.xsd">

    <input>
        <net-file value="net.net.xml"/>
        <additional-files value="input_routes.rou.xml,input_additional.add.xml,input_additional2.add.xml"/>
    </input>

    <output>
        <write-license value="true"/>
    </output>

    <time>
        <begin value="0"/>
        <end value="150"/>
        <step-length value="0.1"/>
    </time>

    <processing>
        <default.speeddev value="0"/>
    </processing>

    <report>
        <xml-validation value="never"/>
        <duration-log.disable value="true"/>
        <no-step-log value="true"/>
    </report>

    <mesoscopic>
        <mesosim value="true"/>
    </mesoscopic>

</configuration>
-->

<meandata xmlns:xsi="http://www.w3.org/2001/XMLSchema-instance" xsi:noNamespaceSchemaLocation="http://sumo.dlr.de/xsd/meandata_file.xsd">
    <interval begin="0.00" end="60.00" id="dump_60">
        <edge id="3/1to2/1" sampledSeconds="18.90" CO_abs="363.825000" CO2_abs="39921.000000" HC_abs="2.514750" PMx_abs="0.235725" NOx_abs="13.140750" fuel_abs="12733.350000" electricity_abs="0"
            CO_normed="54.573750" CO2_normed="5988.150000" HC_normed="0.377212" PMx_normed="0.035359" NOx_normed="1.971113" fuel_normed="1910.002500" electricity_normed="0"
            traveltime="40.00" CO_perVeh="770.000000" CO2_perVeh="84488.888889" HC_perVeh="5.322222" PMx_perVeh="0.498889" NOx_perVeh="27.811111" fuel_perVeh="26948.888889" electricity_perVeh="0"/>
        <edge id="4/1to3/1" sampledSeconds="40.00" CO_abs="770.000000" CO2_abs="84488.888889" HC_abs="5.322222" PMx_abs="0.498889" NOx_abs="27.811111" fuel_abs="26948.888889" electricity_abs="0"
            CO_normed="115.500000" CO2_normed="12673.333333" HC_normed="0.798333" PMx_normed="0.074833" NOx_normed="4.171667" fuel_normed="4042.333333" electricity_normed="0"
            traveltime="40.00" CO_perVeh="770.000000" CO2_perVeh="84488.888889" HC_perVeh="5.322222" PMx_perVeh="0.498889" NOx_perVeh="27.811111" fuel_perVeh="26948.888889" electricity_perVeh="0"/>
    </interval>
    <interval begin="60.00" end="120.00" id="dump_60">
        <edge id="2/1to1/1" sampledSeconds="38.90" CO_abs="748.825000" CO2_abs="82165.444444" HC_abs="5.175861" PMx_abs="0.485169" NOx_abs="27.046306" fuel_abs="26207.794444" electricity_abs="0"
            CO_normed="112.323750" CO2_normed="12324.816667" HC_normed="0.776379" PMx_normed="0.072775" NOx_normed="4.056946" fuel_normed="3931.169167" electricity_normed="0"
            traveltime="40.00" CO_perVeh="770.000000" CO2_perVeh="84488.888889" HC_perVeh="5.322222" PMx_perVeh="0.498889" NOx_perVeh="27.811111" fuel_perVeh="26948.888889" electricity_perVeh="0"/>
        <edge id="3/1to2/1" sampledSeconds="21.10" CO_abs="406.175000" CO2_abs="44567.888889" HC_abs="2.807472" PMx_abs="0.263164" NOx_abs="14.670361" fuel_abs="14215.538889" electricity_abs="0"
            CO_normed="60.926250" CO2_normed="6685.183333" HC_normed="0.421121" PMx_normed="0.039475" NOx_normed="2.200554" fuel_normed="2132.330833" electricity_normed="0"
            traveltime="40.00" CO_perVeh="770.000000" CO2_perVeh="84488.888889" HC_perVeh="5.322222" PMx_perVeh="0.498889" NOx_perVeh="27.811111" fuel_perVeh="26948.888889" electricity_perVeh="0"/>
    </interval>
    <interval begin="120.00" end="150.00" id="dump_60">
        <edge id="1/1to0/1" sampledSeconds="29.00" CO_abs="558.250000" CO2_abs="61254.444444" HC_abs="3.858611" PMx_abs="0.361694" NOx_abs="20.163056" fuel_abs="19537.944444" electricity_abs="0"
            CO_normed="167.475000" CO2_normed="18376.333333" HC_normed="1.157583" PMx_normed="0.108508" NOx_normed="6.048917" fuel_normed="5861.383333" electricity_normed="0"
            traveltime="40.00" CO_perVeh="770.000000" CO2_perVeh="84488.888889" HC_perVeh="5.322222" PMx_perVeh="0.498889" NOx_perVeh="27.811111" fuel_perVeh="26948.888889" electricity_perVeh="0"/>
        <edge id="2/1to1/1" sampledSeconds="1.10" CO_abs="21.175000" CO2_abs="2323.444444" HC_abs="0.146361" PMx_abs="0.013719" NOx_abs="0.764806" fuel_abs="741.094444" electricity_abs="0"
            CO_normed="6.352500" CO2_normed="697.033333" HC_normed="0.043908" PMx_normed="0.004116" NOx_normed="0.229442" fuel_normed="222.328333" electricity_normed="0"
            traveltime="40.00" CO_perVeh="770.000000" CO2_perVeh="84488.888889" HC_perVeh="5.322222" PMx_perVeh="0.498889" NOx_perVeh="27.811111" fuel_perVeh="26948.888889" electricity_perVeh="0"/>
    </interval>
</meandata>
