<?xml version="1.0" encoding="UTF-8"?>

<!-- generated on 2024-01-22 09:44:25 by Eclipse SUMO sumo Version v1_14_1+11363-50b43697ca8
This data file and the accompanying materials
are made available under the terms of the Eclipse Public License v2.0
which accompanies this distribution, and is available at
http://www.eclipse.org/legal/epl-v20.html
This file may also be made available under the following Secondary
Licenses when the conditions for such availability set forth in the Eclipse
Public License 2.0 are satisfied: GNU General Public License, version 2
or later which is available at
https://www.gnu.org/licenses/old-licenses/gpl-2.0-standalone.html
SPDX-License-Identifier: EPL-2.0 OR GPL-2.0-or-later
<configuration xmlns:xsi="http://www.w3.org/2001/XMLSchema-instance" xsi:noNamespaceSchemaLocation="http://sumo.dlr.de/xsd/sumoConfiguration.xsd">

    <input>
        <net-file value="net.net.xml"/>
        <additional-files value="input_routes.rou.xml,input_additional.add.xml,input_additional2.add.xml"/>
    </input>

    <output>
        <write-license value="true"/>
    </output>

    <time>
        <begin value="0"/>
        <end value="150"/>
        <step-length value="0.1"/>
    </time>

    <processing>
        <default.speeddev value="0"/>
    </processing>

    <report>
        <xml-validation value="never"/>
        <duration-log.disable value="true"/>
        <no-step-log value="true"/>
    </report>

</configuration>
-->

<meandata xmlns:xsi="http://www.w3.org/2001/XMLSchema-instance" xsi:noNamespaceSchemaLocation="http://sumo.dlr.de/xsd/meandata_file.xsd">
    <interval begin="0.00" end="60.00" id="dump_60">
        <edge id="3/1to2/1" sampledSeconds="28.90" CO_abs="556.325000" CO2_abs="61043.222222" HC_abs="3.845306" PMx_abs="0.360447" NOx_abs="20.093528" fuel_abs="19470.572222" electricity_abs="0"
            CO_normed="83.448750" CO2_normed="9156.483333" HC_normed="0.576796" PMx_normed="0.054067" NOx_normed="3.014029" fuel_normed="2920.585833" electricity_normed="0"
            traveltime="40.00" CO_perVeh="770.000000" CO2_perVeh="84488.888889" HC_perVeh="5.322222" PMx_perVeh="0.498889" NOx_perVeh="27.811111" fuel_perVeh="26948.888889" electricity_perVeh="0"/>
        <edge id="4/1to3/1" sampledSeconds="30.00" CO_abs="577.500000" CO2_abs="63366.666667" HC_abs="3.991667" PMx_abs="0.374167" NOx_abs="20.858333" fuel_abs="20211.666667" electricity_abs="0"
            CO_normed="86.625000" CO2_normed="9505.000000" HC_normed="0.598750" PMx_normed="0.056125" NOx_normed="3.128750" fuel_normed="3031.750000" electricity_normed="0"
            traveltime="40.00" CO_perVeh="770.000000" CO2_perVeh="84488.888889" HC_perVeh="5.322222" PMx_perVeh="0.498889" NOx_perVeh="27.811111" fuel_perVeh="26948.888889" electricity_perVeh="0"/>
    </interval>
    <interval begin="60.00" end="120.00" id="dump_60">
        <edge id="1/1to0/1" sampledSeconds="8.90" CO_abs="171.325000" CO2_abs="18798.777778" HC_abs="1.184194" PMx_abs="0.111003" NOx_abs="6.187972" fuel_abs="5996.127778" electricity_abs="0"
            CO_normed="25.698750" CO2_normed="2819.816667" HC_normed="0.177629" PMx_normed="0.016650" NOx_normed="0.928196" fuel_normed="899.419167" electricity_normed="0"
            traveltime="40.00" CO_perVeh="770.000000" CO2_perVeh="84488.888889" HC_perVeh="5.322222" PMx_perVeh="0.498889" NOx_perVeh="27.811111" fuel_perVeh="26948.888889" electricity_perVeh="0"/>
        <edge id="2/1to1/1" sampledSeconds="40.00" CO_abs="770.000000" CO2_abs="84488.888889" HC_abs="5.322222" PMx_abs="0.498889" NOx_abs="27.811111" fuel_abs="26948.888889" electricity_abs="0"
            CO_normed="115.500000" CO2_normed="12673.333333" HC_normed="0.798333" PMx_normed="0.074833" NOx_normed="4.171667" fuel_normed="4042.333333" electricity_normed="0"
            traveltime="40.00" CO_perVeh="770.000000" CO2_perVeh="84488.888889" HC_perVeh="5.322222" PMx_perVeh="0.498889" NOx_perVeh="27.811111" fuel_perVeh="26948.888889" electricity_perVeh="0"/>
        <edge id="3/1to2/1" sampledSeconds="11.10" CO_abs="213.675000" CO2_abs="23445.666667" HC_abs="1.476917" PMx_abs="0.138442" NOx_abs="7.717583" fuel_abs="7478.316667" electricity_abs="0"
            CO_normed="32.051250" CO2_normed="3516.850000" HC_normed="0.221537" PMx_normed="0.020766" NOx_normed="1.157638" fuel_normed="1121.747500" electricity_normed="0"
            traveltime="40.00" CO_perVeh="770.000000" CO2_perVeh="84488.888889" HC_perVeh="5.322222" PMx_perVeh="0.498889" NOx_perVeh="27.811111" fuel_perVeh="26948.888889" electricity_perVeh="0"/>
    </interval>
    <interval begin="120.00" end="150.00" id="dump_60">
        <edge id="1/1to0/1" sampledSeconds="30.00" CO_abs="577.500000" CO2_abs="63366.666667" HC_abs="3.991667" PMx_abs="0.374167" NOx_abs="20.858333" fuel_abs="20211.666667" electricity_abs="0"
            CO_normed="173.250000" CO2_normed="19010.000000" HC_normed="1.197500" PMx_normed="0.112250" NOx_normed="6.257500" fuel_normed="6063.500000" electricity_normed="0"
            traveltime="40.00" CO_perVeh="770.000000" CO2_perVeh="84488.888889" HC_perVeh="5.322222" PMx_perVeh="0.498889" NOx_perVeh="27.811111" fuel_perVeh="26948.888889" electricity_perVeh="0"/>
    </interval>
</meandata>
