<?xml version="1.0" encoding="UTF-8"?>

<!-- generated on Wed Oct 26 13:08:56 2016 by SUMO Version dev-SVN-r21800
<?xml version="1.0" encoding="UTF-8"?>

<configuration xmlns:xsi="http://www.w3.org/2001/XMLSchema-instance" xsi:noNamespaceSchemaLocation="http://sumo.dlr.de/xsd/sumoConfiguration.xsd">

    <input>
        <net-file value="net.net.xml"/>
        <route-files value="input_routes.rou.xml"/>
    </input>

    <output>
        <fcd-output value="fcd.xml"/>
        <tripinfo-output value="tripinfos.xml"/>
    </output>

    <processing>
        <lateral-resolution value="0.8"/>
    </processing>

    <report>
        <xml-validation value="never"/>
        <no-step-log value="true"/>
    </report>

</configuration>
-->

<fcd-export xmlns:xsi="http://www.w3.org/2001/XMLSchema-instance" xsi:noNamespaceSchemaLocation="http://sumo.dlr.de/xsd/fcd_file.xsd">
    <timestep time="0.00">
        <vehicle id="bike" x="20.00" y="-2.93" angle="90.00" type="bike" speed="0.00" pos="20.00" lane="beg_0" slope="0.00"/>
        <vehicle id="car" x="0.00" y="-0.95" angle="90.00" type="car" speed="0.00" pos="0.00" lane="beg_0" slope="0.00"/>
    </timestep>
    <timestep time="1.00">
        <vehicle id="bike" x="20.67" y="-2.93" angle="90.00" type="bike" speed="0.67" pos="20.67" lane="beg_0" slope="0.00"/>
        <vehicle id="car" x="1.67" y="-0.95" angle="90.00" type="car" speed="1.67" pos="1.67" lane="beg_0" slope="0.00"/>
    </timestep>
    <timestep time="2.00">
        <vehicle id="bike" x="22.50" y="-2.93" angle="90.00" type="bike" speed="1.84" pos="22.50" lane="beg_0" slope="0.00"/>
        <vehicle id="car" x="5.31" y="-0.95" angle="90.00" type="car" speed="3.63" pos="5.31" lane="beg_0" slope="0.00"/>
    </timestep>
    <timestep time="3.00">
        <vehicle id="bike" x="25.19" y="-2.93" angle="90.00" type="bike" speed="2.68" pos="25.19" lane="beg_0" slope="0.00"/>
        <vehicle id="car" x="11.49" y="-0.95" angle="90.00" type="car" speed="6.18" pos="11.49" lane="beg_0" slope="0.00"/>
        <vehicle id="car2" x="0.00" y="-2.35" angle="90.00" type="car2" speed="0.00" pos="0.00" lane="beg_0" slope="0.00"/>
    </timestep>
    <timestep time="4.00">
        <vehicle id="bike" x="28.63" y="-2.93" angle="90.00" type="bike" speed="3.44" pos="28.63" lane="beg_0" slope="0.00"/>
        <vehicle id="car" x="19.94" y="-0.95" angle="90.00" type="car" speed="8.46" pos="19.94" lane="beg_0" slope="0.00"/>
        <vehicle id="car2" x="1.89" y="-2.35" angle="90.00" type="car2" speed="1.89" pos="1.89" lane="beg_0" slope="0.00"/>
    </timestep>
    <timestep time="5.00">
        <vehicle id="bike" x="32.82" y="-2.93" angle="90.00" type="bike" speed="4.19" pos="32.82" lane="beg_0" slope="0.00"/>
        <vehicle id="car" x="30.99" y="-0.95" angle="90.00" type="car" speed="11.05" pos="30.99" lane="beg_0" slope="0.00"/>
        <vehicle id="car2" x="5.51" y="-2.35" angle="90.00" type="car2" speed="3.62" pos="5.51" lane="beg_0" slope="0.00"/>
    </timestep>
    <timestep time="6.00">
        <vehicle id="bike" x="37.93" y="-2.93" angle="90.00" type="bike" speed="5.11" pos="37.93" lane="beg_0" slope="0.00"/>
        <vehicle id="car" x="44.05" y="-0.95" angle="90.00" type="car" speed="13.06" pos="44.05" lane="beg_0" slope="0.00"/>
        <vehicle id="car2" x="10.99" y="-2.35" angle="90.00" type="car2" speed="5.48" pos="10.99" lane="beg_0" slope="0.00"/>
    </timestep>
    <timestep time="7.00">
        <vehicle id="bike" x="43.45" y="-2.93" angle="90.00" type="bike" speed="5.52" pos="43.45" lane="beg_0" slope="0.00"/>
        <vehicle id="car" x="57.60" y="-0.95" angle="90.00" type="car" speed="13.55" pos="57.60" lane="beg_0" slope="0.00"/>
        <vehicle id="car2" x="17.93" y="-2.35" angle="90.00" type="car2" speed="6.94" pos="17.93" lane="beg_0" slope="0.00"/>
    </timestep>
    <timestep time="8.00">
        <vehicle id="bike" x="48.59" y="-2.93" angle="90.00" type="bike" speed="5.15" pos="48.59" lane="beg_0" slope="0.00"/>
        <vehicle id="car" x="71.07" y="-0.95" angle="90.00" type="car" speed="13.47" pos="71.07" lane="beg_0" slope="0.00"/>
        <vehicle id="car2" x="27.41" y="-1.55" angle="85.18" type="car2" speed="9.48" pos="27.41" lane="beg_0" slope="0.00"/>
    </timestep>
    <timestep time="9.00">
        <vehicle id="bike" x="53.96" y="-2.93" angle="90.00" type="bike" speed="5.37" pos="53.96" lane="beg_0" slope="0.00"/>
        <vehicle id="car" x="84.29" y="-0.95" angle="90.00" type="car" speed="13.22" pos="84.29" lane="beg_0" slope="0.00"/>
        <vehicle id="car2" x="38.67" y="-1.55" angle="90.00" type="car2" speed="11.26" pos="38.67" lane="beg_0" slope="0.00"/>
    </timestep>
    <timestep time="10.00">
        <vehicle id="bike" x="59.03" y="-2.93" angle="90.00" type="bike" speed="5.06" pos="59.03" lane="beg_0" slope="0.00"/>
        <vehicle id="car" x="96.96" y="-0.95" angle="90.00" type="car" speed="12.67" pos="96.96" lane="beg_0" slope="0.00"/>
        <vehicle id="car2" x="51.37" y="-1.55" angle="90.00" type="car2" speed="12.70" pos="51.37" lane="beg_0" slope="0.00"/>
    </timestep>
    <timestep time="11.00">
        <vehicle id="bike" x="64.25" y="-2.93" angle="90.00" type="bike" speed="5.23" pos="64.25" lane="beg_0" slope="0.00"/>
        <vehicle id="car" x="110.34" y="-0.95" angle="90.00" type="car" speed="13.37" pos="110.34" lane="beg_0" slope="0.00"/>
        <vehicle id="car2" x="64.96" y="-1.49" angle="89.75" type="car2" speed="13.58" pos="64.96" lane="beg_0" slope="0.00"/>
    </timestep>
    <timestep time="12.00">
        <vehicle id="bike" x="69.63" y="-2.93" angle="90.00" type="bike" speed="5.37" pos="69.63" lane="beg_0" slope="0.00"/>
        <vehicle id="car" x="124.18" y="-0.95" angle="90.00" type="car" speed="13.85" pos="124.18" lane="beg_0" slope="0.00"/>
        <vehicle id="car2" x="77.85" y="-1.49" angle="90.00" type="car2" speed="12.90" pos="77.85" lane="beg_0" slope="0.00"/>
    </timestep>
    <timestep time="13.00">
        <vehicle id="bike" x="75.17" y="-2.93" angle="90.00" type="bike" speed="5.54" pos="75.17" lane="beg_0" slope="0.00"/>
        <vehicle id="car" x="137.87" y="-0.95" angle="90.00" type="car" speed="13.68" pos="137.87" lane="beg_0" slope="0.00"/>
        <vehicle id="car2" x="90.50" y="-1.49" angle="90.00" type="car2" speed="12.65" pos="90.50" lane="beg_0" slope="0.00"/>
    </timestep>
    <timestep time="14.00">
        <vehicle id="bike" x="80.64" y="-2.93" angle="90.00" type="bike" speed="5.48" pos="80.64" lane="beg_0" slope="0.00"/>
        <vehicle id="car" x="150.87" y="-0.95" angle="90.00" type="car" speed="13.00" pos="150.87" lane="beg_0" slope="0.00"/>
        <vehicle id="car2" x="103.96" y="-1.49" angle="90.00" type="car2" speed="13.46" pos="103.96" lane="beg_0" slope="0.00"/>
    </timestep>
    <timestep time="15.00">
        <vehicle id="bike" x="85.62" y="-2.93" angle="90.00" type="bike" speed="4.98" pos="85.62" lane="beg_0" slope="0.00"/>
        <vehicle id="car" x="164.59" y="-0.95" angle="90.00" type="car" speed="13.73" pos="164.59" lane="beg_0" slope="0.00"/>
        <vehicle id="car2" x="117.31" y="-1.49" angle="90.00" type="car2" speed="13.36" pos="117.31" lane="beg_0" slope="0.00"/>
    </timestep>
    <timestep time="16.00">
        <vehicle id="bike" x="91.08" y="-2.93" angle="90.00" type="bike" speed="5.45" pos="91.08" lane="beg_0" slope="0.00"/>
        <vehicle id="car" x="178.14" y="-0.95" angle="90.00" type="car" speed="13.55" pos="178.14" lane="beg_0" slope="0.00"/>
        <vehicle id="car2" x="130.91" y="-1.49" angle="90.00" type="car2" speed="13.60" pos="130.91" lane="beg_0" slope="0.00"/>
    </timestep>
    <timestep time="17.00">
        <vehicle id="bike" x="96.14" y="-2.93" angle="90.00" type="bike" speed="5.07" pos="96.14" lane="beg_0" slope="0.00"/>
        <vehicle id="car" x="191.29" y="-0.95" angle="90.00" type="car" speed="13.15" pos="191.29" lane="beg_0" slope="0.00"/>
        <vehicle id="car2" x="144.49" y="-1.49" angle="90.00" type="car2" speed="13.58" pos="144.49" lane="beg_0" slope="0.00"/>
    </timestep>
    <timestep time="18.00">
        <vehicle id="bike" x="101.27" y="-2.93" angle="90.00" type="bike" speed="5.13" pos="101.27" lane="beg_0" slope="0.00"/>
        <vehicle id="car" x="205.06" y="-0.95" angle="90.00" type="car" speed="13.77" pos="205.06" lane="beg_0" slope="0.00"/>
        <vehicle id="car2" x="157.51" y="-1.49" angle="90.00" type="car2" speed="13.02" pos="157.51" lane="beg_0" slope="0.00"/>
    </timestep>
    <timestep time="19.00">
        <vehicle id="bike" x="106.27" y="-2.93" angle="90.00" type="bike" speed="4.99" pos="106.27" lane="beg_0" slope="0.00"/>
        <vehicle id="car" x="218.18" y="-0.95" angle="90.00" type="car" speed="13.11" pos="218.18" lane="beg_0" slope="0.00"/>
        <vehicle id="car2" x="170.50" y="-1.49" angle="90.00" type="car2" speed="12.99" pos="170.50" lane="beg_0" slope="0.00"/>
    </timestep>
    <timestep time="20.00">
        <vehicle id="bike" x="111.53" y="-2.93" angle="90.00" type="bike" speed="5.26" pos="111.53" lane="beg_0" slope="0.00"/>
        <vehicle id="car" x="230.82" y="-0.95" angle="90.00" type="car" speed="12.64" pos="230.82" lane="beg_0" slope="0.00"/>
        <vehicle id="car2" x="183.99" y="-2.35" angle="93.65" type="car2" speed="13.49" pos="183.99" lane="beg_0" slope="0.00"/>
    </timestep>
    <timestep time="21.00">
        <vehicle id="bike" x="116.51" y="-2.93" angle="90.00" type="bike" speed="4.98" pos="116.51" lane="beg_0" slope="0.00"/>
        <vehicle id="car" x="243.96" y="-0.95" angle="90.00" type="car" speed="13.14" pos="243.96" lane="beg_0" slope="0.00"/>
        <vehicle id="car2" x="197.66" y="-2.35" angle="90.00" type="car2" speed="13.67" pos="197.66" lane="beg_0" slope="0.00"/>
    </timestep>
    <timestep time="22.00">
        <vehicle id="bike" x="121.97" y="-2.93" angle="90.00" type="bike" speed="5.46" pos="121.97" lane="beg_0" slope="0.00"/>
        <vehicle id="car" x="257.61" y="-0.95" angle="90.00" type="car" speed="13.65" pos="257.61" lane="beg_0" slope="0.00"/>
        <vehicle id="car2" x="210.72" y="-2.35" angle="90.00" type="car2" speed="13.06" pos="210.72" lane="beg_0" slope="0.00"/>
    </timestep>
    <timestep time="23.00">
        <vehicle id="bike" x="127.20" y="-2.93" angle="90.00" type="bike" speed="5.23" pos="127.20" lane="beg_0" slope="0.00"/>
        <vehicle id="car" x="271.46" y="-0.95" angle="90.00" type="car" speed="13.85" pos="271.46" lane="beg_0" slope="0.00"/>
        <vehicle id="car2" x="224.25" y="-2.35" angle="90.00" type="car2" speed="13.53" pos="224.25" lane="beg_0" slope="0.00"/>
    </timestep>
    <timestep time="24.00">
        <vehicle id="bike" x="132.65" y="-2.93" angle="90.00" type="bike" speed="5.45" pos="132.65" lane="beg_0" slope="0.00"/>
        <vehicle id="car" x="284.14" y="-0.95" angle="90.00" type="car" speed="12.68" pos="284.14" lane="beg_0" slope="0.00"/>
        <vehicle id="car2" x="238.05" y="-2.35" angle="90.00" type="car2" speed="13.80" pos="238.05" lane="beg_0" slope="0.00"/>
    </timestep>
    <timestep time="25.00">
        <vehicle id="bike" x="138.00" y="-2.93" angle="90.00" type="bike" speed="5.35" pos="138.00" lane="beg_0" slope="0.00"/>
        <vehicle id="car" x="296.74" y="-0.95" angle="90.00" type="car" speed="12.60" pos="296.74" lane="beg_0" slope="0.00"/>
        <vehicle id="car2" x="251.53" y="-2.35" angle="90.00" type="car2" speed="13.48" pos="251.53" lane="beg_0" slope="0.00"/>
    </timestep>
    <timestep time="26.00">
        <vehicle id="bike" x="143.43" y="-2.93" angle="90.00" type="bike" speed="5.43" pos="143.43" lane="beg_0" slope="0.00"/>
        <vehicle id="car" x="310.52" y="-0.95" angle="90.00" type="car" speed="13.78" pos="310.52" lane="beg_0" slope="0.00"/>
        <vehicle id="car2" x="264.68" y="-2.35" angle="90.00" type="car2" speed="13.15" pos="264.68" lane="beg_0" slope="0.00"/>
    </timestep>
    <timestep time="27.00">
        <vehicle id="bike" x="148.94" y="-2.93" angle="90.00" type="bike" speed="5.51" pos="148.94" lane="beg_0" slope="0.00"/>
        <vehicle id="car" x="324.18" y="-0.95" angle="90.00" type="car" speed="13.66" pos="324.18" lane="beg_0" slope="0.00"/>
        <vehicle id="car2" x="278.51" y="-2.35" angle="90.00" type="car2" speed="13.83" pos="278.51" lane="beg_0" slope="0.00"/>
    </timestep>
    <timestep time="28.00">
        <vehicle id="bike" x="154.32" y="-2.93" angle="90.00" type="bike" speed="5.38" pos="154.32" lane="beg_0" slope="0.00"/>
        <vehicle id="car" x="337.13" y="-0.95" angle="90.00" type="car" speed="12.95" pos="337.13" lane="beg_0" slope="0.00"/>
        <vehicle id="car2" x="291.95" y="-2.35" angle="90.00" type="car2" speed="13.43" pos="291.95" lane="beg_0" slope="0.00"/>
    </timestep>
    <timestep time="29.00">
        <vehicle id="bike" x="159.62" y="-2.93" angle="90.00" type="bike" speed="5.30" pos="159.62" lane="beg_0" slope="0.00"/>
        <vehicle id="car" x="350.74" y="-0.95" angle="90.00" type="car" speed="13.61" pos="350.74" lane="beg_0" slope="0.00"/>
        <vehicle id="car2" x="304.95" y="-2.35" angle="90.00" type="car2" speed="13.01" pos="304.95" lane="beg_0" slope="0.00"/>
    </timestep>
    <timestep time="30.00">
        <vehicle id="bike" x="164.87" y="-2.93" angle="90.00" type="bike" speed="5.25" pos="164.87" lane="beg_0" slope="0.00"/>
        <vehicle id="car" x="363.83" y="-0.95" angle="90.00" type="car" speed="13.09" pos="363.83" lane="beg_0" slope="0.00"/>
        <vehicle id="car2" x="318.34" y="-2.35" angle="90.00" type="car2" speed="13.38" pos="318.34" lane="beg_0" slope="0.00"/>
    </timestep>
    <timestep time="31.00">
        <vehicle id="bike" x="170.18" y="-2.93" angle="90.00" type="bike" speed="5.31" pos="170.18" lane="beg_0" slope="0.00"/>
        <vehicle id="car" x="376.65" y="-0.95" angle="90.00" type="car" speed="12.82" pos="376.65" lane="beg_0" slope="0.00"/>
        <vehicle id="car2" x="331.47" y="-2.35" angle="90.00" type="car2" speed="13.13" pos="331.47" lane="beg_0" slope="0.00"/>
    </timestep>
    <timestep time="32.00">
        <vehicle id="bike" x="175.72" y="-2.93" angle="90.00" type="bike" speed="5.54" pos="175.72" lane="beg_0" slope="0.00"/>
        <vehicle id="car" x="390.07" y="-0.95" angle="90.00" type="car" speed="13.42" pos="390.07" lane="beg_0" slope="0.00"/>
        <vehicle id="car2" x="344.09" y="-2.35" angle="90.00" type="car2" speed="12.62" pos="344.09" lane="beg_0" slope="0.00"/>
    </timestep>
    <timestep time="33.00">
        <vehicle id="bike" x="180.75" y="-2.93" angle="90.00" type="bike" speed="5.03" pos="180.75" lane="beg_0" slope="0.00"/>
        <vehicle id="car" x="403.56" y="-1.95" angle="94.24" type="car" speed="13.50" pos="403.56" lane="beg_0" slope="0.00"/>
        <vehicle id="car2" x="357.84" y="-2.35" angle="90.00" type="car2" speed="13.75" pos="357.84" lane="beg_0" slope="0.00"/>
    </timestep>
    <timestep time="34.00">
        <vehicle id="bike" x="186.01" y="-2.93" angle="90.00" type="bike" speed="5.26" pos="186.01" lane="beg_0" slope="0.00"/>
        <vehicle id="car" x="416.64" y="-2.35" angle="91.75" type="car" speed="13.08" pos="416.64" lane="beg_0" slope="0.00"/>
        <vehicle id="car2" x="370.53" y="-2.35" angle="90.00" type="car2" speed="12.69" pos="370.53" lane="beg_0" slope="0.00"/>
    </timestep>
    <timestep time="35.00">
        <vehicle id="bike" x="191.29" y="-2.93" angle="90.00" type="bike" speed="5.28" pos="191.29" lane="beg_0" slope="0.00"/>
        <vehicle id="car" x="429.98" y="-2.35" angle="90.00" type="car" speed="13.34" pos="429.98" lane="beg_0" slope="0.00"/>
        <vehicle id="car2" x="383.49" y="-2.35" angle="90.00" type="car2" speed="12.97" pos="383.49" lane="beg_0" slope="0.00"/>
    </timestep>
    <timestep time="36.00">
        <vehicle id="bike" x="196.26" y="-2.93" angle="90.00" type="bike" speed="4.97" pos="196.26" lane="beg_0" slope="0.00"/>
        <vehicle id="car" x="442.73" y="-2.35" angle="90.00" type="car" speed="12.75" pos="442.73" lane="beg_0" slope="0.00"/>
        <vehicle id="car2" x="396.64" y="-2.35" angle="90.00" type="car2" speed="13.14" pos="396.64" lane="beg_0" slope="0.00"/>
    </timestep>
    <timestep time="37.00">
        <vehicle id="bike" x="201.61" y="-2.93" angle="90.00" type="bike" speed="5.35" pos="201.61" lane="beg_0" slope="0.00"/>
        <vehicle id="car" x="456.24" y="-2.35" angle="90.00" type="car" speed="13.50" pos="456.24" lane="beg_0" slope="0.00"/>
        <vehicle id="car2" x="409.99" y="-2.35" angle="90.00" type="car2" speed="13.36" pos="409.99" lane="beg_0" slope="0.00"/>
    </timestep>
    <timestep time="38.00">
        <vehicle id="bike" x="206.89" y="-2.93" angle="90.00" type="bike" speed="5.28" pos="206.89" lane="beg_0" slope="0.00"/>
        <vehicle id="car" x="469.22" y="-2.35" angle="90.00" type="car" speed="12.98" pos="469.22" lane="beg_0" slope="0.00"/>
        <vehicle id="car2" x="423.75" y="-2.35" angle="90.00" type="car2" speed="13.76" pos="423.75" lane="beg_0" slope="0.00"/>
    </timestep>
    <timestep time="39.00">
        <vehicle id="bike" x="212.27" y="-2.93" angle="90.00" type="bike" speed="5.39" pos="212.27" lane="beg_0" slope="0.00"/>
        <vehicle id="car" x="482.25" y="-2.35" angle="90.00" type="car" speed="13.03" pos="482.25" lane="beg_0" slope="0.00"/>
        <vehicle id="car2" x="436.63" y="-2.35" angle="90.00" type="car2" speed="12.87" pos="436.63" lane="beg_0" slope="0.00"/>
    </timestep>
    <timestep time="40.00">
        <vehicle id="bike" x="217.40" y="-2.93" angle="90.00" type="bike" speed="5.13" pos="217.40" lane="beg_0" slope="0.00"/>
        <vehicle id="car" x="495.21" y="-2.35" angle="90.00" type="car" speed="12.96" pos="495.21" lane="beg_0" slope="0.00"/>
        <vehicle id="car2" x="450.35" y="-2.35" angle="90.00" type="car2" speed="13.73" pos="450.35" lane="beg_0" slope="0.00"/>
    </timestep>
    <timestep time="41.00">
        <vehicle id="bike" x="222.73" y="-2.93" angle="90.00" type="bike" speed="5.33" pos="222.73" lane="beg_0" slope="0.00"/>
        <vehicle id="car2" x="463.10" y="-2.35" angle="90.00" type="car2" speed="12.74" pos="463.10" lane="beg_0" slope="0.00"/>
    </timestep>
    <timestep time="42.00">
        <vehicle id="bike" x="228.26" y="-2.93" angle="90.00" type="bike" speed="5.53" pos="228.26" lane="beg_0" slope="0.00"/>
        <vehicle id="car2" x="476.36" y="-2.35" angle="90.00" type="car2" speed="13.27" pos="476.36" lane="beg_0" slope="0.00"/>
    </timestep>
    <timestep time="43.00">
        <vehicle id="bike" x="233.41" y="-2.93" angle="90.00" type="bike" speed="5.15" pos="233.41" lane="beg_0" slope="0.00"/>
        <vehicle id="car2" x="489.75" y="-2.35" angle="90.00" type="car2" speed="13.38" pos="489.75" lane="beg_0" slope="0.00"/>
    </timestep>
    <timestep time="44.00">
        <vehicle id="bike" x="238.46" y="-2.93" angle="90.00" type="bike" speed="5.05" pos="238.46" lane="beg_0" slope="0.00"/>
    </timestep>
    <timestep time="45.00">
        <vehicle id="bike" x="243.93" y="-2.93" angle="90.00" type="bike" speed="5.46" pos="243.93" lane="beg_0" slope="0.00"/>
    </timestep>
    <timestep time="46.00">
        <vehicle id="bike" x="248.94" y="-2.93" angle="90.00" type="bike" speed="5.01" pos="248.94" lane="beg_0" slope="0.00"/>
    </timestep>
    <timestep time="47.00">
        <vehicle id="bike" x="254.29" y="-2.93" angle="90.00" type="bike" speed="5.35" pos="254.29" lane="beg_0" slope="0.00"/>
    </timestep>
    <timestep time="48.00">
        <vehicle id="bike" x="259.45" y="-2.93" angle="90.00" type="bike" speed="5.16" pos="259.45" lane="beg_0" slope="0.00"/>
    </timestep>
    <timestep time="49.00">
        <vehicle id="bike" x="264.74" y="-2.93" angle="90.00" type="bike" speed="5.30" pos="264.74" lane="beg_0" slope="0.00"/>
    </timestep>
    <timestep time="50.00">
        <vehicle id="bike" x="269.94" y="-2.93" angle="90.00" type="bike" speed="5.20" pos="269.94" lane="beg_0" slope="0.00"/>
    </timestep>
    <timestep time="51.00">
        <vehicle id="bike" x="275.33" y="-2.93" angle="90.00" type="bike" speed="5.39" pos="275.33" lane="beg_0" slope="0.00"/>
    </timestep>
    <timestep time="52.00">
        <vehicle id="bike" x="280.66" y="-2.93" angle="90.00" type="bike" speed="5.33" pos="280.66" lane="beg_0" slope="0.00"/>
    </timestep>
    <timestep time="53.00">
        <vehicle id="bike" x="285.81" y="-2.93" angle="90.00" type="bike" speed="5.15" pos="285.81" lane="beg_0" slope="0.00"/>
    </timestep>
    <timestep time="54.00">
        <vehicle id="bike" x="291.01" y="-2.93" angle="90.00" type="bike" speed="5.20" pos="291.01" lane="beg_0" slope="0.00"/>
    </timestep>
    <timestep time="55.00">
        <vehicle id="bike" x="296.22" y="-2.93" angle="90.00" type="bike" speed="5.21" pos="296.22" lane="beg_0" slope="0.00"/>
    </timestep>
    <timestep time="56.00">
        <vehicle id="bike" x="301.71" y="-2.93" angle="90.00" type="bike" speed="5.49" pos="301.71" lane="beg_0" slope="0.00"/>
    </timestep>
    <timestep time="57.00">
        <vehicle id="bike" x="306.76" y="-2.93" angle="90.00" type="bike" speed="5.04" pos="306.76" lane="beg_0" slope="0.00"/>
    </timestep>
    <timestep time="58.00">
        <vehicle id="bike" x="311.93" y="-2.93" angle="90.00" type="bike" speed="5.17" pos="311.93" lane="beg_0" slope="0.00"/>
    </timestep>
    <timestep time="59.00">
        <vehicle id="bike" x="316.99" y="-2.93" angle="90.00" type="bike" speed="5.06" pos="316.99" lane="beg_0" slope="0.00"/>
    </timestep>
    <timestep time="60.00">
        <vehicle id="bike" x="321.98" y="-2.93" angle="90.00" type="bike" speed="4.99" pos="321.98" lane="beg_0" slope="0.00"/>
    </timestep>
    <timestep time="61.00">
        <vehicle id="bike" x="327.20" y="-2.93" angle="90.00" type="bike" speed="5.23" pos="327.20" lane="beg_0" slope="0.00"/>
    </timestep>
    <timestep time="62.00">
        <vehicle id="bike" x="332.75" y="-2.93" angle="90.00" type="bike" speed="5.55" pos="332.75" lane="beg_0" slope="0.00"/>
    </timestep>
    <timestep time="63.00">
        <vehicle id="bike" x="337.72" y="-2.93" angle="90.00" type="bike" speed="4.97" pos="337.72" lane="beg_0" slope="0.00"/>
    </timestep>
    <timestep time="64.00">
        <vehicle id="bike" x="342.74" y="-2.93" angle="90.00" type="bike" speed="5.02" pos="342.74" lane="beg_0" slope="0.00"/>
    </timestep>
    <timestep time="65.00">
        <vehicle id="bike" x="348.01" y="-2.93" angle="90.00" type="bike" speed="5.27" pos="348.01" lane="beg_0" slope="0.00"/>
    </timestep>
    <timestep time="66.00">
        <vehicle id="bike" x="353.02" y="-2.93" angle="90.00" type="bike" speed="5.01" pos="353.02" lane="beg_0" slope="0.00"/>
    </timestep>
    <timestep time="67.00">
        <vehicle id="bike" x="358.48" y="-2.93" angle="90.00" type="bike" speed="5.46" pos="358.48" lane="beg_0" slope="0.00"/>
    </timestep>
    <timestep time="68.00">
        <vehicle id="bike" x="363.82" y="-2.93" angle="90.00" type="bike" speed="5.35" pos="363.82" lane="beg_0" slope="0.00"/>
    </timestep>
    <timestep time="69.00">
        <vehicle id="bike" x="368.90" y="-2.93" angle="90.00" type="bike" speed="5.08" pos="368.90" lane="beg_0" slope="0.00"/>
    </timestep>
    <timestep time="70.00">
        <vehicle id="bike" x="374.17" y="-2.93" angle="90.00" type="bike" speed="5.27" pos="374.17" lane="beg_0" slope="0.00"/>
    </timestep>
    <timestep time="71.00">
        <vehicle id="bike" x="379.53" y="-2.93" angle="90.00" type="bike" speed="5.35" pos="379.53" lane="beg_0" slope="0.00"/>
    </timestep>
    <timestep time="72.00">
        <vehicle id="bike" x="385.08" y="-2.93" angle="90.00" type="bike" speed="5.56" pos="385.08" lane="beg_0" slope="0.00"/>
    </timestep>
    <timestep time="73.00">
        <vehicle id="bike" x="390.24" y="-2.93" angle="90.00" type="bike" speed="5.16" pos="390.24" lane="beg_0" slope="0.00"/>
    </timestep>
    <timestep time="74.00">
        <vehicle id="bike" x="395.25" y="-2.93" angle="90.00" type="bike" speed="5.00" pos="395.25" lane="beg_0" slope="0.00"/>
    </timestep>
    <timestep time="75.00">
        <vehicle id="bike" x="400.79" y="-2.93" angle="90.00" type="bike" speed="5.55" pos="400.79" lane="beg_0" slope="0.00"/>
    </timestep>
    <timestep time="76.00">
        <vehicle id="bike" x="406.06" y="-2.93" angle="90.00" type="bike" speed="5.26" pos="406.06" lane="beg_0" slope="0.00"/>
    </timestep>
    <timestep time="77.00">
        <vehicle id="bike" x="411.07" y="-2.93" angle="90.00" type="bike" speed="5.01" pos="411.07" lane="beg_0" slope="0.00"/>
    </timestep>
    <timestep time="78.00">
        <vehicle id="bike" x="416.38" y="-2.93" angle="90.00" type="bike" speed="5.31" pos="416.38" lane="beg_0" slope="0.00"/>
    </timestep>
    <timestep time="79.00">
        <vehicle id="bike" x="421.86" y="-2.93" angle="90.00" type="bike" speed="5.49" pos="421.86" lane="beg_0" slope="0.00"/>
    </timestep>
    <timestep time="80.00">
        <vehicle id="bike" x="426.91" y="-2.93" angle="90.00" type="bike" speed="5.04" pos="426.91" lane="beg_0" slope="0.00"/>
    </timestep>
    <timestep time="81.00">
        <vehicle id="bike" x="431.97" y="-2.93" angle="90.00" type="bike" speed="5.06" pos="431.97" lane="beg_0" slope="0.00"/>
    </timestep>
    <timestep time="82.00">
        <vehicle id="bike" x="437.29" y="-2.93" angle="90.00" type="bike" speed="5.32" pos="437.29" lane="beg_0" slope="0.00"/>
    </timestep>
    <timestep time="83.00">
        <vehicle id="bike" x="442.25" y="-2.93" angle="90.00" type="bike" speed="4.96" pos="442.25" lane="beg_0" slope="0.00"/>
    </timestep>
    <timestep time="84.00">
        <vehicle id="bike" x="447.51" y="-2.93" angle="90.00" type="bike" speed="5.26" pos="447.51" lane="beg_0" slope="0.00"/>
    </timestep>
    <timestep time="85.00">
        <vehicle id="bike" x="452.51" y="-2.93" angle="90.00" type="bike" speed="4.99" pos="452.51" lane="beg_0" slope="0.00"/>
    </timestep>
    <timestep time="86.00">
        <vehicle id="bike" x="457.59" y="-2.93" angle="90.00" type="bike" speed="5.09" pos="457.59" lane="beg_0" slope="0.00"/>
    </timestep>
    <timestep time="87.00">
        <vehicle id="bike" x="462.87" y="-2.93" angle="90.00" type="bike" speed="5.28" pos="462.87" lane="beg_0" slope="0.00"/>
    </timestep>
    <timestep time="88.00">
        <vehicle id="bike" x="467.92" y="-2.93" angle="90.00" type="bike" speed="5.05" pos="467.92" lane="beg_0" slope="0.00"/>
    </timestep>
    <timestep time="89.00">
        <vehicle id="bike" x="473.27" y="-2.93" angle="90.00" type="bike" speed="5.36" pos="473.27" lane="beg_0" slope="0.00"/>
    </timestep>
    <timestep time="90.00">
        <vehicle id="bike" x="478.71" y="-2.93" angle="90.00" type="bike" speed="5.43" pos="478.71" lane="beg_0" slope="0.00"/>
    </timestep>
    <timestep time="91.00">
        <vehicle id="bike" x="484.17" y="-2.93" angle="90.00" type="bike" speed="5.46" pos="484.17" lane="beg_0" slope="0.00"/>
    </timestep>
    <timestep time="92.00">
        <vehicle id="bike" x="489.46" y="-2.93" angle="90.00" type="bike" speed="5.29" pos="489.46" lane="beg_0" slope="0.00"/>
    </timestep>
    <timestep time="93.00">
        <vehicle id="bike" x="494.82" y="-2.93" angle="90.00" type="bike" speed="5.36" pos="494.82" lane="beg_0" slope="0.00"/>
    </timestep>
    <timestep time="94.00"/>
</fcd-export>
