<?xml version="1.0" encoding="UTF-8"?>

<!-- generated on Wed Aug 20 08:07:30 2014 by SUMO Version dev-SVN-r16884
<?xml version="1.0" encoding="UTF-8"?>

<configuration xmlns:xsi="http://www.w3.org/2001/XMLSchema-instance" xsi:noNamespaceSchemaLocation="http://sumo.dlr.de/xsd/sumoConfiguration.xsd">

    <input>
        <net-file value="net.net.xml"/>
        <route-files value="input_routes.rou.xml"/>
        <additional-files value="input_additional.add.xml"/>
    </input>

    <time>
        <begin value="0"/>
        <end value="10000"/>
    </time>

    <report>
        <xml-validation value="never"/>
        <no-duration-log value="true"/>
        <no-step-log value="true"/>
    </report>

</configuration>
-->

<meandata xmlns:xsi="http://www.w3.org/2001/XMLSchema-instance" xsi:noNamespaceSchemaLocation="http://sumo.dlr.de/xsd/meandata_file.xsd">
    <interval begin="0.00" end="60.00" id="dump_60">
        <edge id="1/1to2/1" sampledSeconds="614.82" traveltime="60.10" density="10.46" occupancy="5.23" waitingTime="0.00" speed="16.30" departed="21" arrived="0" entered="0" left="2" laneChangedFrom="0" laneChangedTo="0"/>
        <edge id="2/1to3/1" sampledSeconds="3.34" traveltime="50.97" density="0.06" occupancy="0.03" waitingTime="0.00" speed="19.23" departed="0" arrived="0" entered="2" left="0" laneChangedFrom="0" laneChangedTo="0"/>
    </interval>
    <interval begin="60.00" end="120.00" id="dump_60">
        <edge id="1/1to2/1" sampledSeconds="1134.33" traveltime="56.08" density="19.29" occupancy="9.65" waitingTime="0.00" speed="17.47" departed="20" arrived="0" entered="0" left="20" laneChangedFrom="0" laneChangedTo="0"/>
        <edge id="2/1to3/1" sampledSeconds="671.84" traveltime="51.64" density="11.43" occupancy="5.71" waitingTime="0.00" speed="18.98" departed="0" arrived="0" entered="20" left="4" laneChangedFrom="0" laneChangedTo="0"/>
        <edge id="3/1to4/1" sampledSeconds="27.36" traveltime="51.77" density="0.47" occupancy="0.23" waitingTime="0.00" speed="18.93" departed="0" arrived="0" entered="4" left="0" laneChangedFrom="0" laneChangedTo="0"/>
    </interval>
    <interval begin="120.00" end="180.00" id="dump_60">
        <edge id="1/1to2/1" sampledSeconds="1127.18" traveltime="56.18" density="19.17" occupancy="9.59" waitingTime="1.00" speed="17.44" departed="20" arrived="0" entered="0" left="20" laneChangedFrom="0" laneChangedTo="0"/>
        <edge id="2/1to3/1" sampledSeconds="1050.00" traveltime="51.70" density="17.86" occupancy="8.93" waitingTime="0.00" speed="18.95" departed="0" arrived="0" entered="20" left="20" laneChangedFrom="0" laneChangedTo="0"/>
        <edge id="3/1to4/1" sampledSeconds="792.16" traveltime="51.73" density="13.47" occupancy="6.74" waitingTime="0.00" speed="18.94" departed="0" arrived="0" entered="20" left="7" laneChangedFrom="0" laneChangedTo="0"/>
        <edge id="4/1to5/1" sampledSeconds="72.54" traveltime="51.61" density="1.23" occupancy="0.62" waitingTime="0.00" speed="18.99" departed="0" arrived="0" entered="7" left="0" laneChangedFrom="0" laneChangedTo="0"/>
    </interval>
    <interval begin="180.00" end="240.00" id="dump_60">
        <edge id="1/1to2/1" sampledSeconds="1137.92" traveltime="56.23" density="19.35" occupancy="9.68" waitingTime="2.00" speed="17.43" departed="20" arrived="0" entered="0" left="20" laneChangedFrom="0" laneChangedTo="0"/>
        <edge id="2/1to3/1" sampledSeconds="1044.28" traveltime="51.75" density="17.76" occupancy="8.88" waitingTime="0.00" speed="18.94" departed="0" arrived="0" entered="20" left="21" laneChangedFrom="0" laneChangedTo="0"/>
        <edge id="3/1to4/1" sampledSeconds="1047.53" traveltime="51.76" density="17.82" occupancy="8.91" waitingTime="0.00" speed="18.93" departed="0" arrived="0" entered="21" left="20" laneChangedFrom="0" laneChangedTo="0"/>
        <edge id="4/1to5/1" sampledSeconds="890.72" traveltime="51.74" density="15.15" occupancy="7.57" waitingTime="0.00" speed="18.94" departed="0" arrived="0" entered="20" left="10" laneChangedFrom="0" laneChangedTo="0"/>
        <edge id="5/1to6/1" sampledSeconds="139.92" traveltime="51.60" density="2.38" occupancy="1.19" waitingTime="0.00" speed="18.99" departed="0" arrived="0" entered="10" left="0" laneChangedFrom="0" laneChangedTo="0"/>
    </interval>
    <interval begin="240.00" end="300.00" id="dump_60">
        <edge id="1/1to2/1" sampledSeconds="1126.30" traveltime="56.27" density="19.16" occupancy="9.58" waitingTime="1.00" speed="17.42" departed="20" arrived="0" entered="0" left="20" laneChangedFrom="0" laneChangedTo="0"/>
        <edge id="2/1to3/1" sampledSeconds="1049.61" traveltime="51.68" density="17.85" occupancy="8.93" waitingTime="0.00" speed="18.96" departed="0" arrived="0" entered="20" left="20" laneChangedFrom="0" laneChangedTo="0"/>
        <edge id="3/1to4/1" sampledSeconds="1047.10" traveltime="51.70" density="17.81" occupancy="8.90" waitingTime="0.00" speed="18.96" departed="0" arrived="0" entered="20" left="20" laneChangedFrom="0" laneChangedTo="0"/>
        <edge id="4/1to5/1" sampledSeconds="1042.53" traveltime="51.67" density="17.73" occupancy="8.87" waitingTime="0.00" speed="18.97" departed="0" arrived="0" entered="20" left="20" laneChangedFrom="0" laneChangedTo="0"/>
        <edge id="5/1to6/1" sampledSeconds="968.20" traveltime="51.74" density="16.47" occupancy="8.23" waitingTime="0.00" speed="18.94" departed="0" arrived="0" entered="20" left="13" laneChangedFrom="0" laneChangedTo="0"/>
        <edge id="6/1to7/1" sampledSeconds="228.87" traveltime="51.83" density="3.89" occupancy="1.95" waitingTime="0.00" speed="18.91" departed="0" arrived="0" entered="13" left="0" laneChangedFrom="0" laneChangedTo="0"/>
    </interval>
    <interval begin="300.00" end="360.00" id="dump_60">
        <edge id="1/1to2/1" sampledSeconds="1143.33" traveltime="56.12" density="19.45" occupancy="9.72" waitingTime="0.00" speed="17.46" departed="20" arrived="0" entered="0" left="21" laneChangedFrom="0" laneChangedTo="0"/>
        <edge id="2/1to3/1" sampledSeconds="1042.48" traveltime="51.71" density="17.73" occupancy="8.87" waitingTime="0.00" speed="18.95" departed="0" arrived="0" entered="21" left="20" laneChangedFrom="0" laneChangedTo="0"/>
        <edge id="3/1to4/1" sampledSeconds="1046.80" traveltime="51.69" density="17.80" occupancy="8.90" waitingTime="0.00" speed="18.96" departed="0" arrived="0" entered="20" left="21" laneChangedFrom="0" laneChangedTo="0"/>
        <edge id="4/1to5/1" sampledSeconds="1049.72" traveltime="51.70" density="17.85" occupancy="8.93" waitingTime="0.00" speed="18.96" departed="0" arrived="0" entered="21" left="20" laneChangedFrom="0" laneChangedTo="0"/>
        <edge id="5/1to6/1" sampledSeconds="1040.76" traveltime="51.70" density="17.70" occupancy="8.85" waitingTime="0.00" speed="18.95" departed="0" arrived="0" entered="20" left="20" laneChangedFrom="0" laneChangedTo="0"/>
        <edge id="6/1to7/1" sampledSeconds="1019.81" traveltime="51.75" density="17.34" occupancy="8.67" waitingTime="0.00" speed="18.94" departed="0" arrived="0" entered="20" left="15" laneChangedFrom="0" laneChangedTo="0"/>
        <edge id="7/1to8/1" sampledSeconds="342.30" traveltime="51.70" density="5.82" occupancy="2.91" waitingTime="0.00" speed="18.96" departed="0" arrived="0" entered="15" left="0" laneChangedFrom="0" laneChangedTo="0"/>
    </interval>
    <interval begin="360.00" end="420.00" id="dump_60">
        <edge id="1/1to2/1" sampledSeconds="1120.62" traveltime="56.26" density="19.06" occupancy="9.53" waitingTime="0.00" speed="17.42" departed="20" arrived="0" entered="0" left="20" laneChangedFrom="0" laneChangedTo="0"/>
        <edge id="2/1to3/1" sampledSeconds="1056.39" traveltime="51.74" density="17.97" occupancy="8.98" waitingTime="0.00" speed="18.94" departed="0" arrived="0" entered="20" left="20" laneChangedFrom="0" laneChangedTo="0"/>
        <edge id="3/1to4/1" sampledSeconds="1046.60" traveltime="51.74" density="17.80" occupancy="8.90" waitingTime="0.00" speed="18.94" departed="0" arrived="0" entered="20" left="20" laneChangedFrom="0" laneChangedTo="0"/>
        <edge id="4/1to5/1" sampledSeconds="1044.07" traveltime="51.66" density="17.76" occupancy="8.88" waitingTime="0.00" speed="18.97" departed="0" arrived="0" entered="20" left="20" laneChangedFrom="0" laneChangedTo="0"/>
        <edge id="5/1to6/1" sampledSeconds="1051.43" traveltime="51.72" density="17.88" occupancy="8.94" waitingTime="0.00" speed="18.95" departed="0" arrived="0" entered="20" left="20" laneChangedFrom="0" laneChangedTo="0"/>
        <edge id="6/1to7/1" sampledSeconds="1042.47" traveltime="51.73" density="17.73" occupancy="8.87" waitingTime="0.00" speed="18.95" departed="0" arrived="0" entered="20" left="21" laneChangedFrom="0" laneChangedTo="0"/>
        <edge id="7/1to8/1" sampledSeconds="1046.29" traveltime="51.68" density="17.80" occupancy="8.90" waitingTime="0.00" speed="18.96" departed="0" arrived="0" entered="21" left="18" laneChangedFrom="0" laneChangedTo="0"/>
        <edge id="8/1to9/1" sampledSeconds="477.56" traveltime="51.71" density="8.12" occupancy="4.06" waitingTime="0.00" speed="18.95" departed="0" arrived="0" entered="18" left="1" laneChangedFrom="0" laneChangedTo="0"/>
        <edge id="9/1to10/1" sampledSeconds="0.03" traveltime="53.48" density="0.00" occupancy="0.00" waitingTime="0.00" speed="18.32" departed="0" arrived="0" entered="1" left="0" laneChangedFrom="0" laneChangedTo="0"/>
    </interval>
    <interval begin="420.00" end="480.00" id="dump_60">
        <edge id="1/1to2/1" sampledSeconds="1123.94" traveltime="56.13" density="19.12" occupancy="9.56" waitingTime="0.00" speed="17.46" departed="20" arrived="0" entered="0" left="20" laneChangedFrom="0" laneChangedTo="0"/>
        <edge id="10/1to1/1" sampledSeconds="14.53" traveltime="51.99" density="0.25" occupancy="0.12" waitingTime="0.00" speed="18.85" departed="0" arrived="0" entered="3" left="0" laneChangedFrom="0" laneChangedTo="0"/>
        <edge id="2/1to3/1" sampledSeconds="1035.57" traveltime="51.71" density="17.61" occupancy="8.81" waitingTime="0.00" speed="18.95" departed="0" arrived="0" entered="20" left="20" laneChangedFrom="0" laneChangedTo="0"/>
        <edge id="3/1to4/1" sampledSeconds="1052.65" traveltime="51.70" density="17.90" occupancy="8.95" waitingTime="0.00" speed="18.96" departed="0" arrived="0" entered="20" left="20" laneChangedFrom="0" laneChangedTo="0"/>
        <edge id="4/1to5/1" sampledSeconds="1048.52" traveltime="51.70" density="17.83" occupancy="8.92" waitingTime="0.00" speed="18.95" departed="0" arrived="0" entered="20" left="20" laneChangedFrom="0" laneChangedTo="0"/>
        <edge id="5/1to6/1" sampledSeconds="1042.19" traveltime="51.69" density="17.73" occupancy="8.86" waitingTime="0.00" speed="18.96" departed="0" arrived="0" entered="20" left="20" laneChangedFrom="0" laneChangedTo="0"/>
        <edge id="6/1to7/1" sampledSeconds="1053.91" traveltime="51.68" density="17.92" occupancy="8.96" waitingTime="0.00" speed="18.96" departed="0" arrived="0" entered="20" left="19" laneChangedFrom="0" laneChangedTo="0"/>
        <edge id="7/1to8/1" sampledSeconds="1039.17" traveltime="51.65" density="17.67" occupancy="8.84" waitingTime="0.00" speed="18.97" departed="0" arrived="0" entered="19" left="20" laneChangedFrom="0" laneChangedTo="0"/>
        <edge id="8/1to9/1" sampledSeconds="1054.13" traveltime="51.71" density="17.93" occupancy="8.96" waitingTime="0.00" speed="18.95" departed="0" arrived="0" entered="20" left="20" laneChangedFrom="0" laneChangedTo="0"/>
        <edge id="9/1to10/1" sampledSeconds="622.32" traveltime="51.67" density="10.58" occupancy="5.29" waitingTime="0.00" speed="18.97" departed="0" arrived="0" entered="20" left="3" laneChangedFrom="0" laneChangedTo="0"/>
    </interval>
    <interval begin="480.00" end="540.00" id="dump_60">
        <edge id="1/1to2/1" sampledSeconds="1106.45" traveltime="55.17" density="18.82" occupancy="9.41" waitingTime="0.00" speed="17.76" departed="14" arrived="0" entered="6" left="19" laneChangedFrom="0" laneChangedTo="0"/>
        <edge id="10/1to1/1" sampledSeconds="751.30" traveltime="51.80" density="12.78" occupancy="6.39" waitingTime="0.00" speed="18.92" departed="0" arrived="0" entered="20" left="6" laneChangedFrom="0" laneChangedTo="0"/>
        <edge id="2/1to3/1" sampledSeconds="1040.82" traveltime="51.72" density="17.70" occupancy="8.85" waitingTime="0.00" speed="18.95" departed="0" arrived="0" entered="19" left="20" laneChangedFrom="0" laneChangedTo="0"/>
        <edge id="3/1to4/1" sampledSeconds="1037.18" traveltime="51.74" density="17.64" occupancy="8.82" waitingTime="0.00" speed="18.94" departed="0" arrived="0" entered="20" left="20" laneChangedFrom="0" laneChangedTo="0"/>
        <edge id="4/1to5/1" sampledSeconds="1049.09" traveltime="51.64" density="17.84" occupancy="8.92" waitingTime="0.00" speed="18.97" departed="0" arrived="0" entered="20" left="21" laneChangedFrom="0" laneChangedTo="0"/>
        <edge id="5/1to6/1" sampledSeconds="1050.53" traveltime="51.65" density="17.87" occupancy="8.93" waitingTime="0.00" speed="18.97" departed="0" arrived="0" entered="21" left="20" laneChangedFrom="0" laneChangedTo="0"/>
        <edge id="6/1to7/1" sampledSeconds="1041.64" traveltime="51.77" density="17.72" occupancy="8.86" waitingTime="0.00" speed="18.93" departed="0" arrived="0" entered="20" left="21" laneChangedFrom="0" laneChangedTo="0"/>
        <edge id="7/1to8/1" sampledSeconds="1055.30" traveltime="51.73" density="17.95" occupancy="8.97" waitingTime="0.00" speed="18.94" departed="0" arrived="0" entered="21" left="21" laneChangedFrom="0" laneChangedTo="0"/>
        <edge id="8/1to9/1" sampledSeconds="1040.69" traveltime="51.70" density="17.70" occupancy="8.85" waitingTime="0.00" speed="18.95" departed="0" arrived="0" entered="21" left="20" laneChangedFrom="0" laneChangedTo="0"/>
        <edge id="9/1to10/1" sampledSeconds="1050.69" traveltime="51.78" density="17.87" occupancy="8.93" waitingTime="0.00" speed="18.93" departed="0" arrived="0" entered="20" left="20" laneChangedFrom="0" laneChangedTo="0"/>
    </interval>
    <interval begin="540.00" end="600.00" id="dump_60">
        <edge id="1/1to2/1" sampledSeconds="1172.06" traveltime="52.35" density="19.93" occupancy="9.97" waitingTime="0.00" speed="18.72" departed="2" arrived="0" entered="20" left="22" laneChangedFrom="0" laneChangedTo="0"/>
        <edge id="10/1to1/1" sampledSeconds="1052.43" traveltime="51.90" density="17.90" occupancy="8.95" waitingTime="0.00" speed="18.88" departed="0" arrived="0" entered="20" left="20" laneChangedFrom="0" laneChangedTo="0"/>
        <edge id="2/1to3/1" sampledSeconds="1053.97" traveltime="51.74" density="17.93" occupancy="8.96" waitingTime="0.00" speed="18.94" departed="0" arrived="0" entered="22" left="20" laneChangedFrom="0" laneChangedTo="0"/>
        <edge id="3/1to4/1" sampledSeconds="1037.97" traveltime="51.69" density="17.65" occupancy="8.83" waitingTime="0.00" speed="18.96" departed="0" arrived="0" entered="20" left="20" laneChangedFrom="0" laneChangedTo="0"/>
        <edge id="4/1to5/1" sampledSeconds="1034.32" traveltime="51.69" density="17.59" occupancy="8.80" waitingTime="0.00" speed="18.96" departed="0" arrived="0" entered="20" left="20" laneChangedFrom="0" laneChangedTo="0"/>
        <edge id="5/1to6/1" sampledSeconds="1047.25" traveltime="51.71" density="17.81" occupancy="8.91" waitingTime="0.00" speed="18.95" departed="0" arrived="0" entered="20" left="20" laneChangedFrom="0" laneChangedTo="0"/>
        <edge id="6/1to7/1" sampledSeconds="1053.67" traveltime="51.73" density="17.92" occupancy="8.96" waitingTime="0.00" speed="18.94" departed="0" arrived="0" entered="20" left="20" laneChangedFrom="0" laneChangedTo="0"/>
        <edge id="7/1to8/1" sampledSeconds="1040.32" traveltime="51.66" density="17.69" occupancy="8.85" waitingTime="0.00" speed="18.97" departed="0" arrived="0" entered="20" left="19" laneChangedFrom="0" laneChangedTo="0"/>
        <edge id="8/1to9/1" sampledSeconds="1052.15" traveltime="51.66" density="17.89" occupancy="8.95" waitingTime="0.00" speed="18.97" departed="0" arrived="0" entered="19" left="20" laneChangedFrom="0" laneChangedTo="0"/>
        <edge id="9/1to10/1" sampledSeconds="1045.99" traveltime="51.69" density="17.79" occupancy="8.89" waitingTime="0.00" speed="18.96" departed="0" arrived="0" entered="20" left="20" laneChangedFrom="0" laneChangedTo="0"/>
    </interval>
    <interval begin="600.00" end="660.00" id="dump_60">
        <edge id="1/1to2/1" sampledSeconds="1178.68" traveltime="52.29" density="20.05" occupancy="10.02" waitingTime="0.00" speed="18.74" departed="3" arrived="0" entered="20" left="22" laneChangedFrom="0" laneChangedTo="0"/>
        <edge id="10/1to1/1" sampledSeconds="1050.11" traveltime="51.85" density="17.86" occupancy="8.93" waitingTime="0.00" speed="18.90" departed="0" arrived="0" entered="21" left="20" laneChangedFrom="0" laneChangedTo="0"/>
        <edge id="2/1to3/1" sampledSeconds="1169.90" traveltime="51.72" density="19.90" occupancy="9.95" waitingTime="0.00" speed="18.95" departed="0" arrived="0" entered="22" left="22" laneChangedFrom="0" laneChangedTo="0"/>
        <edge id="3/1to4/1" sampledSeconds="1064.81" traveltime="51.74" density="18.11" occupancy="9.06" waitingTime="0.00" speed="18.94" departed="0" arrived="0" entered="22" left="20" laneChangedFrom="0" laneChangedTo="0"/>
        <edge id="4/1to5/1" sampledSeconds="1037.93" traveltime="51.74" density="17.65" occupancy="8.83" waitingTime="0.00" speed="18.94" departed="0" arrived="0" entered="20" left="20" laneChangedFrom="0" laneChangedTo="0"/>
        <edge id="5/1to6/1" sampledSeconds="1034.90" traveltime="51.70" density="17.60" occupancy="8.80" waitingTime="0.00" speed="18.95" departed="0" arrived="0" entered="20" left="20" laneChangedFrom="0" laneChangedTo="0"/>
        <edge id="6/1to7/1" sampledSeconds="1042.40" traveltime="51.71" density="17.73" occupancy="8.86" waitingTime="0.00" speed="18.95" departed="0" arrived="0" entered="20" left="20" laneChangedFrom="0" laneChangedTo="0"/>
        <edge id="7/1to8/1" sampledSeconds="1056.55" traveltime="51.67" density="17.97" occupancy="8.98" waitingTime="0.00" speed="18.96" departed="0" arrived="0" entered="20" left="21" laneChangedFrom="0" laneChangedTo="0"/>
        <edge id="8/1to9/1" sampledSeconds="1041.02" traveltime="51.72" density="17.71" occupancy="8.85" waitingTime="0.00" speed="18.95" departed="0" arrived="0" entered="21" left="20" laneChangedFrom="0" laneChangedTo="0"/>
        <edge id="9/1to10/1" sampledSeconds="1049.26" traveltime="51.76" density="17.85" occupancy="8.92" waitingTime="0.00" speed="18.93" departed="0" arrived="0" entered="20" left="21" laneChangedFrom="0" laneChangedTo="0"/>
    </interval>
    <interval begin="660.00" end="720.00" id="dump_60">
        <edge id="1/1to2/1" sampledSeconds="1143.66" traveltime="52.09" density="19.45" occupancy="9.73" waitingTime="0.00" speed="18.81" departed="0" arrived="0" entered="20" left="23" laneChangedFrom="0" laneChangedTo="0"/>
        <edge id="10/1to1/1" sampledSeconds="1051.86" traveltime="51.83" density="17.89" occupancy="8.94" waitingTime="0.00" speed="18.91" departed="0" arrived="0" entered="20" left="20" laneChangedFrom="0" laneChangedTo="0"/>
        <edge id="2/1to3/1" sampledSeconds="1155.80" traveltime="51.79" density="19.66" occupancy="9.83" waitingTime="0.00" speed="18.92" departed="0" arrived="0" entered="23" left="22" laneChangedFrom="0" laneChangedTo="0"/>
        <edge id="3/1to4/1" sampledSeconds="1173.01" traveltime="51.71" density="19.95" occupancy="9.98" waitingTime="0.00" speed="18.95" departed="0" arrived="0" entered="22" left="22" laneChangedFrom="0" laneChangedTo="0"/>
        <edge id="4/1to5/1" sampledSeconds="1088.78" traveltime="51.77" density="18.52" occupancy="9.26" waitingTime="0.00" speed="18.93" departed="0" arrived="0" entered="22" left="19" laneChangedFrom="0" laneChangedTo="0"/>
        <edge id="5/1to6/1" sampledSeconds="1032.38" traveltime="51.68" density="17.56" occupancy="8.78" waitingTime="0.00" speed="18.96" departed="0" arrived="0" entered="19" left="20" laneChangedFrom="0" laneChangedTo="0"/>
        <edge id="6/1to7/1" sampledSeconds="1038.11" traveltime="51.70" density="17.66" occupancy="8.83" waitingTime="0.00" speed="18.95" departed="0" arrived="0" entered="20" left="20" laneChangedFrom="0" laneChangedTo="0"/>
        <edge id="7/1to8/1" sampledSeconds="1037.31" traveltime="51.71" density="17.64" occupancy="8.82" waitingTime="0.00" speed="18.95" departed="0" arrived="0" entered="20" left="20" laneChangedFrom="0" laneChangedTo="0"/>
        <edge id="8/1to9/1" sampledSeconds="1059.62" traveltime="51.74" density="18.02" occupancy="9.01" waitingTime="0.00" speed="18.94" departed="0" arrived="0" entered="20" left="20" laneChangedFrom="0" laneChangedTo="0"/>
        <edge id="9/1to10/1" sampledSeconds="1041.16" traveltime="51.74" density="17.71" occupancy="8.85" waitingTime="0.00" speed="18.94" departed="0" arrived="0" entered="20" left="20" laneChangedFrom="0" laneChangedTo="0"/>
    </interval>
    <interval begin="720.00" end="780.00" id="dump_60">
        <edge id="1/1to2/1" sampledSeconds="1138.75" traveltime="52.83" density="19.37" occupancy="9.68" waitingTime="0.00" speed="18.55" departed="3" arrived="0" entered="20" left="20" laneChangedFrom="0" laneChangedTo="0"/>
        <edge id="10/1to1/1" sampledSeconds="1048.87" traveltime="52.02" density="17.84" occupancy="8.92" waitingTime="0.00" speed="18.84" departed="0" arrived="0" entered="20" left="21" laneChangedFrom="0" laneChangedTo="0"/>
        <edge id="2/1to3/1" sampledSeconds="1128.51" traveltime="51.72" density="19.19" occupancy="9.60" waitingTime="0.00" speed="18.95" departed="0" arrived="0" entered="20" left="22" laneChangedFrom="0" laneChangedTo="0"/>
        <edge id="3/1to4/1" sampledSeconds="1157.49" traveltime="51.71" density="19.69" occupancy="9.84" waitingTime="0.00" speed="18.95" departed="0" arrived="0" entered="22" left="22" laneChangedFrom="0" laneChangedTo="0"/>
        <edge id="4/1to5/1" sampledSeconds="1169.57" traveltime="51.77" density="19.89" occupancy="9.95" waitingTime="0.00" speed="18.93" departed="0" arrived="0" entered="22" left="23" laneChangedFrom="0" laneChangedTo="0"/>
        <edge id="5/1to6/1" sampledSeconds="1112.76" traveltime="51.75" density="18.93" occupancy="9.46" waitingTime="0.00" speed="18.94" departed="0" arrived="0" entered="23" left="20" laneChangedFrom="0" laneChangedTo="0"/>
        <edge id="6/1to7/1" sampledSeconds="1030.63" traveltime="51.78" density="17.53" occupancy="8.76" waitingTime="0.00" speed="18.93" departed="0" arrived="0" entered="20" left="20" laneChangedFrom="0" laneChangedTo="0"/>
        <edge id="7/1to8/1" sampledSeconds="1037.68" traveltime="51.70" density="17.65" occupancy="8.82" waitingTime="0.00" speed="18.95" departed="0" arrived="0" entered="20" left="19" laneChangedFrom="0" laneChangedTo="0"/>
        <edge id="8/1to9/1" sampledSeconds="1035.05" traveltime="51.73" density="17.60" occupancy="8.80" waitingTime="0.00" speed="18.94" departed="0" arrived="0" entered="19" left="21" laneChangedFrom="0" laneChangedTo="0"/>
        <edge id="9/1to10/1" sampledSeconds="1058.59" traveltime="51.66" density="18.00" occupancy="9.00" waitingTime="0.00" speed="18.97" departed="0" arrived="0" entered="21" left="20" laneChangedFrom="0" laneChangedTo="0"/>
    </interval>
    <interval begin="780.00" end="840.00" id="dump_60">
        <edge id="1/1to2/1" sampledSeconds="1190.79" traveltime="52.28" density="20.25" occupancy="10.13" waitingTime="0.00" speed="18.74" departed="2" arrived="0" entered="21" left="24" laneChangedFrom="0" laneChangedTo="0"/>
        <edge id="10/1to1/1" sampledSeconds="1058.00" traveltime="51.85" density="17.99" occupancy="9.00" waitingTime="0.00" speed="18.90" departed="0" arrived="0" entered="20" left="20" laneChangedFrom="0" laneChangedTo="0"/>
        <edge id="2/1to3/1" sampledSeconds="1130.88" traveltime="51.75" density="19.23" occupancy="9.62" waitingTime="0.00" speed="18.94" departed="0" arrived="0" entered="24" left="22" laneChangedFrom="0" laneChangedTo="0"/>
        <edge id="3/1to4/1" sampledSeconds="1120.28" traveltime="51.74" density="19.05" occupancy="9.53" waitingTime="0.00" speed="18.94" departed="0" arrived="0" entered="22" left="23" laneChangedFrom="0" laneChangedTo="0"/>
        <edge id="4/1to5/1" sampledSeconds="1155.41" traveltime="51.77" density="19.65" occupancy="9.83" waitingTime="0.00" speed="18.93" departed="0" arrived="0" entered="23" left="22" laneChangedFrom="0" laneChangedTo="0"/>
        <edge id="5/1to6/1" sampledSeconds="1166.28" traveltime="51.79" density="19.84" occupancy="9.92" waitingTime="0.00" speed="18.92" departed="0" arrived="0" entered="22" left="23" laneChangedFrom="0" laneChangedTo="0"/>
        <edge id="6/1to7/1" sampledSeconds="1134.66" traveltime="51.69" density="19.30" occupancy="9.65" waitingTime="0.00" speed="18.96" departed="0" arrived="0" entered="23" left="21" laneChangedFrom="0" laneChangedTo="0"/>
        <edge id="7/1to8/1" sampledSeconds="1029.27" traveltime="51.71" density="17.51" occupancy="8.75" waitingTime="0.00" speed="18.95" departed="0" arrived="0" entered="21" left="21" laneChangedFrom="0" laneChangedTo="0"/>
        <edge id="8/1to9/1" sampledSeconds="1040.83" traveltime="51.73" density="17.70" occupancy="8.85" waitingTime="0.00" speed="18.94" departed="0" arrived="0" entered="21" left="20" laneChangedFrom="0" laneChangedTo="0"/>
        <edge id="9/1to10/1" sampledSeconds="1031.00" traveltime="51.66" density="17.54" occupancy="8.77" waitingTime="0.00" speed="18.97" departed="0" arrived="0" entered="19" left="20" laneChangedFrom="0" laneChangedTo="0"/>
    </interval>
    <interval begin="840.00" end="900.00" id="dump_60">
        <edge id="1/1to2/1" sampledSeconds="1145.93" traveltime="52.24" density="19.49" occupancy="9.74" waitingTime="0.00" speed="18.76" departed="1" arrived="0" entered="20" left="22" laneChangedFrom="0" laneChangedTo="0"/>
        <edge id="10/1to1/1" sampledSeconds="1036.09" traveltime="51.87" density="17.62" occupancy="8.81" waitingTime="0.00" speed="18.89" departed="0" arrived="0" entered="20" left="20" laneChangedFrom="0" laneChangedTo="0"/>
        <edge id="2/1to3/1" sampledSeconds="1176.23" traveltime="51.73" density="20.01" occupancy="10.00" waitingTime="0.00" speed="18.94" departed="0" arrived="0" entered="22" left="22" laneChangedFrom="0" laneChangedTo="0"/>
        <edge id="3/1to4/1" sampledSeconds="1137.72" traveltime="51.68" density="19.35" occupancy="9.68" waitingTime="0.00" speed="18.96" departed="0" arrived="0" entered="22" left="21" laneChangedFrom="0" laneChangedTo="0"/>
        <edge id="4/1to5/1" sampledSeconds="1118.29" traveltime="51.78" density="19.02" occupancy="9.51" waitingTime="0.00" speed="18.92" departed="0" arrived="0" entered="21" left="22" laneChangedFrom="0" laneChangedTo="0"/>
        <edge id="5/1to6/1" sampledSeconds="1153.15" traveltime="51.69" density="19.61" occupancy="9.81" waitingTime="0.00" speed="18.96" departed="0" arrived="0" entered="22" left="22" laneChangedFrom="0" laneChangedTo="0"/>
        <edge id="6/1to7/1" sampledSeconds="1160.92" traveltime="51.76" density="19.74" occupancy="9.87" waitingTime="0.00" speed="18.93" departed="0" arrived="0" entered="22" left="22" laneChangedFrom="0" laneChangedTo="0"/>
        <edge id="7/1to8/1" sampledSeconds="1147.19" traveltime="51.70" density="19.51" occupancy="9.76" waitingTime="0.00" speed="18.95" departed="0" arrived="0" entered="21" left="21" laneChangedFrom="0" laneChangedTo="0"/>
        <edge id="8/1to9/1" sampledSeconds="1037.30" traveltime="51.75" density="17.64" occupancy="8.82" waitingTime="0.00" speed="18.94" departed="0" arrived="0" entered="21" left="20" laneChangedFrom="0" laneChangedTo="0"/>
        <edge id="9/1to10/1" sampledSeconds="1040.66" traveltime="51.74" density="17.70" occupancy="8.85" waitingTime="0.00" speed="18.94" departed="0" arrived="0" entered="21" left="21" laneChangedFrom="0" laneChangedTo="0"/>
    </interval>
    <interval begin="900.00" end="960.00" id="dump_60">
        <edge id="1/1to2/1" sampledSeconds="1088.79" traveltime="52.45" density="18.52" occupancy="9.26" waitingTime="0.00" speed="18.68" departed="2" arrived="0" entered="20" left="21" laneChangedFrom="0" laneChangedTo="0"/>
        <edge id="10/1to1/1" sampledSeconds="1042.39" traveltime="51.91" density="17.73" occupancy="8.86" waitingTime="0.00" speed="18.88" departed="0" arrived="0" entered="20" left="20" laneChangedFrom="0" laneChangedTo="0"/>
        <edge id="2/1to3/1" sampledSeconds="1127.76" traveltime="51.73" density="19.18" occupancy="9.59" waitingTime="0.00" speed="18.94" departed="0" arrived="0" entered="21" left="22" laneChangedFrom="0" laneChangedTo="0"/>
        <edge id="3/1to4/1" sampledSeconds="1170.94" traveltime="51.72" density="19.92" occupancy="9.96" waitingTime="0.00" speed="18.95" departed="0" arrived="0" entered="22" left="23" laneChangedFrom="0" laneChangedTo="0"/>
        <edge id="4/1to5/1" sampledSeconds="1153.08" traveltime="51.73" density="19.61" occupancy="9.81" waitingTime="0.00" speed="18.94" departed="0" arrived="0" entered="23" left="21" laneChangedFrom="0" laneChangedTo="0"/>
        <edge id="5/1to6/1" sampledSeconds="1105.42" traveltime="51.68" density="18.80" occupancy="9.40" waitingTime="0.00" speed="18.96" departed="0" arrived="0" entered="21" left="22" laneChangedFrom="0" laneChangedTo="0"/>
        <edge id="6/1to7/1" sampledSeconds="1153.71" traveltime="51.79" density="19.62" occupancy="9.81" waitingTime="0.00" speed="18.92" departed="0" arrived="0" entered="22" left="22" laneChangedFrom="0" laneChangedTo="0"/>
        <edge id="7/1to8/1" sampledSeconds="1165.66" traveltime="51.75" density="19.83" occupancy="9.91" waitingTime="0.00" speed="18.94" departed="0" arrived="0" entered="23" left="22" laneChangedFrom="0" laneChangedTo="0"/>