<?xml version="1.0" encoding="UTF-8"?>

<!-- generated on 2025-10-10T00:41:06.762886+01:00 by Eclipse SUMO sumo v1_24_0+1332-56495c6bf50
This data file and the accompanying materials
are made available under the terms of the Eclipse Public License v2.0
which accompanies this distribution, and is available at
http://www.eclipse.org/legal/epl-v20.html
This file may also be made available under the following Secondary
Licenses when the conditions for such availability set forth in the Eclipse
Public License 2.0 are satisfied: GNU General Public License, version 2
or later which is available at
https://www.gnu.org/licenses/old-licenses/gpl-2.0-standalone.html
SPDX-License-Identifier: EPL-2.0 OR GPL-2.0-or-later
<sumoConfiguration xmlns:xsi="http://www.w3.org/2001/XMLSchema-instance" xsi:noNamespaceSchemaLocation="http://sumo.dlr.de/xsd/sumoConfiguration.xsd">

    <input>
        <net-file value="net2.net.xml"/>
        <route-files value="input_routes.rou.xml"/>
    </input>

    <output>
        <write-license value="true"/>
        <fcd-output value="fcd.xml"/>
        <tripinfo-output value="tripinfos.xml"/>
    </output>

    <processing>
        <default.speeddev value="0"/>
        <pedestrian.model value="nonInteracting"/>
    </processing>

    <report>
        <xml-validation value="never"/>
        <duration-log.disable value="true"/>
        <no-step-log value="true"/>
    </report>

    <fcd_device>
        <device.fcd.probability value="0"/>
    </fcd_device>

    <mesoscopic>
        <mesosim value="true"/>
    </mesoscopic>

</sumoConfiguration>
-->

<fcd-export xmlns:xsi="http://www.w3.org/2001/XMLSchema-instance" xsi:noNamespaceSchemaLocation="http://sumo.dlr.de/xsd/fcd_file.xsd">
    <timestep time="0.00">
        <person id="person0" x="104.95" y="0.00" angle="90.00" type="DEFAULT_PEDTYPE" speed="13.89" pos="0.00" edge="SC" slope="0.00"/>
    </timestep>
    <timestep time="1.00">
        <person id="person0" x="104.95" y="0.00" angle="90.00" type="DEFAULT_PEDTYPE" speed="13.89" pos="0.00" edge="SC" slope="0.00"/>
    </timestep>
    <timestep time="2.00">
        <person id="person0" x="104.95" y="0.00" angle="90.00" type="DEFAULT_PEDTYPE" speed="13.89" pos="0.00" edge="SC" slope="0.00"/>
    </timestep>
    <timestep time="3.00">
        <person id="person0" x="104.95" y="0.00" angle="90.00" type="DEFAULT_PEDTYPE" speed="13.89" pos="0.00" edge="SC" slope="0.00"/>
    </timestep>
    <timestep time="4.00">
        <person id="person0" x="104.95" y="0.00" angle="90.00" type="DEFAULT_PEDTYPE" speed="13.89" pos="0.00" edge="SC" slope="0.00"/>
    </timestep>
    <timestep time="5.00">
        <person id="person0" x="104.95" y="0.00" angle="90.00" type="DEFAULT_PEDTYPE" speed="13.89" pos="0.00" edge="SC" slope="0.00"/>
    </timestep>
    <timestep time="6.00">
        <person id="person0" x="104.95" y="0.00" angle="90.00" type="DEFAULT_PEDTYPE" speed="13.89" pos="0.00" edge="SC" slope="0.00"/>
    </timestep>
    <timestep time="7.00">
        <person id="person0" x="107.95" y="108.05" angle="270.00" type="DEFAULT_PEDTYPE" speed="0.00" pos="0.00" edge="CN" slope="0.00"/>
    </timestep>
    <timestep time="8.00">
        <person id="person0" x="104.95" y="108.05" angle="0.00" type="DEFAULT_PEDTYPE" speed="1.39" pos="0.00" edge="CN" slope="0.00"/>
    </timestep>
    <timestep time="9.00">
        <person id="person0" x="95.05" y="108.05" angle="0.00" type="DEFAULT_PEDTYPE" speed="1.39" pos="91.95" edge="NC" slope="0.00"/>
    </timestep>
    <timestep time="10.00">
        <person id="person0" x="95.05" y="109.40" angle="0.00" type="DEFAULT_PEDTYPE" speed="1.39" pos="90.60" edge="NC" slope="0.00"/>
    </timestep>
    <timestep time="11.00">
        <person id="person0" x="95.05" y="110.75" angle="0.00" type="DEFAULT_PEDTYPE" speed="1.39" pos="89.25" edge="NC" slope="0.00"/>
    </timestep>
    <timestep time="12.00">
        <person id="person0" x="95.05" y="112.09" angle="0.00" type="DEFAULT_PEDTYPE" speed="1.39" pos="87.91" edge="NC" slope="0.00"/>
    </timestep>
    <timestep time="13.00">
        <person id="person0" x="95.05" y="113.44" angle="0.00" type="DEFAULT_PEDTYPE" speed="1.39" pos="86.56" edge="NC" slope="0.00"/>
    </timestep>
    <timestep time="14.00">
        <person id="person0" x="95.05" y="114.79" angle="0.00" type="DEFAULT_PEDTYPE" speed="1.39" pos="85.21" edge="NC" slope="0.00"/>
    </timestep>
    <timestep time="15.00">
        <person id="person0" x="95.05" y="116.14" angle="0.00" type="DEFAULT_PEDTYPE" speed="1.39" pos="83.86" edge="NC" slope="0.00"/>
    </timestep>
    <timestep time="16.00">
        <person id="person0" x="95.05" y="117.49" angle="0.00" type="DEFAULT_PEDTYPE" speed="1.39" pos="82.51" edge="NC" slope="0.00"/>
    </timestep>
    <timestep time="17.00">
        <person id="person0" x="95.05" y="118.84" angle="0.00" type="DEFAULT_PEDTYPE" speed="1.39" pos="81.16" edge="NC" slope="0.00"/>
    </timestep>
    <timestep time="18.00">
        <person id="person0" x="95.05" y="120.18" angle="0.00" type="DEFAULT_PEDTYPE" speed="1.39" pos="79.82" edge="NC" slope="0.00"/>
    </timestep>
    <timestep time="19.00">
        <person id="person0" x="95.05" y="121.53" angle="0.00" type="DEFAULT_PEDTYPE" speed="1.39" pos="78.47" edge="NC" slope="0.00"/>
    </timestep>
    <timestep time="20.00">
        <person id="person0" x="95.05" y="122.88" angle="0.00" type="DEFAULT_PEDTYPE" speed="1.39" pos="77.12" edge="NC" slope="0.00"/>
    </timestep>
    <timestep time="21.00">
        <person id="person0" x="95.05" y="124.23" angle="0.00" type="DEFAULT_PEDTYPE" speed="1.39" pos="75.77" edge="NC" slope="0.00"/>
    </timestep>
    <timestep time="22.00">
        <person id="person0" x="95.05" y="125.58" angle="0.00" type="DEFAULT_PEDTYPE" speed="1.39" pos="74.42" edge="NC" slope="0.00"/>
    </timestep>
    <timestep time="23.00">
        <person id="person0" x="95.05" y="126.92" angle="0.00" type="DEFAULT_PEDTYPE" speed="1.39" pos="73.08" edge="NC" slope="0.00"/>
    </timestep>
    <timestep time="24.00">
        <person id="person0" x="95.05" y="128.27" angle="0.00" type="DEFAULT_PEDTYPE" speed="1.39" pos="71.73" edge="NC" slope="0.00"/>
    </timestep>
    <timestep time="25.00">
        <person id="person0" x="95.05" y="129.62" angle="0.00" type="DEFAULT_PEDTYPE" speed="1.39" pos="70.38" edge="NC" slope="0.00"/>
    </timestep>
    <timestep time="26.00">
        <person id="person0" x="95.05" y="130.97" angle="0.00" type="DEFAULT_PEDTYPE" speed="1.39" pos="69.03" edge="NC" slope="0.00"/>
    </timestep>
    <timestep time="27.00">
        <person id="person0" x="95.05" y="132.32" angle="0.00" type="DEFAULT_PEDTYPE" speed="1.39" pos="67.68" edge="NC" slope="0.00"/>
    </timestep>
    <timestep time="28.00">
        <person id="person0" x="95.05" y="133.67" angle="0.00" type="DEFAULT_PEDTYPE" speed="1.39" pos="66.33" edge="NC" slope="0.00"/>
    </timestep>
    <timestep time="29.00">
        <person id="person0" x="95.05" y="135.01" angle="0.00" type="DEFAULT_PEDTYPE" speed="1.39" pos="64.99" edge="NC" slope="0.00"/>
    </timestep>
    <timestep time="30.00">
        <person id="person0" x="95.05" y="136.36" angle="0.00" type="DEFAULT_PEDTYPE" speed="1.39" pos="63.64" edge="NC" slope="0.00"/>
    </timestep>
    <timestep time="31.00">
        <person id="person0" x="95.05" y="137.71" angle="0.00" type="DEFAULT_PEDTYPE" speed="1.39" pos="62.29" edge="NC" slope="0.00"/>
    </timestep>
    <timestep time="32.00">
        <person id="person0" x="95.05" y="139.06" angle="0.00" type="DEFAULT_PEDTYPE" speed="1.39" pos="60.94" edge="NC" slope="0.00"/>
    </timestep>
    <timestep time="33.00">
        <person id="person0" x="95.05" y="140.41" angle="0.00" type="DEFAULT_PEDTYPE" speed="1.39" pos="59.59" edge="NC" slope="0.00"/>
    </timestep>
    <timestep time="34.00">
        <person id="person0" x="95.05" y="141.75" angle="0.00" type="DEFAULT_PEDTYPE" speed="1.39" pos="58.25" edge="NC" slope="0.00"/>
    </timestep>
    <timestep time="35.00">
        <person id="person0" x="95.05" y="143.10" angle="0.00" type="DEFAULT_PEDTYPE" speed="1.39" pos="56.90" edge="NC" slope="0.00"/>
    </timestep>
    <timestep time="36.00">
        <person id="person0" x="95.05" y="144.45" angle="0.00" type="DEFAULT_PEDTYPE" speed="1.39" pos="55.55" edge="NC" slope="0.00"/>
    </timestep>
    <timestep time="37.00">
        <person id="person0" x="95.05" y="145.80" angle="0.00" type="DEFAULT_PEDTYPE" speed="1.39" pos="54.20" edge="NC" slope="0.00"/>
    </timestep>
    <timestep time="38.00">
        <person id="person0" x="95.05" y="147.15" angle="0.00" type="DEFAULT_PEDTYPE" speed="1.39" pos="52.85" edge="NC" slope="0.00"/>
    </timestep>
    <timestep time="39.00">
        <person id="person0" x="95.05" y="148.49" angle="0.00" type="DEFAULT_PEDTYPE" speed="1.39" pos="51.51" edge="NC" slope="0.00"/>
    </timestep>
    <timestep time="40.00">
        <person id="person0" x="95.05" y="149.84" angle="0.00" type="DEFAULT_PEDTYPE" speed="1.39" pos="50.16" edge="NC" slope="0.00"/>
    </timestep>
    <timestep time="41.00">
        <person id="person0" x="95.05" y="151.19" angle="0.00" type="DEFAULT_PEDTYPE" speed="1.39" pos="48.81" edge="NC" slope="0.00"/>
    </timestep>
    <timestep time="42.00">
        <person id="person0" x="95.05" y="152.54" angle="0.00" type="DEFAULT_PEDTYPE" speed="1.39" pos="47.46" edge="NC" slope="0.00"/>
    </timestep>
    <timestep time="43.00"/>
</fcd-export>
