<?xml version="1.0" encoding="UTF-8"?>

<!-- generated on Thu Jan 26 09:25:47 2017 by SUMO Version dev-SVN-r22703
<?xml version="1.0" encoding="UTF-8"?>

<configuration xmlns:xsi="http://www.w3.org/2001/XMLSchema-instance" xsi:noNamespaceSchemaLocation="http://sumo.dlr.de/xsd/sumoConfiguration.xsd">

    <input>
        <net-file value="net.net.xml"/>
        <route-files value="input_routes.rou.xml"/>
        <additional-files value="input_additional2.add.xml"/>
    </input>

    <output>
        <tripinfo-output value="tripinfos.xml"/>
    </output>

    <time>
        <step-length value="0.1"/>
    </time>

    <processing>
        <pedestrian.model value="striping"/>
        <pedestrian.striping.dawdling value="0"/>
    </processing>

    <report>
        <xml-validation value="never"/>
        <no-step-log value="true"/>
    </report>

</configuration>
-->

<tripinfos xmlns:xsi="http://www.w3.org/2001/XMLSchema-instance" xsi:noNamespaceSchemaLocation="http://sumo.dlr.de/xsd/tripinfo_file.xsd">
    <tripinfo id="car_SE.0" depart="46.00" departLane="SC_3" departPos="5.10" departSpeed="0.00" departDelay="0.00" arrival="64.90" arrivalLane="CE_3" arrivalPos="86.15" arrivalSpeed="13.89" duration="18.90" routeLength="174.95" waitSteps="0" timeLoss="5.54" rerouteNo="0" devices="tripinfo_car_SE.0" vType="car" speedFactor="1.00" vaporized=""/>
    <tripinfo id="car_SE.1" depart="50.00" departLane="SC_3" departPos="5.10" departSpeed="0.00" departDelay="0.00" arrival="71.60" arrivalLane="CE_3" arrivalPos="86.15" arrivalSpeed="13.89" duration="21.60" routeLength="174.95" waitSteps="0" timeLoss="8.16" rerouteNo="0" devices="tripinfo_car_SE.1" vType="car" speedFactor="1.00" vaporized=""/>
    <personinfo id="p0" depart="0.00">
        <walk arrival="136.20"/>
    </personinfo>
</tripinfos>
