<?xml version="1.0" encoding="UTF-8"?>

<!-- generated on 2022-09-26 12:13:40 by Eclipse SUMO sumo Version v1_14_1+1240-0100c3c
This data file and the accompanying materials
are made available under the terms of the Eclipse Public License v2.0
which accompanies this distribution, and is available at
http://www.eclipse.org/legal/epl-v20.html
This file may also be made available under the following Secondary
Licenses when the conditions for such availability set forth in the Eclipse
Public License 2.0 are satisfied: GNU General Public License, version 2
or later which is available at
https://www.gnu.org/licenses/old-licenses/gpl-2.0-standalone.html
SPDX-License-Identifier: EPL-2.0 OR GPL-2.0-or-later
<configuration xmlns:xsi="http://www.w3.org/2001/XMLSchema-instance" xsi:noNamespaceSchemaLocation="http://sumo.dlr.de/xsd/sumoConfiguration.xsd">

    <input>
        <net-file value="net.net.xml"/>
        <route-files value="input_routes.rou.xml"/>
    </input>

    <output>
        <write-license value="true"/>
        <fcd-output value="fcd.xml"/>
        <fcd-output.attributes value="acceleration"/>
    </output>

    <time>
        <end value="2"/>
        <step-length value="0.1"/>
    </time>

    <processing>
        <default.speeddev value="0"/>
    </processing>

    <report>
        <xml-validation value="never"/>
        <no-step-log value="true"/>
    </report>

    <fcd_device>
        <device.fcd.explicit value="ego"/>
    </fcd_device>

</configuration>
-->

<fcd-export xmlns:xsi="http://www.w3.org/2001/XMLSchema-instance" xsi:noNamespaceSchemaLocation="http://sumo.dlr.de/xsd/fcd_file.xsd">
    <timestep time="0.00">
        <vehicle id="ego" acceleration="0.00"/>
    </timestep>
    <timestep time="0.10">
        <vehicle id="ego" acceleration="0.00"/>
    </timestep>
    <timestep time="0.20">
        <vehicle id="ego" acceleration="-2.00"/>
    </timestep>
    <timestep time="0.30">
        <vehicle id="ego" acceleration="-2.00"/>
    </timestep>
    <timestep time="0.40">
        <vehicle id="ego" acceleration="-2.00"/>
    </timestep>
    <timestep time="0.50">
        <vehicle id="ego" acceleration="-5.50"/>
    </timestep>
    <timestep time="0.60">
        <vehicle id="ego" acceleration="-3.74"/>
    </timestep>
    <timestep time="0.70">
        <vehicle id="ego" acceleration="-2.00"/>
    </timestep>
    <timestep time="0.80">
        <vehicle id="ego" acceleration="-2.00"/>
    </timestep>
    <timestep time="0.90">
        <vehicle id="ego" acceleration="-2.00"/>
    </timestep>
    <timestep time="1.00">
        <vehicle id="ego" acceleration="-2.00"/>
    </timestep>
    <timestep time="1.10">
        <vehicle id="ego" acceleration="-2.00"/>
    </timestep>
    <timestep time="1.20">
        <vehicle id="ego" acceleration="-2.00"/>
    </timestep>
    <timestep time="1.30">
        <vehicle id="ego" acceleration="-2.00"/>
    </timestep>
    <timestep time="1.40">
        <vehicle id="ego" acceleration="-2.00"/>
    </timestep>
    <timestep time="1.50">
        <vehicle id="ego" acceleration="-2.00"/>
    </timestep>
    <timestep time="1.60">
        <vehicle id="ego" acceleration="2.00"/>
    </timestep>
    <timestep time="1.70">
        <vehicle id="ego" acceleration="2.00"/>
    </timestep>
    <timestep time="1.80">
        <vehicle id="ego" acceleration="2.00"/>
    </timestep>
    <timestep time="1.90">
        <vehicle id="ego" acceleration="1.25"/>
    </timestep>
</fcd-export>
