<?xml version="1.0" encoding="UTF-8"?>

<!-- generated on Fri Nov 10 09:30:39 2017 by SUMO Version v0_31_0-1056-gab55b65
<?xml version="1.0" encoding="UTF-8"?>

<configuration xmlns:xsi="http://www.w3.org/2001/XMLSchema-instance" xsi:noNamespaceSchemaLocation="http://sumo.dlr.de/xsd/sumoConfiguration.xsd">

    <input>
        <net-file value="net3.net.xml"/>
        <additional-files value="input_additional.add.xml,input_additional2.add.xml"/>
    </input>

    <output>
        <netstate-dump value="rawdump.xml"/>
    </output>

    <processing>
        <pedestrian.model value="nonInteracting"/>
    </processing>

    <report>
        <xml-validation value="never"/>
        <no-step-log value="true"/>
    </report>

</configuration>
-->

<netstate xmlns:xsi="http://www.w3.org/2001/XMLSchema-instance" xsi:noNamespaceSchemaLocation="http://sumo.dlr.de/xsd/netstate_file.xsd">
    <timestep time="0.00"/>
    <timestep time="1.00"/>
    <timestep time="2.00"/>
    <timestep time="3.00"/>
    <timestep time="4.00"/>
    <timestep time="5.00"/>
    <timestep time="6.00"/>
    <timestep time="7.00"/>
    <timestep time="8.00"/>
    <timestep time="9.00"/>
    <timestep time="10.00">
        <edge id="CS">
            <person id="p0" pos="20.00" angle="0.00" stage="walking"/>
        </edge>
    </timestep>
    <timestep time="11.00">
        <edge id="CS">
            <person id="p0" pos="18.70" angle="0.00" stage="walking"/>
        </edge>
    </timestep>
    <timestep time="12.00">
        <edge id="CS">
            <person id="p0" pos="17.40" angle="0.00" stage="walking"/>
        </edge>
    </timestep>
    <timestep time="13.00">
        <edge id="CS">
            <person id="p0" pos="16.10" angle="0.00" stage="walking"/>
        </edge>
    </timestep>
    <timestep time="14.00">
        <edge id="CS">
            <person id="p0" pos="14.81" angle="0.00" stage="walking"/>
        </edge>
    </timestep>
    <timestep time="15.00">
        <edge id="CS">
            <person id="p0" pos="13.51" angle="0.00" stage="walking"/>
        </edge>
    </timestep>
    <timestep time="16.00">
        <edge id="CS">
            <person id="p0" pos="12.21" angle="0.00" stage="walking"/>
        </edge>
    </timestep>
    <timestep time="17.00">
        <edge id="CS">
            <person id="p0" pos="10.91" angle="0.00" stage="walking"/>
        </edge>
    </timestep>
    <timestep time="18.00">
        <edge id="CS">
            <person id="p0" pos="9.61" angle="0.00" stage="walking"/>
        </edge>
    </timestep>
    <timestep time="19.00">
        <edge id="CS">
            <person id="p0" pos="8.31" angle="0.00" stage="walking"/>
        </edge>
    </timestep>
    <timestep time="20.00">
        <edge id="CS">
            <person id="p0" pos="7.01" angle="0.00" stage="walking"/>
        </edge>
    </timestep>
    <timestep time="21.00">
        <edge id="CS">
            <person id="p0" pos="5.71" angle="0.00" stage="walking"/>
        </edge>
    </timestep>
    <timestep time="22.00">
        <edge id="CS">
            <person id="p0" pos="4.42" angle="0.00" stage="walking"/>
        </edge>
    </timestep>
    <timestep time="23.00">
        <edge id="CS">
            <person id="p0" pos="3.12" angle="0.00" stage="walking"/>
        </edge>
    </timestep>
    <timestep time="24.00">
        <edge id="CS">
            <person id="p0" pos="1.82" angle="0.00" stage="walking"/>
        </edge>
    </timestep>
    <timestep time="25.00">
        <edge id="CN">
            <person id="p0" pos="0.00" angle="0.00" stage="walking"/>
        </edge>
    </timestep>
    <timestep time="26.00">
        <edge id="CN">
            <person id="p0" pos="1.30" angle="0.00" stage="walking"/>
        </edge>
    </timestep>
    <timestep time="27.00">
        <edge id="CN">
            <person id="p0" pos="2.60" angle="0.00" stage="walking"/>
        </edge>
    </timestep>
    <timestep time="28.00">
        <edge id="CN">
            <person id="p0" pos="3.90" angle="0.00" stage="walking"/>
        </edge>
    </timestep>
    <timestep time="29.00">
        <edge id="CN">
            <person id="p0" pos="5.19" angle="0.00" stage="walking"/>
        </edge>
    </timestep>
    <timestep time="30.00">
        <edge id="CN">
            <person id="p0" pos="6.49" angle="0.00" stage="walking"/>
        </edge>
    </timestep>
    <timestep time="31.00">
        <edge id="CN">
            <person id="p0" pos="7.79" angle="0.00" stage="walking"/>
        </edge>
    </timestep>
    <timestep time="32.00">
        <edge id="CN">
            <person id="p0" pos="9.09" angle="0.00" stage="walking"/>
        </edge>
    </timestep>
    <timestep time="33.00">
        <edge id="CN">
            <person id="p0" pos="10.39" angle="0.00" stage="walking"/>
        </edge>
    </timestep>
    <timestep time="34.00">
        <edge id="CN">
            <person id="p0" pos="11.69" angle="0.00" stage="walking"/>
        </edge>
    </timestep>
    <timestep time="35.00">
        <edge id="CN">
            <person id="p0" pos="12.99" angle="0.00" stage="walking"/>
        </edge>
    </timestep>
    <timestep time="36.00">
        <edge id="CN">
            <person id="p0" pos="14.29" angle="0.00" stage="walking"/>
        </edge>
    </timestep>
    <timestep time="37.00">
        <edge id="CN">
            <person id="p0" pos="15.58" angle="0.00" stage="walking"/>
        </edge>
    </timestep>
    <timestep time="38.00">
        <edge id="CN">
            <person id="p0" pos="16.88" angle="0.00" stage="walking"/>
        </edge>
    </timestep>
    <timestep time="39.00">
        <edge id="CN">
            <person id="p0" pos="18.18" angle="0.00" stage="walking"/>
        </edge>
    </timestep>
    <timestep time="40.00"/>
</netstate>
