<?xml version="1.0" encoding="UTF-8"?>

<!-- generated on Mon Sep 26 12:03:37 2016 by SUMO Version dev-SVN-r21519
<?xml version="1.0" encoding="UTF-8"?>

<configuration xmlns:xsi="http://www.w3.org/2001/XMLSchema-instance" xsi:noNamespaceSchemaLocation="http://sumo.dlr.de/xsd/sumoConfiguration.xsd">

    <input>
        <net-file value="net.net.xml"/>
        <route-files value="input_routes.rou.xml"/>
    </input>

    <output>
        <fcd-output value="fcd.xml"/>
        <tripinfo-output value="tripinfos.xml"/>
    </output>

    <processing>
        <lateral-resolution value="0.4"/>
    </processing>

    <report>
        <xml-validation value="never"/>
        <no-step-log value="true"/>
    </report>

</configuration>
-->

<fcd-export xmlns:xsi="http://www.w3.org/2001/XMLSchema-instance" xsi:noNamespaceSchemaLocation="http://sumo.dlr.de/xsd/fcd_file.xsd">
    <timestep time="0.00">
        <vehicle id="A" x="0.00" y="-6.15" angle="90.00" type="t0" speed="13.89" pos="0.00" lane="beg_0" slope="0.00"/>
        <vehicle id="B" x="0.00" y="-2.05" angle="90.00" type="t1" speed="13.89" pos="0.00" lane="beg_1" slope="0.00"/>
    </timestep>
    <timestep time="1.00">
        <vehicle id="A" x="13.79" y="-6.15" angle="90.00" type="t0" speed="13.89" pos="13.89" lane="beg_0" slope="0.00"/>
        <vehicle id="B" x="13.79" y="-2.05" angle="90.00" type="t1" speed="13.89" pos="13.89" lane="beg_1" slope="0.00"/>
    </timestep>
    <timestep time="2.00">
        <vehicle id="A" x="25.64" y="-6.15" angle="90.00" type="t0" speed="11.95" pos="25.84" lane="beg_0" slope="0.00"/>
        <vehicle id="B" x="27.57" y="-2.05" angle="90.00" type="t1" speed="13.89" pos="27.78" lane="beg_1" slope="0.00"/>
    </timestep>
    <timestep time="3.00">
        <vehicle id="A" x="35.57" y="-6.15" angle="90.00" type="t0" speed="10.00" pos="35.84" lane="beg_0" slope="0.00"/>
        <vehicle id="B" x="41.36" y="-2.05" angle="90.00" type="t1" speed="13.89" pos="41.67" lane="beg_1" slope="0.00"/>
    </timestep>
    <timestep time="4.00">
        <vehicle id="A" x="43.56" y="-5.15" angle="82.92" type="t0" speed="8.06" pos="43.89" lane="beg_0" slope="0.00"/>
        <vehicle id="B" x="55.14" y="-2.05" angle="90.00" type="t1" speed="13.89" pos="55.56" lane="beg_1" slope="0.00"/>
    </timestep>
    <timestep time="5.00">
        <vehicle id="A" x="54.14" y="-4.15" angle="84.64" type="t0" speed="10.66" pos="54.55" lane="beg_0" slope="0.00"/>
        <vehicle id="B" x="68.93" y="-2.05" angle="90.00" type="t1" speed="13.89" pos="69.45" lane="beg_1" slope="0.00"/>
    </timestep>
    <timestep time="6.00">
        <vehicle id="A" x="65.91" y="-3.15" angle="85.66" type="t0" speed="11.86" pos="66.41" lane="beg_1" slope="0.00"/>
        <vehicle id="B" x="82.71" y="-2.05" angle="90.00" type="t1" speed="13.89" pos="83.34" lane="beg_1" slope="0.00"/>
    </timestep>
    <timestep time="7.00">
        <vehicle id="A" x="78.35" y="-2.15" angle="85.44" type="t0" speed="12.53" pos="78.94" lane="beg_1" slope="0.00"/>
        <vehicle id="B" x="96.50" y="-2.05" angle="90.00" type="t1" speed="13.89" pos="97.23" lane="beg_1" slope="0.00"/>
    </timestep>
    <timestep time="8.00">
        <vehicle id="A" x="91.24" y="-2.05" angle="89.56" type="t0" speed="12.99" pos="91.93" lane="beg_1" slope="0.00"/>
        <vehicle id="B" x="110.29" y="-2.05" angle="90.00" type="t1" speed="13.89" pos="111.12" lane="beg_1" slope="0.00"/>
    </timestep>
    <timestep time="9.00">
        <vehicle id="A" x="104.43" y="-2.05" angle="90.00" type="t0" speed="13.29" pos="105.21" lane="beg_1" slope="0.00"/>
        <vehicle id="B" x="124.07" y="-2.05" angle="90.00" type="t1" speed="13.89" pos="125.01" lane="beg_1" slope="0.00"/>
    </timestep>
    <timestep time="10.00">
        <vehicle id="A" x="117.81" y="-2.05" angle="90.00" type="t0" speed="13.49" pos="118.70" lane="beg_1" slope="0.00"/>
        <vehicle id="B" x="137.86" y="-2.05" angle="90.00" type="t1" speed="13.89" pos="138.90" lane="beg_1" slope="0.00"/>
    </timestep>
    <timestep time="11.00">
        <vehicle id="A" x="131.30" y="-2.05" angle="90.00" type="t0" speed="13.59" pos="132.29" lane="beg_1" slope="0.00"/>
        <vehicle id="B" x="151.64" y="-2.05" angle="90.00" type="t1" speed="13.89" pos="152.79" lane="beg_1" slope="0.00"/>
    </timestep>
    <timestep time="12.00">
        <vehicle id="A" x="144.87" y="-2.05" angle="90.00" type="t0" speed="13.67" pos="145.96" lane="beg_1" slope="0.00"/>
        <vehicle id="B" x="165.43" y="-2.05" angle="90.00" type="t1" speed="13.89" pos="166.68" lane="beg_1" slope="0.00"/>
    </timestep>
    <timestep time="13.00">
        <vehicle id="A" x="158.48" y="-2.05" angle="90.00" type="t0" speed="13.72" pos="159.68" lane="beg_1" slope="0.00"/>
        <vehicle id="B" x="179.22" y="-2.05" angle="90.00" type="t1" speed="13.89" pos="180.57" lane="beg_1" slope="0.00"/>
    </timestep>
    <timestep time="14.00">
        <vehicle id="A" x="172.15" y="-2.05" angle="90.00" type="t0" speed="13.76" pos="173.45" lane="beg_1" slope="0.00"/>
        <vehicle id="B" x="193.00" y="-2.05" angle="90.00" type="t1" speed="13.89" pos="194.46" lane="beg_1" slope="0.00"/>
    </timestep>
    <timestep time="15.00">
        <vehicle id="A" x="185.84" y="-2.05" angle="90.00" type="t0" speed="13.80" pos="187.24" lane="beg_1" slope="0.00"/>
        <vehicle id="B" x="209.72" y="-2.05" angle="90.00" type="t1" speed="13.89" pos="8.35" lane="end_0" slope="0.00"/>
    </timestep>
    <timestep time="16.00">
        <vehicle id="A" x="202.55" y="-2.05" angle="90.00" type="t0" speed="13.82" pos="1.06" lane="end_0" slope="0.00"/>
        <vehicle id="B" x="223.41" y="-2.05" angle="90.00" type="t1" speed="13.89" pos="22.24" lane="end_0" slope="0.00"/>
    </timestep>
    <timestep time="17.00">
        <vehicle id="A" x="216.17" y="-2.05" angle="90.00" type="t0" speed="13.84" pos="14.90" lane="end_0" slope="0.00"/>
        <vehicle id="B" x="237.09" y="-2.05" angle="90.00" type="t1" speed="13.89" pos="36.13" lane="end_0" slope="0.00"/>
    </timestep>
    <timestep time="18.00">
        <vehicle id="A" x="229.82" y="-2.05" angle="90.00" type="t0" speed="13.85" pos="28.75" lane="end_0" slope="0.00"/>
        <vehicle id="B" x="250.77" y="-2.05" angle="90.00" type="t1" speed="13.89" pos="50.02" lane="end_0" slope="0.00"/>
    </timestep>
    <timestep time="19.00">
        <vehicle id="A" x="243.47" y="-2.05" angle="90.00" type="t0" speed="13.86" pos="42.61" lane="end_0" slope="0.00"/>
        <vehicle id="B" x="264.45" y="-2.05" angle="90.00" type="t1" speed="13.89" pos="63.91" lane="end_0" slope="0.00"/>
    </timestep>
    <timestep time="20.00">
        <vehicle id="A" x="257.13" y="-2.05" angle="90.00" type="t0" speed="13.87" pos="56.48" lane="end_0" slope="0.00"/>
        <vehicle id="B" x="278.13" y="-2.05" angle="90.00" type="t1" speed="13.89" pos="77.80" lane="end_0" slope="0.00"/>
    </timestep>
    <timestep time="21.00">
        <vehicle id="A" x="270.79" y="-2.05" angle="90.00" type="t0" speed="13.87" pos="70.35" lane="end_0" slope="0.00"/>
        <vehicle id="B" x="291.81" y="-2.05" angle="90.00" type="t1" speed="13.89" pos="91.69" lane="end_0" slope="0.00"/>
    </timestep>
    <timestep time="22.00">
        <vehicle id="A" x="284.46" y="-2.05" angle="90.00" type="t0" speed="13.88" pos="84.23" lane="end_0" slope="0.00"/>
    </timestep>
    <timestep time="23.00">
        <vehicle id="A" x="298.15" y="-2.05" angle="90.00" type="t0" speed="13.89" pos="98.12" lane="end_0" slope="0.00"/>
    </timestep>
    <timestep time="24.00"/>
</fcd-export>
