<?xml version="1.0" encoding="UTF-8"?>

<!-- generated on 2026-01-02T11:33:29.114104+01:00 by Eclipse SUMO sumo v1_25_0+0754-481d48b5438
<sumoConfiguration xmlns:xsi="http://www.w3.org/2001/XMLSchema-instance" xsi:noNamespaceSchemaLocation="http://sumo.dlr.de/xsd/sumoConfiguration.xsd">

    <input>
        <net-file value="input_net2.net.xml"/>
        <route-files value="input_routes.rou.xml"/>
    </input>

    <output>
        <vehroute-output value="vehroutes.xml"/>
        <stop-output value="stopinfos.xml"/>
    </output>

    <report>
        <no-step-log value="true"/>
    </report>

    <traci_server>
        <remote-port value="35115"/>
    </traci_server>

</sumoConfiguration>
-->

<routes xmlns:xsi="http://www.w3.org/2001/XMLSchema-instance" xsi:noNamespaceSchemaLocation="http://sumo.dlr.de/xsd/routes_file.xsd">
    <vehicle id="ego" depart="0.00" departSpeed="14.7234" speedFactor="1.0600" arrival="18.00">
        <route edges="SC CN"/>
        <stop lane="SC_0" startPos="6.00" endPos="6.10" duration="3.00"/>
    </vehicle>

</routes>
