<?xml version="1.0" encoding="UTF-8"?>

<!-- generated on Wed Mar  8 15:52:24 2017 by SUMO Version dev-SVN-r23260
<?xml version="1.0" encoding="UTF-8"?>

<configuration xmlns:xsi="http://www.w3.org/2001/XMLSchema-instance" xsi:noNamespaceSchemaLocation="http://sumo.dlr.de/xsd/sumoConfiguration.xsd">

    <input>
        <net-file value="net.net.xml"/>
        <route-files value="input_routes.rou.xml"/>
    </input>

    <output>
        <tripinfo-output value="tripinfos.xml"/>
        <lanechange-output value="lanechanges.xml"/>
    </output>

    <processing>
        <lateral-resolution value="0.64"/>
    </processing>

    <report>
        <xml-validation value="never"/>
        <no-step-log value="true"/>
    </report>

</configuration>
-->

<tripinfos xmlns:xsi="http://www.w3.org/2001/XMLSchema-instance" xsi:noNamespaceSchemaLocation="http://sumo.dlr.de/xsd/tripinfo_file.xsd">
    <tripinfo id="cars.0" depart="0.00" departLane="beg_0" departPos="5.10" departPosLat="0.30" departSpeed="0.00" departDelay="0.00" arrival="216.00" arrivalLane="end_0" arrivalPos="200.00" arrivalPosLat="-0.70" arrivalSpeed="14.51" duration="216.00" routeLength="494.90" waitSteps="175" timeLoss="183.99" rerouteNo="0" devices="tripinfo_cars.0" vType="car" speedFactor="1.12" vaporized=""/>
    <tripinfo id="cars.3" depart="6.00" departLane="beg_0" departPos="5.10" departPosLat="0.26" departSpeed="0.00" departDelay="0.00" arrival="216.00" arrivalLane="end_1" arrivalPos="200.00" arrivalPosLat="-1.41" arrivalSpeed="15.63" duration="210.00" routeLength="494.90" waitSteps="166" timeLoss="178.53" rerouteNo="0" devices="tripinfo_cars.3" vType="car" speedFactor="1.17" vaporized=""/>
    <tripinfo id="cars.2" depart="4.00" departLane="beg_1" departPos="5.10" departPosLat="0.24" departSpeed="0.00" departDelay="0.00" arrival="218.00" arrivalLane="end_0" arrivalPos="200.00" arrivalPosLat="0.58" arrivalSpeed="13.73" duration="214.00" routeLength="494.90" waitSteps="168" timeLoss="178.46" rerouteNo="0" devices="tripinfo_cars.2" vType="car" speedFactor="1.02" vaporized=""/>
    <tripinfo id="cars.4" depart="9.00" departLane="beg_1" departPos="5.10" departPosLat="-0.66" departSpeed="0.00" departDelay="1.00" arrival="220.00" arrivalLane="end_0" arrivalPos="200.00" arrivalPosLat="0.58" arrivalSpeed="13.57" duration="211.00" routeLength="494.90" waitSteps="162" timeLoss="176.47" rerouteNo="0" devices="tripinfo_cars.4" vType="car" speedFactor="1.06" vaporized=""/>
    <tripinfo id="cars.11" depart="22.00" departLane="beg_1" departPos="5.10" departPosLat="0.61" departSpeed="0.00" departDelay="0.00" arrival="220.00" arrivalLane="end_1" arrivalPos="200.00" arrivalPosLat="0.70" arrivalSpeed="14.10" duration="198.00" routeLength="494.90" waitSteps="151" timeLoss="163.21" rerouteNo="0" devices="tripinfo_cars.11" vType="car" speedFactor="1.05" vaporized=""/>
    <tripinfo id="cars.10" depart="21.00" departLane="beg_1" departPos="5.10" departPosLat="-0.70" departSpeed="0.00" departDelay="1.00" arrival="221.00" arrivalLane="end_1" arrivalPos="200.00" arrivalPosLat="-0.06" arrivalSpeed="15.58" duration="200.00" routeLength="494.90" waitSteps="147" timeLoss="169.50" rerouteNo="0" devices="tripinfo_cars.10" vType="car" speedFactor="1.18" vaporized=""/>
    <tripinfo id="cars.1" depart="2.00" departLane="beg_1" departPos="5.10" departPosLat="-0.64" departSpeed="0.00" departDelay="0.00" arrival="222.00" arrivalLane="end_0" arrivalPos="200.00" arrivalPosLat="-0.70" arrivalSpeed="11.25" duration="220.00" routeLength="494.90" waitSteps="167" timeLoss="178.63" rerouteNo="0" devices="tripinfo_cars.1" vType="car" speedFactor="0.88" vaporized=""/>
    <tripinfo id="cars.13" depart="26.00" departLane="beg_1" departPos="5.10" departPosLat="0.04" departSpeed="0.00" departDelay="0.00" arrival="223.00" arrivalLane="end_1" arrivalPos="200.00" arrivalPosLat="-1.34" arrivalSpeed="16.45" duration="197.00" routeLength="494.90" waitSteps="136" timeLoss="167.72" rerouteNo="0" devices="tripinfo_cars.13" vType="car" speedFactor="1.25" vaporized=""/>
    <tripinfo id="cars.12" depart="24.00" departLane="beg_0" departPos="5.10" departPosLat="-0.05" departSpeed="0.00" departDelay="0.00" arrival="225.00" arrivalLane="end_1" arrivalPos="200.00" arrivalPosLat="-1.49" arrivalSpeed="14.36" duration="201.00" routeLength="494.90" waitSteps="145" timeLoss="167.55" rerouteNo="0" devices="tripinfo_cars.12" vType="car" speedFactor="1.09" vaporized=""/>
    <tripinfo id="cars.7" depart="15.00" departLane="beg_1" departPos="5.10" departPosLat="-0.15" departSpeed="0.00" departDelay="1.00" arrival="226.00" arrivalLane="end_0" arrivalPos="200.00" arrivalPosLat="-0.70" arrivalSpeed="9.50" duration="211.00" routeLength="494.90" waitSteps="154" timeLoss="164.31" rerouteNo="0" devices="tripinfo_cars.7" vType="car" speedFactor="0.77" vaporized=""/>
    <tripinfo id="cars.14" depart="29.00" departLane="beg_0" departPos="5.10" departPosLat="0.21" departSpeed="0.00" departDelay="1.00" arrival="227.00" arrivalLane="end_0" arrivalPos="200.00" arrivalPosLat="1.49" arrivalSpeed="12.77" duration="198.00" routeLength="494.90" waitSteps="144" timeLoss="161.03" rerouteNo="0" devices="tripinfo_cars.14" vType="car" speedFactor="0.98" vaporized=""/>
    <tripinfo id="cars.17" depart="37.00" departLane="beg_1" departPos="5.10" departPosLat="0.30" departSpeed="0.00" departDelay="3.00" arrival="228.00" arrivalLane="end_1" arrivalPos="200.00" arrivalPosLat="0.70" arrivalSpeed="11.96" duration="191.00" routeLength="494.90" waitSteps="127" timeLoss="149.69" rerouteNo="0" devices="tripinfo_cars.17" vType="car" speedFactor="0.88" vaporized=""/>
    <tripinfo id="cars.19" depart="38.00" departLane="beg_0" departPos="5.10" departPosLat="0.03" departSpeed="0.00" departDelay="0.00" arrival="228.00" arrivalLane="end_1" arrivalPos="200.00" arrivalPosLat="-1.50" arrivalSpeed="15.91" duration="190.00" routeLength="494.90" waitSteps="138" timeLoss="162.75" rerouteNo="0" devices="tripinfo_cars.19" vType="car" speedFactor="1.32" vaporized=""/>
    <tripinfo id="cars.5" depart="12.00" departLane="beg_1" departPos="5.10" departPosLat="-0.01" departSpeed="0.00" departDelay="2.00" arrival="230.00" arrivalLane="end_0" arrivalPos="200.00" arrivalPosLat="-0.70" arrivalSpeed="7.94" duration="218.00" routeLength="494.90" waitSteps="152" timeLoss="163.45" rerouteNo="0" devices="tripinfo_cars.5" vType="car" speedFactor="0.66" vaporized=""/>
    <tripinfo id="cars.18" depart="41.00" departLane="beg_0" departPos="5.10" departPosLat="0.35" departSpeed="0.00" departDelay="5.00" arrival="230.00" arrivalLane="end_1" arrivalPos="200.00" arrivalPosLat="0.70" arrivalSpeed="12.06" duration="189.00" routeLength="494.90" waitSteps="129" timeLoss="147.11" rerouteNo="0" devices="tripinfo_cars.18" vType="car" speedFactor="0.87" vaporized=""/>
    <tripinfo id="cars.6" depart="14.00" departLane="beg_0" departPos="5.10" departPosLat="-0.41" departSpeed="0.00" departDelay="2.00" arrival="232.00" arrivalLane="end_0" arrivalPos="200.00" arrivalPosLat="-0.70" arrivalSpeed="10.36" duration="218.00" routeLength="494.90" waitSteps="152" timeLoss="184.73" rerouteNo="0" devices="tripinfo_cars.6" vType="car" speedFactor="1.09" vaporized=""/>
    <tripinfo id="cars.8" depart="18.00" departLane="beg_0" departPos="5.10" departPosLat="-0.53" departSpeed="0.00" departDelay="2.00" arrival="232.00" arrivalLane="end_1" arrivalPos="200.00" arrivalPosLat="-1.56" arrivalSpeed="11.63" duration="214.00" routeLength="494.90" waitSteps="151" timeLoss="172.36" rerouteNo="0" devices="tripinfo_cars.8" vType="car" speedFactor="0.88" vaporized=""/>
    <tripinfo id="cars.16" depart="34.00" departLane="beg_0" departPos="5.10" departPosLat="0.66" departSpeed="0.00" departDelay="2.00" arrival="235.00" arrivalLane="end_0" arrivalPos="200.00" arrivalPosLat="1.60" arrivalSpeed="9.42" duration="201.00" routeLength="494.90" waitSteps="137" timeLoss="153.50" rerouteNo="0" devices="tripinfo_cars.16" vType="car" speedFactor="0.76" vaporized=""/>
    <tripinfo id="cars.9" depart="21.00" departLane="beg_0" departPos="5.10" departPosLat="-0.04" departSpeed="0.00" departDelay="3.00" arrival="235.00" arrivalLane="end_0" arrivalPos="200.00" arrivalPosLat="-0.70" arrivalSpeed="8.73" duration="214.00" routeLength="494.90" waitSteps="150" timeLoss="163.84" rerouteNo="0" devices="tripinfo_cars.9" vType="car" speedFactor="0.71" vaporized=""/>
    <tripinfo id="cars.15" depart="31.00" departLane="beg_1" departPos="5.10" departPosLat="0.57" departSpeed="0.00" departDelay="1.00" arrival="237.00" arrivalLane="end_0" arrivalPos="200.00" arrivalPosLat="1.30" arrivalSpeed="10.77" duration="206.00" routeLength="494.90" waitSteps="148" timeLoss="163.52" rerouteNo="0" devices="tripinfo_cars.15" vType="car" speedFactor="0.85" vaporized=""/>
</tripinfos>
