<?xml version="1.0" encoding="UTF-8"?>

<!-- generated on Thu Jan 26 09:25:49 2017 by SUMO Version dev-SVN-r22703
<?xml version="1.0" encoding="UTF-8"?>

<configuration xmlns:xsi="http://www.w3.org/2001/XMLSchema-instance" xsi:noNamespaceSchemaLocation="http://sumo.dlr.de/xsd/sumoConfiguration.xsd">

    <input>
        <net-file value="net.net.xml"/>
        <route-files value="input_routes.rou.xml"/>
    </input>

    <output>
        <tripinfo-output value="tripinfos.xml"/>
        <lanechange-output value="lanechanges.xml"/>
    </output>

    <processing>
        <lateral-resolution value="0.64"/>
    </processing>

    <report>
        <xml-validation value="never"/>
        <no-step-log value="true"/>
    </report>

</configuration>
-->

<tripinfos xmlns:xsi="http://www.w3.org/2001/XMLSchema-instance" xsi:noNamespaceSchemaLocation="http://sumo.dlr.de/xsd/tripinfo_file.xsd">
    <tripinfo id="cars.3" depart="6.00" departLane="beg_0" departPos="5.10" departPosLat="0.26" departSpeed="0.00" departDelay="0.00" arrival="216.00" arrivalLane="end_0" arrivalPos="200.00" arrivalPosLat="1.22" arrivalSpeed="15.14" duration="210.00" routeLength="494.90" waitSteps="162" timeLoss="178.68" rerouteNo="0" devices="tripinfo_cars.3" vType="car" speedFactor="1.17" vaporized=""/>
    <tripinfo id="cars.0" depart="0.00" departLane="beg_0" departPos="5.10" departPosLat="0.30" departSpeed="0.00" departDelay="0.00" arrival="216.00" arrivalLane="end_0" arrivalPos="200.00" arrivalPosLat="-0.70" arrivalSpeed="15.36" duration="216.00" routeLength="494.90" waitSteps="175" timeLoss="183.79" rerouteNo="0" devices="tripinfo_cars.0" vType="car" speedFactor="1.12" vaporized=""/>
    <tripinfo id="cars.2" depart="4.00" departLane="beg_1" departPos="5.10" departPosLat="0.24" departSpeed="0.00" departDelay="0.00" arrival="218.00" arrivalLane="end_0" arrivalPos="200.00" arrivalPosLat="1.28" arrivalSpeed="13.73" duration="214.00" routeLength="494.90" waitSteps="167" timeLoss="178.29" rerouteNo="0" devices="tripinfo_cars.2" vType="car" speedFactor="1.02" vaporized=""/>
    <tripinfo id="cars.11" depart="22.00" departLane="beg_1" departPos="5.10" departPosLat="0.61" departSpeed="0.00" departDelay="0.00" arrival="219.00" arrivalLane="end_1" arrivalPos="200.00" arrivalPosLat="0.00" arrivalSpeed="14.61" duration="197.00" routeLength="494.90" waitSteps="153" timeLoss="162.37" rerouteNo="0" devices="tripinfo_cars.11" vType="car" speedFactor="1.05" vaporized=""/>
    <tripinfo id="cars.13" depart="26.00" departLane="beg_1" departPos="5.10" departPosLat="0.04" departSpeed="0.00" departDelay="0.00" arrival="220.00" arrivalLane="end_1" arrivalPos="200.00" arrivalPosLat="-0.70" arrivalSpeed="15.15" duration="194.00" routeLength="494.90" waitSteps="151" timeLoss="165.26" rerouteNo="0" devices="tripinfo_cars.13" vType="car" speedFactor="1.25" vaporized=""/>
    <tripinfo id="cars.1" depart="2.00" departLane="beg_1" departPos="5.10" departPosLat="-0.64" departSpeed="0.00" departDelay="0.00" arrival="222.00" arrivalLane="end_0" arrivalPos="200.00" arrivalPosLat="-0.70" arrivalSpeed="11.18" duration="220.00" routeLength="494.90" waitSteps="169" timeLoss="178.85" rerouteNo="0" devices="tripinfo_cars.1" vType="car" speedFactor="0.88" vaporized=""/>
    <tripinfo id="cars.4" depart="9.00" departLane="beg_1" departPos="5.10" departPosLat="-0.66" departSpeed="0.00" departDelay="1.00" arrival="224.00" arrivalLane="end_0" arrivalPos="200.00" arrivalPosLat="-0.70" arrivalSpeed="14.68" duration="215.00" routeLength="494.90" waitSteps="167" timeLoss="180.48" rerouteNo="0" devices="tripinfo_cars.4" vType="car" speedFactor="1.06" vaporized=""/>
    <tripinfo id="cars.7" depart="15.00" departLane="beg_1" departPos="5.10" departPosLat="-0.15" departSpeed="0.00" departDelay="1.00" arrival="224.00" arrivalLane="end_0" arrivalPos="200.00" arrivalPosLat="1.27" arrivalSpeed="10.58" duration="209.00" routeLength="494.90" waitSteps="152" timeLoss="162.17" rerouteNo="0" devices="tripinfo_cars.7" vType="car" speedFactor="0.77" vaporized=""/>
    <tripinfo id="cars.6" depart="14.00" departLane="beg_0" departPos="5.10" departPosLat="-0.41" departSpeed="0.00" departDelay="2.00" arrival="225.00" arrivalLane="end_0" arrivalPos="200.00" arrivalPosLat="-0.70" arrivalSpeed="14.69" duration="211.00" routeLength="494.90" waitSteps="163" timeLoss="178.09" rerouteNo="0" devices="tripinfo_cars.6" vType="car" speedFactor="1.09" vaporized=""/>
    <tripinfo id="cars.8" depart="18.00" departLane="beg_0" departPos="5.10" departPosLat="-0.53" departSpeed="0.00" departDelay="2.00" arrival="225.00" arrivalLane="end_1" arrivalPos="200.00" arrivalPosLat="0.10" arrivalSpeed="12.12" duration="207.00" routeLength="494.90" waitSteps="148" timeLoss="165.75" rerouteNo="0" devices="tripinfo_cars.8" vType="car" speedFactor="0.88" vaporized=""/>
    <tripinfo id="cars.12" depart="24.00" departLane="beg_0" departPos="5.10" departPosLat="-0.05" departSpeed="0.00" departDelay="0.00" arrival="226.00" arrivalLane="end_0" arrivalPos="200.00" arrivalPosLat="1.27" arrivalSpeed="13.57" duration="202.00" routeLength="494.90" waitSteps="150" timeLoss="168.59" rerouteNo="0" devices="tripinfo_cars.12" vType="car" speedFactor="1.09" vaporized=""/>
    <tripinfo id="cars.10" depart="21.00" departLane="beg_1" departPos="5.10" departPosLat="-0.70" departSpeed="0.00" departDelay="1.00" arrival="227.00" arrivalLane="end_0" arrivalPos="200.00" arrivalPosLat="1.30" arrivalSpeed="13.44" duration="206.00" routeLength="494.90" waitSteps="150" timeLoss="175.62" rerouteNo="0" devices="tripinfo_cars.10" vType="car" speedFactor="1.18" vaporized=""/>
    <tripinfo id="cars.19" depart="38.00" departLane="beg_0" departPos="5.10" departPosLat="0.03" departSpeed="0.00" departDelay="0.00" arrival="227.00" arrivalLane="end_1" arrivalPos="200.00" arrivalPosLat="0.10" arrivalSpeed="14.73" duration="189.00" routeLength="494.90" waitSteps="137" timeLoss="161.26" rerouteNo="0" devices="tripinfo_cars.19" vType="car" speedFactor="1.32" vaporized=""/>
    <tripinfo id="cars.14" depart="29.00" departLane="beg_0" departPos="5.10" departPosLat="0.21" departSpeed="0.00" departDelay="1.00" arrival="229.00" arrivalLane="end_0" arrivalPos="200.00" arrivalPosLat="-0.70" arrivalSpeed="13.61" duration="200.00" routeLength="494.90" waitSteps="146" timeLoss="162.74" rerouteNo="0" devices="tripinfo_cars.14" vType="car" speedFactor="0.98" vaporized=""/>
    <tripinfo id="cars.17" depart="37.00" departLane="beg_1" departPos="5.10" departPosLat="0.30" departSpeed="0.00" departDelay="3.00" arrival="231.00" arrivalLane="end_0" arrivalPos="200.00" arrivalPosLat="-0.70" arrivalSpeed="12.20" duration="194.00" routeLength="494.90" waitSteps="133" timeLoss="152.77" rerouteNo="0" devices="tripinfo_cars.17" vType="car" speedFactor="0.88" vaporized=""/>
    <tripinfo id="cars.16" depart="34.00" departLane="beg_0" departPos="5.10" departPosLat="0.66" departSpeed="0.00" departDelay="2.00" arrival="231.00" arrivalLane="end_1" arrivalPos="200.00" arrivalPosLat="-0.70" arrivalSpeed="10.39" duration="197.00" routeLength="494.90" waitSteps="132" timeLoss="149.56" rerouteNo="0" devices="tripinfo_cars.16" vType="car" speedFactor="0.76" vaporized=""/>
    <tripinfo id="cars.15" depart="31.00" departLane="beg_1" departPos="5.10" departPosLat="0.57" departSpeed="0.00" departDelay="1.00" arrival="233.00" arrivalLane="end_0" arrivalPos="200.00" arrivalPosLat="1.27" arrivalSpeed="11.30" duration="202.00" routeLength="494.90" waitSteps="147" timeLoss="159.59" rerouteNo="0" devices="tripinfo_cars.15" vType="car" speedFactor="0.85" vaporized=""/>
    <tripinfo id="cars.18" depart="41.00" departLane="beg_0" departPos="5.10" departPosLat="0.35" departSpeed="0.00" departDelay="5.00" arrival="233.00" arrivalLane="end_1" arrivalPos="200.00" arrivalPosLat="0.02" arrivalSpeed="11.61" duration="192.00" routeLength="494.90" waitSteps="129" timeLoss="150.41" rerouteNo="0" devices="tripinfo_cars.18" vType="car" speedFactor="0.87" vaporized=""/>
    <tripinfo id="cars.5" depart="12.00" departLane="beg_1" departPos="5.10" departPosLat="-0.01" departSpeed="0.00" departDelay="2.00" arrival="234.00" arrivalLane="end_0" arrivalPos="200.00" arrivalPosLat="-0.70" arrivalSpeed="8.32" duration="222.00" routeLength="494.90" waitSteps="156" timeLoss="167.96" rerouteNo="0" devices="tripinfo_cars.5" vType="car" speedFactor="0.66" vaporized=""/>
    <tripinfo id="cars.9" depart="21.00" departLane="beg_0" departPos="5.10" departPosLat="-0.04" departSpeed="0.00" departDelay="3.00" arrival="236.00" arrivalLane="end_0" arrivalPos="200.00" arrivalPosLat="-0.70" arrivalSpeed="9.24" duration="215.00" routeLength="494.90" waitSteps="151" timeLoss="164.71" rerouteNo="0" devices="tripinfo_cars.9" vType="car" speedFactor="0.71" vaporized=""/>
</tripinfos>
