<?xml version="1.0" encoding="UTF-8"?>

<!-- generated on Tue Mar 14 13:18:56 2017 by SUMO Version dev-SVN-r23369
<?xml version="1.0" encoding="UTF-8"?>

<configuration xmlns:xsi="http://www.w3.org/2001/XMLSchema-instance" xsi:noNamespaceSchemaLocation="http://sumo.dlr.de/xsd/sumoConfiguration.xsd">

    <input>
        <net-file value="net.net.xml"/>
        <route-files value="input_routes.rou.xml"/>
    </input>

    <output>
        <tripinfo-output value="tripinfos.xml"/>
        <lanechange-output value="lanechanges.xml"/>
    </output>

    <processing>
        <lateral-resolution value="0.64"/>
    </processing>

    <report>
        <xml-validation value="never"/>
        <no-step-log value="true"/>
    </report>

</configuration>
-->

<tripinfos xmlns:xsi="http://www.w3.org/2001/XMLSchema-instance" xsi:noNamespaceSchemaLocation="http://sumo.dlr.de/xsd/tripinfo_file.xsd">
    <tripinfo id="cars.2" depart="4.00" departLane="beg_1" departPos="5.10" departPosLat="0.24" departSpeed="0.00" departDelay="0.00" arrival="215.00" arrivalLane="end_0" arrivalPos="200.00" arrivalPosLat="-0.70" arrivalSpeed="17.35" duration="211.00" routeLength="494.90" waitSteps="171" timeLoss="182.38" rerouteNo="0" devices="tripinfo_cars.2" vType="car" speedFactor="1.26" vaporized=""/>
    <tripinfo id="cars.1" depart="2.00" departLane="beg_1" departPos="5.10" departPosLat="-0.64" departSpeed="0.00" departDelay="0.00" arrival="218.00" arrivalLane="end_1" arrivalPos="200.00" arrivalPosLat="0.70" arrivalSpeed="12.05" duration="216.00" routeLength="494.90" waitSteps="164" timeLoss="177.73" rerouteNo="0" devices="tripinfo_cars.1" vType="car" speedFactor="0.94" vaporized=""/>
    <tripinfo id="cars.0" depart="0.00" departLane="beg_0" departPos="5.10" departPosLat="0.30" departSpeed="0.00" departDelay="0.00" arrival="219.00" arrivalLane="end_0" arrivalPos="200.00" arrivalPosLat="-0.70" arrivalSpeed="12.05" duration="219.00" routeLength="494.90" waitSteps="171" timeLoss="178.89" rerouteNo="0" devices="tripinfo_cars.0" vType="car" speedFactor="0.90" vaporized=""/>
    <tripinfo id="cars.8" depart="18.00" departLane="beg_0" departPos="5.10" departPosLat="-0.53" departSpeed="0.00" departDelay="2.00" arrival="219.00" arrivalLane="end_1" arrivalPos="200.00" arrivalPosLat="-1.60" arrivalSpeed="13.41" duration="201.00" routeLength="494.90" waitSteps="151" timeLoss="166.97" rerouteNo="0" devices="tripinfo_cars.8" vType="car" speedFactor="1.05" vaporized=""/>
    <tripinfo id="cars.5" depart="12.00" departLane="beg_1" departPos="5.10" departPosLat="-0.01" departSpeed="0.00" departDelay="2.00" arrival="220.00" arrivalLane="end_1" arrivalPos="200.00" arrivalPosLat="0.70" arrivalSpeed="13.68" duration="208.00" routeLength="494.90" waitSteps="151" timeLoss="171.38" rerouteNo="0" devices="tripinfo_cars.5" vType="car" speedFactor="0.99" vaporized=""/>
    <tripinfo id="cars.3" depart="6.00" departLane="beg_0" departPos="5.10" departPosLat="0.26" departSpeed="0.00" departDelay="0.00" arrival="221.00" arrivalLane="end_0" arrivalPos="200.00" arrivalPosLat="-0.70" arrivalSpeed="13.87" duration="215.00" routeLength="494.90" waitSteps="162" timeLoss="178.61" rerouteNo="0" devices="tripinfo_cars.3" vType="car" speedFactor="1.01" vaporized=""/>
    <tripinfo id="cars.12" depart="26.00" departLane="beg_1" departPos="5.10" departPosLat="0.11" departSpeed="0.00" departDelay="2.00" arrival="221.00" arrivalLane="end_1" arrivalPos="200.00" arrivalPosLat="0.70" arrivalSpeed="15.34" duration="195.00" routeLength="494.90" waitSteps="144" timeLoss="165.58" rerouteNo="0" devices="tripinfo_cars.12" vType="car" speedFactor="1.21" vaporized=""/>
    <tripinfo id="cars.10" depart="21.00" departLane="beg_1" departPos="5.10" departPosLat="-0.70" departSpeed="0.00" departDelay="1.00" arrival="222.00" arrivalLane="end_0" arrivalPos="200.00" arrivalPosLat="1.60" arrivalSpeed="11.84" duration="201.00" routeLength="494.90" waitSteps="147" timeLoss="162.86" rerouteNo="0" devices="tripinfo_cars.10" vType="car" speedFactor="0.94" vaporized=""/>
    <tripinfo id="cars.4" depart="9.00" departLane="beg_1" departPos="5.10" departPosLat="-0.66" departSpeed="0.00" departDelay="1.00" arrival="222.00" arrivalLane="end_0" arrivalPos="200.00" arrivalPosLat="-0.70" arrivalSpeed="12.78" duration="213.00" routeLength="494.90" waitSteps="161" timeLoss="176.98" rerouteNo="0" devices="tripinfo_cars.4" vType="car" speedFactor="0.99" vaporized=""/>
    <tripinfo id="cars.16" depart="32.00" departLane="beg_1" departPos="5.10" departPosLat="0.55" departSpeed="0.00" departDelay="0.00" arrival="223.00" arrivalLane="end_1" arrivalPos="200.00" arrivalPosLat="0.70" arrivalSpeed="16.18" duration="191.00" routeLength="494.90" waitSteps="134" timeLoss="160.38" rerouteNo="0" devices="tripinfo_cars.16" vType="car" speedFactor="1.18" vaporized=""/>
    <tripinfo id="cars.7" depart="15.00" departLane="beg_1" departPos="5.10" departPosLat="-0.15" departSpeed="0.00" departDelay="1.00" arrival="224.00" arrivalLane="end_0" arrivalPos="200.00" arrivalPosLat="-0.70" arrivalSpeed="12.70" duration="209.00" routeLength="494.90" waitSteps="148" timeLoss="172.22" rerouteNo="0" devices="tripinfo_cars.7" vType="car" speedFactor="0.98" vaporized=""/>
    <tripinfo id="cars.14" depart="29.00" departLane="beg_1" departPos="5.10" departPosLat="-0.63" departSpeed="0.00" departDelay="1.00" arrival="224.00" arrivalLane="end_1" arrivalPos="200.00" arrivalPosLat="-1.60" arrivalSpeed="13.27" duration="195.00" routeLength="494.90" waitSteps="140" timeLoss="159.54" rerouteNo="0" devices="tripinfo_cars.14" vType="car" speedFactor="1.02" vaporized=""/>
    <tripinfo id="cars.19" depart="39.00" departLane="beg_0" departPos="5.10" departPosLat="-0.51" departSpeed="0.00" departDelay="1.00" arrival="225.00" arrivalLane="end_1" arrivalPos="200.00" arrivalPosLat="0.70" arrivalSpeed="14.89" duration="186.00" routeLength="494.90" waitSteps="127" timeLoss="152.18" rerouteNo="0" devices="tripinfo_cars.19" vType="car" speedFactor="1.07" vaporized=""/>
    <tripinfo id="cars.17" depart="34.00" departLane="beg_0" departPos="5.10" departPosLat="0.19" departSpeed="0.00" departDelay="0.00" arrival="226.00" arrivalLane="end_0" arrivalPos="200.00" arrivalPosLat="-0.70" arrivalSpeed="16.07" duration="192.00" routeLength="494.90" waitSteps="133" timeLoss="167.44" rerouteNo="0" devices="tripinfo_cars.17" vType="car" speedFactor="1.49" vaporized=""/>
    <tripinfo id="cars.18" depart="37.00" departLane="beg_1" departPos="5.10" departPosLat="0.59" departSpeed="0.00" departDelay="1.00" arrival="229.00" arrivalLane="end_1" arrivalPos="200.00" arrivalPosLat="-1.21" arrivalSpeed="10.95" duration="192.00" routeLength="494.90" waitSteps="125" timeLoss="149.90" rerouteNo="0" devices="tripinfo_cars.18" vType="car" speedFactor="0.85" vaporized=""/>
    <tripinfo id="cars.6" depart="14.00" departLane="beg_0" departPos="5.10" departPosLat="-0.41" departSpeed="0.00" departDelay="2.00" arrival="230.00" arrivalLane="end_0" arrivalPos="200.00" arrivalPosLat="-0.70" arrivalSpeed="9.64" duration="216.00" routeLength="494.90" waitSteps="146" timeLoss="169.91" rerouteNo="0" devices="tripinfo_cars.6" vType="car" speedFactor="0.79" vaporized=""/>
    <tripinfo id="cars.9" depart="21.00" departLane="beg_0" departPos="5.10" departPosLat="-0.04" departSpeed="0.00" departDelay="3.00" arrival="232.00" arrivalLane="end_0" arrivalPos="200.00" arrivalPosLat="-0.70" arrivalSpeed="12.87" duration="211.00" routeLength="494.90" waitSteps="146" timeLoss="171.59" rerouteNo="0" devices="tripinfo_cars.9" vType="car" speedFactor="0.93" vaporized=""/>
    <tripinfo id="cars.11" depart="24.00" departLane="beg_0" departPos="5.10" departPosLat="-0.05" departSpeed="0.00" departDelay="2.00" arrival="233.00" arrivalLane="end_0" arrivalPos="200.00" arrivalPosLat="-0.70" arrivalSpeed="12.00" duration="209.00" routeLength="494.90" waitSteps="146" timeLoss="168.50" rerouteNo="0" devices="tripinfo_cars.11" vType="car" speedFactor="0.89" vaporized=""/>
    <tripinfo id="cars.15" depart="30.00" departLane="beg_0" departPos="5.10" departPosLat="0.60" departSpeed="0.00" departDelay="0.00" arrival="233.00" arrivalLane="end_1" arrivalPos="200.00" arrivalPosLat="0.70" arrivalSpeed="13.63" duration="203.00" routeLength="494.90" waitSteps="138" timeLoss="165.80" rerouteNo="0" devices="tripinfo_cars.15" vType="car" speedFactor="0.98" vaporized=""/>
    <tripinfo id="cars.13" depart="27.00" departLane="beg_0" departPos="5.10" departPosLat="-0.19" departSpeed="0.00" departDelay="1.00" arrival="235.00" arrivalLane="end_1" arrivalPos="200.00" arrivalPosLat="-1.38" arrivalSpeed="9.05" duration="208.00" routeLength="494.90" waitSteps="126" timeLoss="153.89" rerouteNo="0" devices="tripinfo_cars.13" vType="car" speedFactor="0.67" vaporized=""/>
</tripinfos>
