<?xml version="1.0" encoding="UTF-8"?>

<!-- generated on Mon Apr  3 12:20:58 2017 by SUMO Version dev-SVN-r23771
<?xml version="1.0" encoding="UTF-8"?>

<configuration xmlns:xsi="http://www.w3.org/2001/XMLSchema-instance" xsi:noNamespaceSchemaLocation="http://sumo.dlr.de/xsd/sumoConfiguration.xsd">

    <input>
        <net-file value="net.net.xml"/>
        <route-files value="input_routes.rou.xml"/>
    </input>

    <output>
        <tripinfo-output value="tripinfos.xml"/>
        <lanechange-output value="lanechanges.xml"/>
    </output>

    <processing>
        <lateral-resolution value="0.64"/>
    </processing>

    <report>
        <xml-validation value="never"/>
        <no-step-log value="true"/>
    </report>

</configuration>
-->

<tripinfos xmlns:xsi="http://www.w3.org/2001/XMLSchema-instance" xsi:noNamespaceSchemaLocation="http://sumo.dlr.de/xsd/tripinfo_file.xsd">
    <tripinfo id="cars.2" depart="4.00" departLane="beg_1" departPos="5.10" departPosLat="0.24" departSpeed="0.00" departDelay="0.00" arrival="215.00" arrivalLane="end_0" arrivalPos="200.00" arrivalPosLat="-0.70" arrivalSpeed="16.98" duration="211.00" routeLength="494.90" waitSteps="172" timeLoss="182.05" rerouteNo="0" devices="tripinfo_cars.2" vType="car" speedFactor="1.26" vaporized=""/>
    <tripinfo id="cars.4" depart="8.00" departLane="beg_1" departPos="5.10" departPosLat="-0.65" departSpeed="0.00" departDelay="0.00" arrival="217.00" arrivalLane="end_0" arrivalPos="200.00" arrivalPosLat="1.22" arrivalSpeed="12.56" duration="209.00" routeLength="494.90" waitSteps="160" timeLoss="172.91" rerouteNo="0" devices="tripinfo_cars.4" vType="car" speedFactor="0.99" vaporized=""/>
    <tripinfo id="cars.1" depart="2.00" departLane="beg_1" departPos="5.10" departPosLat="-0.64" departSpeed="0.00" departDelay="0.00" arrival="218.00" arrivalLane="end_0" arrivalPos="200.00" arrivalPosLat="-0.70" arrivalSpeed="12.14" duration="216.00" routeLength="494.90" waitSteps="167" timeLoss="177.70" rerouteNo="0" devices="tripinfo_cars.1" vType="car" speedFactor="0.94" vaporized=""/>
    <tripinfo id="cars.5" depart="11.00" departLane="beg_0" departPos="5.10" departPosLat="0.24" departSpeed="0.00" departDelay="1.00" arrival="219.00" arrivalLane="end_0" arrivalPos="200.00" arrivalPosLat="0.58" arrivalSpeed="13.12" duration="208.00" routeLength="494.90" waitSteps="159" timeLoss="171.79" rerouteNo="0" devices="tripinfo_cars.5" vType="car" speedFactor="0.99" vaporized=""/>
    <tripinfo id="cars.7" depart="15.00" departLane="beg_0" departPos="5.10" departPosLat="0.25" departSpeed="0.00" departDelay="1.00" arrival="220.00" arrivalLane="end_1" arrivalPos="200.00" arrivalPosLat="0.70" arrivalSpeed="13.48" duration="205.00" routeLength="494.90" waitSteps="155" timeLoss="167.51" rerouteNo="0" devices="tripinfo_cars.7" vType="car" speedFactor="0.98" vaporized=""/>
    <tripinfo id="cars.0" depart="0.00" departLane="beg_0" departPos="5.10" departPosLat="0.30" departSpeed="0.00" departDelay="0.00" arrival="221.00" arrivalLane="end_0" arrivalPos="200.00" arrivalPosLat="-0.70" arrivalSpeed="11.59" duration="221.00" routeLength="494.90" waitSteps="171" timeLoss="181.05" rerouteNo="0" devices="tripinfo_cars.0" vType="car" speedFactor="0.90" vaporized=""/>
    <tripinfo id="cars.8" depart="16.00" departLane="beg_1" departPos="5.10" departPosLat="-0.67" departSpeed="0.00" departDelay="0.00" arrival="221.00" arrivalLane="end_1" arrivalPos="200.00" arrivalPosLat="-1.60" arrivalSpeed="14.07" duration="205.00" routeLength="494.90" waitSteps="157" timeLoss="170.45" rerouteNo="0" devices="tripinfo_cars.8" vType="car" speedFactor="1.05" vaporized=""/>
    <tripinfo id="cars.10" depart="20.00" departLane="beg_1" departPos="5.10" departPosLat="0.13" departSpeed="0.00" departDelay="0.00" arrival="222.00" arrivalLane="end_1" arrivalPos="200.00" arrivalPosLat="-0.06" arrivalSpeed="11.84" duration="202.00" routeLength="494.90" waitSteps="151" timeLoss="163.75" rerouteNo="0" devices="tripinfo_cars.10" vType="car" speedFactor="0.94" vaporized=""/>
    <tripinfo id="cars.3" depart="7.00" departLane="beg_0" departPos="5.10" departPosLat="0.61" departSpeed="0.00" departDelay="1.00" arrival="223.00" arrivalLane="end_0" arrivalPos="200.00" arrivalPosLat="-0.70" arrivalSpeed="13.10" duration="216.00" routeLength="494.90" waitSteps="168" timeLoss="179.72" rerouteNo="0" devices="tripinfo_cars.3" vType="car" speedFactor="1.01" vaporized=""/>
    <tripinfo id="cars.12" depart="25.00" departLane="beg_0" departPos="5.10" departPosLat="-0.14" departSpeed="0.00" departDelay="1.00" arrival="223.00" arrivalLane="end_1" arrivalPos="200.00" arrivalPosLat="-0.98" arrivalSpeed="16.28" duration="198.00" routeLength="494.90" waitSteps="150" timeLoss="167.62" rerouteNo="0" devices="tripinfo_cars.12" vType="car" speedFactor="1.21" vaporized=""/>
    <tripinfo id="cars.16" depart="32.00" departLane="beg_1" departPos="5.10" departPosLat="-0.61" departSpeed="0.00" departDelay="0.00" arrival="224.00" arrivalLane="end_0" arrivalPos="200.00" arrivalPosLat="-0.70" arrivalSpeed="15.25" duration="192.00" routeLength="494.90" waitSteps="146" timeLoss="161.73" rerouteNo="0" devices="tripinfo_cars.16" vType="car" speedFactor="1.18" vaporized=""/>
    <tripinfo id="cars.17" depart="35.00" departLane="beg_0" departPos="5.10" departPosLat="0.37" departSpeed="0.00" departDelay="1.00" arrival="224.00" arrivalLane="end_1" arrivalPos="200.00" arrivalPosLat="-1.34" arrivalSpeed="15.80" duration="189.00" routeLength="494.90" waitSteps="144" timeLoss="164.59" rerouteNo="0" devices="tripinfo_cars.17" vType="car" speedFactor="1.49" vaporized=""/>
    <tripinfo id="cars.19" depart="38.00" departLane="beg_0" departPos="5.10" departPosLat="0.12" departSpeed="0.00" departDelay="0.00" arrival="226.00" arrivalLane="end_0" arrivalPos="200.00" arrivalPosLat="-0.66" arrivalSpeed="14.55" duration="188.00" routeLength="494.90" waitSteps="141" timeLoss="154.20" rerouteNo="0" devices="tripinfo_cars.19" vType="car" speedFactor="1.07" vaporized=""/>
    <tripinfo id="cars.15" depart="32.00" departLane="beg_0" departPos="5.10" departPosLat="-0.50" departSpeed="0.00" departDelay="2.00" arrival="226.00" arrivalLane="end_1" arrivalPos="200.00" arrivalPosLat="-0.70" arrivalSpeed="12.98" duration="194.00" routeLength="494.90" waitSteps="140" timeLoss="156.98" rerouteNo="0" devices="tripinfo_cars.15" vType="car" speedFactor="0.98" vaporized=""/>
    <tripinfo id="cars.6" depart="12.00" departLane="beg_1" departPos="5.10" departPosLat="0.11" departSpeed="0.00" departDelay="0.00" arrival="228.00" arrivalLane="end_0" arrivalPos="200.00" arrivalPosLat="-0.70" arrivalSpeed="10.91" duration="216.00" routeLength="494.90" waitSteps="157" timeLoss="169.95" rerouteNo="0" devices="tripinfo_cars.6" vType="car" speedFactor="0.79" vaporized=""/>
    <tripinfo id="cars.9" depart="19.00" departLane="beg_0" departPos="5.10" departPosLat="0.25" departSpeed="0.00" departDelay="1.00" arrival="230.00" arrivalLane="end_0" arrivalPos="200.00" arrivalPosLat="-0.70" arrivalSpeed="12.39" duration="211.00" routeLength="494.90" waitSteps="155" timeLoss="171.75" rerouteNo="0" devices="tripinfo_cars.9" vType="car" speedFactor="0.93" vaporized=""/>
    <tripinfo id="cars.18" depart="37.00" departLane="beg_1" departPos="5.10" departPosLat="0.51" departSpeed="0.00" departDelay="1.00" arrival="231.00" arrivalLane="end_0" arrivalPos="200.00" arrivalPosLat="1.22" arrivalSpeed="11.14" duration="194.00" routeLength="494.90" waitSteps="135" timeLoss="151.49" rerouteNo="0" devices="tripinfo_cars.18" vType="car" speedFactor="0.85" vaporized=""/>
    <tripinfo id="cars.11" depart="23.00" departLane="beg_1" departPos="5.10" departPosLat="-0.49" departSpeed="0.00" departDelay="1.00" arrival="232.00" arrivalLane="end_0" arrivalPos="200.00" arrivalPosLat="-0.70" arrivalSpeed="11.23" duration="209.00" routeLength="494.90" waitSteps="154" timeLoss="167.89" rerouteNo="0" devices="tripinfo_cars.11" vType="car" speedFactor="0.89" vaporized=""/>
    <tripinfo id="cars.14" depart="29.00" departLane="beg_1" departPos="5.10" departPosLat="-0.48" departSpeed="0.00" departDelay="1.00" arrival="233.00" arrivalLane="end_0" arrivalPos="200.00" arrivalPosLat="-0.70" arrivalSpeed="13.39" duration="204.00" routeLength="494.90" waitSteps="151" timeLoss="168.79" rerouteNo="0" devices="tripinfo_cars.14" vType="car" speedFactor="1.02" vaporized=""/>
    <tripinfo id="cars.13" depart="28.00" departLane="beg_0" departPos="5.10" departPosLat="-0.66" departSpeed="0.00" departDelay="2.00" arrival="236.00" arrivalLane="end_0" arrivalPos="200.00" arrivalPosLat="-0.70" arrivalSpeed="9.24" duration="208.00" routeLength="494.90" waitSteps="139" timeLoss="153.85" rerouteNo="0" devices="tripinfo_cars.13" vType="car" speedFactor="0.67" vaporized=""/>
</tripinfos>
