<?xml version="1.0" encoding="UTF-8"?>

<!-- generated on 06/19/19 22:27:29 by Eclipse SUMO Version v1_2_0+0771-4380e3528ec
This data file and the accompanying materials
are made available under the terms of the Eclipse Public License v2.0
which accompanies this distribution, and is available at
http://www.eclipse.org/legal/epl-v20.html
SPDX-License-Identifier: EPL-2.0
<configuration xmlns:xsi="http://www.w3.org/2001/XMLSchema-instance" xsi:noNamespaceSchemaLocation="http://sumo.dlr.de/xsd/sumoConfiguration.xsd">

    <input>
        <net-file value="net3.net.xml"/>
        <route-files value="input_routes.rou.xml"/>
    </input>

    <output>
        <write-license value="true"/>
        <tripinfo-output value="tripinfos.xml"/>
    </output>

    <processing>
        <default.speeddev value="0"/>
    </processing>

    <report>
        <xml-validation value="never"/>
        <duration-log.disable value="true"/>
        <no-step-log value="true"/>
    </report>

</configuration>
-->

<tripinfos xmlns:xsi="http://www.w3.org/2001/XMLSchema-instance" xsi:noNamespaceSchemaLocation="http://sumo.dlr.de/xsd/tripinfo_file.xsd">
    <tripinfo id="1" depart="0.00" departLane="SC_3" departPos="5.10" departSpeed="0.00" departDelay="0.00" arrival="55.00" arrivalLane="CE_3" arrivalPos="86.15" arrivalSpeed="13.23" duration="55.00" routeLength="181.42" waitingTime="34.00" waitingCount="1" stopTime="0.00" timeLoss="41.40" rerouteNo="0" devices="tripinfo_1" vType="DEFAULT_VEHTYPE" speedFactor="1.00" vaporized=""/>
    <tripinfo id="2" depart="3.00" departLane="SC_3" departPos="5.10" departSpeed="0.00" departDelay="3.00" arrival="57.00" arrivalLane="CE_3" arrivalPos="86.15" arrivalSpeed="12.97" duration="54.00" routeLength="181.42" waitingTime="31.00" waitingCount="1" stopTime="0.00" timeLoss="40.23" rerouteNo="0" devices="tripinfo_2" vType="DEFAULT_VEHTYPE" speedFactor="1.00" vaporized=""/>
    <tripinfo id="3" depart="6.00" departLane="SC_3" departPos="5.10" departSpeed="0.00" departDelay="6.00" arrival="59.00" arrivalLane="CE_3" arrivalPos="86.15" arrivalSpeed="12.87" duration="53.00" routeLength="181.42" waitingTime="29.00" waitingCount="1" stopTime="0.00" timeLoss="39.14" rerouteNo="0" devices="tripinfo_3" vType="DEFAULT_VEHTYPE" speedFactor="1.00" vaporized=""/>
    <tripinfo id="4" depart="9.00" departLane="SC_3" departPos="5.10" departSpeed="0.00" departDelay="9.00" arrival="62.00" arrivalLane="CE_3" arrivalPos="86.15" arrivalSpeed="12.70" duration="53.00" routeLength="181.42" waitingTime="28.00" waitingCount="1" stopTime="0.00" timeLoss="39.29" rerouteNo="0" devices="tripinfo_4" vType="DEFAULT_VEHTYPE" speedFactor="1.00" vaporized=""/>
    <tripinfo id="5" depart="12.00" departLane="SC_3" departPos="5.10" departSpeed="0.00" departDelay="12.00" arrival="64.00" arrivalLane="CE_3" arrivalPos="86.15" arrivalSpeed="13.11" duration="52.00" routeLength="181.42" waitingTime="26.00" waitingCount="1" stopTime="0.00" timeLoss="38.06" rerouteNo="0" devices="tripinfo_5" vType="DEFAULT_VEHTYPE" speedFactor="1.00" vaporized=""/>
</tripinfos>
