<?xml version="1.0" encoding="UTF-8"?>

<!-- generated on Wed Jan  3 09:21:01 2018 by SUMO Version v0_32_0+0043-24523c2
<?xml version="1.0" encoding="UTF-8"?>

<configuration xmlns:xsi="http://www.w3.org/2001/XMLSchema-instance" xsi:noNamespaceSchemaLocation="http://sumo.dlr.de/xsd/sumoConfiguration.xsd">

    <input>
        <net-file value="three_split.net.xml"/>
        <route-files value="input_routes.rou.xml"/>
    </input>

    <output>
        <tripinfo-output value="tripinfos.xml"/>
        <stop-output value="stopinfos.xml"/>
    </output>

    <processing>
        <pedestrian.model value="nonInteracting"/>
    </processing>

    <report>
        <xml-validation value="never"/>
        <duration-log.disable value="true"/>
        <no-step-log value="true"/>
    </report>

</configuration>
-->

<tripinfos xmlns:xsi="http://www.w3.org/2001/XMLSchema-instance" xsi:noNamespaceSchemaLocation="http://sumo.dlr.de/xsd/tripinfo_file.xsd">
    <tripinfo id="v1" depart="0.00" departLane="beg_0" departPos="0.00" departSpeed="0.00" departDelay="0.00" arrival="133.00" arrivalLane="end_0" arrivalPos="500.00" arrivalSpeed="27.80" duration="133.00" routeLength="2000.00" waitingTime="0.00" stopTime="33.00" timeLoss="27.50" rerouteNo="0" devices="tripinfo_v1 person_v1" vType="DEFAULT_VEHTYPE" speedFactor="1.00" vaporized=""/>
    <personinfo id="p1" depart="0.00">
        <ride waitingTime="0.00" vehicle="v1" depart="0.00" arrival="48.00" arrivalPos="100.00" duration="48.00" routeLength="599.00"/>
        <stop duration="100.00" arrival="148.00" arrivalPos="100.00" actType="waiting"/>
    </personinfo>
    <personinfo id="p2" depart="0.00">
        <ride waitingTime="22.00" vehicle="v1" depart="22.00" arrival="48.00" arrivalPos="1000.00" duration="26.00" routeLength="500.00"/>
        <stop duration="100.00" arrival="148.00" arrivalPos="1000.00" actType="waiting"/>
    </personinfo>
    <personinfo id="p3" depart="0.00">
        <ride waitingTime="22.00" vehicle="v1" depart="22.00" arrival="48.00" arrivalPos="500.00" duration="26.00" routeLength="500.00"/>
        <stop duration="100.00" arrival="148.00" arrivalPos="500.00" actType="waiting"/>
    </personinfo>
    <personinfo id="p4" depart="0.00">
        <ride waitingTime="22.00" vehicle="v1" depart="22.00" arrival="48.00" arrivalPos="900.00" duration="26.00" routeLength="500.00"/>
        <stop duration="100.00" arrival="148.00" arrivalPos="900.00" actType="waiting"/>
    </personinfo>
</tripinfos>
