<?xml version="1.0" encoding="UTF-8"?>

<!-- generated on 2025-12-05T10:36:16.889844+01:00 by Eclipse SUMO sumo v1_25_0+0225-366109546ec
This data file and the accompanying materials
are made available under the terms of the Eclipse Public License v2.0
which accompanies this distribution, and is available at
http://www.eclipse.org/legal/epl-v20.html
This file may also be made available under the following Secondary
Licenses when the conditions for such availability set forth in the Eclipse
Public License 2.0 are satisfied: GNU General Public License, version 2
or later which is available at
https://www.gnu.org/licenses/old-licenses/gpl-2.0-standalone.html
SPDX-License-Identifier: EPL-2.0 OR GPL-2.0-or-later
<sumoConfiguration xmlns:xsi="http://www.w3.org/2001/XMLSchema-instance" xsi:noNamespaceSchemaLocation="http://sumo.dlr.de/xsd/sumoConfiguration.xsd">

    <input>
        <net-file value="net2.net.xml"/>
        <route-files value="input_routes.rou.xml"/>
    </input>

    <output>
        <write-license value="true"/>
        <tripinfo-output value="tripinfos.xml"/>
    </output>

    <processing>
        <lateral-resolution value="0.64"/>
        <default.speeddev value="0"/>
    </processing>

    <report>
        <xml-validation value="never"/>
        <duration-log.disable value="true"/>
        <no-step-log value="true"/>
    </report>

    <bluelight_device>
        <device.bluelight.explicit value="rescue"/>
    </bluelight_device>

</sumoConfiguration>
-->

<tripinfos xmlns:xsi="http://www.w3.org/2001/XMLSchema-instance" xsi:noNamespaceSchemaLocation="http://sumo.dlr.de/xsd/tripinfo_file.xsd">
    <tripinfo id="straight.0" depart="0.00" departLane="SC_1" departPos="5.10" departPosLat="0.00" departSpeed="13.89" departDelay="0.00" arrival="33.00" arrivalLane="CN_0" arrivalPos="89.60" arrivalPosLat="0.00" arrivalSpeed="13.89" duration="33.00" routeLength="174.10" waitingTime="18.00" waitingCount="1" stopTime="0.00" timeLoss="19.99" rerouteNo="0" devices="tripinfo_straight.0" vType="car" speedFactor="1.00" vaporized=""/>
    <tripinfo id="straight.1" depart="2.00" departLane="SC_1" departPos="5.10" departPosLat="0.00" departSpeed="13.89" departDelay="0.00" arrival="33.00" arrivalLane="CN_1" arrivalPos="89.60" arrivalPosLat="0.00" arrivalSpeed="13.89" duration="31.00" routeLength="174.10" waitingTime="17.00" waitingCount="1" stopTime="0.00" timeLoss="18.53" rerouteNo="0" devices="tripinfo_straight.1" vType="car" speedFactor="1.00" vaporized=""/>
    <tripinfo id="rescue" depart="12.00" departLane="SC_1" departPos="0.00" departPosLat="0.00" departSpeed="0.00" departDelay="0.00" arrival="36.00" arrivalLane="CE_0" arrivalPos="86.40" arrivalPosLat="1.60" arrivalSpeed="21.86" duration="24.00" routeLength="185.03" waitingTime="0.00" waitingCount="0" stopTime="0.00" timeLoss="16.85" rerouteNo="0" devices="tripinfo_rescue bluelight_rescue" vType="rescue" speedFactor="2.00" vaporized="">
        <bluelight/>
    </tripinfo>
    <tripinfo id="right.0" depart="0.00" departLane="SC_0" departPos="5.10" departPosLat="0.00" departSpeed="13.89" departDelay="0.00" arrival="132.00" arrivalLane="CE_0" arrivalPos="86.40" arrivalPosLat="0.00" arrivalSpeed="13.89" duration="132.00" routeLength="179.93" waitingTime="114.00" waitingCount="1" stopTime="0.00" timeLoss="118.18" rerouteNo="0" devices="tripinfo_right.0" vType="car" speedFactor="1.00" vaporized=""/>
    <tripinfo id="left.0" depart="0.00" departLane="SC_2" departPos="5.10" departPosLat="0.00" departSpeed="13.89" departDelay="0.00" arrival="133.00" arrivalLane="CW_1" arrivalPos="89.60" arrivalPosLat="0.00" arrivalSpeed="13.89" duration="133.00" routeLength="193.46" waitingTime="114.00" waitingCount="1" stopTime="0.00" timeLoss="118.27" rerouteNo="0" devices="tripinfo_left.0" vType="car" speedFactor="1.00" vaporized=""/>
    <tripinfo id="right.1" depart="2.00" departLane="SC_0" departPos="5.10" departPosLat="0.00" departSpeed="13.89" departDelay="0.00" arrival="133.00" arrivalLane="CE_0" arrivalPos="86.40" arrivalPosLat="0.00" arrivalSpeed="13.89" duration="131.00" routeLength="179.93" waitingTime="114.00" waitingCount="1" stopTime="0.00" timeLoss="117.72" rerouteNo="0" devices="tripinfo_right.1" vType="car" speedFactor="1.00" vaporized=""/>
    <tripinfo id="straight.2" depart="4.00" departLane="SC_1" departPos="5.10" departPosLat="0.00" departSpeed="13.89" departDelay="0.00" arrival="133.00" arrivalLane="CN_1" arrivalPos="89.60" arrivalPosLat="0.00" arrivalSpeed="13.89" duration="129.00" routeLength="195.22" waitingTime="108.00" waitingCount="2" stopTime="0.00" timeLoss="114.18" rerouteNo="0" devices="tripinfo_straight.2" vType="car" speedFactor="1.00" vaporized=""/>
    <tripinfo id="straight.3" depart="6.00" departLane="SC_1" departPos="5.10" departPosLat="0.00" departSpeed="13.89" departDelay="0.00" arrival="134.00" arrivalLane="CN_1" arrivalPos="89.60" arrivalPosLat="0.00" arrivalSpeed="13.89" duration="128.00" routeLength="195.22" waitingTime="107.00" waitingCount="2" stopTime="0.00" timeLoss="113.72" rerouteNo="0" devices="tripinfo_straight.3" vType="car" speedFactor="1.00" vaporized=""/>
    <tripinfo id="left.1" depart="2.00" departLane="SC_2" departPos="5.10" departPosLat="0.00" departSpeed="13.89" departDelay="0.00" arrival="135.00" arrivalLane="CW_1" arrivalPos="89.60" arrivalPosLat="0.00" arrivalSpeed="13.89" duration="133.00" routeLength="193.46" waitingTime="114.00" waitingCount="1" stopTime="0.00" timeLoss="118.09" rerouteNo="0" devices="tripinfo_left.1" vType="car" speedFactor="1.00" vaporized=""/>
    <tripinfo id="right.2" depart="4.00" departLane="SC_0" departPos="5.10" departPosLat="0.00" departSpeed="13.89" departDelay="0.00" arrival="135.00" arrivalLane="CE_0" arrivalPos="86.40" arrivalPosLat="0.00" arrivalSpeed="13.89" duration="131.00" routeLength="179.93" waitingTime="114.00" waitingCount="1" stopTime="0.00" timeLoss="117.26" rerouteNo="0" devices="tripinfo_right.2" vType="car" speedFactor="1.00" vaporized=""/>
    <tripinfo id="left.2" depart="4.00" departLane="SC_2" departPos="5.10" departPosLat="0.00" departSpeed="13.89" departDelay="0.00" arrival="136.00" arrivalLane="CW_1" arrivalPos="89.60" arrivalPosLat="0.00" arrivalSpeed="13.89" duration="132.00" routeLength="193.46" waitingTime="114.00" waitingCount="1" stopTime="0.00" timeLoss="118.04" rerouteNo="0" devices="tripinfo_left.2" vType="car" speedFactor="1.00" vaporized=""/>
    <tripinfo id="right.3" depart="6.00" departLane="SC_0" departPos="5.10" departPosLat="0.00" departSpeed="13.89" departDelay="0.00" arrival="136.00" arrivalLane="CE_0" arrivalPos="86.40" arrivalPosLat="0.00" arrivalSpeed="13.89" duration="130.00" routeLength="179.93" waitingTime="113.00" waitingCount="1" stopTime="0.00" timeLoss="116.80" rerouteNo="0" devices="tripinfo_right.3" vType="car" speedFactor="1.00" vaporized=""/>
    <tripinfo id="straight.4" depart="8.00" departLane="SC_1" departPos="5.10" departPosLat="0.00" departSpeed="13.89" departDelay="0.00" arrival="136.00" arrivalLane="CN_1" arrivalPos="89.60" arrivalPosLat="0.00" arrivalSpeed="13.89" duration="128.00" routeLength="195.22" waitingTime="107.00" waitingCount="2" stopTime="0.00" timeLoss="113.26" rerouteNo="0" devices="tripinfo_straight.4" vType="car" speedFactor="1.00" vaporized=""/>
    <tripinfo id="left.3" depart="6.00" departLane="SC_2" departPos="5.10" departPosLat="0.00" departSpeed="13.89" departDelay="0.00" arrival="138.00" arrivalLane="CW_1" arrivalPos="89.60" arrivalPosLat="0.00" arrivalSpeed="13.89" duration="132.00" routeLength="193.46" waitingTime="113.00" waitingCount="1" stopTime="0.00" timeLoss="118.02" rerouteNo="0" devices="tripinfo_left.3" vType="car" speedFactor="1.00" vaporized=""/>
    <tripinfo id="right.4" depart="8.00" departLane="SC_0" departPos="5.10" departPosLat="0.00" departSpeed="13.89" departDelay="0.00" arrival="138.00" arrivalLane="CE_0" arrivalPos="86.40" arrivalPosLat="0.00" arrivalSpeed="13.89" duration="130.00" routeLength="179.93" waitingTime="113.00" waitingCount="1" stopTime="0.00" timeLoss="116.34" rerouteNo="0" devices="tripinfo_right.4" vType="car" speedFactor="1.00" vaporized=""/>
    <tripinfo id="left.4" depart="8.00" departLane="SC_2" departPos="5.10" departPosLat="0.00" departSpeed="13.89" departDelay="0.00" arrival="140.00" arrivalLane="CW_1" arrivalPos="89.60" arrivalPosLat="0.00" arrivalSpeed="13.89" duration="132.00" routeLength="193.46" waitingTime="113.00" waitingCount="1" stopTime="0.00" timeLoss="118.01" rerouteNo="0" devices="tripinfo_left.4" vType="car" speedFactor="1.00" vaporized=""/>
</tripinfos>
