<?xml version="1.0" encoding="UTF-8"?>

<!-- generated on 2022-03-16 14:32:12 by Eclipse SUMO sumo Version v1_12_0+1410-8b2a08b68af
This data file and the accompanying materials
are made available under the terms of the Eclipse Public License v2.0
which accompanies this distribution, and is available at
http://www.eclipse.org/legal/epl-v20.html
This file may also be made available under the following Secondary
Licenses when the conditions for such availability set forth in the Eclipse
Public License 2.0 are satisfied: GNU General Public License, version 2
or later which is available at
https://www.gnu.org/licenses/old-licenses/gpl-2.0-standalone.html
SPDX-License-Identifier: EPL-2.0 OR GPL-2.0-or-later
<configuration xmlns:xsi="http://www.w3.org/2001/XMLSchema-instance" xsi:noNamespaceSchemaLocation="http://sumo.dlr.de/xsd/sumoConfiguration.xsd">

    <input>
        <net-file value="net.net.xml"/>
        <route-files value="input_routes.rou.xml"/>
    </input>

    <output>
        <write-license value="true"/>
        <tripinfo-output value="tripinfos.xml"/>
        <stop-output value="stopinfos.xml"/>
        <stop-output.write-unfinished value="true"/>
    </output>

    <time>
        <end value="1000"/>
    </time>

    <processing>
        <default.speeddev value="0"/>
    </processing>

    <report>
        <xml-validation value="never"/>
        <xml-validation.routes value="never"/>
        <duration-log.disable value="true"/>
        <no-step-log value="true"/>
    </report>

</configuration>
-->

<tripinfos xmlns:xsi="http://www.w3.org/2001/XMLSchema-instance" xsi:noNamespaceSchemaLocation="http://sumo.dlr.de/xsd/tripinfo_file.xsd">
    <personinfo id="p.0" depart="0.00" type="DEFAULT_PEDTYPE">
        <ride waitingTime="77.00" vehicle="trip_0" depart="77.00" arrival="198.00" arrivalPos="287.60" duration="121.00" routeLength="1372.08" timeLoss="20.23"/>
    </personinfo>
    <personinfo id="p.1" depart="7.50" type="DEFAULT_PEDTYPE">
        <ride waitingTime="287.00" vehicle="trip_0" depart="295.00" arrival="414.00" arrivalPos="287.60" duration="119.00" routeLength="1372.02" timeLoss="18.76"/>
    </personinfo>
    <personinfo id="p.2" depart="15.00" type="DEFAULT_PEDTYPE">
        <ride waitingTime="460.00" vehicle="trip_0" depart="475.00" arrival="595.00" arrivalPos="287.60" duration="120.00" routeLength="1372.03" timeLoss="19.30"/>
    </personinfo>
    <personinfo id="p.3" depart="22.50" type="DEFAULT_PEDTYPE">
        <ride waitingTime="631.00" vehicle="trip_0" depart="654.00" arrival="777.00" arrivalPos="287.60" duration="123.00" routeLength="1372.10" timeLoss="22.21"/>
    </personinfo>
</tripinfos>
