<?xml version="1.0" encoding="UTF-8"?>

<!-- generated on Sun Apr 18 09:40:47 2021 by Eclipse SUMO sumo Version v1_9_0+0102-f757db3
This data file and the accompanying materials
are made available under the terms of the Eclipse Public License v2.0
which accompanies this distribution, and is available at
http://www.eclipse.org/legal/epl-v20.html
SPDX-License-Identifier: EPL-2.0
<configuration xmlns:xsi="http://www.w3.org/2001/XMLSchema-instance" xsi:noNamespaceSchemaLocation="http://sumo.dlr.de/xsd/sumoConfiguration.xsd">

    <input>
        <net-file value="net.net.xml"/>
        <route-files value="input_routes.rou.xml"/>
    </input>

    <output>
        <write-license value="true"/>
        <tripinfo-output value="tripinfos.xml"/>
        <stop-output value="stopinfos.xml"/>
        <stop-output.write-unfinished value="true"/>
    </output>

    <time>
        <end value="1000"/>
    </time>

    <processing>
        <default.speeddev value="0"/>
    </processing>

    <report>
        <xml-validation value="never"/>
        <xml-validation.routes value="never"/>
        <duration-log.disable value="true"/>
        <no-step-log value="true"/>
    </report>

</configuration>
-->

<tripinfos xmlns:xsi="http://www.w3.org/2001/XMLSchema-instance" xsi:noNamespaceSchemaLocation="http://sumo.dlr.de/xsd/tripinfo_file.xsd">
    <personinfo id="p.0" depart="0.00" type="DEFAULT_PEDTYPE">
        <ride waitingTime="77.00" vehicle="trip_0" depart="77.00" arrival="198.00" arrivalPos="287.60" duration="121.00" routeLength="1372.08" timeLoss="20.23"/>
    </personinfo>
    <personinfo id="p.1" depart="7.50" type="DEFAULT_PEDTYPE">
        <ride waitingTime="287.00" vehicle="trip_0" depart="295.00" arrival="418.00" arrivalPos="287.60" duration="123.00" routeLength="1370.22" timeLoss="22.24"/>
    </personinfo>
    <personinfo id="p.2" depart="15.00" type="DEFAULT_PEDTYPE">
        <ride waitingTime="460.00" vehicle="trip_0" depart="475.00" arrival="594.00" arrivalPos="287.60" duration="119.00" routeLength="1372.07" timeLoss="18.64"/>
    </personinfo>
    <personinfo id="p.3" depart="22.50" type="DEFAULT_PEDTYPE">
        <ride waitingTime="632.00" vehicle="trip_0" depart="655.00" arrival="781.00" arrivalPos="287.60" duration="126.00" routeLength="1370.25" timeLoss="25.17"/>
    </personinfo>
</tripinfos>
