<?xml version="1.0" encoding="UTF-8"?>

<!-- generated on Wed Dec 18 10:05:50 2019 by Eclipse SUMO Version v1_4_0+0173-908b4d0
This data file and the accompanying materials
are made available under the terms of the Eclipse Public License v2.0
which accompanies this distribution, and is available at
http://www.eclipse.org/legal/epl-v20.html
SPDX-License-Identifier: EPL-2.0
<configuration xmlns:xsi="http://www.w3.org/2001/XMLSchema-instance" xsi:noNamespaceSchemaLocation="http://sumo.dlr.de/xsd/sumoConfiguration.xsd">

    <input>
        <net-file value="net.net.xml"/>
        <route-files value="input_routes.rou.xml"/>
        <additional-files value="input_additional.add.xml"/>
    </input>

    <output>
        <write-license value="true"/>
        <tripinfo-output value="tripinfos.xml"/>
    </output>

    <processing>
        <default.speeddev value="0"/>
        <pedestrian.model value="nonInteracting"/>
    </processing>

    <report>
        <verbose value="true"/>
        <xml-validation value="never"/>
        <no-step-log value="true"/>
    </report>

    <mesoscopic>
        <mesosim value="true"/>
    </mesoscopic>

</configuration>
-->

<tripinfos xmlns:xsi="http://www.w3.org/2001/XMLSchema-instance" xsi:noNamespaceSchemaLocation="http://sumo.dlr.de/xsd/tripinfo_file.xsd">
    <containerinfo id="container0" depart="0.00" type="DEFAULT_CONTAINERTYPE">
        <tranship depart="0.00" departPos="80.00" arrival="54.00" arrivalPos="55.00" duration="54.00" routeLength="75.00" maxSpeed="1.39"/>
        <transport waitingTime="80.00" vehicle="truck0" depart="134.00" arrival="187.00" arrivalPos="0.00" duration="53.00" routeLength="182.50"/>
    </containerinfo>
    <containerinfo id="container1" depart="0.00" type="DEFAULT_CONTAINERTYPE">
        <tranship depart="0.00" departPos="80.00" arrival="54.00" arrivalPos="55.00" duration="54.00" routeLength="75.00" maxSpeed="1.39"/>
        <transport waitingTime="83.00" vehicle="truck1" depart="137.00" arrival="190.00" arrivalPos="0.00" duration="53.00" routeLength="182.50"/>
    </containerinfo>
    <tripinfo id="truck0" depart="50.00" departLane="" departPos="0.00" departSpeed="13.90" departDelay="0.00" arrival="194.00" arrivalLane="" arrivalPos="90.50" arrivalSpeed="13.90" duration="144.00" routeLength="455.50" waitingTime="0.00" waitingCount="0" stopTime="110.36" timeLoss="110.36" rerouteNo="0" devices="tripinfo_truck0 container_truck0" vType="truck" speedFactor="1.00" vaporized=""/>
    <tripinfo id="truck1" depart="57.00" departLane="" departPos="0.00" departSpeed="13.90" departDelay="7.00" arrival="197.00" arrivalLane="" arrivalPos="90.50" arrivalSpeed="13.90" duration="140.00" routeLength="455.50" waitingTime="0.00" waitingCount="0" stopTime="100.25" timeLoss="106.47" rerouteNo="0" devices="tripinfo_truck1 container_truck1" vType="truck" speedFactor="1.00" vaporized=""/>
</tripinfos>
