<?xml version="1.0" encoding="UTF-8"?>

<!-- generated on Sat Mar 28 13:34:16 2020 by Eclipse SUMO Version v1_5_0+0988-75786a29d6
This data file and the accompanying materials
are made available under the terms of the Eclipse Public License v2.0
which accompanies this distribution, and is available at
http://www.eclipse.org/legal/epl-v20.html
SPDX-License-Identifier: EPL-2.0
<configuration xmlns:xsi="http://www.w3.org/2001/XMLSchema-instance" xsi:noNamespaceSchemaLocation="http://sumo.dlr.de/xsd/sumoConfiguration.xsd">

    <input>
        <net-file value="net.net.xml"/>
        <route-files value="input_routes.rou.xml"/>
    </input>

    <output>
        <write-license value="true"/>
        <vehroute-output value="vehroutes.xml"/>
        <stop-output value="stopinfos.xml"/>
    </output>

    <processing>
        <default.speeddev value="0"/>
        <pedestrian.model value="nonInteracting"/>
    </processing>

    <report>
        <xml-validation value="never"/>
        <duration-log.disable value="true"/>
        <no-step-log value="true"/>
    </report>

    <mesoscopic>
        <mesosim value="true"/>
    </mesoscopic>

</configuration>
-->

<stops xmlns:xsi="http://www.w3.org/2001/XMLSchema-instance" xsi:noNamespaceSchemaLocation="http://sumo.dlr.de/xsd/stopinfo_file.xsd">
    <stopinfo id="bus1.0" type="DEFAULT_VEHTYPE" edge="beg" pos="0.00" parking="0" started="54.00" ended="54.00" delay="4.00" arrivalDelay="34.00" initialPersons="0" loadedPersons="0" unloadedPersons="0" initialContainers="0" loadedContainers="0" unloadedContainers="0"/>
    <stopinfo id="bus1.0" type="DEFAULT_VEHTYPE" edge="end" pos="0.00" parking="0" started="104.00" ended="104.00" delay="4.00" arrivalDelay="34.00" initialPersons="0" loadedPersons="0" unloadedPersons="0" initialContainers="0" loadedContainers="0" unloadedContainers="0"/>
    <stopinfo id="bus1.1" type="DEFAULT_VEHTYPE" edge="beg" pos="0.00" parking="0" started="154.00" ended="154.00" delay="4.00" arrivalDelay="34.00" initialPersons="0" loadedPersons="0" unloadedPersons="0" initialContainers="0" loadedContainers="0" unloadedContainers="0"/>
    <stopinfo id="bus1.1" type="DEFAULT_VEHTYPE" edge="end" pos="0.00" parking="0" started="204.00" ended="204.00" delay="4.00" arrivalDelay="34.00" initialPersons="0" loadedPersons="0" unloadedPersons="0" initialContainers="0" loadedContainers="0" unloadedContainers="0"/>
    <stopinfo id="bus1.2" type="DEFAULT_VEHTYPE" edge="beg" pos="0.00" parking="0" started="254.00" ended="254.00" delay="4.00" arrivalDelay="34.00" initialPersons="0" loadedPersons="0" unloadedPersons="0" initialContainers="0" loadedContainers="0" unloadedContainers="0"/>
    <stopinfo id="bus1.2" type="DEFAULT_VEHTYPE" edge="end" pos="0.00" parking="0" started="304.00" ended="304.00" delay="4.00" arrivalDelay="34.00" initialPersons="0" loadedPersons="0" unloadedPersons="0" initialContainers="0" loadedContainers="0" unloadedContainers="0"/>
    <stopinfo id="bus2.0" type="DEFAULT_VEHTYPE" edge="beg" pos="0.00" parking="0" started="554.00" ended="554.00" delay="4.00" arrivalDelay="34.00" initialPersons="0" loadedPersons="0" unloadedPersons="0" initialContainers="0" loadedContainers="0" unloadedContainers="0"/>
    <stopinfo id="bus2.0" type="DEFAULT_VEHTYPE" edge="end" pos="0.00" parking="0" started="604.00" ended="604.00" delay="4.00" arrivalDelay="34.00" initialPersons="0" loadedPersons="0" unloadedPersons="0" initialContainers="0" loadedContainers="0" unloadedContainers="0"/>
    <stopinfo id="bus2.1" type="DEFAULT_VEHTYPE" edge="beg" pos="0.00" parking="0" started="654.00" ended="654.00" delay="4.00" arrivalDelay="34.00" initialPersons="0" loadedPersons="0" unloadedPersons="0" initialContainers="0" loadedContainers="0" unloadedContainers="0"/>
    <stopinfo id="bus2.1" type="DEFAULT_VEHTYPE" edge="end" pos="0.00" parking="0" started="704.00" ended="704.00" delay="4.00" arrivalDelay="34.00" initialPersons="0" loadedPersons="0" unloadedPersons="0" initialContainers="0" loadedContainers="0" unloadedContainers="0"/>
    <stopinfo id="bus3.0" type="DEFAULT_VEHTYPE" edge="beg" pos="0.00" parking="0" started="1054.00" ended="1054.00" delay="4.00" arrivalDelay="34.00" initialPersons="0" loadedPersons="0" unloadedPersons="0" initialContainers="0" loadedContainers="0" unloadedContainers="0"/>
    <stopinfo id="bus3.0" type="DEFAULT_VEHTYPE" edge="end" pos="0.00" parking="0" started="1104.00" ended="1104.00" delay="4.00" arrivalDelay="34.00" initialPersons="0" loadedPersons="0" unloadedPersons="0" initialContainers="0" loadedContainers="0" unloadedContainers="0"/>
    <stopinfo id="bus3.1" type="DEFAULT_VEHTYPE" edge="beg" pos="0.00" parking="0" started="1154.00" ended="1154.00" delay="4.00" arrivalDelay="34.00" initialPersons="0" loadedPersons="0" unloadedPersons="0" initialContainers="0" loadedContainers="0" unloadedContainers="0"/>
    <stopinfo id="bus3.1" type="DEFAULT_VEHTYPE" edge="end" pos="0.00" parking="0" started="1204.00" ended="1204.00" delay="4.00" arrivalDelay="34.00" initialPersons="0" loadedPersons="0" unloadedPersons="0" initialContainers="0" loadedContainers="0" unloadedContainers="0"/>
    <stopinfo id="bus3.2" type="DEFAULT_VEHTYPE" edge="beg" pos="0.00" parking="0" started="1254.00" ended="1254.00" delay="4.00" arrivalDelay="34.00" initialPersons="0" loadedPersons="0" unloadedPersons="0" initialContainers="0" loadedContainers="0" unloadedContainers="0"/>
    <stopinfo id="bus3.2" type="DEFAULT_VEHTYPE" edge="end" pos="0.00" parking="0" started="1304.00" ended="1304.00" delay="4.00" arrivalDelay="34.00" initialPersons="0" loadedPersons="0" unloadedPersons="0" initialContainers="0" loadedContainers="0" unloadedContainers="0"/>
    <stopinfo id="bus4.0" type="DEFAULT_VEHTYPE" edge="beg" pos="0.00" parking="0" started="1554.00" ended="1554.00" delay="4.00" arrivalDelay="34.00" initialPersons="0" loadedPersons="0" unloadedPersons="0" initialContainers="0" loadedContainers="0" unloadedContainers="0"/>
    <stopinfo id="bus4.0" type="DEFAULT_VEHTYPE" edge="end" pos="0.00" parking="0" started="1604.00" ended="1604.00" delay="4.00" arrivalDelay="34.00" initialPersons="0" loadedPersons="0" unloadedPersons="0" initialContainers="0" loadedContainers="0" unloadedContainers="0"/>
    <stopinfo id="bus4.1" type="DEFAULT_VEHTYPE" edge="beg" pos="0.00" parking="0" started="1654.00" ended="1654.00" delay="4.00" arrivalDelay="34.00" initialPersons="0" loadedPersons="0" unloadedPersons="0" initialContainers="0" loadedContainers="0" unloadedContainers="0"/>
    <stopinfo id="bus4.1" type="DEFAULT_VEHTYPE" edge="end" pos="0.00" parking="0" started="1704.00" ended="1704.00" delay="4.00" arrivalDelay="34.00" initialPersons="0" loadedPersons="0" unloadedPersons="0" initialContainers="0" loadedContainers="0" unloadedContainers="0"/>
</stops>
