<?xml version="1.0" encoding="UTF-8"?>

<!-- generated on 2025-04-22 10:44:44 by Eclipse SUMO sumo Version v1_22_0+1617-22b86256498
This data file and the accompanying materials
are made available under the terms of the Eclipse Public License v2.0
which accompanies this distribution, and is available at
http://www.eclipse.org/legal/epl-v20.html
This file may also be made available under the following Secondary
Licenses when the conditions for such availability set forth in the Eclipse
Public License 2.0 are satisfied: GNU General Public License, version 2
or later which is available at
https://www.gnu.org/licenses/old-licenses/gpl-2.0-standalone.html
SPDX-License-Identifier: EPL-2.0 OR GPL-2.0-or-later
<sumoConfiguration xmlns:xsi="http://www.w3.org/2001/XMLSchema-instance" xsi:noNamespaceSchemaLocation="http://sumo.dlr.de/xsd/sumoConfiguration.xsd">

    <input>
        <net-file value="net2.net.xml"/>
        <route-files value="input_routes.rou.xml"/>
    </input>

    <output>
        <write-license value="true"/>
        <emission-output value="rawdump.xml"/>
    </output>

    <time>
        <end value="2"/>
        <step-length value="0.005"/>
    </time>

    <processing>
        <default.speeddev value="0"/>
    </processing>

    <report>
        <xml-validation value="never"/>
        <duration-log.disable value="true"/>
        <no-step-log value="true"/>
    </report>

    <emissions>
        <device.emissions.begin value="0.4"/>
        <device.emissions.period value="0.25"/>
    </emissions>

</sumoConfiguration>
-->

<emission-export xmlns:xsi="http://www.w3.org/2001/XMLSchema-instance" xsi:noNamespaceSchemaLocation="http://sumo.dlr.de/xsd/emission_file.xsd">
    <timestep time="0.400">
        <vehicle id="0" eclass="HBEFA4/PC_petrol_Euro-4" CO2="3288.365" CO="0.377" HC="0.002" NOx="0.707" PMx="0.026" fuel="1065.977" electricity="0.000" noise="65.614" route="r1" type="DEFAULT_VEHTYPE" waiting="0.000" lane="WC_0" pos="5.303" speed="0.982" angle="90.000" x="5.303" y="95.050"/>
    </timestep>
    <timestep time="0.650">
        <vehicle id="0" eclass="HBEFA4/PC_petrol_Euro-4" CO2="3252.826" CO="0.840" HC="0.006" NOx="0.751" PMx="0.042" fuel="1054.470" electricity="0.000" noise="64.795" route="r1" type="DEFAULT_VEHTYPE" waiting="0.000" lane="WC_0" pos="5.623" speed="1.552" angle="90.000" x="5.623" y="95.050"/>
    </timestep>
    <timestep time="0.900">
        <vehicle id="0" eclass="HBEFA4/PC_petrol_Euro-4" CO2="3824.113" CO="1.874" HC="0.012" NOx="0.848" PMx="0.058" fuel="1239.664" electricity="0.000" noise="66.853" route="r1" type="DEFAULT_VEHTYPE" waiting="0.000" lane="WC_0" pos="6.080" speed="2.094" angle="90.000" x="6.080" y="95.050"/>
    </timestep>
    <timestep time="1.150">
        <vehicle id="0" eclass="HBEFA4/PC_petrol_Euro-4" CO2="3233.093" CO="2.017" HC="0.013" NOx="0.820" PMx="0.072" fuel="1048.090" electricity="0.000" noise="63.858" route="r1" type="DEFAULT_VEHTYPE" waiting="0.000" lane="WC_0" pos="6.672" speed="2.614" angle="90.000" x="6.672" y="95.050"/>
    </timestep>
    <timestep time="1.400">
        <vehicle id="0" eclass="HBEFA4/PC_petrol_Euro-4" CO2="4258.774" CO="4.280" HC="0.028" NOx="0.994" PMx="0.090" fuel="1380.583" electricity="0.000" noise="67.506" route="r1" type="DEFAULT_VEHTYPE" waiting="0.000" lane="WC_0" pos="7.391" speed="3.117" angle="90.000" x="7.391" y="95.050"/>
    </timestep>
    <timestep time="1.650">
        <vehicle id="0" eclass="HBEFA4/PC_petrol_Euro-4" CO2="3923.499" CO="4.712" HC="0.031" NOx="0.983" PMx="0.104" fuel="1271.907" electricity="0.000" noise="65.829" route="r1" type="DEFAULT_VEHTYPE" waiting="0.000" lane="WC_0" pos="8.232" speed="3.601" angle="90.000" x="8.232" y="95.050"/>
    </timestep>
    <timestep time="1.900">
        <vehicle id="0" eclass="HBEFA4/PC_petrol_Euro-4" CO2="4699.185" CO="7.533" HC="0.050" NOx="1.150" PMx="0.123" fuel="1523.365" electricity="0.000" noise="68.125" route="r1" type="DEFAULT_VEHTYPE" waiting="0.000" lane="WC_0" pos="9.192" speed="4.079" angle="90.000" x="9.192" y="95.050"/>
    </timestep>
</emission-export>
