<?xml version="1.0" encoding="UTF-8"?>

<!-- generated on Fri Oct 20 16:35:55 2017 by SUMO Version svn
<?xml version="1.0" encoding="UTF-8"?>

<configuration xmlns:xsi="http://www.w3.org/2001/XMLSchema-instance" xsi:noNamespaceSchemaLocation="http://sumo.dlr.de/xsd/sumoConfiguration.xsd">

    <input>
        <net-file value="net.net.xml"/>
        <route-files value="input_routes.rou.xml"/>
    </input>

    <output>
        <tripinfo-output value="tripinfos.xml"/>
        <vehroute-output value="vehroutes.xml"/>
    </output>

    <routing>
        <routing-algorithm value="astar"/>
        <device.rerouting.probability value="1"/>
        <device.rerouting.period value="240"/>
        <device.rerouting.adaptation-interval value="1"/>
    </routing>

    <report>
        <xml-validation value="never"/>
        <no-step-log value="true"/>
    </report>

</configuration>
-->

<routes xmlns:xsi="http://www.w3.org/2001/XMLSchema-instance" xsi:noNamespaceSchemaLocation="http://sumo.dlr.de/xsd/routes_file.xsd">
    <vehicle id="type1.0" type="car" depart="0.00" color="yellow" arrival="115.00">
        <routeDistribution>
            <route replacedOnEdge="" replacedAtTime="0.00" probability="0" edges="gneE0 gneE1"/>
            <route edges="gneE0 0-0to0-1 0-1to1-1 1-1to1-2 1-2to2-2 gneE1"/>
        </routeDistribution>
    </vehicle>

    <vehicle id="type1.6" type="car" depart="13.00" color="yellow" arrival="117.00">
        <routeDistribution>
            <route replacedOnEdge="" replacedAtTime="6.00" probability="0" edges="gneE0 gneE1"/>
            <route replacedOnEdge="" replacedAtTime="13.00" probability="0" edges="gneE0 0-0to0-1 0-1to1-1 1-1to1-2 1-2to2-2 gneE1"/>
            <route edges="gneE0 0-0to1-0 1-0to1-1 1-1to1-2 1-2to2-2 gneE1"/>
        </routeDistribution>
    </vehicle>

    <vehicle id="type1.7" type="car" depart="16.00" color="yellow" arrival="118.00">
        <routeDistribution>
            <route replacedOnEdge="" replacedAtTime="7.00" probability="0" edges="gneE0 gneE1"/>
            <route replacedOnEdge="" replacedAtTime="13.00" probability="0" edges="gneE0 0-0to0-1 0-1to1-1 1-1to1-2 1-2to2-2 gneE1"/>
            <route edges="gneE0 0-0to1-0 1-0to1-1 1-1to1-2 1-2to2-2 gneE1"/>
        </routeDistribution>
    </vehicle>

    <vehicle id="type1.1" type="car" depart="3.00" color="yellow" arrival="185.00">
        <routeDistribution>
            <route replacedOnEdge="" replacedAtTime="1.00" probability="0" edges="gneE0 gneE1"/>
            <route edges="gneE0 0-0to0-1 0-1to1-1 1-1to1-2 1-2to2-2 gneE1"/>
        </routeDistribution>
    </vehicle>

    <vehicle id="type1.2" type="car" depart="5.00" color="yellow" arrival="187.00">
        <routeDistribution>
            <route replacedOnEdge="" replacedAtTime="2.00" probability="0" edges="gneE0 gneE1"/>
            <route edges="gneE0 0-0to0-1 0-1to1-1 1-1to1-2 1-2to2-2 gneE1"/>
        </routeDistribution>
    </vehicle>

    <vehicle id="type1.3" type="car" depart="7.00" color="yellow" arrival="188.00">
        <routeDistribution>
            <route replacedOnEdge="" replacedAtTime="3.00" probability="0" edges="gneE0 gneE1"/>
            <route edges="gneE0 0-0to0-1 0-1to1-1 1-1to1-2 1-2to2-2 gneE1"/>
        </routeDistribution>
    </vehicle>

    <vehicle id="type1.4" type="car" depart="9.00" color="yellow" arrival="189.00">
        <routeDistribution>
            <route replacedOnEdge="" replacedAtTime="4.00" probability="0" edges="gneE0 gneE1"/>
            <route edges="gneE0 0-0to0-1 0-1to1-1 1-1to1-2 1-2to2-2 gneE1"/>
        </routeDistribution>
    </vehicle>

    <vehicle id="type1.5" type="car" depart="11.00" color="yellow" arrival="191.00">
        <routeDistribution>
            <route replacedOnEdge="" replacedAtTime="5.00" probability="0" edges="gneE0 gneE1"/>
            <route edges="gneE0 0-0to0-1 0-1to1-1 1-1to1-2 1-2to2-2 gneE1"/>
        </routeDistribution>
    </vehicle>

    <vehicle id="type1.8" type="car" depart="19.00" color="yellow" arrival="192.00">
        <routeDistribution>
            <route replacedOnEdge="" replacedAtTime="8.00" probability="0" edges="gneE0 gneE1"/>
            <route replacedOnEdge="" replacedAtTime="13.00" probability="0" edges="gneE0 0-0to0-1 0-1to1-1 1-1to1-2 1-2to2-2 gneE1"/>
            <route edges="gneE0 0-0to1-0 1-0to1-1 1-1to1-2 1-2to2-2 gneE1"/>
        </routeDistribution>
    </vehicle>

    <vehicle id="type1.9" type="car" depart="22.00" color="yellow" arrival="194.00">
        <routeDistribution>
            <route replacedOnEdge="" replacedAtTime="9.00" probability="0" edges="gneE0 gneE1"/>
            <route replacedOnEdge="" replacedAtTime="13.00" probability="0" edges="gneE0 0-0to0-1 0-1to1-1 1-1to1-2 1-2to2-2 gneE1"/>
            <route edges="gneE0 0-0to1-0 1-0to1-1 1-1to1-2 1-2to2-2 gneE1"/>
        </routeDistribution>
    </vehicle>

    <vehicle id="type1.10" type="car" depart="25.00" color="yellow" arrival="195.00">
        <routeDistribution>
            <route replacedOnEdge="" replacedAtTime="10.00" probability="0" edges="gneE0 gneE1"/>
            <route replacedOnEdge="" replacedAtTime="13.00" probability="0" edges="gneE0 0-0to0-1 0-1to1-1 1-1to1-2 1-2to2-2 gneE1"/>
            <route edges="gneE0 0-0to1-0 1-0to1-1 1-1to1-2 1-2to2-2 gneE1"/>
        </routeDistribution>
    </vehicle>

    <vehicle id="type1.11" type="car" depart="28.00" color="yellow" arrival="197.00">
        <routeDistribution>
            <route replacedOnEdge="" replacedAtTime="11.00" probability="0" edges="gneE0 gneE1"/>
            <route replacedOnEdge="" replacedAtTime="13.00" probability="0" edges="gneE0 0-0to0-1 0-1to1-1 1-1to1-2 1-2to2-2 gneE1"/>
            <route edges="gneE0 0-0to1-0 1-0to1-1 1-1to1-2 1-2to2-2 gneE1"/>
        </routeDistribution>
    </vehicle>

    <vehicle id="type1.18" type="car" depart="49.00" color="yellow" arrival="198.00">
        <routeDistribution>
            <route replacedOnEdge="" replacedAtTime="18.00" probability="0" edges="gneE0 gneE1"/>
            <route replacedOnEdge="" replacedAtTime="42.00" probability="0" edges="gneE0 0-0to1-0 1-0to1-1 1-1to1-2 1-2to2-2 gneE1"/>
            <route replacedOnEdge="" replacedAtTime="49.00" probability="0" edges="gneE0 0-0to1-0 1-0to2-0 2-0to2-1 2-1to2-2 gneE1"/>
            <route edges="gneE0 0-0to0-1 0-1to0-2 0-2to1-2 1-2to2-2 gneE1"/>
        </routeDistribution>
    </vehicle>

    <vehicle id="type1.19" type="car" depart="52.00" color="yellow" arrival="199.00">
        <routeDistribution>
            <route replacedOnEdge="" replacedAtTime="19.00" probability="0" edges="gneE0 gneE1"/>
            <route replacedOnEdge="" replacedAtTime="42.00" probability="0" edges="gneE0 0-0to1-0 1-0to1-1 1-1to1-2 1-2to2-2 gneE1"/>
            <route replacedOnEdge="" replacedAtTime="49.00" probability="0" edges="gneE0 0-0to1-0 1-0to2-0 2-0to2-1 2-1to2-2 gneE1"/>
            <route edges="gneE0 0-0to0-1 0-1to0-2 0-2to1-2 1-2to2-2 gneE1"/>
        </routeDistribution>
    </vehicle>

    <vehicle id="type1.20" type="car" depart="54.00" color="yellow" arrival="201.00">
        <routeDistribution>
            <route replacedOnEdge="" replacedAtTime="20.00" probability="0" edges="gneE0 gneE1"/>
            <route replacedOnEdge="" replacedAtTime="42.00" probability="0" edges="gneE0 0-0to1-0 1-0to1-1 1-1to1-2 1-2to2-2 gneE1"/>
            <route replacedOnEdge="" replacedAtTime="49.00" probability="0" edges="gneE0 0-0to1-0 1-0to2-0 2-0to2-1 2-1to2-2 gneE1"/>
            <route edges="gneE0 0-0to0-1 0-1to0-2 0-2to1-2 1-2to2-2 gneE1"/>
        </routeDistribution>
    </vehicle>

    <vehicle id="type1.21" type="car" depart="56.00" color="yellow" arrival="202.00">
        <routeDistribution>
            <route replacedOnEdge="" replacedAtTime="21.00" probability="0" edges="gneE0 gneE1"/>
            <route replacedOnEdge="" replacedAtTime="42.00" probability="0" edges="gneE0 0-0to1-0 1-0to1-1 1-1to1-2 1-2to2-2 gneE1"/>
            <route replacedOnEdge="" replacedAtTime="49.00" probability="0" edges="gneE0 0-0to1-0 1-0to2-0 2-0to2-1 2-1to2-2 gneE1"/>
            <route edges="gneE0 0-0to0-1 0-1to0-2 0-2to1-2 1-2to2-2 gneE1"/>
        </routeDistribution>
    </vehicle>

    <vehicle id="type1.22" type="car" depart="58.00" color="yellow" arrival="204.00">
        <routeDistribution>
            <route replacedOnEdge="" replacedAtTime="22.00" probability="0" edges="gneE0 gneE1"/>
            <route replacedOnEdge="" replacedAtTime="42.00" probability="0" edges="gneE0 0-0to1-0 1-0to1-1 1-1to1-2 1-2to2-2 gneE1"/>
            <route replacedOnEdge="" replacedAtTime="49.00" probability="0" edges="gneE0 0-0to1-0 1-0to2-0 2-0to2-1 2-1to2-2 gneE1"/>
            <route edges="gneE0 0-0to0-1 0-1to0-2 0-2to1-2 1-2to2-2 gneE1"/>
        </routeDistribution>
    </vehicle>

    <vehicle id="type1.23" type="car" depart="60.00" color="yellow" arrival="205.00">
        <routeDistribution>
            <route replacedOnEdge="" replacedAtTime="23.00" probability="0" edges="gneE0 gneE1"/>
            <route replacedOnEdge="" replacedAtTime="42.00" probability="0" edges="gneE0 0-0to1-0 1-0to1-1 1-1to1-2 1-2to2-2 gneE1"/>
            <route replacedOnEdge="" replacedAtTime="49.00" probability="0" edges="gneE0 0-0to1-0 1-0to2-0 2-0to2-1 2-1to2-2 gneE1"/>
            <route edges="gneE0 0-0to0-1 0-1to0-2 0-2to1-2 1-2to2-2 gneE1"/>
        </routeDistribution>
    </vehicle>

    <vehicle id="type1.24" type="car" depart="62.00" color="yellow" arrival="207.00">
        <routeDistribution>
            <route replacedOnEdge="" replacedAtTime="24.00" probability="0" edges="gneE0 gneE1"/>
            <route replacedOnEdge="" replacedAtTime="42.00" probability="0" edges="gneE0 0-0to1-0 1-0to1-1 1-1to1-2 1-2to2-2 gneE1"/>
            <route replacedOnEdge="" replacedAtTime="49.00" probability="0" edges="gneE0 0-0to1-0 1-0to2-0 2-0to2-1 2-1to2-2 gneE1"/>
            <route edges="gneE0 0-0to0-1 0-1to0-2 0-2to1-2 1-2to2-2 gneE1"/>
        </routeDistribution>
    </vehicle>

    <vehicle id="type1.25" type="car" depart="64.00" color="yellow" arrival="208.00">
        <routeDistribution>
            <route replacedOnEdge="" replacedAtTime="25.00" probability="0" edges="gneE0 gneE1"/>
            <route replacedOnEdge="" replacedAtTime="42.00" probability="0" edges="gneE0 0-0to1-0 1-0to1-1 1-1to1-2 1-2to2-2 gneE1"/>
            <route replacedOnEdge="" replacedAtTime="49.00" probability="0" edges="gneE0 0-0to1-0 1-0to2-0 2-0to2-1 2-1to2-2 gneE1"/>
            <route edges="gneE0 0-0to0-1 0-1to0-2 0-2to1-2 1-2to2-2 gneE1"/>
        </routeDistribution>
    </vehicle>

    <vehicle id="type1.16" type="car" depart="43.00" color="yellow" arrival="219.00">
        <routeDistribution>
            <route replacedOnEdge="" replacedAtTime="16.00" probability="0" edges="gneE0 gneE1"/>
            <route replacedOnEdge="" replacedAtTime="42.00" probability="0" edges="gneE0 0-0to1-0 1-0to1-1 1-1to1-2 1-2to2-2 gneE1"/>
            <route edges="gneE0 0-0to1-0 1-0to2-0 2-0to2-1 2-1to2-2 gneE1"/>
        </routeDistribution>
    </vehicle>

    <vehicle id="type1.41" type="car" depart="102.00" color="yellow" arrival="227.00">
        <routeDistribution>
            <route replacedOnEdge="" replacedAtTime="41.00" probability="0" edges="gneE0 gneE1"/>
            <route replacedOnEdge="" replacedAtTime="42.00" probability="0" edges="gneE0 0-0to1-0 1-0to1-1 1-1to1-2 1-2to2-2 gneE1"/>
            <route replacedOnEdge="" replacedAtTime="49.00" probability="0" edges="gneE0 0-0to1-0 1-0to2-0 2-0to2-1 2-1to2-2 gneE1"/>
            <route replacedOnEdge="" replacedAtTime="83.00" probability="0" edges="gneE0 0-0to0-1 0-1to0-2 0-2to1-2 1-2to2-2 gneE1"/>
            <route replacedOnEdge="" replacedAtTime="102.00" probability="0" edges="gneE0 0-0to1-0 1-0to2-0 2-0to2-1 2-1to2-2 gneE1"/>
            <route edges="gneE0 0-0to0-1 0-1to1-1 1-1to2-1 2-1to2-2 gneE1"/>
        </routeDistribution>
    </vehicle>

    <vehicle id="type1.42" type="car" depart="103.00" color="yellow" arrival="228.00">
        <routeDistribution>
            <route replacedOnEdge="" replacedAtTime="42.00" probability="0" edges="gneE0 gneE1"/>
            <route replacedOnEdge="" replacedAtTime="49.00" probability="0" edges="gneE0 0-0to1-0 1-0to2-0 2-0to2-1 2-1to2-2 gneE1"/>
            <route replacedOnEdge="" replacedAtTime="83.00" probability="0" edges="gneE0 0-0to0-1 0-1to0-2 0-2to1-2 1-2to2-2 gneE1"/>
            <route replacedOnEdge="" replacedAtTime="102.00" probability="0" edges="gneE0 0-0to1-0 1-0to2-0 2-0to2-1 2-1to2-2 gneE1"/>
            <route edges="gneE0 0-0to0-1 0-1to1-1 1-1to2-1 2-1to2-2 gneE1"/>
        </routeDistribution>
    </vehicle>

    <vehicle id="type1.43" type="car" depart="106.00" color="yellow" arrival="230.00">
        <routeDistribution>
            <route replacedOnEdge="" replacedAtTime="43.00" probability="0" edges="gneE0 gneE1"/>
            <route replacedOnEdge="" replacedAtTime="49.00" probability="0" edges="gneE0 0-0to1-0 1-0to2-0 2-0to2-1 2-1to2-2 gneE1"/>
            <route replacedOnEdge="" replacedAtTime="83.00" probability="0" edges="gneE0 0-0to0-1 0-1to0-2 0-2to1-2 1-2to2-2 gneE1"/>
            <route replacedOnEdge="" replacedAtTime="102.00" probability="0" edges="gneE0 0-0to1-0 1-0to2-0 2-0to2-1 2-1to2-2 gneE1"/>
            <route edges="gneE0 0-0to0-1 0-1to1-1 1-1to2-1 2-1to2-2 gneE1"/>
        </routeDistribution>
    </vehicle>

    <vehicle id="type1.44" type="car" depart="107.00" color="yellow" arrival="231.00">
        <routeDistribution>
            <route replacedOnEdge="" replacedAtTime="44.00" probability="0" edges="gneE0 gneE1"/>
            <route replacedOnEdge="" replacedAtTime="49.00" probability="0" edges="gneE0 0-0to1-0 1-0to2-0 2-0to2-1 2-1to2-2 gneE1"/>
            <route replacedOnEdge="" replacedAtTime="83.00" probability="0" edges="gneE0 0-0to0-1 0-1to0-2 0-2to1-2 1-2to2-2 gneE1"/>
            <route replacedOnEdge="" replacedAtTime="102.00" probability="0" edges="gneE0 0-0to1-0 1-0to2-0 2-0to2-1 2-1to2-2 gneE1"/>
            <route edges="gneE0 0-0to0-1 0-1to1-1 1-1to2-1 2-1to2-2 gneE1"/>
        </routeDistribution>
    </vehicle>

    <vehicle id="type1.45" type="car" depart="110.00" color="yellow" arrival="233.00">
        <routeDistribution>
            <route replacedOnEdge="" replacedAtTime="45.00" probability="0" edges="gneE0 gneE1"/>
            <route replacedOnEdge="" replacedAtTime="49.00" probability="0" edges="gneE0 0-0to1-0 1-0to2-0 2-0to2-1 2-1to2-2 gneE1"/>
            <route replacedOnEdge="" replacedAtTime="83.00" probability="0" edges="gneE0 0-0to0-1 0-1to0-2 0-2to1-2 1-2to2-2 gneE1"/>
            <route replacedOnEdge="" replacedAtTime="102.00" probability="0" edges="gneE0 0-0to1-0 1-0to2-0 2-0to2-1 2-1to2-2 gneE1"/>
            <route edges="gneE0 0-0to0-1 0-1to1-1 1-1to2-1 2-1to2-2 gneE1"/>
        </routeDistribution>
    </vehicle>

    <vehicle id="type1.46" type="car" depart="111.00" color="yellow" arrival="234.00">
        <routeDistribution>
            <route replacedOnEdge="" replacedAtTime="46.00" probability="0" edges="gneE0 gneE1"/>
            <route replacedOnEdge="" replacedAtTime="49.00" probability="0" edges="gneE0 0-0to1-0 1-0to2-0 2-0to2-1 2-1to2-2 gneE1"/>
            <route replacedOnEdge="" replacedAtTime="83.00" probability="0" edges="gneE0 0-0to0-1 0-1to0-2 0-2to1-2 1-2to2-2 gneE1"/>
            <route replacedOnEdge="" replacedAtTime="102.00" probability="0" edges="gneE0 0-0to1-0 1-0to2-0 2-0to2-1 2-1to2-2 gneE1"/>
            <route edges="gneE0 0-0to0-1 0-1to1-1 1-1to2-1 2-1to2-2 gneE1"/>
        </routeDistribution>
    </vehicle>

    <vehicle id="type1.62" type="car" depart="143.00" color="yellow" arrival="236.00">
        <routeDistribution>
            <route replacedOnEdge="" replacedAtTime="62.00" probability="0" edges="gneE0 gneE1"/>
            <route replacedOnEdge="" replacedAtTime="83.00" probability="0" edges="gneE0 0-0to0-1 0-1to0-2 0-2to1-2 1-2to2-2 gneE1"/>
            <route replacedOnEdge="" replacedAtTime="102.00" probability="0" edges="gneE0 0-0to1-0 1-0to2-0 2-0to2-1 2-1to2-2 gneE1"/>
            <route edges="gneE0 0-0to0-1 0-1to1-1 1-1to2-1 2-1to2-2 gneE1"/>
        </routeDistribution>
    </vehicle>

    <vehicle id="type1.47" type="car" depart="114.00" color="yellow" arrival="237.00">
        <routeDistribution>
            <route replacedOnEdge="" replacedAtTime="47.00" probability="0" edges="gneE0 gneE1"/>
            <route replacedOnEdge="" replacedAtTime="49.00" probability="0" edges="gneE0 0-0to1-0 1-0to2-0 2-0to2-1 2-1to2-2 gneE1"/>
            <route replacedOnEdge="" replacedAtTime="83.00" probability="0" edges="gneE0 0-0to0-1 0-1to0-2 0-2to1-2 1-2to2-2 gneE1"/>
            <route replacedOnEdge="" replacedAtTime="102.00" probability="0" edges="gneE0 0-0to1-0 1-0to2-0 2-0to2-1 2-1to2-2 gneE1"/>
            <route edges="gneE0 0-0to0-1 0-1to1-1 1-1to2-1 2-1to2-2 gneE1"/>
        </routeDistribution>
    </vehicle>

    <vehicle id="type1.63" type="car" depart="146.00" color="yellow" arrival="238.00">
        <routeDistribution>
            <route replacedOnEdge="" replacedAtTime="63.00" probability="0" edges="gneE0 gneE1"/>
            <route replacedOnEdge="" replacedAtTime="83.00" probability="0" edges="gneE0 0-0to0-1 0-1to0-2 0-2to1-2 1-2to2-2 gneE1"/>
            <route replacedOnEdge="" replacedAtTime="102.00" probability="0" edges="gneE0 0-0to1-0 1-0to2-0 2-0to2-1 2-1to2-2 gneE1"/>
            <route edges="gneE0 0-0to0-1 0-1to1-1 1-1to2-1 2-1to2-2 gneE1"/>
        </routeDistribution>
    </vehicle>

    <vehicle id="type1.48" type="car" depart="115.00" color="yellow" arrival="240.00">
        <routeDistribution>
            <route replacedOnEdge="" replacedAtTime="48.00" probability="0" edges="gneE0 gneE1"/>
            <route replacedOnEdge="" replacedAtTime="49.00" probability="0" edges="gneE0 0-0to1-0 1-0to2-0 2-0to2-1 2-1to2-2 gneE1"/>
            <route replacedOnEdge="" replacedAtTime="83.00" probability="0" edges="gneE0 0-0to0-1 0-1to0-2 0-2to1-2 1-2to2-2 gneE1"/>
            <route replacedOnEdge="" replacedAtTime="102.00" probability="0" edges="gneE0 0-0to1-0 1-0to2-0 2-0to2-1 2-1to2-2 gneE1"/>
            <route edges="gneE0 0-0to0-1 0-1to1-1 1-1to2-1 2-1to2-2 gneE1"/>
        </routeDistribution>
    </vehicle>

    <vehicle id="type1.64" type="car" depart="149.00" color="yellow" arrival="242.00">
        <routeDistribution>
            <route replacedOnEdge="" replacedAtTime="64.00" probability="0" edges="gneE0 gneE1"/>
            <route replacedOnEdge="" replacedAtTime="83.00" probability="0" edges="gneE0 0-0to0-1 0-1to0-2 0-2to1-2 1-2to2-2 gneE1"/>
            <route replacedOnEdge="" replacedAtTime="102.00" probability="0" edges="gneE0 0-0to1-0 1-0to2-0 2-0to2-1 2-1to2-2 gneE1"/>
            <route edges="gneE0 0-0to0-1 0-1to1-1 1-1to2-1 2-1to2-2 gneE1"/>
        </routeDistribution>
    </vehicle>

    <vehicle id="type1.26" type="car" depart="65.00" color="yellow" arrival="255.00">
        <routeDistribution>
            <route replacedOnEdge="" replacedAtTime="26.00" probability="0" edges="gneE0 gneE1"/>
            <route replacedOnEdge="" replacedAtTime="42.00" probability="0" edges="gneE0 0-0to1-0 1-0to1-1 1-1to1-2 1-2to2-2 gneE1"/>
            <route replacedOnEdge="" replacedAtTime="49.00" probability="0" edges="gneE0 0-0to1-0 1-0to2-0 2-0to2-1 2-1to2-2 gneE1"/>
            <route edges="gneE0 0-0to0-1 0-1to0-2 0-2to1-2 1-2to2-2 gneE1"/>
        </routeDistribution>
    </vehicle>

    <vehicle id="type1.12" type="car" depart="31.00" color="yellow" arrival="257.00">
        <routeDistribution>
            <route replacedOnEdge="" replacedAtTime="12.00" probability="0" edges="gneE0 gneE1"/>
            <route replacedOnEdge="" replacedAtTime="13.00" probability="0" edges="gneE0 0-0to0-1 0-1to1-1 1-1to1-2 1-2to2-2 gneE1"/>
            <route edges="gneE0 0-0to1-0 1-0to1-1 1-1to1-2 1-2to2-2 gneE1"/>
        </routeDistribution>
    </vehicle>

    <vehicle id="type1.13" type="car" depart="34.00" color="yellow" arrival="258.00">
        <routeDistribution>
            <route replacedOnEdge="" replacedAtTime="13.00" probability="0" edges="gneE0 gneE1"/>
            <route edges="gneE0 0-0to1-0 1-0to1-1 1-1to1-2 1-2to2-2 gneE1"/>
        </routeDistribution>
    </vehicle>

    <vehicle id="type1.14" type="car" depart="37.00" color="yellow" arrival="259.00">
        <routeDistribution>
            <route replacedOnEdge="" replacedAtTime="14.00" probability="0" edges="gneE0 gneE1"/>
            <route edges="gneE0 0-0to1-0 1-0to1-1 1-1to1-2 1-2to2-2 gneE1"/>
        </routeDistribution>
    </vehicle>

    <vehicle id="type1.15" type="car" depart="40.00" color="yellow" arrival="261.00">
        <routeDistribution>
            <route replacedOnEdge="" replacedAtTime="15.00" probability="0" edges="gneE0 gneE1"/>
            <route edges="gneE0 0-0to1-0 1-0to1-1 1-1to1-2 1-2to2-2 gneE1"/>
        </routeDistribution>
    </vehicle>

    <vehicle id="type1.17" type="car" depart="46.00" color="yellow" arrival="265.00">
        <routeDistribution>
            <route replacedOnEdge="" replacedAtTime="17.00" probability="0" edges="gneE0 gneE1"/>
            <route replacedOnEdge="" replacedAtTime="42.00" probability="0" edges="gneE0 0-0to1-0 1-0to1-1 1-1to1-2 1-2to2-2 gneE1"/>
            <route edges="gneE0 0-0to1-0 1-0to2-0 2-0to2-1 2-1to2-2 gneE1"/>
        </routeDistribution>
    </vehicle>

    <vehicle id="type1.34" type="car" depart="81.00" color="yellow" arrival="265.00">
        <routeDistribution>
            <route replacedOnEdge="" replacedAtTime="34.00" probability="0" edges="gneE0 gneE1"/>
            <route replacedOnEdge="" replacedAtTime="42.00" probability="0" edges="gneE0 0-0to1-0 1-0to1-1 1-1to1-2 1-2to2-2 gneE1"/>
            <route replacedOnEdge="" replacedAtTime="49.00" probability="0" edges="gneE0 0-0to1-0 1-0to2-0 2-0to2-1 2-1to2-2 gneE1"/>
            <route edges="gneE0 0-0to0-1 0-1to0-2 0-2to1-2 1-2to2-2 gneE1"/>
        </routeDistribution>
    </vehicle>

    <vehicle id="type1.35" type="car" depart="84.00" color="yellow" arrival="266.00">
        <routeDistribution>
            <route replacedOnEdge="" replacedAtTime="35.00" probability="0" edges="gneE0 gneE1"/>
            <route replacedOnEdge="" replacedAtTime="42.00" probability="0" edges="gneE0 0-0to1-0 1-0to1-1 1-1to1-2 1-2to2-2 gneE1"/>
            <route replacedOnEdge="" replacedAtTime="49.00" probability="0" edges="gneE0 0-0to1-0 1-0to2-0 2-0to2-1 2-1to2-2 gneE1"/>
            <route replacedOnEdge="" replacedAtTime="83.00" probability="0" edges="gneE0 0-0to0-1 0-1to0-2 0-2to1-2 1-2to2-2 gneE1"/>
            <route edges="gneE0 0-0to1-0 1-0to2-0 2-0to2-1 2-1to2-2 gneE1"/>
        </routeDistribution>
    </vehicle>

    <vehicle id="type1.27" type="car" depart="68.00" color="yellow" arrival="266.00">
        <routeDistribution>
            <route replacedOnEdge="" replacedAtTime="27.00" probability="0" edges="gneE0 gneE1"/>
            <route replacedOnEdge="" replacedAtTime="42.00" probability="0" edges="gneE0 0-0to1-0 1-0to1-1 1-1to1-2 1-2to2-2 gneE1"/>
            <route replacedOnEdge="" replacedAtTime="49.00" probability="0" edges="gneE0 0-0to1-0 1-0to2-0 2-0to2-1 2-1to2-2 gneE1"/>
            <route edges="gneE0 0-0to0-1 0-1to0-2 0-2to1-2 1-2to2-2 gneE1"/>
        </routeDistribution>
    </vehicle>

    <vehicle id="type1.36" type="car" depart="87.00" color="yellow" arrival="267.00">
        <routeDistribution>
            <route replacedOnEdge="" replacedAtTime="36.00" probability="0" edges="gneE0 gneE1"/>
            <route replacedOnEdge="" replacedAtTime="42.00" probability="0" edges="gneE0 0-0to1-0 1-0to1-1 1-1to1-2 1-2to2-2 gneE1"/>
            <route replacedOnEdge="" replacedAtTime="49.00" probability="0" edges="gneE0 0-0to1-0 1-0to2-0 2-0to2-1 2-1to2-2 gneE1"/>
            <route replacedOnEdge="" replacedAtTime="83.00" probability="0" edges="gneE0 0-0to0-1 0-1to0-2 0-2to1-2 1-2to2-2 gneE1"/>
            <route edges="gneE0 0-0to1-0 1-0to2-0 2-0to2-1 2-1to2-2 gneE1"/>
        </routeDistribution>
    </vehicle>

    <vehicle id="type1.28" type="car" depart="69.00" color="yellow" arrival="267.00">
        <routeDistribution>
            <route replacedOnEdge="" replacedAtTime="28.00" probability="0" edges="gneE0 gneE1"/>
            <route replacedOnEdge="" replacedAtTime="42.00" probability="0" edges="gneE0 0-0to1-0 1-0to1-1 1-1to1-2 1-2to2-2 gneE1"/>
            <route replacedOnEdge="" replacedAtTime="49.00" probability="0" edges="gneE0 0-0to1-0 1-0to2-0 2-0to2-1 2-1to2-2 gneE1"/>
            <route edges="gneE0 0-0to0-1 0-1to0-2 0-2to1-2 1-2to2-2 gneE1"/>
        </routeDistribution>
    </vehicle>

    <vehicle id="type1.37" type="car" depart="90.00" color="yellow" arrival="269.00">
        <routeDistribution>
            <route replacedOnEdge="" replacedAtTime="37.00" probability="0" edges="gneE0 gneE1"/>
            <route replacedOnEdge="" replacedAtTime="42.00" probability="0" edges="gneE0 0-0to1-0 1-0to1-1 1-1to1-2 1-2to2-2 gneE1"/>
            <route replacedOnEdge="" replacedAtTime="49.00" probability="0" edges="gneE0 0-0to1-0 1-0to2-0 2-0to2-1 2-1to2-2 gneE1"/>
            <route replacedOnEdge="" replacedAtTime="83.00" probability="0" edges="gneE0 0-0to0-1 0-1to0-2 0-2to1-2 1-2to2-2 gneE1"/>
            <route edges="gneE0 0-0to1-0 1-0to2-0 2-0to2-1 2-1to2-2 gneE1"/>
        </routeDistribution>
    </vehicle>

    <vehicle id="type1.29" type="car" depart="72.00" color="yellow" arrival="269.00">
        <routeDistribution>
            <route replacedOnEdge="" replacedAtTime="29.00" probability="0" edges="gneE0 gneE1"/>
            <route replacedOnEdge="" replacedAtTime="42.00" probability="0" edges="gneE0 0-0to1-0 1-0to1-1 1-1to1-2 1-2to2-2 gneE1"/>
            <route replacedOnEdge="" replacedAtTime="49.00" probability="0" edges="gneE0 0-0to1-0 1-0to2-0 2-0to2-1 2-1to2-2 gneE1"/>
            <route edges="gneE0 0-0to0-1 0-1to0-2 0-2to1-2 1-2to2-2 gneE1"/>
        </routeDistribution>
    </vehicle>

    <vehicle id="type1.38" type="car" depart="93.00" color="yellow" arrival="270.00">
        <routeDistribution>
            <route replacedOnEdge="" replacedAtTime="38.00" probability="0" edges="gneE0 gneE1"/>
            <route replacedOnEdge="" replacedAtTime="42.00" probability="0" edges="gneE0 0-0to1-0 1-0to1-1 1-1to1-2 1-2to2-2 gneE1"/>
            <route replacedOnEdge="" replacedAtTime="49.00" probability="0" edges="gneE0 0-0to1-0 1-0to2-0 2-0to2-1 2-1to2-2 gneE1"/>
            <route replacedOnEdge="" replacedAtTime="83.00" probability="0" edges="gneE0 0-0to0-1 0-1to0-2 0-2to1-2 1-2to2-2 gneE1"/>
            <route edges="gneE0 0-0to1-0 1-0to2-0 2-0to2-1 2-1to2-2 gneE1"/>
        </routeDistribution>
    </vehicle>

    <vehicle id="type1.30" type="car" depart="73.00" color="yellow" arrival="270.00">
        <routeDistribution>
            <route replacedOnEdge="" replacedAtTime="30.00" probability="0" edges="gneE0 gneE1"/>
            <route replacedOnEdge="" replacedAtTime="42.00" probability="0" edges="gneE0 0-0to1-0 1-0to1-1 1-1to1-2 1-2to2-2 gneE1"/>
            <route replacedOnEdge="" replacedAtTime="49.00" probability="0" edges="gneE0 0-0to1-0 1-0to2-0 2-0to2-1 2-1to2-2 gneE1"/>
            <route edges="gneE0 0-0to0-1 0-1to0-2 0-2to1-2 1-2to2-2 gneE1"/>
        </routeDistribution>
    </vehicle>

    <vehicle id="type1.39" type="car" depart="96.00" color="yellow" arrival="272.00">
        <routeDistribution>
            <route replacedOnEdge="" replacedAtTime="39.00" probability="0" edges="gneE0 gneE1"/>
            <route replacedOnEdge="" replacedAtTime="42.00" probability="0" edges="gneE0 0-0to1-0 1-0to1-1 1-1to1-2 1-2to2-2 gneE1"/>
            <route replacedOnEdge="" replacedAtTime="49.00" probability="0" edges="gneE0 0-0to1-0 1-0to2-0 2-0to2-1 2-1to2-2 gneE1"/>
            <route replacedOnEdge="" replacedAtTime="83.00" probability="0" edges="gneE0 0-0to0-1 0-1to0-2 0-2to1-2 1-2to2-2 gneE1"/>
            <route edges="gneE0 0-0to1-0 1-0to2-0 2-0to2-1 2-1to2-2 gneE1"/>
        </routeDistribution>
    </vehicle>

    <vehicle id="type1.31" type="car" depart="76.00" color="yellow" arrival="272.00">
        <routeDistribution>
            <route replacedOnEdge="" replacedAtTime="31.00" probability="0" edges="gneE0 gneE1"/>
            <route replacedOnEdge="" replacedAtTime="42.00" probability="0" edges="gneE0 0-0to1-0 1-0to1-1 1-1to1-2 1-2to2-2 gneE1"/>
            <route replacedOnEdge="" replacedAtTime="49.00" probability="0" edges="gneE0 0-0to1-0 1-0to2-0 2-0to2-1 2-1to2-2 gneE1"/>
            <route edges="gneE0 0-0to0-1 0-1to0-2 0-2to1-2 1-2to2-2 gneE1"/>
        </routeDistribution>
    </vehicle>

    <vehicle id="type1.40" type="car" depart="99.00" color="yellow" arrival="273.00">
        <routeDistribution>
            <route replacedOnEdge="" replacedAtTime="40.00" probability="0" edges="gneE0 gneE1"/>
            <route replacedOnEdge="" replacedAtTime="42.00" probability="0" edges="gneE0 0-0to1-0 1-0to1-1 1-1to1-2 1-2to2-2 gneE1"/>
            <route replacedOnEdge="" replacedAtTime="49.00" probability="0" edges="gneE0 0-0to1-0 1-0to2-0 2-0to2-1 2-1to2-2 gneE1"/>
            <route replacedOnEdge="" replacedAtTime="83.00" probability="0" edges="gneE0 0-0to0-1 0-1to0-2 0-2to1-2 1-2to2-2 gneE1"/>
            <route edges="gneE0 0-0to1-0 1-0to2-0 2-0to2-1 2-1to2-2 gneE1"/>
        </routeDistribution>
    </vehicle>

    <vehicle id="type1.32" type="car" depart="77.00" color="yellow" arrival="273.00">
        <routeDistribution>
            <route replacedOnEdge="" replacedAtTime="32.00" probability="0" edges="gneE0 gneE1"/>
            <route replacedOnEdge="" replacedAtTime="42.00" probability="0" edges="gneE0 0-0to1-0 1-0to1-1 1-1to1-2 1-2to2-2 gneE1"/>
            <route replacedOnEdge="" replacedAtTime="49.00" probability="0" edges="gneE0 0-0to1-0 1-0to2-0 2-0to2-1 2-1to2-2 gneE1"/>