<?xml version="1.0"?>

<!-- generated on 12/22/09 11:51:30 by SUMO sumo Version dev-SVN-r8086
<configuration>

    <input>
        <net-file value="three_split.net.xml"/>
        <additional-files value="input_trips.trips.xml"/>
    </input>

    <output>
        <vehroute-output value="vehroutes.xml"/>
    </output>

    <time>
        <begin value="0"/>
    </time>

    <report>
        <no-duration-log value="true"/>
        <no-step-log value="true"/>
    </report>

    <routing>
        <device.routing.probability value="1"/>
    </routing>

</configuration>
-->

<routes>
    <vehicle id="0" depart="0" arrival="80">
        <replacedRoute replacedOnEdge="beg" replacedAtTime="0" edges="beg rend"/>
        <route edges="beg middle end rend"/>
   </vehicle>

    <vehicle id="1" depart="20" arrival="100">
        <replacedRoute replacedOnEdge="beg" replacedAtTime="0" edges="beg rend"/>
        <route edges="beg middle end rend"/>
   </vehicle>

    <vehicle id="2" depart="40" arrival="120">
        <replacedRoute replacedOnEdge="beg" replacedAtTime="0" edges="beg rend"/>
        <route edges="beg middle end rend"/>
   </vehicle>

    <vehicle id="3" depart="60" arrival="141">
        <replacedRoute replacedOnEdge="beg" replacedAtTime="0" edges="beg rend"/>
        <route edges="beg middle end rend"/>
   </vehicle>

    <vehicle id="4" depart="80" arrival="161">
        <replacedRoute replacedOnEdge="beg" replacedAtTime="0" edges="beg rend"/>
        <route edges="beg middle end rend"/>
   </vehicle>

    <vehicle id="5" depart="100" arrival="181">
        <replacedRoute replacedOnEdge="beg" replacedAtTime="0" edges="beg rend"/>
        <route edges="beg middle end rend"/>
   </vehicle>

    <vehicle id="6" depart="120" arrival="200">
        <replacedRoute replacedOnEdge="beg" replacedAtTime="0" edges="beg rend"/>
        <route edges="beg middle end rend"/>
   </vehicle>

    <vehicle id="7" depart="140" arrival="221">
        <replacedRoute replacedOnEdge="beg" replacedAtTime="0" edges="beg rend"/>
        <route edges="beg middle end rend"/>
   </vehicle>

    <vehicle id="8" depart="160" arrival="241">
        <replacedRoute replacedOnEdge="beg" replacedAtTime="0" edges="beg rend"/>
        <route edges="beg middle end rend"/>
   </vehicle>

    <vehicle id="9" depart="180" arrival="260">
        <replacedRoute replacedOnEdge="beg" replacedAtTime="0" edges="beg rend"/>
        <route edges="beg middle end rend"/>
   </vehicle>

</routes>
