<?xml version="1.0"?>

<!-- generated on 03/22/10 15:02:40 by SUMO sumo Version dev-SVN-r8502
<configuration>

    <input>
        <net-file value="three_split.net.xml"/>
        <additional-files value="input_routes.rou.xml,input_additional2.add.xml"/>
    </input>

    <output>
        <tripinfo-output value="tripinfos.xml"/>
    </output>

    <time>
        <begin value="0"/>
    </time>

    <report>
        <no-duration-log value="true"/>
        <no-step-log value="true"/>
    </report>

</configuration>
-->

<tripinfos>
    <tripinfo id="0" depart="0.00" departLane="beg_0" departPos="0.00" departSpeed="0.00" departDelay="0.00" arrival="77.00" arrivalLane="rend_0" arrivalPos="2.99" arrivalSpeed="27.80" duration="77.00" routeLength="1983.99" waitSteps="0" rerouteNo="0" devices="tripinfo_0" vtype="DEFAULT_VEHTYPE" vaporized=""/>
    <tripinfo id="1" depart="20.00" departLane="beg_0" departPos="0.00" departSpeed="0.00" departDelay="0.00" arrival="97.00" arrivalLane="rend_0" arrivalPos="2.99" arrivalSpeed="27.80" duration="77.00" routeLength="1983.99" waitSteps="0" rerouteNo="0" devices="tripinfo_1" vtype="DEFAULT_VEHTYPE" vaporized=""/>
    <tripinfo id="2" depart="40.00" departLane="beg_0" departPos="0.00" departSpeed="0.00" departDelay="0.00" arrival="117.00" arrivalLane="rend_0" arrivalPos="2.99" arrivalSpeed="27.80" duration="77.00" routeLength="1983.99" waitSteps="0" rerouteNo="0" devices="tripinfo_2" vtype="DEFAULT_VEHTYPE" vaporized=""/>
    <tripinfo id="3" depart="60.00" departLane="beg_0" departPos="0.00" departSpeed="0.00" departDelay="0.00" arrival="137.00" arrivalLane="rend_0" arrivalPos="2.99" arrivalSpeed="27.80" duration="77.00" routeLength="1983.99" waitSteps="0" rerouteNo="0" devices="tripinfo_3" vtype="DEFAULT_VEHTYPE" vaporized=""/>
    <tripinfo id="4" depart="80.00" departLane="beg_0" departPos="0.00" departSpeed="0.00" departDelay="0.00" arrival="157.00" arrivalLane="rend_0" arrivalPos="2.99" arrivalSpeed="27.80" duration="77.00" routeLength="1983.99" waitSteps="0" rerouteNo="0" devices="tripinfo_4" vtype="DEFAULT_VEHTYPE" vaporized=""/>
</tripinfos>
