<?xml version="1.0"?>

<!-- generated on 03/25/10 08:21:31 by SUMO sumo Version dev-SVN-r8511
<configuration>

    <input>
        <net-file value="three_split.net.xml"/>
        <additional-files value="input_routes.rou.xml,input_additional2.add.xml"/>
    </input>

    <output>
        <tripinfo-output value="tripinfos.xml"/>
    </output>

    <time>
        <begin value="0"/>
    </time>

    <report>
        <no-duration-log value="true"/>
        <no-step-log value="true"/>
    </report>

    <mesoscopic>
        <mesosim value="true"/>
    </mesoscopic>

</configuration>
-->

<tripinfos>
    <tripinfo id="0" depart="0.00" departLane="" departPos="0.00" departSpeed="0.00" departDelay="0.00" arrival="72.00" arrivalLane="" arrivalPos="" arrivalSpeed="" duration="72.00" routeLength="2481.00" waitSteps="0" rerouteNo="0" devices="" vtype="DEFAULT_VEHTYPE" vaporized=""/>
    <tripinfo id="1" depart="20.00" departLane="" departPos="0.00" departSpeed="0.00" departDelay="0.00" arrival="92.00" arrivalLane="" arrivalPos="" arrivalSpeed="" duration="72.00" routeLength="2481.00" waitSteps="0" rerouteNo="0" devices="" vtype="DEFAULT_VEHTYPE" vaporized=""/>
    <tripinfo id="2" depart="40.00" departLane="" departPos="0.00" departSpeed="0.00" departDelay="0.00" arrival="112.00" arrivalLane="" arrivalPos="" arrivalSpeed="" duration="72.00" routeLength="2481.00" waitSteps="0" rerouteNo="0" devices="" vtype="DEFAULT_VEHTYPE" vaporized=""/>
    <tripinfo id="3" depart="60.00" departLane="" departPos="0.00" departSpeed="0.00" departDelay="0.00" arrival="132.00" arrivalLane="" arrivalPos="" arrivalSpeed="" duration="72.00" routeLength="2481.00" waitSteps="0" rerouteNo="0" devices="" vtype="DEFAULT_VEHTYPE" vaporized=""/>
    <tripinfo id="4" depart="80.00" departLane="" departPos="0.00" departSpeed="0.00" departDelay="0.00" arrival="152.00" arrivalLane="" arrivalPos="" arrivalSpeed="" duration="72.00" routeLength="2481.00" waitSteps="0" rerouteNo="0" devices="" vtype="DEFAULT_VEHTYPE" vaporized=""/>
</tripinfos>
