<?xml version="1.0" encoding="UTF-8"?>

<!-- generated on Fri Mar  1 09:19:29 2019 by Eclipse SUMO Version v1_1_0+0435-678c69824b
<configuration xmlns:xsi="http://www.w3.org/2001/XMLSchema-instance" xsi:noNamespaceSchemaLocation="http://sumo.dlr.de/xsd/sumoConfiguration.xsd">

    <input>
        <net-file value="input_net.net.xml"/>
        <route-files value="input_routes.rou.xml"/>
        <additional-files value="input_additional.add.xml,input_additional2.add.xml"/>
    </input>

    <output>
        <vehroute-output value="vehroutes.xml"/>
    </output>

    <processing>
        <ignore-route-errors value="true"/>
        <time-to-teleport value="-1"/>
        <default.speeddev value="0"/>
    </processing>

    <report>
        <duration-log.disable value="true"/>
        <no-step-log value="true"/>
    </report>

    <traci_server>
        <remote-port value="33893"/>
    </traci_server>

    <gui_only>
        <window-size value="500,500"/>
        <window-pos value="50,50"/>
    </gui_only>

</configuration>
-->

<routes xmlns:xsi="http://www.w3.org/2001/XMLSchema-instance" xsi:noNamespaceSchemaLocation="http://sumo.dlr.de/xsd/routes_file.xsd">
    <vehicle id="1" depart="6.00" arrival="19.00">
        <routeDistribution>
            <route replacedOnEdge="" reason="traci:changeTarget" replacedAtTime="6.00" probability="0" edges="2fi 2si 1o 1fi 1si 3o 3fi 3si 4o 4fi 4si"/>
            <route edges="2fi 2si 4o 4fi"/>
        </routeDistribution>
        <stop lane="2fi_0" startPos="49.90" endPos="50.00" duration="1.00" parking="1"/>
    </vehicle>

    <vehicle id="movedVeh" depart="125.00" arrival="131.00">
        <routeDistribution>
            <route replacedOnEdge="1si" reason="traci:moveToXY" replacedAtTime="126.00" probability="0" edges="3fi 3si 4o"/>
            <route edges="3fi 3si 4o 1si"/>
        </routeDistribution>
    </vehicle>

</routes>
