<?xml version="1.0"?>

<!-- generated on 03/18/10 13:39:06 by SUMO sumo Version dev-SVN-r8460
<configuration>

    <input>
        <net-file value="net.net.xml"/>
        <route-files value="input_routes.rou.xml"/>
    </input>

    <output>
        <netstate-dump value="rawdump.xml"/>
    </output>

    <time>
        <begin value="90"/>
        <end value="120"/>
    </time>

    <report>
        <no-duration-log value="true"/>
        <no-step-log value="true"/>
    </report>

</configuration>
-->

<sumo-netstate>
    <timestep time="90.00">
    </timestep>
    <timestep time="91.00">
    </timestep>
    <timestep time="92.00">
    </timestep>
    <timestep time="93.00">
    </timestep>
    <timestep time="94.00">
    </timestep>
    <timestep time="95.00">
    </timestep>
    <timestep time="96.00">
    </timestep>
    <timestep time="97.00">
    </timestep>
    <timestep time="98.00">
    </timestep>
    <timestep time="99.00">
    </timestep>
    <timestep time="100.00">
        <edge id="1fi">
            <lane id="1fi_0">
                <vehicle id="always_right.0" pos="0.00" speed="0.00"/>
            </lane>
        </edge>
        <edge id="2fi">
            <lane id="2fi_0">
                <vehicle id="horizontal.0" pos="0.00" speed="0.00"/>
            </lane>
        </edge>
        <edge id="3fi">
            <lane id="3fi_0">
                <vehicle id="always_left.0" pos="0.00" speed="0.00"/>
            </lane>
        </edge>
    </timestep>
    <timestep time="101.00">
        <edge id="1fi">
            <lane id="1fi_0">
                <vehicle id="always_right.0" pos="0.45" speed="0.45"/>
            </lane>
        </edge>
        <edge id="2fi">
            <lane id="2fi_0">
                <vehicle id="horizontal.0" pos="0.52" speed="0.52"/>
            </lane>
        </edge>
        <edge id="3fi">
            <lane id="3fi_0">
                <vehicle id="always_left.0" pos="0.78" speed="0.78"/>
            </lane>
        </edge>
    </timestep>
    <timestep time="102.00">
        <edge id="1fi">
            <lane id="1fi_0">
                <vehicle id="always_right.0" pos="1.50" speed="1.05"/>
            </lane>
        </edge>
        <edge id="2fi">
            <lane id="2fi_0">
                <vehicle id="horizontal.0" pos="1.60" speed="1.08"/>
            </lane>
        </edge>
        <edge id="3fi">
            <lane id="3fi_0">
                <vehicle id="always_left.0" pos="2.34" speed="1.56"/>
            </lane>
        </edge>
    </timestep>
    <timestep time="103.00">
        <edge id="1fi">
            <lane id="1fi_0">
                <vehicle id="always_right.0" pos="3.05" speed="1.55"/>
            </lane>
        </edge>
        <edge id="2fi">
            <lane id="2fi_0">
                <vehicle id="horizontal.0" pos="3.37" speed="1.77"/>
            </lane>
        </edge>
        <edge id="3fi">
            <lane id="3fi_0">
                <vehicle id="always_left.0" pos="4.47" speed="2.13"/>
            </lane>
        </edge>
    </timestep>
    <timestep time="104.00">
        <edge id="1fi">
            <lane id="1fi_0">
                <vehicle id="always_right.0" pos="5.09" speed="2.04"/>
            </lane>
        </edge>
        <edge id="2fi">
            <lane id="2fi_0">
                <vehicle id="horizontal.0" pos="5.92" speed="2.55"/>
            </lane>
        </edge>
        <edge id="3fi">
            <lane id="3fi_0">
                <vehicle id="vertical.0" pos="0.00" speed="0.00"/>
                <vehicle id="always_left.0" pos="7.11" speed="2.65"/>
            </lane>
        </edge>
    </timestep>
    <timestep time="105.00">
        <edge id="1fi">
            <lane id="1fi_0">
                <vehicle id="always_right.0" pos="7.73" speed="2.64"/>
            </lane>
        </edge>
        <edge id="2fi">
            <lane id="2fi_0">
                <vehicle id="horizontal.0" pos="9.07" speed="3.15"/>
            </lane>
        </edge>
        <edge id="3fi">
            <lane id="3fi_0">
                <vehicle id="vertical.0" pos="0.58" speed="0.58"/>
                <vehicle id="always_left.0" pos="10.42" speed="3.31"/>
            </lane>
        </edge>
    </timestep>
    <timestep time="106.00">
        <edge id="1fi">
            <lane id="1fi_0">
                <vehicle id="always_right.0" pos="11.11" speed="3.39"/>
            </lane>
        </edge>
        <edge id="2fi">
            <lane id="2fi_0">
                <vehicle id="horizontal.0" pos="12.65" speed="3.58"/>
            </lane>
        </edge>
        <edge id="3fi">
            <lane id="3fi_0">
                <vehicle id="vertical.0" pos="1.82" speed="1.24"/>
                <vehicle id="always_left.0" pos="14.24" speed="3.82"/>
            </lane>
        </edge>
    </timestep>
    <timestep time="107.00">
        <edge id="1fi">
            <lane id="1fi_0">
                <vehicle id="always_right.0" pos="15.24" speed="4.13"/>
            </lane>
        </edge>
        <edge id="2fi">
            <lane id="2fi_0">
                <vehicle id="horizontal.0" pos="16.80" speed="4.15"/>
            </lane>
        </edge>
        <edge id="3fi">
            <lane id="3fi_0">
                <vehicle id="vertical.0" pos="3.73" speed="1.91"/>
                <vehicle id="always_left.0" pos="18.58" speed="4.34"/>
            </lane>
        </edge>
    </timestep>
    <timestep time="108.00">
        <edge id="1fi">
            <lane id="1fi_0">
                <vehicle id="always_right.0" pos="19.78" speed="4.53"/>
            </lane>
        </edge>
        <edge id="2fi">
            <lane id="2fi_0">
                <vehicle id="horizontal.0" pos="21.39" speed="4.59"/>
            </lane>
        </edge>
        <edge id="3fi">
            <lane id="3fi_0">
                <vehicle id="vertical.0" pos="6.08" speed="2.35"/>
                <vehicle id="always_left.0" pos="23.52" speed="4.94"/>
            </lane>
        </edge>
    </timestep>
    <timestep time="109.00">
        <edge id="1fi">
            <lane id="1fi_0">
                <vehicle id="always_right.0" pos="24.86" speed="5.08"/>
            </lane>
        </edge>
        <edge id="2fi">
            <lane id="2fi_0">
                <vehicle id="horizontal.0" pos="26.65" speed="5.25"/>
            </lane>
        </edge>
        <edge id="3fi">
            <lane id="3fi_0">
                <vehicle id="vertical.0" pos="9.18" speed="3.11"/>
                <vehicle id="always_left.0" pos="29.10" speed="5.57"/>
            </lane>
        </edge>
    </timestep>
    <timestep time="110.00">
        <edge id="1fi">
            <lane id="1fi_0">
                <vehicle id="always_right.1" pos="0.00" speed="0.00"/>
                <vehicle id="always_right.0" pos="30.40" speed="5.54"/>
            </lane>
        </edge>
        <edge id="2fi">
            <lane id="2fi_0">
                <vehicle id="horizontal.1" pos="0.00" speed="0.00"/>
                <vehicle id="horizontal.0" pos="32.58" speed="5.94"/>
            </lane>
        </edge>
        <edge id="3fi">
            <lane id="3fi_0">
                <vehicle id="always_left.1" pos="0.00" speed="0.00"/>
                <vehicle id="vertical.0" pos="12.69" speed="3.51"/>
                <vehicle id="always_left.0" pos="35.40" speed="6.30"/>
            </lane>
        </edge>
    </timestep>
    <timestep time="111.00">
        <edge id="1fi">
            <lane id="1fi_0">
                <vehicle id="always_right.1" pos="0.53" speed="0.53"/>
                <vehicle id="always_right.0" pos="36.56" speed="6.16"/>
            </lane>
        </edge>
        <edge id="2fi">
            <lane id="2fi_0">
                <vehicle id="horizontal.1" pos="0.75" speed="0.75"/>
                <vehicle id="horizontal.0" pos="39.20" speed="6.62"/>
            </lane>
        </edge>
        <edge id="3fi">
            <lane id="3fi_0">
                <vehicle id="always_left.1" pos="0.64" speed="0.64"/>
                <vehicle id="vertical.0" pos="16.60" speed="3.91"/>
                <vehicle id="always_left.0" pos="42.33" speed="6.93"/>
            </lane>
        </edge>
    </timestep>
    <timestep time="112.00">
        <edge id="1fi">
            <lane id="1fi_0">
                <vehicle id="always_right.1" pos="1.76" speed="1.24"/>
                <vehicle id="always_right.0" pos="43.39" speed="6.83"/>
            </lane>
        </edge>
        <edge id="2fi">
            <lane id="2fi_0">
                <vehicle id="horizontal.1" pos="2.07" speed="1.32"/>
                <vehicle id="horizontal.0" pos="46.47" speed="7.26"/>
            </lane>
        </edge>
        <edge id="3fi">
            <lane id="3fi_0">
                <vehicle id="always_left.1" pos="1.75" speed="1.11"/>
                <vehicle id="vertical.0" pos="21.23" speed="4.63"/>
                <vehicle id="always_left.0" pos="49.75" speed="7.42"/>
            </lane>
        </edge>
    </timestep>
    <timestep time="113.00">
        <edge id="1fi">
            <lane id="1fi_0">
                <vehicle id="always_right.1" pos="3.51" speed="1.74"/>
                <vehicle id="always_right.0" pos="50.72" speed="7.34"/>
            </lane>
        </edge>
        <edge id="2fi">
            <lane id="2fi_0">
                <vehicle id="horizontal.1" pos="3.90" speed="1.83"/>
                <vehicle id="horizontal.0" pos="54.11" speed="7.65"/>
            </lane>
        </edge>
        <edge id="3fi">
            <lane id="3fi_0">
                <vehicle id="always_left.1" pos="3.28" speed="1.53"/>
                <vehicle id="vertical.0" pos="26.49" speed="5.26"/>
                <vehicle id="always_left.0" pos="57.70" speed="7.96"/>
            </lane>
        </edge>
    </timestep>
    <timestep time="114.00">
        <edge id="1fi">
            <lane id="1fi_0">
                <vehicle id="always_right.1" pos="5.81" speed="2.30"/>
                <vehicle id="always_right.0" pos="58.72" speed="7.99"/>
            </lane>
        </edge>
        <edge id="2fi">
            <lane id="2fi_0">
                <vehicle id="horizontal.1" pos="6.14" speed="2.24"/>
                <vehicle id="horizontal.0" pos="62.41" speed="8.29"/>
            </lane>
        </edge>
        <edge id="3fi">
            <lane id="3fi_0">
                <vehicle id="vertical.1" pos="0.00" speed="0.00"/>
                <vehicle id="always_left.1" pos="5.34" speed="2.06"/>
                <vehicle id="vertical.0" pos="32.44" speed="5.95"/>
                <vehicle id="always_left.0" pos="66.36" speed="8.66"/>
            </lane>
        </edge>
    </timestep>
    <timestep time="115.00">
        <edge id="1fi">
            <lane id="1fi_0">
                <vehicle id="always_right.1" pos="8.77" speed="2.97"/>
                <vehicle id="always_right.0" pos="67.23" speed="8.51"/>
            </lane>
        </edge>
        <edge id="2fi">
            <lane id="2fi_0">
                <vehicle id="horizontal.1" pos="8.81" speed="2.66"/>
                <vehicle id="horizontal.0" pos="71.38" speed="8.98"/>
            </lane>
        </edge>
        <edge id="3fi">
            <lane id="3fi_0">
                <vehicle id="vertical.1" pos="0.68" speed="0.68"/>
                <vehicle id="always_left.1" pos="7.79" speed="2.46"/>
                <vehicle id="vertical.0" pos="39.01" speed="6.57"/>
                <vehicle id="always_left.0" pos="75.60" speed="9.24"/>
            </lane>
        </edge>
    </timestep>
    <timestep time="116.00">
        <edge id="1fi">
            <lane id="1fi_0">
                <vehicle id="always_right.1" pos="12.48" speed="3.70"/>
                <vehicle id="always_right.0" pos="76.24" speed="9.02"/>
            </lane>
        </edge>
        <edge id="2fi">
            <lane id="2fi_0">
                <vehicle id="horizontal.1" pos="12.16" speed="3.35"/>
                <vehicle id="horizontal.0" pos="80.99" speed="9.61"/>
            </lane>
        </edge>
        <edge id="3fi">
            <lane id="3fi_0">
                <vehicle id="vertical.1" pos="2.13" speed="1.45"/>
                <vehicle id="always_left.1" pos="10.99" speed="3.20"/>
                <vehicle id="vertical.0" pos="46.04" speed="7.03"/>
                <vehicle id="always_left.0" pos="85.41" speed="9.81"/>
            </lane>
        </edge>
    </timestep>
    <timestep time="117.00">
        <edge id="1fi">
            <lane id="1fi_0">
                <vehicle id="always_right.1" pos="16.82" speed="4.35"/>
                <vehicle id="always_right.0" pos="85.88" speed="9.64"/>
            </lane>
        </edge>
        <edge id="2fi">
            <lane id="2fi_0">
                <vehicle id="horizontal.1" pos="16.02" speed="3.86"/>
                <vehicle id="horizontal.0" pos="91.15" speed="10.16"/>
            </lane>
        </edge>
        <edge id="3fi">
            <lane id="3fi_0">
                <vehicle id="vertical.1" pos="4.13" speed="2.00"/>
                <vehicle id="always_left.1" pos="14.80" speed="3.81"/>
                <vehicle id="vertical.0" pos="53.61" speed="7.57"/>
                <vehicle id="always_left.0" pos="95.63" speed="10.22"/>
            </lane>
        </edge>
    </timestep>
    <timestep time="118.00">
        <edge id="1fi">
            <lane id="1fi_0">
                <vehicle id="always_right.1" pos="21.71" speed="4.88"/>
                <vehicle id="always_right.0" pos="96.07" speed="10.19"/>
            </lane>
        </edge>
        <edge id="2fi">
            <lane id="2fi_0">
                <vehicle id="horizontal.1" pos="20.50" speed="4.48"/>
                <vehicle id="horizontal.0" pos="101.66" speed="10.51"/>
            </lane>
        </edge>
        <edge id="3fi">
            <lane id="3fi_0">
                <vehicle id="vertical.1" pos="6.89" speed="2.77"/>
                <vehicle id="always_left.1" pos="19.26" speed="4.46"/>
                <vehicle id="vertical.0" pos="61.86" speed="8.25"/>
                <vehicle id="always_left.0" pos="106.24" speed="10.61"/>
            </lane>
        </edge>
    </timestep>
    <timestep time="119.00">
        <edge id="1fi">
            <lane id="1fi_0">
                <vehicle id="always_right.1" pos="27.10" speed="5.40"/>
                <vehicle id="always_right.0" pos="106.63" speed="10.56"/>
            </lane>
        </edge>
        <edge id="2fi">
            <lane id="2fi_0">
                <vehicle id="horizontal.1" pos="25.55" speed="5.05"/>
                <vehicle id="horizontal.0" pos="112.63" speed="10.97"/>
            </lane>
        </edge>
        <edge id="3fi">
            <lane id="3fi_0">
                <vehicle id="vertical.1" pos="10.16" speed="3.26"/>
                <vehicle id="always_left.1" pos="24.30" speed="5.04"/>
                <vehicle id="vertical.0" pos="70.50" speed="8.65"/>
                <vehicle id="always_left.0" pos="117.16" speed="10.92"/>
            </lane>
        </edge>
    </timestep>
</sumo-netstate>
