<?xml version="1.0" encoding="UTF-8"?>

<!-- generated on 05/02/13 14:15:13 by SUMO sumo Version 0.17.0
<?xml version="1.0" encoding="UTF-8"?>

<configuration xmlns:xsi="http://www.w3.org/2001/XMLSchema-instance" xsi:noNamespaceSchemaLocation="http://sumo.sf.net/xsd/sumoConfiguration.xsd">

    <input>
        <net-file value="net.net.xml"/>
        <route-files value="input_routes.rou.xml"/>
    </input>

    <output>
        <netstate-dump value="rawdump.xml"/>
    </output>

    <time>
        <begin value="90"/>
        <end value="120"/>
    </time>

    <report>
        <no-duration-log value="true"/>
        <no-step-log value="true"/>
    </report>

</configuration>
-->

<netstate xmlns:xsi="http://www.w3.org/2001/XMLSchema-instance" xsi:noNamespaceSchemaLocation="http://sumo.sf.net/xsd/netstate_file.xsd">
    <timestep time="90.00"/>
    <timestep time="91.00"/>
    <timestep time="92.00"/>
    <timestep time="93.00"/>
    <timestep time="94.00"/>
    <timestep time="95.00"/>
    <timestep time="96.00"/>
    <timestep time="97.00"/>
    <timestep time="98.00"/>
    <timestep time="99.00"/>
    <timestep time="100.00">
        <edge id="1fi">
            <lane id="1fi_0">
                <vehicle id="always_right.0" pos="3.10" speed="0.00"/>
            </lane>
        </edge>
        <edge id="2fi">
            <lane id="2fi_0">
                <vehicle id="horizontal.0" pos="3.10" speed="0.00"/>
            </lane>
        </edge>
        <edge id="3fi">
            <lane id="3fi_0">
                <vehicle id="always_left.0" pos="3.10" speed="0.00"/>
            </lane>
        </edge>
    </timestep>
    <timestep time="101.00">
        <edge id="1fi">
            <lane id="1fi_0">
                <vehicle id="always_right.0" pos="3.54" speed="0.44"/>
            </lane>
        </edge>
        <edge id="2fi">
            <lane id="2fi_0">
                <vehicle id="horizontal.0" pos="3.62" speed="0.52"/>
            </lane>
        </edge>
        <edge id="3fi">
            <lane id="3fi_0">
                <vehicle id="always_left.0" pos="3.88" speed="0.78"/>
            </lane>
        </edge>
    </timestep>
    <timestep time="102.00">
        <edge id="1fi">
            <lane id="1fi_0">
                <vehicle id="always_right.0" pos="4.59" speed="1.05"/>
            </lane>
        </edge>
        <edge id="2fi">
            <lane id="2fi_0">
                <vehicle id="horizontal.0" pos="4.69" speed="1.08"/>
            </lane>
        </edge>
        <edge id="3fi">
            <lane id="3fi_0">
                <vehicle id="always_left.0" pos="5.45" speed="1.56"/>
            </lane>
        </edge>
    </timestep>
    <timestep time="103.00">
        <edge id="1fi">
            <lane id="1fi_0">
                <vehicle id="always_right.0" pos="6.14" speed="1.55"/>
            </lane>
        </edge>
        <edge id="2fi">
            <lane id="2fi_0">
                <vehicle id="horizontal.0" pos="6.47" speed="1.78"/>
            </lane>
        </edge>
        <edge id="3fi">
            <lane id="3fi_0">
                <vehicle id="always_left.0" pos="7.59" speed="2.15"/>
            </lane>
        </edge>
    </timestep>
    <timestep time="104.00">
        <edge id="1fi">
            <lane id="1fi_0">
                <vehicle id="always_right.0" pos="8.19" speed="2.05"/>
            </lane>
        </edge>
        <edge id="2fi">
            <lane id="2fi_0">
                <vehicle id="horizontal.0" pos="9.05" speed="2.58"/>
            </lane>
        </edge>
        <edge id="3fi">
            <lane id="3fi_0">
                <vehicle id="vertical.0" pos="3.10" speed="0.00"/>
                <vehicle id="always_left.0" pos="10.27" speed="2.68"/>
            </lane>
        </edge>
    </timestep>
    <timestep time="105.00">
        <edge id="1fi">
            <lane id="1fi_0">
                <vehicle id="always_right.0" pos="10.86" speed="2.67"/>
            </lane>
        </edge>
        <edge id="2fi">
            <lane id="2fi_0">
                <vehicle id="horizontal.0" pos="12.25" speed="3.20"/>
            </lane>
        </edge>
        <edge id="3fi">
            <lane id="3fi_0">
                <vehicle id="vertical.0" pos="3.67" speed="0.57"/>
                <vehicle id="always_left.0" pos="13.64" speed="3.37"/>
            </lane>
        </edge>
    </timestep>
    <timestep time="106.00">
        <edge id="1fi">
            <lane id="1fi_0">
                <vehicle id="always_right.0" pos="14.30" speed="3.44"/>
            </lane>
        </edge>
        <edge id="2fi">
            <lane id="2fi_0">
                <vehicle id="horizontal.0" pos="15.89" speed="3.65"/>
            </lane>
        </edge>
        <edge id="3fi">
            <lane id="3fi_0">
                <vehicle id="vertical.0" pos="4.92" speed="1.24"/>
                <vehicle id="always_left.0" pos="17.54" speed="3.90"/>
            </lane>
        </edge>
    </timestep>
    <timestep time="107.00">
        <edge id="1fi">
            <lane id="1fi_0">
                <vehicle id="always_right.0" pos="18.52" speed="4.22"/>
            </lane>
        </edge>
        <edge id="2fi">
            <lane id="2fi_0">
                <vehicle id="horizontal.0" pos="20.14" speed="4.24"/>
            </lane>
        </edge>
        <edge id="3fi">
            <lane id="3fi_0">
                <vehicle id="vertical.0" pos="6.84" speed="1.92"/>
                <vehicle id="always_left.0" pos="21.98" speed="4.44"/>
            </lane>
        </edge>
    </timestep>
    <timestep time="108.00">
        <edge id="1fi">
            <lane id="1fi_0">
                <vehicle id="always_right.0" pos="23.17" speed="4.65"/>
            </lane>
        </edge>
        <edge id="2fi">
            <lane id="2fi_0">
                <vehicle id="horizontal.0" pos="24.85" speed="4.71"/>
            </lane>
        </edge>
        <edge id="3fi">
            <lane id="3fi_0">
                <vehicle id="vertical.0" pos="9.21" speed="2.37"/>
                <vehicle id="always_left.0" pos="27.07" speed="5.09"/>
            </lane>
        </edge>
    </timestep>
    <timestep time="109.00">
        <edge id="1fi">
            <lane id="1fi_0">
                <vehicle id="always_right.0" pos="28.40" speed="5.23"/>
            </lane>
        </edge>
        <edge id="2fi">
            <lane id="2fi_0">
                <vehicle id="horizontal.0" pos="30.26" speed="5.42"/>
            </lane>
        </edge>
        <edge id="3fi">
            <lane id="3fi_0">
                <vehicle id="vertical.0" pos="12.36" speed="3.15"/>
                <vehicle id="always_left.0" pos="32.83" speed="5.77"/>
            </lane>
        </edge>
    </timestep>
    <timestep time="110.00">
        <edge id="1fi">
            <lane id="1fi_0">
                <vehicle id="always_right.1" pos="3.10" speed="0.00"/>
                <vehicle id="always_right.0" pos="34.12" speed="5.72"/>
            </lane>
        </edge>
        <edge id="2fi">
            <lane id="2fi_0">
                <vehicle id="horizontal.1" pos="3.10" speed="0.00"/>
                <vehicle id="horizontal.0" pos="36.42" speed="6.15"/>
            </lane>
        </edge>
        <edge id="3fi">
            <lane id="3fi_0">
                <vehicle id="always_left.1" pos="3.10" speed="0.00"/>
                <vehicle id="vertical.0" pos="15.93" speed="3.57"/>
                <vehicle id="always_left.0" pos="39.39" speed="6.55"/>
            </lane>
        </edge>
    </timestep>
    <timestep time="111.00">
        <edge id="1fi">
            <lane id="1fi_0">
                <vehicle id="always_right.1" pos="3.63" speed="0.53"/>
                <vehicle id="always_right.0" pos="40.51" speed="6.39"/>
            </lane>
        </edge>
        <edge id="2fi">
            <lane id="2fi_0">
                <vehicle id="horizontal.1" pos="3.85" speed="0.75"/>
                <vehicle id="horizontal.0" pos="43.32" speed="6.90"/>
            </lane>
        </edge>
        <edge id="3fi">
            <lane id="3fi_0">
                <vehicle id="always_left.1" pos="3.74" speed="0.64"/>
                <vehicle id="vertical.0" pos="19.92" speed="3.99"/>
                <vehicle id="always_left.0" pos="46.63" speed="7.25"/>
            </lane>
        </edge>
    </timestep>
    <timestep time="112.00">
        <edge id="1fi">
            <lane id="1fi_0">
                <vehicle id="always_right.1" pos="4.86" speed="1.24"/>
                <vehicle id="always_right.0" pos="47.64" speed="7.12"/>
            </lane>
        </edge>
        <edge id="2fi">
            <lane id="2fi_0">
                <vehicle id="horizontal.1" pos="5.17" speed="1.32"/>
                <vehicle id="horizontal.0" pos="50.93" speed="7.61"/>
            </lane>
        </edge>
        <edge id="3fi">
            <lane id="3fi_0">
                <vehicle id="always_left.1" pos="4.85" speed="1.11"/>
                <vehicle id="vertical.0" pos="24.67" speed="4.75"/>
                <vehicle id="always_left.0" pos="54.41" speed="7.78"/>
            </lane>
        </edge>
    </timestep>
    <timestep time="113.00">
        <edge id="1fi">
            <lane id="1fi_0">
                <vehicle id="always_right.1" pos="6.61" speed="1.75"/>
                <vehicle id="always_right.0" pos="55.32" speed="7.69"/>
            </lane>
        </edge>
        <edge id="2fi">
            <lane id="2fi_0">
                <vehicle id="horizontal.1" pos="7.01" speed="1.84"/>
                <vehicle id="horizontal.0" pos="58.96" speed="8.03"/>
            </lane>
        </edge>
        <edge id="3fi">
            <lane id="3fi_0">
                <vehicle id="always_left.1" pos="6.37" speed="1.53"/>
                <vehicle id="vertical.0" pos="30.09" speed="5.43"/>
                <vehicle id="always_left.0" pos="62.80" speed="8.38"/>
            </lane>
        </edge>
    </timestep>
    <timestep time="114.00">
        <edge id="1fi">
            <lane id="1fi_0">
                <vehicle id="always_right.1" pos="8.93" speed="2.32"/>
                <vehicle id="always_right.0" pos="63.74" speed="8.42"/>
            </lane>
        </edge>
        <edge id="2fi">
            <lane id="2fi_0">
                <vehicle id="horizontal.1" pos="9.27" speed="2.26"/>
                <vehicle id="horizontal.0" pos="67.72" speed="8.76"/>
            </lane>
        </edge>
        <edge id="3fi">
            <lane id="3fi_0">
                <vehicle id="vertical.1" pos="3.10" speed="0.00"/>
                <vehicle id="always_left.1" pos="8.44" speed="2.07"/>
                <vehicle id="vertical.0" pos="36.26" speed="6.17"/>
                <vehicle id="always_left.0" pos="71.97" speed="9.17"/>
            </lane>
        </edge>
    </timestep>
    <timestep time="115.00">
        <edge id="1fi">
            <lane id="1fi_0">
                <vehicle id="always_right.1" pos="11.94" speed="3.01"/>
                <vehicle id="always_right.0" pos="72.74" speed="9.00"/>
            </lane>
        </edge>
        <edge id="2fi">
            <lane id="2fi_0">
                <vehicle id="horizontal.1" pos="11.96" speed="2.69"/>
                <vehicle id="horizontal.0" pos="77.25" speed="9.53"/>
            </lane>
        </edge>
        <edge id="3fi">
            <lane id="3fi_0">
                <vehicle id="vertical.1" pos="3.40" speed="0.30"/>
                <vehicle id="always_left.1" pos="10.92" speed="2.47"/>
                <vehicle id="vertical.0" pos="43.10" speed="6.84"/>
                <vehicle id="always_left.0" pos="81.81" speed="9.84"/>
            </lane>
        </edge>
    </timestep>
    <timestep time="116.00">
        <edge id="1fi">
            <lane id="1fi_0">
                <vehicle id="always_right.1" pos="15.71" speed="3.77"/>
                <vehicle id="always_right.0" pos="82.31" speed="9.57"/>
            </lane>
        </edge>
        <edge id="2fi">
            <lane id="2fi_0">
                <vehicle id="horizontal.1" pos="15.37" speed="3.41"/>
                <vehicle id="horizontal.0" pos="87.51" speed="10.26"/>
            </lane>
        </edge>
        <edge id="3fi">
            <lane id="3fi_0">
                <vehicle id="vertical.1" pos="4.48" speed="1.08"/>
                <vehicle id="always_left.1" pos="14.16" speed="3.24"/>
                <vehicle id="vertical.0" pos="50.45" speed="7.35"/>
                <vehicle id="always_left.0" pos="92.30" speed="10.50"/>
            </lane>
        </edge>
    </timestep>
    <timestep time="117.00">
        <edge id="1fi">
            <lane id="1fi_0">
                <vehicle id="always_right.1" pos="20.17" speed="4.46"/>
                <vehicle id="always_right.0" pos="92.60" speed="10.29"/>
            </lane>
        </edge>
        <edge id="2fi">
            <lane id="2fi_0">
                <vehicle id="horizontal.1" pos="19.30" speed="3.94"/>
                <vehicle id="horizontal.0" pos="98.40" speed="10.89"/>
            </lane>
        </edge>
        <edge id="3fi">
            <lane id="3fi_0">
                <vehicle id="vertical.1" pos="6.12" speed="1.64"/>
                <vehicle id="always_left.1" pos="18.04" speed="3.89"/>
                <vehicle id="vertical.0" pos="58.40" speed="7.95"/>
                <vehicle id="always_left.0" pos="103.08" speed="10.78"/>
            </lane>
        </edge>
    </timestep>
    <timestep time="118.00">
        <edge id="1fi">
            <lane id="1fi_0">
                <vehicle id="always_right.1" pos="25.19" speed="5.02"/>
                <vehicle id="always_right.0" pos="103.52" speed="10.92"/>
            </lane>
        </edge>
        <edge id="2fi">
            <lane id="2fi_0">
                <vehicle id="horizontal.1" pos="23.89" speed="4.59"/>
                <vehicle id="horizontal.0" pos="109.12" speed="10.72"/>
            </lane>
        </edge>
        <edge id="3fi">
            <lane id="3fi_0">
                <vehicle id="vertical.1" pos="8.55" speed="2.43"/>
                <vehicle id="always_left.1" pos="22.61" speed="4.56"/>
                <vehicle id="vertical.0" pos="67.10" speed="8.70"/>
                <vehicle id="always_left.0" pos="113.84" speed="10.76"/>
            </lane>
        </edge>
    </timestep>
    <timestep time="119.00">
        <edge id="1fi">
            <lane id="1fi_0">
                <vehicle id="always_right.1" pos="30.76" speed="5.57"/>
                <vehicle id="always_right.0" pos="114.26" speed="10.74"/>
            </lane>
        </edge>
        <edge id="2fi">
            <lane id="2fi_0">
                <vehicle id="horizontal.1" pos="29.09" speed="5.19"/>
                <vehicle id="horizontal.0" pos="120.06" speed="10.94"/>
            </lane>
        </edge>
        <edge id="3fi">
            <lane id="3fi_0">
                <vehicle id="vertical.1" pos="11.49" speed="2.94"/>
                <vehicle id="always_left.1" pos="27.79" speed="5.18"/>
                <vehicle id="vertical.0" pos="76.26" speed="9.16"/>
                <vehicle id="always_left.0" pos="124.72" speed="10.88"/>
            </lane>
        </edge>
    </timestep>
</netstate>
