<?xml version="1.0" encoding="UTF-8"?>

<!-- generated on Tue May 19 13:16:15 2020 by Eclipse SUMO Version v1_6_0+0323-441b9dcf2c
This data file and the accompanying materials
are made available under the terms of the Eclipse Public License v2.0
which accompanies this distribution, and is available at
http://www.eclipse.org/legal/epl-v20.html
SPDX-License-Identifier: EPL-2.0
<configuration xmlns:xsi="http://www.w3.org/2001/XMLSchema-instance" xsi:noNamespaceSchemaLocation="http://sumo.dlr.de/xsd/sumoConfiguration.xsd">

    <input>
        <net-file value="three_split.net.xml"/>
        <route-files value="input_routes.rou.xml"/>
    </input>

    <output>
        <write-license value="true"/>
        <tripinfo-output value="tripinfos.xml"/>
    </output>

    <processing>
        <scale value="1"/>
        <default.speeddev value="0"/>
        <pedestrian.model value="nonInteracting"/>
    </processing>

    <report>
        <verbose value="true"/>
        <xml-validation value="never"/>
        <duration-log.disable value="true"/>
        <no-step-log value="true"/>
    </report>

</configuration>
-->

<tripinfos xmlns:xsi="http://www.w3.org/2001/XMLSchema-instance" xsi:noNamespaceSchemaLocation="http://sumo.dlr.de/xsd/tripinfo_file.xsd">
    <personinfo id="p1" depart="3.00" type="DEFAULT_PEDTYPE">
        <ride waitingTime="0.00" vehicle="v1" depart="3.00" arrival="80.00" arrivalPos="500.00" duration="77.00" routeLength="1989.60" timeLoss="4.86"/>
    </personinfo>
    <tripinfo id="v1" depart="3.00" departLane="beg_0" departPos="15.00" departSpeed="0.00" departDelay="0.00" arrival="80.00" arrivalLane="end_0" arrivalPos="500.00" arrivalSpeed="27.80" duration="77.00" routeLength="1985.00" waitingTime="0.00" waitingCount="0" stopTime="0.00" timeLoss="4.86" rerouteNo="0" devices="tripinfo_v1 person_v1" vType="DEFAULT_VEHTYPE" speedFactor="1.00" vaporized=""/>
</tripinfos>
