<?xml version="1.0" encoding="UTF-8"?>

<!-- generated on 2024-12-05 08:46:01 by Eclipse SUMO sumo Version v1_21_0+1188-de3782bea46
<sumoConfiguration xmlns:xsi="http://www.w3.org/2001/XMLSchema-instance" xsi:noNamespaceSchemaLocation="http://sumo.dlr.de/xsd/sumoConfiguration.xsd">

    <input>
        <net-file value="001/../input_net.net.xml"/>
        <route-files value="001/input_routes_001.rou.xml"/>
        <additional-files value="001/../edgedata.add.xml"/>
    </input>

    <output>
        <output-prefix value="001/"/>
        <summary-output value="001/../summary_001.xml"/>
        <statistic-output value="001/../stats.xml"/>
    </output>

    <time>
        <begin value="0"/>
    </time>

    <processing>
        <route-steps value="200"/>
        <no-internal-links value="False"/>
        <time-to-teleport value="300"/>
        <time-to-teleport.highways value="0"/>
        <eager-insert value="False"/>
    </processing>

    <report>
        <verbose value="true"/>
        <no-warnings value="False"/>
        <log value="001/../iteration_001.sumo.log"/>
        <duration-log.statistics value="true"/>
        <no-step-log value="true"/>
    </report>

    <random_number>
        <random value="False"/>
    </random_number>

</sumoConfiguration>
-->

<statistics xmlns:xsi="http://www.w3.org/2001/XMLSchema-instance" xsi:noNamespaceSchemaLocation="http://sumo.dlr.de/xsd/statistic_file.xsd">
    <performance clockBegin="1733384761.47" clockEnd="1733384761.98" clockDuration="0.51" traciDuration="0.00" realTimeFactor="5681.02" vehicleUpdatesPerSecond="546025.44" personUpdatesPerSecond="0.00" begin="0.00" end="2903.00" duration="2903.00"/>
    <vehicles loaded="1000" inserted="1000" running="0" waiting="0"/>
    <teleports total="0" jam="0" yield="0" wrongLane="0"/>
    <safety collisions="0" emergencyStops="0" emergencyBraking="0"/>
    <persons loaded="0" running="0" jammed="0"/>
    <personTeleports total="0" abortWait="0" wrongDest="0"/>
    <vehicleTripStatistics count="1000" routeLength="1181.62" speed="5.78" duration="279.02" waitingTime="85.92" timeLoss="204.60" departDelay="156.39" departDelayWaiting="-1.00" totalTravelTime="279019.00" totalDepartDelay="156388.00"/>
    <pedestrianStatistics number="0" routeLength="0.00" duration="0.00" timeLoss="0.00"/>
    <rideStatistics number="0"/>
    <transportStatistics number="0"/>
</statistics>
