<?xml version="1.0" encoding="UTF-8"?>

<!-- generated on 2024-05-31 20:46:49 by Eclipse SUMO sumo Version v1_20_0+0332-f60b870b24d
<configuration xmlns:xsi="http://www.w3.org/2001/XMLSchema-instance" xsi:noNamespaceSchemaLocation="http://sumo.dlr.de/xsd/sumoConfiguration.xsd">

    <input>
        <net-file value="001/../input_net.net.xml"/>
        <route-files value="001/input_routes_001.rou.xml"/>
        <additional-files value="001/../edgedata.add.xml"/>
    </input>

    <output>
        <output-prefix value="001/"/>
        <summary-output value="001/../summary_001.xml"/>
        <statistic-output value="001/../stats.xml"/>
    </output>

    <time>
        <begin value="0"/>
    </time>

    <processing>
        <route-steps value="200"/>
        <no-internal-links value="False"/>
        <time-to-teleport value="300"/>
        <time-to-teleport.highways value="0"/>
        <eager-insert value="False"/>
    </processing>

    <report>
        <verbose value="true"/>
        <no-warnings value="False"/>
        <log value="001/../iteration_001.sumo.log"/>
        <duration-log.statistics value="true"/>
        <no-step-log value="true"/>
    </report>

    <random_number>
        <random value="False"/>
    </random_number>

</configuration>
-->

<statistics xmlns:xsi="http://www.w3.org/2001/XMLSchema-instance" xsi:noNamespaceSchemaLocation="http://sumo.dlr.de/xsd/statistic_file.xsd">
    <performance clockBegin="1717181209.34" clockEnd="1717181209.80" clockDuration="0.46" traciDuration="0.00" realTimeFactor="6270.56" vehicleUpdatesPerSecond="594359.31" personUpdatesPerSecond="0.00" begin="0.00" end="2897.00" duration="2897.00"/>
    <vehicles loaded="1000" inserted="1000" running="0" waiting="0"/>
    <teleports total="0" jam="0" yield="0" wrongLane="0"/>
    <safety collisions="0" emergencyStops="0" emergencyBraking="0"/>
    <persons loaded="0" running="0" jammed="0"/>
    <personTeleports total="0" abortWait="0" wrongDest="0"/>
    <vehicleTripStatistics count="1000" routeLength="1181.62" speed="5.86" duration="274.59" waitingTime="85.03" timeLoss="200.16" departDelay="155.13" departDelayWaiting="-1.00" totalTravelTime="274594.00" totalDepartDelay="155126.00"/>
    <pedestrianStatistics number="0" routeLength="0.00" duration="0.00" timeLoss="0.00"/>
    <rideStatistics number="0"/>
    <transportStatistics number="0"/>
</statistics>
