<?xml version="1.0" encoding="UTF-8"?>

<!-- generated on Wed Feb 17 10:18:17 2016 by SUMO Version dev-SVN-r19994
<?xml version="1.0" encoding="UTF-8"?>

<configuration xmlns:xsi="http://www.w3.org/2001/XMLSchema-instance" xsi:noNamespaceSchemaLocation="http://sumo.dlr.de/xsd/sumoConfiguration.xsd">

    <input>
        <net-file value="net.net.xml"/>
        <additional-files value="input_routes.rou.xml"/>
    </input>

    <output>
        <fcd-output value="fcd.xml"/>
    </output>

    <time>
        <end value="1"/>
    </time>

    <report>
        <xml-validation value="never"/>
        <duration-log.disable value="true"/>
        <no-step-log value="true"/>
    </report>

    <mesoscopic>
        <mesosim value="true"/>
    </mesoscopic>

</configuration>
-->

<fcd-export xmlns:xsi="http://www.w3.org/2001/XMLSchema-instance" xsi:noNamespaceSchemaLocation="http://sumo.dlr.de/xsd/fcd_file.xsd">
    <timestep time="0.00">
        <vehicle id="goingEast" x="404.75" y="398.35" angle="90.00" type="t1" speed="10.00" pos="0.00" slope="0.00"/>
        <vehicle id="goingNorth" x="401.65" y="404.75" angle="0.00" type="t1" speed="10.00" pos="0.00" slope="0.00"/>
        <vehicle id="goingSouth" x="398.35" y="395.25" angle="180.00" type="t1" speed="10.00" pos="0.00" slope="0.00"/>
        <vehicle id="goingWest" x="395.25" y="401.65" angle="270.00" type="t1" speed="10.00" pos="0.00" slope="0.00"/>
    </timestep>
</fcd-export>
