<?xml version="1.0" encoding="UTF-8"?>

<!-- generated on 2022-03-16 14:31:25 by Eclipse SUMO sumo Version v1_12_0+1410-8b2a08b68af
This data file and the accompanying materials
are made available under the terms of the Eclipse Public License v2.0
which accompanies this distribution, and is available at
http://www.eclipse.org/legal/epl-v20.html
This file may also be made available under the following Secondary
Licenses when the conditions for such availability set forth in the Eclipse
Public License 2.0 are satisfied: GNU General Public License, version 2
or later which is available at
https://www.gnu.org/licenses/old-licenses/gpl-2.0-standalone.html
SPDX-License-Identifier: EPL-2.0 OR GPL-2.0-or-later
<configuration xmlns:xsi="http://www.w3.org/2001/XMLSchema-instance" xsi:noNamespaceSchemaLocation="http://sumo.dlr.de/xsd/sumoConfiguration.xsd">

    <input>
        <net-file value="net.net.xml"/>
        <additional-files value="input_trips.trips.xml"/>
    </input>

    <output>
        <write-license value="true"/>
        <vehroute-output value="vehroutes.xml"/>
        <vehroute-output.cost value="true"/>
    </output>

    <time>
        <begin value="0"/>
    </time>

    <processing>
        <default.speeddev value="0"/>
    </processing>

    <routing>
        <weights.priority-factor value="1"/>
        <device.rerouting.probability value="1"/>
    </routing>

    <report>
        <xml-validation value="never"/>
        <xml-validation.routes value="never"/>
        <duration-log.disable value="true"/>
        <no-step-log value="true"/>
    </report>

</configuration>
-->

<routes xmlns:xsi="http://www.w3.org/2001/XMLSchema-instance" xsi:noNamespaceSchemaLocation="http://sumo.dlr.de/xsd/routes_file.xsd">
    <vehicle id="0" depart="0.00" arrival="131.00">
        <route cost="179.74" savings="0.00" edges="beg beg2left left left2end end rend"/>
    </vehicle>

    <vehicle id="1" depart="20.00" arrival="151.00">
        <route cost="180.33" savings="0.00" edges="beg beg2left left left2end end rend"/>
    </vehicle>

    <vehicle id="2" depart="40.00" arrival="171.00">
        <route cost="180.95" savings="0.00" edges="beg beg2left left left2end end rend"/>
    </vehicle>

    <vehicle id="3" depart="60.00" arrival="191.00">
        <route cost="181.58" savings="0.00" edges="beg beg2left left left2end end rend"/>
    </vehicle>

    <vehicle id="4" depart="80.00" arrival="211.00">
        <route cost="182.24" savings="0.00" edges="beg beg2left left left2end end rend"/>
    </vehicle>

    <vehicle id="5" depart="100.00" arrival="231.00">
        <route cost="182.92" savings="0.00" edges="beg beg2left left left2end end rend"/>
    </vehicle>

    <vehicle id="6" depart="120.00" arrival="251.00">
        <route cost="183.63" savings="0.00" edges="beg beg2left left left2end end rend"/>
    </vehicle>

    <vehicle id="7" depart="140.00" arrival="271.00">
        <route cost="184.36" savings="0.00" edges="beg beg2left left left2end end rend"/>
    </vehicle>

    <vehicle id="8" depart="160.00" arrival="291.00">
        <route cost="185.12" savings="0.00" edges="beg beg2left left left2end end rend"/>
    </vehicle>

    <vehicle id="9" depart="180.00" arrival="311.00">
        <route cost="185.91" savings="0.00" edges="beg beg2left left left2end end rend"/>
    </vehicle>

</routes>
