<?xml version="1.0" encoding="UTF-8"?>

<!-- generated on 2022-06-15 13:02:11 by Eclipse SUMO sumo Version v1_13_0+0844-22f88dc7bc3
This data file and the accompanying materials
are made available under the terms of the Eclipse Public License v2.0
which accompanies this distribution, and is available at
http://www.eclipse.org/legal/epl-v20.html
This file may also be made available under the following Secondary
Licenses when the conditions for such availability set forth in the Eclipse
Public License 2.0 are satisfied: GNU General Public License, version 2
or later which is available at
https://www.gnu.org/licenses/old-licenses/gpl-2.0-standalone.html
SPDX-License-Identifier: EPL-2.0 OR GPL-2.0-or-later
<configuration xmlns:xsi="http://www.w3.org/2001/XMLSchema-instance" xsi:noNamespaceSchemaLocation="http://sumo.dlr.de/xsd/sumoConfiguration.xsd">

    <input>
        <net-file value="net.net.xml"/>
        <route-files value="input_routes.rou.xml"/>
        <additional-files value="input_additional2.add.xml"/>
    </input>

    <output>
        <write-license value="true"/>
        <emission-output value="rawdump.xml"/>
    </output>

    <time>
        <begin value="0"/>
        <end value="15"/>
    </time>

    <processing>
        <default.speeddev value="0"/>
    </processing>

    <report>
        <xml-validation value="never"/>
        <duration-log.disable value="true"/>
        <no-step-log value="true"/>
    </report>

</configuration>
-->

<emission-export xmlns:xsi="http://www.w3.org/2001/XMLSchema-instance" xsi:noNamespaceSchemaLocation="http://sumo.dlr.de/xsd/emission_file.xsd">
    <timestep time="0.00">
        <vehicle id="0" eclass="HBEFA3/PC_G_EU4" CO2="2112.22" CO="19.25" HC="0.13" NOx="0.70" PMx="0.01" fuel="673.72" electricity="0.00" noise="61.77" route="r1" type="DEFAULT_VEHTYPE" waiting="0.00" lane="4/1to3/1_0" pos="100.00" speed="10.00" angle="270.00" x="1497.62" y="401.65"/>
    </timestep>
    <timestep time="1.00">
        <vehicle id="0" eclass="HBEFA3/PC_G_EU4" CO2="2112.22" CO="19.25" HC="0.13" NOx="0.70" PMx="0.01" fuel="673.72" electricity="0.00" noise="61.77" route="r1" type="DEFAULT_VEHTYPE" waiting="0.00" lane="4/1to3/1_0" pos="110.00" speed="10.00" angle="270.00" x="1487.86" y="401.65"/>
    </timestep>
    <timestep time="2.00">
        <vehicle id="0" eclass="HBEFA3/PC_G_EU4" CO2="2112.22" CO="19.25" HC="0.13" NOx="0.70" PMx="0.01" fuel="673.72" electricity="0.00" noise="61.77" route="r1" type="DEFAULT_VEHTYPE" waiting="0.00" lane="4/1to3/1_0" pos="120.00" speed="10.00" angle="270.00" x="1478.10" y="401.65"/>
    </timestep>
    <timestep time="3.00">
        <vehicle id="0" eclass="HBEFA3/PC_G_EU4" CO2="2112.22" CO="19.25" HC="0.13" NOx="0.70" PMx="0.01" fuel="673.72" electricity="0.00" noise="61.77" route="r1" type="DEFAULT_VEHTYPE" waiting="0.00" lane="4/1to3/1_0" pos="130.00" speed="10.00" angle="270.00" x="1468.34" y="401.65"/>
    </timestep>
    <timestep time="4.00">
        <vehicle id="0" eclass="HBEFA3/PC_G_EU4" CO2="2112.22" CO="19.25" HC="0.13" NOx="0.70" PMx="0.01" fuel="673.72" electricity="0.00" noise="61.77" route="r1" type="DEFAULT_VEHTYPE" waiting="0.00" lane="4/1to3/1_0" pos="140.00" speed="10.00" angle="270.00" x="1458.58" y="401.65"/>
    </timestep>
    <timestep time="5.00">
        <vehicle id="0" eclass="HBEFA3/PC_G_EU4" CO2="0.00" CO="0.00" HC="0.00" NOx="0.00" PMx="0.00" fuel="0.00" electricity="0.00" noise="53.77" route="r1" type="DEFAULT_VEHTYPE" waiting="0.00" lane="4/1to3/1_0" pos="147.25" speed="7.25" angle="270.00" x="1451.50" y="401.65"/>
    </timestep>
    <timestep time="6.00">
        <vehicle id="0" eclass="HBEFA3/PC_G_EU4" CO2="0.00" CO="0.00" HC="0.00" NOx="0.00" PMx="0.00" fuel="0.00" electricity="0.00" noise="42.59" route="r1" type="DEFAULT_VEHTYPE" waiting="0.00" lane="4/1to3/1_0" pos="150.00" speed="2.75" angle="270.00" x="1448.81" y="401.65"/>
    </timestep>
    <timestep time="7.00">
        <vehicle id="0" eclass="HBEFA3/PC_G_EU4" CO2="2624.72" CO="164.78" HC="0.81" NOx="1.20" PMx="0.07" fuel="837.22" electricity="0.00" noise="43.84" route="r1" type="DEFAULT_VEHTYPE" waiting="0.00" lane="4/1to3/1_0" pos="150.00" speed="0.00" angle="270.00" x="1448.81" y="401.65"/>
    </timestep>
    <timestep time="8.00">
        <vehicle id="0" eclass="HBEFA3/PC_G_EU4" CO2="2624.72" CO="164.78" HC="0.81" NOx="1.20" PMx="0.07" fuel="837.22" electricity="0.00" noise="55.94" route="r1" type="DEFAULT_VEHTYPE" waiting="0.00" lane="4/1to3/1_0" pos="150.00" speed="0.00" angle="270.00" x="1448.81" y="401.65"/>
    </timestep>
    <timestep time="9.00">
        <vehicle id="0" eclass="HBEFA3/PC_G_EU4" CO2="2624.72" CO="164.78" HC="0.81" NOx="1.20" PMx="0.07" fuel="837.22" electricity="0.00" noise="55.94" route="r1" type="DEFAULT_VEHTYPE" waiting="0.00" lane="4/1to3/1_0" pos="150.00" speed="0.00" angle="270.00" x="1448.81" y="401.65"/>
    </timestep>
    <timestep time="10.00">
        <vehicle id="0" eclass="HBEFA3/PC_G_EU4" CO2="2624.72" CO="164.78" HC="0.81" NOx="1.20" PMx="0.07" fuel="837.22" electricity="0.00" noise="55.94" route="r1" type="DEFAULT_VEHTYPE" waiting="0.00" lane="4/1to3/1_0" pos="150.00" speed="0.00" angle="270.00" x="1448.81" y="401.65"/>
    </timestep>
    <timestep time="11.00">
        <vehicle id="0" eclass="HBEFA3/PC_G_EU4" CO2="2624.72" CO="164.78" HC="0.81" NOx="1.20" PMx="0.07" fuel="837.22" electricity="0.00" noise="55.94" route="r1" type="DEFAULT_VEHTYPE" waiting="0.00" lane="4/1to3/1_0" pos="150.00" speed="0.00" angle="270.00" x="1448.81" y="401.65"/>
    </timestep>
    <timestep time="12.00">
        <vehicle id="0" eclass="HBEFA3/PC_G_EU4" CO2="2624.72" CO="164.78" HC="0.81" NOx="1.20" PMx="0.07" fuel="837.22" electricity="0.00" noise="55.94" route="r1" type="DEFAULT_VEHTYPE" waiting="0.00" lane="4/1to3/1_0" pos="150.00" speed="0.00" angle="270.00" x="1448.81" y="401.65"/>
    </timestep>
    <timestep time="13.00">
        <vehicle id="0" eclass="HBEFA3/PC_G_EU4" CO2="2624.72" CO="164.78" HC="0.81" NOx="1.20" PMx="0.07" fuel="837.22" electricity="0.00" noise="55.94" route="r1" type="DEFAULT_VEHTYPE" waiting="0.00" lane="4/1to3/1_0" pos="150.00" speed="0.00" angle="270.00" x="1448.81" y="401.65"/>
    </timestep>
    <timestep time="14.00">
        <vehicle id="0" eclass="HBEFA3/PC_G_EU4" CO2="2624.72" CO="164.78" HC="0.81" NOx="1.20" PMx="0.07" fuel="837.22" electricity="0.00" noise="55.94" route="r1" type="DEFAULT_VEHTYPE" waiting="0.00" lane="4/1to3/1_0" pos="150.00" speed="0.00" angle="270.00" x="1448.81" y="401.65"/>
    </timestep>
</emission-export>
