<?xml version="1.0" encoding="UTF-8"?>

<!-- generated on 05/02/13 14:16:16 by SUMO sumo Version 0.17.0
<?xml version="1.0" encoding="UTF-8"?>

<configuration xmlns:xsi="http://www.w3.org/2001/XMLSchema-instance" xsi:noNamespaceSchemaLocation="http://sumo-sim.org/xsd/sumoConfiguration.xsd">

    <input>
        <net-file value="three_split.net.xml"/>
        <additional-files value="input_routes.rou.xml,input_additional2.add.xml"/>
    </input>

    <output>
        <tripinfo-output value="tripinfos.xml"/>
    </output>

    <time>
        <begin value="0"/>
    </time>

    <report>
        <no-duration-log value="true"/>
        <no-step-log value="true"/>
    </report>

</configuration>
-->

<tripinfos>
    <tripinfo id="2" depart="40.00" departLane="beg_0" departPos="0.00" departSpeed="0.00" departDelay="0.00" arrival="63.00" arrivalLane="middle_0" arrivalPos="500.00" arrivalSpeed="27.80" duration="23.00" routeLength="1990.50" waitSteps="0" rerouteNo="0" devices="tripinfo_2" vType="DEFAULT_VEHTYPE" vaporized="0"/>
    <tripinfo id="3" depart="60.00" departLane="beg_0" departPos="0.00" departSpeed="0.00" departDelay="0.00" arrival="83.00" arrivalLane="middle_0" arrivalPos="500.00" arrivalSpeed="27.80" duration="23.00" routeLength="1990.50" waitSteps="0" rerouteNo="0" devices="tripinfo_3" vType="DEFAULT_VEHTYPE" vaporized="0"/>
    <tripinfo id="0" depart="0.00" departLane="beg_0" departPos="0.00" departSpeed="0.00" departDelay="0.00" arrival="95.00" arrivalLane="rend_0" arrivalPos="500.00" arrivalSpeed="27.80" duration="95.00" routeLength="2481.00" waitSteps="0" rerouteNo="0" devices="tripinfo_0" vType="DEFAULT_VEHTYPE" vaporized=""/>
    <tripinfo id="1" depart="20.00" departLane="beg_0" departPos="0.00" departSpeed="0.00" departDelay="0.00" arrival="115.00" arrivalLane="rend_0" arrivalPos="500.00" arrivalSpeed="27.80" duration="95.00" routeLength="2481.00" waitSteps="0" rerouteNo="0" devices="tripinfo_1" vType="DEFAULT_VEHTYPE" vaporized=""/>
    <tripinfo id="4" depart="80.00" departLane="beg_0" departPos="0.00" departSpeed="0.00" departDelay="0.00" arrival="175.00" arrivalLane="rend_0" arrivalPos="500.00" arrivalSpeed="27.80" duration="95.00" routeLength="2481.00" waitSteps="0" rerouteNo="0" devices="tripinfo_4" vType="DEFAULT_VEHTYPE" vaporized=""/>
    <tripinfo id="5" depart="100.00" departLane="beg_0" departPos="0.00" departSpeed="0.00" departDelay="0.00" arrival="195.00" arrivalLane="rend_0" arrivalPos="500.00" arrivalSpeed="27.80" duration="95.00" routeLength="2481.00" waitSteps="0" rerouteNo="0" devices="tripinfo_5" vType="DEFAULT_VEHTYPE" vaporized=""/>
    <tripinfo id="6" depart="120.00" departLane="beg_0" departPos="0.00" departSpeed="0.00" departDelay="0.00" arrival="215.00" arrivalLane="rend_0" arrivalPos="500.00" arrivalSpeed="27.80" duration="95.00" routeLength="2481.00" waitSteps="0" rerouteNo="0" devices="tripinfo_6" vType="DEFAULT_VEHTYPE" vaporized=""/>
    <tripinfo id="7" depart="140.00" departLane="beg_0" departPos="0.00" departSpeed="0.00" departDelay="0.00" arrival="235.00" arrivalLane="rend_0" arrivalPos="500.00" arrivalSpeed="27.80" duration="95.00" routeLength="2481.00" waitSteps="0" rerouteNo="0" devices="tripinfo_7" vType="DEFAULT_VEHTYPE" vaporized=""/>
    <tripinfo id="8" depart="160.00" departLane="beg_0" departPos="0.00" departSpeed="0.00" departDelay="0.00" arrival="255.00" arrivalLane="rend_0" arrivalPos="500.00" arrivalSpeed="27.80" duration="95.00" routeLength="2481.00" waitSteps="0" rerouteNo="0" devices="tripinfo_8" vType="DEFAULT_VEHTYPE" vaporized=""/>
    <tripinfo id="9" depart="180.00" departLane="beg_0" departPos="0.00" departSpeed="0.00" departDelay="0.00" arrival="275.00" arrivalLane="rend_0" arrivalPos="500.00" arrivalSpeed="27.80" duration="95.00" routeLength="2481.00" waitSteps="0" rerouteNo="0" devices="tripinfo_9" vType="DEFAULT_VEHTYPE" vaporized=""/>
</tripinfos>
