<?xml version="1.0" encoding="UTF-8"?>

<!-- generated on Fri Apr  8 14:45:01 2016 by SUMO Version svn
<?xml version="1.0" encoding="UTF-8"?>

<configuration xmlns:xsi="http://www.w3.org/2001/XMLSchema-instance" xsi:noNamespaceSchemaLocation="http://sumo.dlr.de/xsd/sumoConfiguration.xsd">

    <input>
        <net-file value="net.net.xml"/>
        <additional-files value="input_routes.rou.xml,input_additional.add.xml,input_additional2.add.xml"/>
    </input>

    <time>
        <begin value="0"/>
        <end value="150"/>
    </time>

    <report>
        <xml-validation value="never"/>
        <duration-log.disable value="true"/>
        <no-step-log value="true"/>
    </report>

    <mesoscopic>
        <mesosim value="true"/>
    </mesoscopic>

</configuration>
-->

<meandata xmlns:xsi="http://www.w3.org/2001/XMLSchema-instance" xsi:noNamespaceSchemaLocation="http://sumo.dlr.de/xsd/meandata_file.xsd">
    <interval begin="15.00" end="30.00" id="dump_15">
        <edge id="4/1to3/1" sampledSeconds="30.00" CO_abs="0" CO2_abs="50402.120093" HC_abs="8.825910" PMx_abs="2.938365" NOx_abs="79.970640" fuel_abs="20.094561" electricity_abs="0"
            CO_normed="0" CO2_normed="30241.272056" HC_normed="5.295546" PMx_normed="1.763019" NOx_normed="47.982384" fuel_normed="12.056737" electricity_normed="0"
            traveltime="40.00" CO_perVeh="0" CO2_perVeh="67202.826791" HC_perVeh="11.767880" PMx_perVeh="3.917819" NOx_perVeh="106.627520" fuel_perVeh="26.792749" electricity_perVeh="0"/>
    </interval>
    <interval begin="45.00" end="60.00" id="dump_15">
        <edge id="3/1to2/1" sampledSeconds="29.00" CO_abs="0" CO2_abs="48722.049424" HC_abs="8.531713" PMx_abs="2.840419" NOx_abs="77.304952" fuel_abs="19.424743" electricity_abs="0"
            CO_normed="0" CO2_normed="29233.229654" HC_normed="5.119028" PMx_normed="1.704251" NOx_normed="46.382971" fuel_normed="11.654846" electricity_normed="0"
            traveltime="40.00" CO_perVeh="0" CO2_perVeh="67202.826791" HC_perVeh="11.767880" PMx_perVeh="3.917819" NOx_perVeh="106.627520" fuel_perVeh="26.792749" electricity_perVeh="0"/>
        <edge id="4/1to3/1" sampledSeconds="1.00" CO_abs="0" CO2_abs="1680.070670" HC_abs="0.294197" PMx_abs="0.097945" NOx_abs="2.665688" fuel_abs="0.669819" electricity_abs="0"
            CO_normed="0" CO2_normed="1008.042402" HC_normed="0.176518" PMx_normed="0.058767" NOx_normed="1.599413" fuel_normed="0.401891" electricity_normed="0"
            traveltime="40.00" CO_perVeh="0" CO2_perVeh="67202.826791" HC_perVeh="11.767880" PMx_perVeh="3.917819" NOx_perVeh="106.627520" fuel_perVeh="26.792749" electricity_perVeh="0"/>
    </interval>
</meandata>
