<?xml version="1.0" encoding="UTF-8"?>

<!-- generated on Mon Mar  3 10:28:46 2014 by SUMO sumo Version dev-SVN-r15793
<?xml version="1.0" encoding="UTF-8"?>

<configuration xmlns:xsi="http://www.w3.org/2001/XMLSchema-instance" xsi:noNamespaceSchemaLocation="http://sumo.dlr.de/xsd/sumoConfiguration.xsd">

    <input>
        <net-file value="net.net.xml"/>
        <additional-files value="input_routes.rou.xml,input_additional.add.xml,input_additional2.add.xml"/>
    </input>

    <time>
        <begin value="0"/>
        <end value="150"/>
    </time>

    <report>
        <xml-validation value="never"/>
        <no-duration-log value="true"/>
        <no-step-log value="true"/>
    </report>

</configuration>
-->

<meandata xmlns:xsi="http://www.w3.org/2001/XMLSchema-instance" xsi:noNamespaceSchemaLocation="http://sumo.dlr.de/xsd/meandata_file.xsd">
    <interval begin="15.00" end="30.00" id="dump_15">
        <edge id="4/1to3/1">
            <lane id="4/1to3/1_0" sampledSeconds="30.00" CO_abs="0" CO2_abs="50402.120093" HC_abs="8.825910" PMx_abs="2.938365" NOx_abs="79.970640" fuel_abs="20.094561"
            CO_normed="0" CO2_normed="30241.272056" HC_normed="5.295546" PMx_normed="1.763019" NOx_normed="47.982384" fuel_normed="12.056737"
            traveltime="40.00" CO_perVeh="0" CO2_perVeh="67202.826791" HC_perVeh="11.767880" PMx_perVeh="3.917819" NOx_perVeh="106.627520" fuel_perVeh="26.792749"/>
        </edge>
    </interval>
    <interval begin="45.00" end="60.00" id="dump_15">
        <edge id="3/1to2/1">
            <lane id="3/1to2/1_0" sampledSeconds="30.00" CO_abs="0" CO2_abs="50402.120093" HC_abs="8.825910" PMx_abs="2.938365" NOx_abs="79.970640" fuel_abs="20.094561"
            CO_normed="0" CO2_normed="30241.272056" HC_normed="5.295546" PMx_normed="1.763019" NOx_normed="47.982384" fuel_normed="12.056737"
            traveltime="40.00" CO_perVeh="0" CO2_perVeh="67202.826791" HC_perVeh="11.767880" PMx_perVeh="3.917819" NOx_perVeh="106.627520" fuel_perVeh="26.792749"/>
        </edge>
    </interval>
</meandata>
