<?xml version="1.0" encoding="UTF-8"?>

<!-- generated on Fri Mar 22 13:16:07 2019 by Eclipse SUMO Version v1_1_0+0417-c407ef5
<configuration xmlns:xsi="http://www.w3.org/2001/XMLSchema-instance" xsi:noNamespaceSchemaLocation="http://sumo.dlr.de/xsd/sumoConfiguration.xsd">

    <input>
        <net-file value="input_net.net.xml"/>
        <additional-files value="input_routes.rou.xml,input_additional.add.xml,input_additional2.add.xml"/>
    </input>

    <time>
        <begin value="0"/>
        <end value="1000"/>
        <step-length value="1"/>
    </time>

    <processing>
        <default.speeddev value="0"/>
        <default.emergencydecel value="decel"/>
    </processing>

    <report>
        <duration-log.disable value="true"/>
        <no-step-log value="true"/>
    </report>

    <gui_only>
        <tracker-interval value="1"/>
    </gui_only>

</configuration>
-->

<detector xmlns:xsi="http://www.w3.org/2001/XMLSchema-instance" xsi:noNamespaceSchemaLocation="http://sumo.dlr.de/xsd/det_e1_file.xsd">
    <interval begin="0.00" end="100.00" id="e1_2/1to1/1_0" nVehContrib="2" flow="72.00" occupancy="1.00" speed="10.00" harmonicMeanSpeed="10.00" length="5.00" nVehEntered="2"/>
   <interval begin="0.00" end="100.00" id="e2_2/1to1/1_0" sampledSeconds="141.64" nVehEntered="10" nVehLeft="0" nVehSeen="10" meanSpeed="10.00" meanTimeLoss="0.00" meanOccupancy="0.02" maxOccupancy="0.17" meanMaxJamLengthInVehicles="0.00" meanMaxJamLengthInMeters="0.00" maxJamLengthInVehicles="0" maxJamLengthInMeters="0.00" jamLengthInVehiclesSum="0" jamLengthInMetersSum="0.00" meanHaltingDuration="0.00" maxHaltingDuration="0.00" haltingDurationSum="0.00" meanIntervalHaltingDuration="0.00" maxIntervalHaltingDuration="0.00" intervalHaltingDurationSum="0.00" startedHalts="0.00" meanVehicleNumber="1.44" maxVehicleNumber="10" />
   <interval begin="0.00" end="100.00" id="e3_2/1to1/1_0" meanTravelTime="-1.00" meanOverlapTravelTime="-1.00" meanSpeed="-1.00" meanHaltsPerVehicle="-1.00" meanTimeLoss="-1.00" vehicleSum="0" meanSpeedWithin="10.00" meanHaltsPerVehicleWithin="0.00" meanDurationWithin="15.16" vehicleSumWithin="10" meanIntervalSpeedWithin="10.00" meanIntervalHaltsPerVehicleWithin="0.00" meanIntervalDurationWithin="15.16" meanTimeLossWithin="0.00"/>
    <interval begin="0.00" end="100.00" id="e1_1/1to0/1_0" nVehContrib="0" flow="0.00" occupancy="0.00" speed="-1.00" harmonicMeanSpeed="-1.00" length="-1.00" nVehEntered="0"/>
   <interval begin="0.00" end="100.00" id="e2_1/1to0/1_0" sampledSeconds="0.00" nVehEntered="0" nVehLeft="0" nVehSeen="0" meanSpeed="-1.00" meanTimeLoss="-1.00" meanOccupancy="0.00" maxOccupancy="0.00" meanMaxJamLengthInVehicles="0.00" meanMaxJamLengthInMeters="0.00" maxJamLengthInVehicles="0" maxJamLengthInMeters="0.00" jamLengthInVehiclesSum="0" jamLengthInMetersSum="0.00" meanHaltingDuration="0.00" maxHaltingDuration="0.00" haltingDurationSum="0.00" meanIntervalHaltingDuration="0.00" maxIntervalHaltingDuration="0.00" intervalHaltingDurationSum="0.00" startedHalts="0.00" meanVehicleNumber="0.00" maxVehicleNumber="0" />
   <interval begin="0.00" end="100.00" id="e3_1/1to0/1_0" meanTravelTime="-1.00" meanOverlapTravelTime="-1.00" meanSpeed="-1.00" meanHaltsPerVehicle="-1.00" meanTimeLoss="-1.00" vehicleSum="0" meanSpeedWithin="-1.00" meanHaltsPerVehicleWithin="-1.00" meanDurationWithin="-1.00" vehicleSumWithin="0" meanIntervalSpeedWithin="-1.00" meanIntervalHaltsPerVehicleWithin="-1.00" meanIntervalDurationWithin="-1.00" meanTimeLossWithin="-1.00"/>
    <interval begin="100.00" end="200.00" id="e1_2/1to1/1_0" nVehContrib="40" flow="1440.00" occupancy="20.00" speed="10.00" harmonicMeanSpeed="10.00" length="5.00" nVehEntered="40"/>
   <interval begin="100.00" end="200.00" id="e2_2/1to1/1_0" sampledSeconds="3050.39" nVehEntered="40" nVehLeft="0" nVehSeen="50" meanSpeed="8.01" meanTimeLoss="12.11" meanOccupancy="0.51" maxOccupancy="0.83" meanMaxJamLengthInVehicles="5.63" meanMaxJamLengthInMeters="41.06" maxJamLengthInVehicles="25" maxJamLengthInMeters="185.02" jamLengthInVehiclesSum="563" jamLengthInMetersSum="4105.52" meanHaltingDuration="22.65" maxHaltingDuration="48.00" haltingDurationSum="589.00" meanIntervalHaltingDuration="22.65" maxIntervalHaltingDuration="48.00" intervalHaltingDurationSum="589.00" startedHalts="26.00" meanVehicleNumber="30.60" maxVehicleNumber="50" />
   <interval begin="100.00" end="200.00" id="e3_2/1to1/1_0" meanTravelTime="40.00" meanOverlapTravelTime="40.50" meanSpeed="10.00" meanHaltsPerVehicle="0.00" meanTimeLoss="0.00" vehicleSum="34" meanSpeedWithin="10.00" meanHaltsPerVehicleWithin="0.00" meanDurationWithin="22.26" vehicleSumWithin="16" meanIntervalSpeedWithin="10.00" meanIntervalHaltsPerVehicleWithin="0.00" meanIntervalDurationWithin="22.26" meanTimeLossWithin="0.00"/>
    <interval begin="100.00" end="200.00" id="e1_1/1to0/1_0" nVehContrib="26" flow="936.00" occupancy="13.00" speed="10.00" harmonicMeanSpeed="10.00" length="5.00" nVehEntered="26"/>
   <interval begin="100.00" end="200.00" id="e2_1/1to0/1_0" sampledSeconds="1491.87" nVehEntered="34" nVehLeft="0" nVehSeen="34" meanSpeed="5.94" meanTimeLoss="17.81" meanOccupancy="0.25" maxOccupancy="0.57" meanMaxJamLengthInVehicles="5.63" meanMaxJamLengthInMeters="41.06" maxJamLengthInVehicles="25" maxJamLengthInMeters="185.02" jamLengthInVehiclesSum="563" jamLengthInMetersSum="4105.52" meanHaltingDuration="22.65" maxHaltingDuration="48.00" haltingDurationSum="589.00" meanIntervalHaltingDuration="22.65" maxIntervalHaltingDuration="48.00" intervalHaltingDurationSum="589.00" startedHalts="26.00" meanVehicleNumber="15.00" maxVehicleNumber="34" />
   <interval begin="100.00" end="200.00" id="e3_1/1to0/1_0" meanTravelTime="-1.00" meanOverlapTravelTime="-1.00" meanSpeed="-1.00" meanHaltsPerVehicle="-1.00" meanTimeLoss="-1.00" vehicleSum="0" meanSpeedWithin="7.08" meanHaltsPerVehicleWithin="0.74" meanDurationWithin="44.88" vehicleSumWithin="34" meanIntervalSpeedWithin="7.08" meanIntervalHaltsPerVehicleWithin="0.74" meanIntervalDurationWithin="44.88" meanTimeLossWithin="16.40"/>
    <interval begin="200.00" end="300.00" id="e1_2/1to1/1_0" nVehContrib="12" flow="432.00" occupancy="6.00" speed="10.00" harmonicMeanSpeed="10.00" length="5.00" nVehEntered="12"/>
   <interval begin="200.00" end="300.00" id="e2_2/1to1/1_0" sampledSeconds="5361.48" nVehEntered="4" nVehLeft="0" nVehSeen="54" meanSpeed="1.23" meanTimeLoss="87.07" meanOccupancy="0.89" maxOccupancy="0.90" meanMaxJamLengthInVehicles="46.55" meanMaxJamLengthInMeters="347.60" maxJamLengthInVehicles="54" maxJamLengthInMeters="406.00" jamLengthInVehiclesSum="4655" jamLengthInMetersSum="34760.15" meanHaltingDuration="97.63" maxHaltingDuration="148.00" haltingDurationSum="5272.00" meanIntervalHaltingDuration="86.72" maxIntervalHaltingDuration="100.00" intervalHaltingDurationSum="4683.00" startedHalts="28.00" meanVehicleNumber="53.62" maxVehicleNumber="54" />
   <interval begin="200.00" end="300.00" id="e3_2/1to1/1_0" meanTravelTime="40.00" meanOverlapTravelTime="40.51" meanSpeed="10.00" meanHaltsPerVehicle="0.00" meanTimeLoss="0.01" vehicleSum="19" meanSpeedWithin="5.84" meanHaltsPerVehicleWithin="1.00" meanDurationWithin="70.00" vehicleSumWithin="1" meanIntervalSpeedWithin="5.84" meanIntervalHaltsPerVehicleWithin="1.00" meanIntervalDurationWithin="70.00" meanTimeLossWithin="29.10"/>
    <interval begin="200.00" end="300.00" id="e1_1/1to0/1_0" nVehContrib="0" flow="0.00" occupancy="99.85" speed="-1.00" harmonicMeanSpeed="-1.00" length="-1.00" nVehEntered="1"/>
   <interval begin="200.00" end="300.00" id="e2_1/1to0/1_0" sampledSeconds="4872.62" nVehEntered="19" nVehLeft="0" nVehSeen="53" meanSpeed="0.41" meanTimeLoss="88.16" meanOccupancy="0.81" maxOccupancy="0.88" meanMaxJamLengthInVehicles="46.28" meanMaxJamLengthInMeters="344.65" maxJamLengthInVehicles="53" maxJamLengthInMeters="395.05" jamLengthInVehiclesSum="4628" jamLengthInMetersSum="34464.53" meanHaltingDuration="98.94" maxHaltingDuration="148.00" haltingDurationSum="5244.00" meanIntervalHaltingDuration="87.83" maxIntervalHaltingDuration="100.00" intervalHaltingDurationSum="4655.00" startedHalts="27.00" meanVehicleNumber="48.77" maxVehicleNumber="53" />
   <interval begin="200.00" end="300.00" id="e3_1/1to0/1_0" meanTravelTime="-1.00" meanOverlapTravelTime="-1.00" meanSpeed="-1.00" meanHaltsPerVehicle="-1.00" meanTimeLoss="-1.00" vehicleSum="0" meanSpeedWithin="1.62" meanHaltsPerVehicleWithin="1.00" meanDurationWithin="121.08" vehicleSumWithin="53" meanIntervalSpeedWithin="0.48" meanIntervalHaltsPerVehicleWithin="0.53" meanIntervalDurationWithin="92.28" meanTimeLossWithin="86.27"/>
    <interval begin="300.00" end="400.00" id="e1_2/1to1/1_0" nVehContrib="0" flow="0.00" occupancy="0.00" speed="-1.00" harmonicMeanSpeed="-1.00" length="-1.00" nVehEntered="0"/>
   <interval begin="300.00" end="400.00" id="e2_2/1to1/1_0" sampledSeconds="5400.00" nVehEntered="0" nVehLeft="0" nVehSeen="54" meanSpeed="0.00" meanTimeLoss="100.00" meanOccupancy="0.90" maxOccupancy="0.90" meanMaxJamLengthInVehicles="54.00" meanMaxJamLengthInMeters="406.00" maxJamLengthInVehicles="54" maxJamLengthInMeters="406.00" jamLengthInVehiclesSum="5400" jamLengthInMetersSum="40600.10" meanHaltingDuration="197.63" maxHaltingDuration="248.00" haltingDurationSum="10672.00" meanIntervalHaltingDuration="100.00" maxIntervalHaltingDuration="100.00" intervalHaltingDurationSum="5400.00" startedHalts="0.00" meanVehicleNumber="54.00" maxVehicleNumber="54" />
   <interval begin="300.00" end="400.00" id="e3_2/1to1/1_0" meanTravelTime="-1.00" meanOverlapTravelTime="-1.00" meanSpeed="-1.00" meanHaltsPerVehicle="-1.00" meanTimeLoss="-1.00" vehicleSum="0" meanSpeedWithin="2.41" meanHaltsPerVehicleWithin="1.00" meanDurationWithin="170.00" vehicleSumWithin="1" meanIntervalSpeedWithin="0.00" meanIntervalHaltsPerVehicleWithin="0.00" meanIntervalDurationWithin="100.00" meanTimeLossWithin="100.00"/>
    <interval begin="300.00" end="400.00" id="e1_1/1to0/1_0" nVehContrib="0" flow="0.00" occupancy="100.00" speed="-1.00" harmonicMeanSpeed="-1.00" length="-1.00" nVehEntered="0"/>
   <interval begin="300.00" end="400.00" id="e2_1/1to0/1_0" sampledSeconds="5300.00" nVehEntered="0" nVehLeft="0" nVehSeen="53" meanSpeed="0.00" meanTimeLoss="100.00" meanOccupancy="0.88" maxOccupancy="0.88" meanMaxJamLengthInVehicles="53.00" meanMaxJamLengthInMeters="395.05" maxJamLengthInVehicles="53" maxJamLengthInMeters="395.05" jamLengthInVehiclesSum="5300" jamLengthInMetersSum="39505.20" meanHaltingDuration="198.94" maxHaltingDuration="248.00" haltingDurationSum="10544.00" meanIntervalHaltingDuration="100.00" maxIntervalHaltingDuration="100.00" intervalHaltingDurationSum="5300.00" startedHalts="0.00" meanVehicleNumber="53.00" maxVehicleNumber="53" />
   <interval begin="300.00" end="400.00" id="e3_1/1to0/1_0" meanTravelTime="-1.00" meanOverlapTravelTime="-1.00" meanSpeed="-1.00" meanHaltsPerVehicle="-1.00" meanTimeLoss="-1.00" vehicleSum="0" meanSpeedWithin="0.91" meanHaltsPerVehicleWithin="1.00" meanDurationWithin="221.08" vehicleSumWithin="53" meanIntervalSpeedWithin="0.00" meanIntervalHaltsPerVehicleWithin="0.00" meanIntervalDurationWithin="100.00" meanTimeLossWithin="98.11"/>
    <interval begin="400.00" end="500.00" id="e1_2/1to1/1_0" nVehContrib="0" flow="0.00" occupancy="0.00" speed="-1.00" harmonicMeanSpeed="-1.00" length="-1.00" nVehEntered="0"/>
   <interval begin="400.00" end="500.00" id="e2_2/1to1/1_0" sampledSeconds="5400.00" nVehEntered="0" nVehLeft="0" nVehSeen="54" meanSpeed="0.00" meanTimeLoss="100.00" meanOccupancy="0.90" maxOccupancy="0.90" meanMaxJamLengthInVehicles="54.00" meanMaxJamLengthInMeters="406.00" maxJamLengthInVehicles="54" maxJamLengthInMeters="406.00" jamLengthInVehiclesSum="5400" jamLengthInMetersSum="40600.10" meanHaltingDuration="297.63" maxHaltingDuration="348.00" haltingDurationSum="16072.00" meanIntervalHaltingDuration="100.00" maxIntervalHaltingDuration="100.00" intervalHaltingDurationSum="5400.00" startedHalts="0.00" meanVehicleNumber="54.00" maxVehicleNumber="54" />
   <interval begin="400.00" end="500.00" id="e3_2/1to1/1_0" meanTravelTime="-1.00" meanOverlapTravelTime="-1.00" meanSpeed="-1.00" meanHaltsPerVehicle="-1.00" meanTimeLoss="-1.00" vehicleSum="0" meanSpeedWithin="1.51" meanHaltsPerVehicleWithin="1.00" meanDurationWithin="270.00" vehicleSumWithin="1" meanIntervalSpeedWithin="0.00" meanIntervalHaltsPerVehicleWithin="0.00" meanIntervalDurationWithin="100.00" meanTimeLossWithin="100.00"/>
    <interval begin="400.00" end="500.00" id="e1_1/1to0/1_0" nVehContrib="0" flow="0.00" occupancy="100.00" speed="-1.00" harmonicMeanSpeed="-1.00" length="-1.00" nVehEntered="0"/>
   <interval begin="400.00" end="500.00" id="e2_1/1to0/1_0" sampledSeconds="5300.00" nVehEntered="0" nVehLeft="0" nVehSeen="53" meanSpeed="0.00" meanTimeLoss="100.00" meanOccupancy="0.88" maxOccupancy="0.88" meanMaxJamLengthInVehicles="53.00" meanMaxJamLengthInMeters="395.05" maxJamLengthInVehicles="53" maxJamLengthInMeters="395.05" jamLengthInVehiclesSum="5300" jamLengthInMetersSum="39505.20" meanHaltingDuration="298.94" maxHaltingDuration="348.00" haltingDurationSum="15844.00" meanIntervalHaltingDuration="100.00" maxIntervalHaltingDuration="100.00" intervalHaltingDurationSum="5300.00" startedHalts="0.00" meanVehicleNumber="53.00" maxVehicleNumber="53" />
   <interval begin="400.00" end="500.00" id="e3_1/1to0/1_0" meanTravelTime="-1.00" meanOverlapTravelTime="-1.00" meanSpeed="-1.00" meanHaltsPerVehicle="-1.00" meanTimeLoss="-1.00" vehicleSum="0" meanSpeedWithin="0.64" meanHaltsPerVehicleWithin="1.00" meanDurationWithin="321.08" vehicleSumWithin="53" meanIntervalSpeedWithin="0.00" meanIntervalHaltsPerVehicleWithin="0.00" meanIntervalDurationWithin="100.00" meanTimeLossWithin="98.11"/>
    <interval begin="500.00" end="600.00" id="e1_2/1to1/1_0" nVehContrib="0" flow="0.00" occupancy="0.00" speed="-1.00" harmonicMeanSpeed="-1.00" length="-1.00" nVehEntered="0"/>
   <interval begin="500.00" end="600.00" id="e2_2/1to1/1_0" sampledSeconds="5373.00" nVehEntered="0" nVehLeft="1" nVehSeen="54" meanSpeed="0.00" meanTimeLoss="99.50" meanOccupancy="0.90" maxOccupancy="0.90" meanMaxJamLengthInVehicles="53.73" meanMaxJamLengthInMeters="403.04" maxJamLengthInVehicles="54" maxJamLengthInMeters="406.00" jamLengthInVehiclesSum="5373" jamLengthInMetersSum="40304.48" meanHaltingDuration="398.94" maxHaltingDuration="448.00" haltingDurationSum="21144.00" meanIntervalHaltingDuration="100.00" maxIntervalHaltingDuration="100.00" intervalHaltingDurationSum="5300.00" startedHalts="0.00" meanVehicleNumber="53.73" maxVehicleNumber="54" />
   <interval begin="500.00" end="600.00" id="e3_2/1to1/1_0" meanTravelTime="-1.00" meanOverlapTravelTime="-1.00" meanSpeed="-1.00" meanHaltsPerVehicle="-1.00" meanTimeLoss="-1.00" vehicleSum="0" meanSpeedWithin="-1.00" meanHaltsPerVehicleWithin="-1.00" meanDurationWithin="-1.00" vehicleSumWithin="0" meanIntervalSpeedWithin="-1.00" meanIntervalHaltsPerVehicleWithin="-1.00" meanIntervalDurationWithin="-1.00" meanTimeLossWithin="-1.00"/>
    <interval begin="500.00" end="600.00" id="e1_1/1to0/1_0" nVehContrib="0" flow="0.00" occupancy="100.00" speed="-1.00" harmonicMeanSpeed="-1.00" length="-1.00" nVehEntered="0"/>
   <interval begin="500.00" end="600.00" id="e2_1/1to0/1_0" sampledSeconds="5300.00" nVehEntered="0" nVehLeft="0" nVehSeen="53" meanSpeed="0.00" meanTimeLoss="100.00" meanOccupancy="0.88" maxOccupancy="0.88" meanMaxJamLengthInVehicles="53.00" meanMaxJamLengthInMeters="395.05" maxJamLengthInVehicles="53" maxJamLengthInMeters="395.05" jamLengthInVehiclesSum="5300" jamLengthInMetersSum="39505.20" meanHaltingDuration="398.94" maxHaltingDuration="448.00" haltingDurationSum="21144.00" meanIntervalHaltingDuration="100.00" maxIntervalHaltingDuration="100.00" intervalHaltingDurationSum="5300.00" startedHalts="0.00" meanVehicleNumber="53.00" maxVehicleNumber="53" />
   <interval begin="500.00" end="600.00" id="e3_1/1to0/1_0" meanTravelTime="-1.00" meanOverlapTravelTime="-1.00" meanSpeed="-1.00" meanHaltsPerVehicle="-1.00" meanTimeLoss="-1.00" vehicleSum="0" meanSpeedWithin="0.49" meanHaltsPerVehicleWithin="1.00" meanDurationWithin="421.08" vehicleSumWithin="53" meanIntervalSpeedWithin="0.00" meanIntervalHaltsPerVehicleWithin="0.00" meanIntervalDurationWithin="100.00" meanTimeLossWithin="98.11"/>
    <interval begin="600.00" end="700.00" id="e1_2/1to1/1_0" nVehContrib="0" flow="0.00" occupancy="0.00" speed="-1.00" harmonicMeanSpeed="-1.00" length="-1.00" nVehEntered="0"/>
   <interval begin="600.00" end="700.00" id="e2_2/1to1/1_0" sampledSeconds="5300.00" nVehEntered="0" nVehLeft="0" nVehSeen="53" meanSpeed="0.00" meanTimeLoss="100.00" meanOccupancy="0.88" maxOccupancy="0.88" meanMaxJamLengthInVehicles="53.00" meanMaxJamLengthInMeters="395.05" maxJamLengthInVehicles="53" maxJamLengthInMeters="395.05" jamLengthInVehiclesSum="5300" jamLengthInMetersSum="39505.20" meanHaltingDuration="498.94" maxHaltingDuration="548.00" haltingDurationSum="26444.00" meanIntervalHaltingDuration="100.00" maxIntervalHaltingDuration="100.00" intervalHaltingDurationSum="5300.00" startedHalts="0.00" meanVehicleNumber="53.00" maxVehicleNumber="53" />
   <interval begin="600.00" end="700.00" id="e3_2/1to1/1_0" meanTravelTime="-1.00" meanOverlapTravelTime="-1.00" meanSpeed="-1.00" meanHaltsPerVehicle="-1.00" meanTimeLoss="-1.00" vehicleSum="0" meanSpeedWithin="-1.00" meanHaltsPerVehicleWithin="-1.00" meanDurationWithin="-1.00" vehicleSumWithin="0" meanIntervalSpeedWithin="-1.00" meanIntervalHaltsPerVehicleWithin="-1.00" meanIntervalDurationWithin="-1.00" meanTimeLossWithin="-1.00"/>
    <interval begin="600.00" end="700.00" id="e1_1/1to0/1_0" nVehContrib="0" flow="0.00" occupancy="100.00" speed="-1.00" harmonicMeanSpeed="-1.00" length="-1.00" nVehEntered="0"/>
   <interval begin="600.00" end="700.00" id="e2_1/1to0/1_0" sampledSeconds="5300.00" nVehEntered="0" nVehLeft="0" nVehSeen="53" meanSpeed="0.00" meanTimeLoss="100.00" meanOccupancy="0.88" maxOccupancy="0.88" meanMaxJamLengthInVehicles="53.00" meanMaxJamLengthInMeters="395.05" maxJamLengthInVehicles="53" maxJamLengthInMeters="395.05" jamLengthInVehiclesSum="5300" jamLengthInMetersSum="39505.20" meanHaltingDuration="498.94" maxHaltingDuration="548.00" haltingDurationSum="26444.00" meanIntervalHaltingDuration="100.00" maxIntervalHaltingDuration="100.00" intervalHaltingDurationSum="5300.00" startedHalts="0.00" meanVehicleNumber="53.00" maxVehicleNumber="53" />
   <interval begin="600.00" end="700.00" id="e3_1/1to0/1_0" meanTravelTime="-1.00" meanOverlapTravelTime="-1.00" meanSpeed="-1.00" meanHaltsPerVehicle="-1.00" meanTimeLoss="-1.00" vehicleSum="0" meanSpeedWithin="0.40" meanHaltsPerVehicleWithin="1.00" meanDurationWithin="521.08" vehicleSumWithin="53" meanIntervalSpeedWithin="0.00" meanIntervalHaltsPerVehicleWithin="0.00" meanIntervalDurationWithin="100.00" meanTimeLossWithin="98.11"/>
    <interval begin="700.00" end="800.00" id="e1_2/1to1/1_0" nVehContrib="0" flow="0.00" occupancy="0.00" speed="-1.00" harmonicMeanSpeed="-1.00" length="-1.00" nVehEntered="0"/>
   <interval begin="700.00" end="800.00" id="e2_2/1to1/1_0" sampledSeconds="5300.00" nVehEntered="0" nVehLeft="0" nVehSeen="53" meanSpeed="0.00" meanTimeLoss="100.00" meanOccupancy="0.88" maxOccupancy="0.88" meanMaxJamLengthInVehicles="53.00" meanMaxJamLengthInMeters="395.05" maxJamLengthInVehicles="53" maxJamLengthInMeters="395.05" jamLengthInVehiclesSum="5300" jamLengthInMetersSum="39505.20" meanHaltingDuration="598.94" maxHaltingDuration="648.00" haltingDurationSum="31744.00" meanIntervalHaltingDuration="100.00" maxIntervalHaltingDuration="100.00" intervalHaltingDurationSum="5300.00" startedHalts="0.00" meanVehicleNumber="53.00" maxVehicleNumber="53" />
   <interval begin="700.00" end="800.00" id="e3_2/1to1/1_0" meanTravelTime="-1.00" meanOverlapTravelTime="-1.00" meanSpeed="-1.00" meanHaltsPerVehicle="-1.00" meanTimeLoss="-1.00" vehicleSum="0" meanSpeedWithin="-1.00" meanHaltsPerVehicleWithin="-1.00" meanDurationWithin="-1.00" vehicleSumWithin="0" meanIntervalSpeedWithin="-1.00" meanIntervalHaltsPerVehicleWithin="-1.00" meanIntervalDurationWithin="-1.00" meanTimeLossWithin="-1.00"/>
    <interval begin="700.00" end="800.00" id="e1_1/1to0/1_0" nVehContrib="0" flow="0.00" occupancy="100.00" speed="-1.00" harmonicMeanSpeed="-1.00" length="-1.00" nVehEntered="0"/>
   <interval begin="700.00" end="800.00" id="e2_1/1to0/1_0" sampledSeconds="5300.00" nVehEntered="0" nVehLeft="0" nVehSeen="53" meanSpeed="0.00" meanTimeLoss="100.00" meanOccupancy="0.88" maxOccupancy="0.88" meanMaxJamLengthInVehicles="53.00" meanMaxJamLengthInMeters="395.05" maxJamLengthInVehicles="53" maxJamLengthInMeters="395.05" jamLengthInVehiclesSum="5300" jamLengthInMetersSum="39505.20" meanHaltingDuration="598.94" maxHaltingDuration="648.00" haltingDurationSum="31744.00" meanIntervalHaltingDuration="100.00" maxIntervalHaltingDuration="100.00" intervalHaltingDurationSum="5300.00" startedHalts="0.00" meanVehicleNumber="53.00" maxVehicleNumber="53" />
   <interval begin="700.00" end="800.00" id="e3_1/1to0/1_0" meanTravelTime="-1.00" meanOverlapTravelTime="-1.00" meanSpeed="-1.00" meanHaltsPerVehicle="-1.00" meanTimeLoss="-1.00" vehicleSum="0" meanSpeedWithin="0.34" meanHaltsPerVehicleWithin="1.00" meanDurationWithin="621.08" vehicleSumWithin="53" meanIntervalSpeedWithin="0.00" meanIntervalHaltsPerVehicleWithin="0.00" meanIntervalDurationWithin="100.00" meanTimeLossWithin="98.11"/>
    <interval begin="800.00" end="900.00" id="e1_2/1to1/1_0" nVehContrib="0" flow="0.00" occupancy="0.00" speed="-1.00" harmonicMeanSpeed="-1.00" length="-1.00" nVehEntered="0"/>
   <interval begin="800.00" end="900.00" id="e2_2/1to1/1_0" sampledSeconds="5300.00" nVehEntered="0" nVehLeft="0" nVehSeen="53" meanSpeed="0.00" meanTimeLoss="100.00" meanOccupancy="0.88" maxOccupancy="0.88" meanMaxJamLengthInVehicles="53.00" meanMaxJamLengthInMeters="395.05" maxJamLengthInVehicles="53" maxJamLengthInMeters="395.05" jamLengthInVehiclesSum="5300" jamLengthInMetersSum="39505.20" meanHaltingDuration="698.94" maxHaltingDuration="748.00" haltingDurationSum="37044.00" meanIntervalHaltingDuration="100.00" maxIntervalHaltingDuration="100.00" intervalHaltingDurationSum="5300.00" startedHalts="0.00" meanVehicleNumber="53.00" maxVehicleNumber="53" />
   <interval begin="800.00" end="900.00" id="e3_2/1to1/1_0" meanTravelTime="-1.00" meanOverlapTravelTime="-1.00" meanSpeed="-1.00" meanHaltsPerVehicle="-1.00" meanTimeLoss="-1.00" vehicleSum="0" meanSpeedWithin="-1.00" meanHaltsPerVehicleWithin="-1.00" meanDurationWithin="-1.00" vehicleSumWithin="0" meanIntervalSpeedWithin="-1.00" meanIntervalHaltsPerVehicleWithin="-1.00" meanIntervalDurationWithin="-1.00" meanTimeLossWithin="-1.00"/>
    <interval begin="800.00" end="900.00" id="e1_1/1to0/1_0" nVehContrib="0" flow="0.00" occupancy="100.00" speed="-1.00" harmonicMeanSpeed="-1.00" length="-1.00" nVehEntered="0"/>
   <interval begin="800.00" end="900.00" id="e2_1/1to0/1_0" sampledSeconds="5300.00" nVehEntered="0" nVehLeft="0" nVehSeen="53" meanSpeed="0.00" meanTimeLoss="100.00" meanOccupancy="0.88" maxOccupancy="0.88" meanMaxJamLengthInVehicles="53.00" meanMaxJamLengthInMeters="395.05" maxJamLengthInVehicles="53" maxJamLengthInMeters="395.05" jamLengthInVehiclesSum="5300" jamLengthInMetersSum="39505.20" meanHaltingDuration="698.94" maxHaltingDuration="748.00" haltingDurationSum="37044.00" meanIntervalHaltingDuration="100.00" maxIntervalHaltingDuration="100.00" intervalHaltingDurationSum="5300.00" startedHalts="0.00" meanVehicleNumber="53.00" maxVehicleNumber="53" />
   <interval begin="800.00" end="900.00" id="e3_1/1to0/1_0" meanTravelTime="-1.00" meanOverlapTravelTime="-1.00" meanSpeed="-1.00" meanHaltsPerVehicle="-1.00" meanTimeLoss="-1.00" vehicleSum="0" meanSpeedWithin="0.29" meanHaltsPerVehicleWithin="1.00" meanDurationWithin="721.08" vehicleSumWithin="53" meanIntervalSpeedWithin="0.00" meanIntervalHaltsPerVehicleWithin="0.00" meanIntervalDurationWithin="100.00" meanTimeLossWithin="98.11"/>
    <interval begin="900.00" end="1000.00" id="e1_2/1to1/1_0" nVehContrib="0" flow="0.00" occupancy="0.00" speed="-1.00" harmonicMeanSpeed="-1.00" length="-1.00" nVehEntered="0"/>
   <interval begin="900.00" end="1000.00" id="e2_2/1to1/1_0" sampledSeconds="5300.00" nVehEntered="0" nVehLeft="0" nVehSeen="53" meanSpeed="0.00" meanTimeLoss="100.00" meanOccupancy="0.88" maxOccupancy="0.88" meanMaxJamLengthInVehicles="53.00" meanMaxJamLengthInMeters="395.05" maxJamLengthInVehicles="53" maxJamLengthInMeters="395.05" jamLengthInVehiclesSum="5300" jamLengthInMetersSum="39505.20" meanHaltingDuration="798.94" maxHaltingDuration="848.00" haltingDurationSum="42344.00" meanIntervalHaltingDuration="100.00" maxIntervalHaltingDuration="100.00" intervalHaltingDurationSum="5300.00" startedHalts="0.00" meanVehicleNumber="53.00" maxVehicleNumber="53" />
   <interval begin="900.00" end="1000.00" id="e3_2/1to1/1_0" meanTravelTime="-1.00" meanOverlapTravelTime="-1.00" meanSpeed="-1.00" meanHaltsPerVehicle="-1.00" meanTimeLoss="-1.00" vehicleSum="0" meanSpeedWithin="-1.00" meanHaltsPerVehicleWithin="-1.00" meanDurationWithin="-1.00" vehicleSumWithin="0" meanIntervalSpeedWithin="-1.00" meanIntervalHaltsPerVehicleWithin="-1.00" meanIntervalDurationWithin="-1.00" meanTimeLossWithin="-1.00"/>
    <interval begin="900.00" end="1000.00" id="e1_1/1to0/1_0" nVehContrib="0" flow="0.00" occupancy="100.00" speed="-1.00" harmonicMeanSpeed="-1.00" length="-1.00" nVehEntered="0"/>
   <interval begin="900.00" end="1000.00" id="e2_1/1to0/1_0" sampledSeconds="5300.00" nVehEntered="0" nVehLeft="0" nVehSeen="53" meanSpeed="0.00" meanTimeLoss="100.00" meanOccupancy="0.88" maxOccupancy="0.88" meanMaxJamLengthInVehicles="53.00" meanMaxJamLengthInMeters="395.05" maxJamLengthInVehicles="53" maxJamLengthInMeters="395.05" jamLengthInVehiclesSum="5300" jamLengthInMetersSum="39505.20" meanHaltingDuration="798.94" maxHaltingDuration="848.00" haltingDurationSum="42344.00" meanIntervalHaltingDuration="100.00" maxIntervalHaltingDuration="100.00" intervalHaltingDurationSum="5300.00" startedHalts="0.00" meanVehicleNumber="53.00" maxVehicleNumber="53" />
   <interval begin="900.00" end="1000.00" id="e3_1/1to0/1_0" meanTravelTime="-1.00" meanOverlapTravelTime="-1.00" meanSpeed="-1.00" meanHaltsPerVehicle="-1.00" meanTimeLoss="-1.00" vehicleSum="0" meanSpeedWithin="0.26" meanHaltsPerVehicleWithin="1.00" meanDurationWithin="821.08" vehicleSumWithin="53" meanIntervalSpeedWithin="0.00" meanIntervalHaltsPerVehicleWithin="0.00" meanIntervalDurationWithin="100.00" meanTimeLossWithin="98.11"/>
</detector>
