<?xml version="1.0" encoding="UTF-8"?>

<!-- generated on Tue Mar 31 09:34:11 2020 by Eclipse SUMO Version v1_5_0+1023-63f9a82342
This data file and the accompanying materials
are made available under the terms of the Eclipse Public License v2.0
which accompanies this distribution, and is available at
http://www.eclipse.org/legal/epl-v20.html
SPDX-License-Identifier: EPL-2.0
<configuration xmlns:xsi="http://www.w3.org/2001/XMLSchema-instance" xsi:noNamespaceSchemaLocation="http://sumo.dlr.de/xsd/sumoConfiguration.xsd">

    <input>
        <net-file value="net.net.xml"/>
        <route-files value="input_routes.rou.xml"/>
        <additional-files value="input_additional.add.xml,input_additional2.add.xml"/>
    </input>

    <output>
        <write-license value="true"/>
        <tripinfo-output.write-unfinished value="true"/>
    </output>

    <time>
        <begin value="0"/>
        <end value="3000"/>
    </time>

    <processing>
        <default.speeddev value="0"/>
    </processing>

    <report>
        <verbose value="true"/>
        <xml-validation value="never"/>
        <duration-log.statistics value="true"/>
        <no-step-log value="true"/>
    </report>

</configuration>
-->

<meandata xmlns:xsi="http://www.w3.org/2001/XMLSchema-instance" xsi:noNamespaceSchemaLocation="http://sumo.dlr.de/xsd/meandata_file.xsd">
    <interval begin="0.00" end="60.00" id="dump_60">
        <edge id="1/1to2/1" sampledSeconds="225.26" traveltime="134.78" overlapTraveltime="133.00" density="3.82" laneDensity="1.91" occupancy="0.93" waitingTime="28.00" speed="7.42" departed="30" arrived="0" entered="0" left="24" laneChangedFrom="2" laneChangedTo="2"/>
        <edge id="2/1to3/1" sampledSeconds="680.30" traveltime="66.83" overlapTraveltime="67.17" density="11.55" laneDensity="5.77" occupancy="2.86" waitingTime="0.00" speed="14.70" departed="0" arrived="0" entered="24" left="0" laneChangedFrom="9" laneChangedTo="9"/>
        <edge id="5/1to6/1" sampledSeconds="233.83" traveltime="128.91" overlapTraveltime="127.42" density="3.97" laneDensity="1.98" occupancy="0.97" waitingTime="29.00" speed="7.75" departed="30" arrived="0" entered="0" left="24" laneChangedFrom="3" laneChangedTo="3"/>
        <edge id="6/1to7/1" sampledSeconds="666.56" traveltime="58.75" overlapTraveltime="59.04" density="11.31" laneDensity="5.66" occupancy="2.80" waitingTime="0.00" speed="16.72" departed="0" arrived="0" entered="24" left="1" laneChangedFrom="13" laneChangedTo="13"/>
        <edge id="7/1to8/1" sampledSeconds="5.89" traveltime="44.95" overlapTraveltime="45.18" density="0.10" laneDensity="0.05" occupancy="0.02" waitingTime="0.00" speed="21.85" departed="0" arrived="0" entered="1" left="0" laneChangedFrom="0" laneChangedTo="0"/>
    </interval>
    <interval begin="60.00" end="120.00" id="dump_60">
        <edge id="1/1to2/1" sampledSeconds="518.42" traveltime="88.39" overlapTraveltime="88.37" density="8.80" laneDensity="4.40" occupancy="2.18" waitingTime="30.00" speed="11.17" departed="30" arrived="0" entered="0" left="26" laneChangedFrom="8" laneChangedTo="8"/>
        <edge id="2/1to3/1" sampledSeconds="1662.77" traveltime="66.68" overlapTraveltime="67.02" density="28.22" laneDensity="14.11" occupancy="7.02" waitingTime="0.00" speed="14.73" departed="0" arrived="0" entered="26" left="23" laneChangedFrom="15" laneChangedTo="15"/>
        <edge id="3/1to4/1" sampledSeconds="528.39" traveltime="64.87" overlapTraveltime="65.20" density="8.97" laneDensity="4.48" occupancy="2.23" waitingTime="0.00" speed="15.14" departed="0" arrived="0" entered="23" left="0" laneChangedFrom="4" laneChangedTo="4"/>
        <edge id="5/1to6/1" sampledSeconds="487.05" traveltime="80.69" overlapTraveltime="80.51" density="8.27" laneDensity="4.13" occupancy="2.05" waitingTime="30.00" speed="12.26" departed="30" arrived="0" entered="0" left="26" laneChangedFrom="11" laneChangedTo="11"/>
        <edge id="6/1to7/1" sampledSeconds="1514.91" traveltime="57.00" overlapTraveltime="57.28" density="25.71" laneDensity="12.85" occupancy="6.40" waitingTime="0.00" speed="17.23" departed="0" arrived="0" entered="26" left="25" laneChangedFrom="13" laneChangedTo="13"/>
        <edge id="7/1to8/1" sampledSeconds="671.94" traveltime="56.61" overlapTraveltime="56.88" density="11.40" laneDensity="5.70" occupancy="2.83" waitingTime="0.00" speed="17.35" departed="0" arrived="0" entered="25" left="3" laneChangedFrom="8" laneChangedTo="8"/>
        <edge id="8/1to9/1" sampledSeconds="34.88" traveltime="42.61" overlapTraveltime="42.83" density="0.59" laneDensity="0.30" occupancy="0.15" waitingTime="0.00" speed="23.05" departed="0" arrived="0" entered="3" left="0" laneChangedFrom="0" laneChangedTo="0"/>
    </interval>
    <interval begin="120.00" end="180.00" id="dump_60">
        <edge id="1/1to2/1" sampledSeconds="786.14" traveltime="79.43" overlapTraveltime="79.65" density="13.34" laneDensity="6.67" occupancy="3.32" waitingTime="30.00" speed="12.39" departed="30" arrived="0" entered="0" left="22" laneChangedFrom="16" laneChangedTo="16"/>
        <edge id="2/1to3/1" sampledSeconds="1698.54" traveltime="65.01" overlapTraveltime="65.35" density="28.83" laneDensity="14.41" occupancy="7.17" waitingTime="0.00" speed="15.10" departed="0" arrived="0" entered="22" left="25" laneChangedFrom="12" laneChangedTo="12"/>
        <edge id="3/1to4/1" sampledSeconds="1622.56" traveltime="67.12" overlapTraveltime="67.45" density="27.54" laneDensity="13.77" occupancy="6.85" waitingTime="0.00" speed="14.63" departed="0" arrived="0" entered="25" left="18" laneChangedFrom="17" laneChangedTo="17"/>
        <edge id="4/1to5/1" sampledSeconds="405.07" traveltime="62.65" overlapTraveltime="62.97" density="6.87" laneDensity="3.44" occupancy="1.71" waitingTime="0.00" speed="15.67" departed="0" arrived="0" entered="17" left="0" laneChangedFrom="3" laneChangedTo="3"/>
        <edge id="5/1to6/1" sampledSeconds="707.02" traveltime="66.41" overlapTraveltime="66.57" density="12.00" laneDensity="6.00" occupancy="2.98" waitingTime="30.00" speed="14.83" departed="30" arrived="0" entered="0" left="27" laneChangedFrom="18" laneChangedTo="18"/>
        <edge id="6/1to7/1" sampledSeconds="1489.71" traveltime="55.19" overlapTraveltime="55.48" density="25.28" laneDensity="12.64" occupancy="6.29" waitingTime="0.00" speed="17.79" departed="0" arrived="0" entered="27" left="25" laneChangedFrom="17" laneChangedTo="17"/>
        <edge id="7/1to8/1" sampledSeconds="1626.91" traveltime="59.43" overlapTraveltime="59.74" density="27.61" laneDensity="13.80" occupancy="6.87" waitingTime="0.00" speed="16.52" departed="0" arrived="0" entered="25" left="24" laneChangedFrom="11" laneChangedTo="11"/>
        <edge id="8/1to9/1" sampledSeconds="589.29" traveltime="54.12" overlapTraveltime="54.38" density="10.00" laneDensity="5.00" occupancy="2.48" waitingTime="0.00" speed="18.15" departed="0" arrived="0" entered="24" left="4" laneChangedFrom="4" laneChangedTo="4"/>
        <edge id="9/1to10/1" sampledSeconds="100.42" traveltime="42.25" overlapTraveltime="42.46" density="1.70" laneDensity="0.85" occupancy="0.42" waitingTime="0.00" speed="23.25" departed="0" arrived="0" entered="4" left="0" laneChangedFrom="0" laneChangedTo="0"/>
    </interval>
    <interval begin="180.00" end="240.00" id="dump_60">
        <edge id="1/1to2/1" sampledSeconds="1117.12" traveltime="73.90" overlapTraveltime="74.23" density="18.96" laneDensity="9.48" occupancy="4.72" waitingTime="28.00" speed="13.30" departed="30" arrived="0" entered="3" left="28" laneChangedFrom="17" laneChangedTo="17"/>
        <edge id="10/1to1/1" sampledSeconds="146.66" traveltime="42.54" overlapTraveltime="42.75" density="2.49" laneDensity="1.24" occupancy="0.62" waitingTime="0.00" speed="23.09" departed="0" arrived="0" entered="4" left="3" laneChangedFrom="2" laneChangedTo="2"/>
        <edge id="2/1to3/1" sampledSeconds="1606.90" traveltime="66.68" overlapTraveltime="67.02" density="27.27" laneDensity="13.64" occupancy="6.78" waitingTime="0.00" speed="14.73" departed="0" arrived="0" entered="28" left="23" laneChangedFrom="16" laneChangedTo="16"/>
        <edge id="3/1to4/1" sampledSeconds="1810.12" traveltime="67.11" overlapTraveltime="67.45" density="30.72" laneDensity="15.36" occupancy="7.64" waitingTime="0.00" speed="14.63" departed="0" arrived="0" entered="23" left="29" laneChangedFrom="17" laneChangedTo="17"/>
        <edge id="4/1to5/1" sampledSeconds="1458.82" traveltime="65.87" overlapTraveltime="66.24" density="24.76" laneDensity="12.38" occupancy="6.16" waitingTime="0.00" speed="14.90" departed="0" arrived="0" entered="30" left="14" laneChangedFrom="20" laneChangedTo="20"/>
        <edge id="5/1to6/1" sampledSeconds="1163.11" traveltime="65.91" overlapTraveltime="66.18" density="19.74" laneDensity="9.87" occupancy="4.88" waitingTime="12.00" speed="14.92" departed="22" arrived="0" entered="14" left="16" laneChangedFrom="18" laneChangedTo="18"/>
        <edge id="6/1to7/1" sampledSeconds="1272.36" traveltime="52.17" overlapTraveltime="52.44" density="21.59" laneDensity="10.80" occupancy="5.37" waitingTime="0.00" speed="18.82" departed="0" arrived="0" entered="16" left="30" laneChangedFrom="15" laneChangedTo="15"/>
        <edge id="7/1to8/1" sampledSeconds="1608.29" traveltime="54.45" overlapTraveltime="54.73" density="27.29" laneDensity="13.65" occupancy="6.79" waitingTime="0.00" speed="18.03" departed="0" arrived="0" entered="30" left="25" laneChangedFrom="14" laneChangedTo="14"/>
        <edge id="8/1to9/1" sampledSeconds="1670.09" traveltime="59.07" overlapTraveltime="59.37" density="28.34" laneDensity="14.17" occupancy="7.06" waitingTime="0.00" speed="16.63" departed="0" arrived="0" entered="25" left="19" laneChangedFrom="9" laneChangedTo="9"/>
        <edge id="9/1to10/1" sampledSeconds="557.04" traveltime="54.25" overlapTraveltime="54.51" density="9.45" laneDensity="4.73" occupancy="2.35" waitingTime="0.00" speed="18.11" departed="0" arrived="0" entered="19" left="4" laneChangedFrom="2" laneChangedTo="2"/>
    </interval>
    <interval begin="240.00" end="300.00" id="dump_60">
        <edge id="1/1to2/1" sampledSeconds="1378.65" traveltime="67.50" overlapTraveltime="67.83" density="23.40" laneDensity="11.70" occupancy="5.77" waitingTime="12.00" speed="14.55" departed="21" arrived="0" entered="3" left="19" laneChangedFrom="16" laneChangedTo="16"/>
        <edge id="10/1to1/1" sampledSeconds="584.52" traveltime="51.19" overlapTraveltime="51.44" density="9.92" laneDensity="4.96" occupancy="2.47" waitingTime="0.00" speed="19.19" departed="0" arrived="0" entered="19" left="3" laneChangedFrom="5" laneChangedTo="5"/>
        <edge id="2/1to3/1" sampledSeconds="1732.84" traveltime="66.89" overlapTraveltime="67.24" density="29.41" laneDensity="14.70" occupancy="7.32" waitingTime="0.00" speed="14.68" departed="0" arrived="0" entered="19" left="26" laneChangedFrom="20" laneChangedTo="20"/>
        <edge id="3/1to4/1" sampledSeconds="1523.74" traveltime="65.84" overlapTraveltime="66.17" density="25.86" laneDensity="12.93" occupancy="6.43" waitingTime="0.00" speed="14.92" departed="0" arrived="0" entered="26" left="24" laneChangedFrom="17" laneChangedTo="17"/>
        <edge id="4/1to5/1" sampledSeconds="1875.28" traveltime="67.58" overlapTraveltime="67.97" density="31.82" laneDensity="15.91" occupancy="7.92" waitingTime="0.00" speed="14.52" departed="0" arrived="0" entered="24" left="24" laneChangedFrom="21" laneChangedTo="21"/>
        <edge id="5/1to6/1" sampledSeconds="2553.95" traveltime="66.64" overlapTraveltime="66.96" density="43.34" laneDensity="21.67" occupancy="10.76" waitingTime="8.00" speed="14.74" departed="18" arrived="0" entered="24" left="28" laneChangedFrom="31" laneChangedTo="31"/>
        <edge id="6/1to7/1" sampledSeconds="898.34" traveltime="59.28" overlapTraveltime="59.58" density="15.25" laneDensity="7.62" occupancy="3.78" waitingTime="0.00" speed="16.57" departed="0" arrived="0" entered="28" left="12" laneChangedFrom="9" laneChangedTo="9"/>
        <edge id="7/1to8/1" sampledSeconds="1140.62" traveltime="54.39" overlapTraveltime="54.68" density="19.36" laneDensity="9.68" occupancy="4.81" waitingTime="0.00" speed="18.05" departed="0" arrived="0" entered="12" left="30" laneChangedFrom="13" laneChangedTo="13"/>
        <edge id="8/1to9/1" sampledSeconds="1800.57" traveltime="56.36" overlapTraveltime="56.66" density="30.56" laneDensity="15.28" occupancy="7.60" waitingTime="0.00" speed="17.42" departed="0" arrived="0" entered="30" left="31" laneChangedFrom="14" laneChangedTo="14"/>
        <edge id="9/1to10/1" sampledSeconds="1608.05" traveltime="58.45" overlapTraveltime="58.72" density="27.29" laneDensity="13.64" occupancy="6.79" waitingTime="0.00" speed="16.81" departed="0" arrived="0" entered="31" left="20" laneChangedFrom="14" laneChangedTo="14"/>
    </interval>
    <interval begin="300.00" end="360.00" id="dump_60">
        <edge id="1/1to2/1" sampledSeconds="2038.45" traveltime="63.76" overlapTraveltime="64.09" density="34.59" laneDensity="17.30" occupancy="8.58" waitingTime="6.00" speed="15.40" departed="15" arrived="0" entered="20" left="24" laneChangedFrom="17" laneChangedTo="17"/>
        <edge id="10/1to1/1" sampledSeconds="1457.02" traveltime="55.13" overlapTraveltime="55.41" density="24.73" laneDensity="12.36" occupancy="6.15" waitingTime="0.00" speed="17.81" departed="0" arrived="0" entered="34" left="21" laneChangedFrom="17" laneChangedTo="17"/>
        <edge id="2/1to3/1" sampledSeconds="1285.72" traveltime="64.61" overlapTraveltime="64.95" density="21.82" laneDensity="10.91" occupancy="5.42" waitingTime="0.00" speed="15.20" departed="0" arrived="0" entered="24" left="21" laneChangedFrom="10" laneChangedTo="10"/>
        <edge id="3/1to4/1" sampledSeconds="1765.64" traveltime="68.95" overlapTraveltime="69.29" density="29.96" laneDensity="14.98" occupancy="7.46" waitingTime="0.00" speed="14.25" departed="0" arrived="0" entered="21" left="20" laneChangedFrom="17" laneChangedTo="17"/>
        <edge id="4/1to5/1" sampledSeconds="1551.15" traveltime="66.54" overlapTraveltime="66.93" density="26.32" laneDensity="13.16" occupancy="6.55" waitingTime="0.00" speed="14.75" departed="0" arrived="0" entered="20" left="27" laneChangedFrom="16" laneChangedTo="16"/>
        <edge id="5/1to6/1" sampledSeconds="3033.10" traveltime="72.51" overlapTraveltime="72.86" density="51.47" laneDensity="25.74" occupancy="12.77" waitingTime="9.00" speed="13.55" departed="18" arrived="0" entered="27" left="41" laneChangedFrom="25" laneChangedTo="25"/>
        <edge id="6/1to7/1" sampledSeconds="2327.13" traveltime="65.86" overlapTraveltime="66.18" density="39.49" laneDensity="19.75" occupancy="9.83" waitingTime="0.00" speed="14.92" departed="0" arrived="0" entered="41" left="24" laneChangedFrom="26" laneChangedTo="26"/>
        <edge id="7/1to8/1" sampledSeconds="796.67" traveltime="59.36" overlapTraveltime="59.66" density="13.52" laneDensity="6.76" occupancy="3.36" waitingTime="0.00" speed="16.55" departed="0" arrived="0" entered="24" left="13" laneChangedFrom="4" laneChangedTo="4"/>
        <edge id="8/1to9/1" sampledSeconds="970.98" traveltime="53.23" overlapTraveltime="53.51" density="16.48" laneDensity="8.24" occupancy="4.09" waitingTime="0.00" speed="18.45" departed="0" arrived="0" entered="13" left="31" laneChangedFrom="11" laneChangedTo="11"/>
        <edge id="9/1to10/1" sampledSeconds="1988.53" traveltime="56.33" overlapTraveltime="56.62" density="33.75" laneDensity="16.87" occupancy="8.40" waitingTime="0.00" speed="17.43" departed="0" arrived="0" entered="31" left="33" laneChangedFrom="17" laneChangedTo="17"/>
    </interval>
    <interval begin="360.00" end="420.00" id="dump_60">
        <edge id="1/1to2/1" sampledSeconds="2579.73" traveltime="63.91" overlapTraveltime="64.23" density="43.78" laneDensity="21.89" occupancy="10.86" waitingTime="10.00" speed="15.37" departed="17" arrived="0" entered="35" left="41" laneChangedFrom="15" laneChangedTo="15"/>
        <edge id="10/1to1/1" sampledSeconds="2035.15" traveltime="56.55" overlapTraveltime="56.92" density="34.54" laneDensity="17.27" occupancy="8.59" waitingTime="0.00" speed="17.34" departed="0" arrived="0" entered="28" left="34" laneChangedFrom="17" laneChangedTo="17"/>
        <edge id="2/1to3/1" sampledSeconds="2050.98" traveltime="65.24" overlapTraveltime="65.57" density="34.81" laneDensity="17.40" occupancy="8.66" waitingTime="0.00" speed="15.05" departed="0" arrived="0" entered="40" left="22" laneChangedFrom="14" laneChangedTo="14"/>
        <edge id="3/1to4/1" sampledSeconds="1431.07" traveltime="66.98" overlapTraveltime="67.34" density="24.29" laneDensity="12.14" occupancy="6.04" waitingTime="0.00" speed="14.66" departed="0" arrived="0" entered="22" left="26" laneChangedFrom="13" laneChangedTo="13"/>
        <edge id="4/1to5/1" sampledSeconds="1679.96" traveltime="69.71" overlapTraveltime="70.14" density="28.51" laneDensity="14.25" occupancy="7.09" waitingTime="0.00" speed="14.07" departed="0" arrived="0" entered="26" left="24" laneChangedFrom="16" laneChangedTo="16"/>
        <edge id="5/1to6/1" sampledSeconds="3190.53" traveltime="72.32" overlapTraveltime="72.70" density="54.15" laneDensity="27.07" occupancy="13.44" waitingTime="6.00" speed="13.58" departed="14" arrived="0" entered="24" left="44" laneChangedFrom="34" laneChangedTo="34"/>
        <edge id="6/1to7/1" sampledSeconds="2584.25" traveltime="70.13" overlapTraveltime="70.47" density="43.86" laneDensity="21.93" occupancy="10.90" waitingTime="0.00" speed="14.01" departed="0" arrived="0" entered="44" left="42" laneChangedFrom="11" laneChangedTo="11"/>
        <edge id="7/1to8/1" sampledSeconds="1999.35" traveltime="63.30" overlapTraveltime="63.60" density="33.93" laneDensity="16.97" occupancy="8.44" waitingTime="0.00" speed="15.52" departed="0" arrived="0" entered="42" left="20" laneChangedFrom="12" laneChangedTo="12"/>
        <edge id="8/1to9/1" sampledSeconds="832.51" traveltime="58.78" overlapTraveltime="59.08" density="14.13" laneDensity="7.06" occupancy="3.51" waitingTime="0.00" speed="16.71" departed="0" arrived="0" entered="20" left="11" laneChangedFrom="6" laneChangedTo="6"/>
        <edge id="9/1to10/1" sampledSeconds="806.29" traveltime="55.56" overlapTraveltime="55.85" density="13.68" laneDensity="6.84" occupancy="3.40" waitingTime="0.00" speed="17.67" departed="0" arrived="0" entered="11" left="28" laneChangedFrom="9" laneChangedTo="9"/>
    </interval>
    <interval begin="420.00" end="480.00" id="dump_60">
        <edge id="1/1to2/1" sampledSeconds="3512.30" traveltime="71.49" overlapTraveltime="71.83" density="59.61" laneDensity="29.80" occupancy="14.80" waitingTime="11.00" speed="13.74" departed="20" arrived="0" entered="24" left="38" laneChangedFrom="25" laneChangedTo="25"/>
        <edge id="10/1to1/1" sampledSeconds="765.13" traveltime="60.36" overlapTraveltime="60.79" density="12.98" laneDensity="6.49" occupancy="3.22" waitingTime="0.00" speed="16.24" departed="0" arrived="0" entered="10" left="24" laneChangedFrom="10" laneChangedTo="10"/>
        <edge id="2/1to3/1" sampledSeconds="2453.06" traveltime="62.69" overlapTraveltime="63.03" density="41.63" laneDensity="20.81" occupancy="10.35" waitingTime="0.00" speed="15.66" departed="0" arrived="0" entered="39" left="41" laneChangedFrom="8" laneChangedTo="8"/>
        <edge id="3/1to4/1" sampledSeconds="1952.46" traveltime="66.20" overlapTraveltime="66.54" density="33.13" laneDensity="16.57" occupancy="8.24" waitingTime="0.00" speed="14.84" departed="0" arrived="0" entered="41" left="20" laneChangedFrom="8" laneChangedTo="8"/>
        <edge id="4/1to5/1" sampledSeconds="1610.48" traveltime="67.51" overlapTraveltime="67.89" density="27.33" laneDensity="13.67" occupancy="6.80" waitingTime="0.00" speed="14.54" departed="0" arrived="0" entered="20" left="27" laneChangedFrom="18" laneChangedTo="18"/>
        <edge id="5/1to6/1" sampledSeconds="2736.42" traveltime="70.07" overlapTraveltime="70.45" density="46.44" laneDensity="23.22" occupancy="11.52" waitingTime="12.00" speed="14.01" departed="19" arrived="0" entered="27" left="42" laneChangedFrom="32" laneChangedTo="32"/>
        <edge id="6/1to7/1" sampledSeconds="3325.21" traveltime="74.49" overlapTraveltime="74.85" density="56.43" laneDensity="28.22" occupancy="14.05" waitingTime="0.00" speed="13.19" departed="0" arrived="0" entered="42" left="38" laneChangedFrom="18" laneChangedTo="18"/>
        <edge id="7/1to8/1" sampledSeconds="2355.07" traveltime="67.88" overlapTraveltime="68.23" density="39.97" laneDensity="19.98" occupancy="9.94" waitingTime="0.00" speed="14.47" departed="0" arrived="0" entered="38" left="37" laneChangedFrom="15" laneChangedTo="15"/>
        <edge id="8/1to9/1" sampledSeconds="1661.87" traveltime="64.29" overlapTraveltime="64.60" density="28.20" laneDensity="14.10" occupancy="7.01" waitingTime="0.00" speed="15.28" departed="0" arrived="0" entered="37" left="18" laneChangedFrom="11" laneChangedTo="11"/>
        <edge id="9/1to10/1" sampledSeconds="890.69" traveltime="59.14" overlapTraveltime="59.45" density="15.12" laneDensity="7.56" occupancy="3.76" waitingTime="0.00" speed="16.60" departed="0" arrived="0" entered="18" left="10" laneChangedFrom="9" laneChangedTo="9"/>
    </interval>
    <interval begin="480.00" end="540.00" id="dump_60">
        <edge id="1/1to2/1" sampledSeconds="2689.34" traveltime="72.94" overlapTraveltime="73.32" density="45.64" laneDensity="22.82" occupancy="11.30" waitingTime="11.00" speed="13.46" departed="21" arrived="0" entered="11" left="51" laneChangedFrom="18" laneChangedTo="18"/>
        <edge id="10/1to1/1" sampledSeconds="923.00" traveltime="58.81" overlapTraveltime="59.14" density="15.66" laneDensity="7.83" occupancy="3.90" waitingTime="0.00" speed="16.69" departed="0" arrived="0" entered="19" left="11" laneChangedFrom="13" laneChangedTo="13"/>
        <edge id="2/1to3/1" sampledSeconds="2946.76" traveltime="70.44" overlapTraveltime="70.77" density="50.01" laneDensity="25.00" occupancy="12.44" waitingTime="0.00" speed="13.95" departed="0" arrived="0" entered="50" left="28" laneChangedFrom="13" laneChangedTo="13"/>
        <edge id="3/1to4/1" sampledSeconds="2577.20" traveltime="63.26" overlapTraveltime="63.58" density="43.74" laneDensity="21.87" occupancy="10.89" waitingTime="0.00" speed="15.53" departed="0" arrived="0" entered="28" left="40" laneChangedFrom="14" laneChangedTo="14"/>
        <edge id="4/1to5/1" sampledSeconds="1887.49" traveltime="63.19" overlapTraveltime="63.58" density="32.03" laneDensity="16.02" occupancy="7.96" waitingTime="0.00" speed="15.53" departed="0" arrived="0" entered="40" left="25" laneChangedFrom="18" laneChangedTo="18"/>
        <edge id="5/1to6/1" sampledSeconds="3021.50" traveltime="68.26" overlapTraveltime="68.62" density="51.28" laneDensity="25.64" occupancy="12.73" waitingTime="9.00" speed="14.39" departed="15" arrived="0" entered="25" left="42" laneChangedFrom="31" laneChangedTo="31"/>
        <edge id="6/1to7/1" sampledSeconds="3067.65" traveltime="75.12" overlapTraveltime="75.50" density="52.06" laneDensity="26.03" occupancy="12.95" waitingTime="0.00" speed="13.07" departed="0" arrived="0" entered="42" left="38" laneChangedFrom="22" laneChangedTo="22"/>
        <edge id="7/1to8/1" sampledSeconds="2860.81" traveltime="69.57" overlapTraveltime="69.90" density="48.55" laneDensity="24.27" occupancy="12.09" waitingTime="0.00" speed="14.12" departed="0" arrived="0" entered="38" left="31" laneChangedFrom="17" laneChangedTo="17"/>
        <edge id="8/1to9/1" sampledSeconds="2445.84" traveltime="68.50" overlapTraveltime="68.85" density="41.51" laneDensity="20.75" occupancy="10.33" waitingTime="0.00" speed="14.34" departed="0" arrived="0" entered="31" left="33" laneChangedFrom="14" laneChangedTo="14"/>
        <edge id="9/1to10/1" sampledSeconds="1241.94" traveltime="61.79" overlapTraveltime="62.09" density="21.08" laneDensity="10.54" occupancy="5.23" waitingTime="0.00" speed="15.90" departed="0" arrived="0" entered="33" left="19" laneChangedFrom="11" laneChangedTo="11"/>
    </interval>
    <interval begin="540.00" end="600.00" id="dump_60">
        <edge id="1/1to2/1" sampledSeconds="2356.51" traveltime="67.08" overlapTraveltime="67.42" density="39.99" laneDensity="20.00" occupancy="9.91" waitingTime="11.00" speed="14.64" departed="18" arrived="0" entered="18" left="32" laneChangedFrom="30" laneChangedTo="30"/>
        <edge id="10/1to1/1" sampledSeconds="1146.77" traveltime="59.78" overlapTraveltime="60.12" density="19.46" laneDensity="9.73" occupancy="4.84" waitingTime="0.00" speed="16.42" departed="0" arrived="0" entered="26" left="18" laneChangedFrom="13" laneChangedTo="13"/>
        <edge id="2/1to3/1" sampledSeconds="3093.36" traveltime="71.26" overlapTraveltime="71.61" density="52.50" laneDensity="26.25" occupancy="13.06" waitingTime="0.00" speed="13.78" departed="0" arrived="0" entered="33" left="53" laneChangedFrom="18" laneChangedTo="18"/>
        <edge id="3/1to4/1" sampledSeconds="2357.16" traveltime="68.14" overlapTraveltime="68.46" density="40.00" laneDensity="20.00" occupancy="9.94" waitingTime="0.00" speed="14.42" departed="0" arrived="0" entered="53" left="29" laneChangedFrom="11" laneChangedTo="11"/>
        <edge id="4/1to5/1" sampledSeconds="2532.10" traveltime="62.76" overlapTraveltime="63.14" density="42.97" laneDensity="21.49" occupancy="10.70" waitingTime="0.00" speed="15.63" departed="0" arrived="0" entered="29" left="32" laneChangedFrom="13" laneChangedTo="13"/>
        <edge id="5/1to6/1" sampledSeconds="2933.36" traveltime="67.08" overlapTraveltime="67.41" density="49.78" laneDensity="24.89" occupancy="12.36" waitingTime="7.00" speed="14.64" departed="15" arrived="0" entered="32" left="40" laneChangedFrom="20" laneChangedTo="20"/>
        <edge id="6/1to7/1" sampledSeconds="3276.89" traveltime="70.44" overlapTraveltime="70.81" density="55.61" laneDensity="27.81" occupancy="13.84" waitingTime="0.00" speed="13.94" departed="0" arrived="0" entered="40" left="42" laneChangedFrom="12" laneChangedTo="12"/>
        <edge id="7/1to8/1" sampledSeconds="3029.27" traveltime="72.37" overlapTraveltime="72.72" density="51.41" laneDensity="25.70" occupancy="12.79" waitingTime="0.00" speed="13.57" departed="0" arrived="0" entered="41" left="40" laneChangedFrom="27" laneChangedTo="27"/>
        <edge id="8/1to9/1" sampledSeconds="2499.58" traveltime="66.07" overlapTraveltime="66.40" density="42.42" laneDensity="21.21" occupancy="10.55" waitingTime="0.00" speed="14.87" departed="0" arrived="0" entered="40" left="33" laneChangedFrom="21" laneChangedTo="21"/>
        <edge id="9/1to10/1" sampledSeconds="2427.03" traveltime="64.56" overlapTraveltime="64.87" density="41.19" laneDensity="20.59" occupancy="10.26" waitingTime="0.00" speed="15.22" departed="0" arrived="0" entered="33" left="27" laneChangedFrom="14" laneChangedTo="14"/>
    </interval>
    <interval begin="600.00" end="660.00" id="dump_60">
        <edge id="1/1to2/1" sampledSeconds="2467.01" traveltime="68.52" overlapTraveltime="68.85" density="41.87" laneDensity="20.93" occupancy="10.40" waitingTime="7.00" speed="14.34" departed="16" arrived="0" entered="22" left="35" laneChangedFrom="23" laneChangedTo="23"/>
        <edge id="10/1to1/1" sampledSeconds="2224.43" traveltime="64.53" overlapTraveltime="64.88" density="37.75" laneDensity="18.87" occupancy="9.39" waitingTime="0.00" speed="15.21" departed="0" arrived="0" entered="38" left="22" laneChangedFrom="23" laneChangedTo="23"/>
        <edge id="2/1to3/1" sampledSeconds="2498.76" traveltime="69.77" overlapTraveltime="70.16" density="42.41" laneDensity="21.20" occupancy="10.54" waitingTime="0.00" speed="14.07" departed="0" arrived="0" entered="35" left="40" laneChangedFrom="21" laneChangedTo="21"/>
        <edge id="3/1to4/1" sampledSeconds="3249.43" traveltime="73.82" overlapTraveltime="74.17" density="55.14" laneDensity="27.57" occupancy="13.72" waitingTime="0.00" speed="13.31" departed="0" arrived="0" entered="40" left="49" laneChangedFrom="15" laneChangedTo="15"/>
        <edge id="4/1to5/1" sampledSeconds="1931.00" traveltime="66.93" overlapTraveltime="67.32" density="32.77" laneDensity="16.39" occupancy="8.13" waitingTime="0.00" speed="14.66" departed="0" arrived="0" entered="49" left="33" laneChangedFrom="9" laneChangedTo="9"/>
        <edge id="5/1to6/1" sampledSeconds="3429.93" traveltime="67.01" overlapTraveltime="67.36" density="58.21" laneDensity="29.10" occupancy="14.45" waitingTime="5.00" speed="14.65" departed="12" arrived="0" entered="33" left="50" laneChangedFrom="25" laneChangedTo="25"/>
        <edge id="6/1to7/1" sampledSeconds="2819.12" traveltime="66.37" overlapTraveltime="66.71" density="47.84" laneDensity="23.92" occupancy="11.89" waitingTime="0.00" speed="14.80" departed="0" arrived="0" entered="50" left="49" laneChangedFrom="12" laneChangedTo="12"/>
        <edge id="7/1to8/1" sampledSeconds="3644.97" traveltime="73.00" overlapTraveltime="73.37" density="61.86" laneDensity="30.93" occupancy="15.39" waitingTime="0.00" speed="13.45" departed="0" arrived="0" entered="50" left="44" laneChangedFrom="20" laneChangedTo="20"/>
        <edge id="8/1to9/1" sampledSeconds="2815.11" traveltime="71.14" overlapTraveltime="71.50" density="47.77" laneDensity="23.89" occupancy="11.88" waitingTime="0.00" speed="13.81" departed="0" arrived="0" entered="44" left="36" laneChangedFrom="19" laneChangedTo="19"/>
        <edge id="9/1to10/1" sampledSeconds="2333.19" traveltime="65.68" overlapTraveltime="66.01" density="39.60" laneDensity="19.80" occupancy="9.84" waitingTime="0.00" speed="14.95" departed="0" arrived="0" entered="36" left="37" laneChangedFrom="25" laneChangedTo="25"/>
    </interval>
    <interval begin="660.00" end="720.00" id="dump_60">