<?xml version="1.0" encoding="UTF-8"?>

<!-- generated on Fri Nov 17 14:44:11 2017 by SUMO Version UNKNOWN
<?xml version="1.0" encoding="UTF-8"?>

<configuration xmlns:xsi="http://www.w3.org/2001/XMLSchema-instance" xsi:noNamespaceSchemaLocation="http://sumo.dlr.de/xsd/sumoConfiguration.xsd">

    <input>
        <net-file value="net.net.xml"/>
        <route-files value="input_routes.rou.xml"/>
        <additional-files value="input_additional.add.xml,input_additional2.add.xml"/>
    </input>

    <time>
        <begin value="0"/>
        <end value="3000"/>
    </time>

    <report>
        <verbose value="true"/>
        <xml-validation value="never"/>
        <duration-log.statistics value="true"/>
        <no-step-log value="true"/>
    </report>

</configuration>
-->

<meandata xmlns:xsi="http://www.w3.org/2001/XMLSchema-instance" xsi:noNamespaceSchemaLocation="http://sumo.dlr.de/xsd/meandata_file.xsd">
    <interval begin="0.00" end="60.00" id="dump_60">
        <edge id="1/1to2/1" sampledSeconds="229.52" traveltime="133.54" overlapTraveltime="132.19" density="3.90" occupancy="0.95" waitingTime="28.00" speed="7.47" departed="30" arrived="0" entered="0" left="24" laneChangedFrom="1" laneChangedTo="1"/>
        <edge id="2/1to3/1" sampledSeconds="676.40" traveltime="66.92" overlapTraveltime="67.26" density="11.48" occupancy="2.85" waitingTime="0.00" speed="14.68" departed="0" arrived="0" entered="24" left="0" laneChangedFrom="10" laneChangedTo="10"/>
        <edge id="5/1to6/1" sampledSeconds="228.16" traveltime="130.21" overlapTraveltime="128.89" density="3.87" occupancy="0.94" waitingTime="28.00" speed="7.66" departed="30" arrived="0" entered="0" left="24" laneChangedFrom="4" laneChangedTo="4"/>
        <edge id="6/1to7/1" sampledSeconds="671.51" traveltime="58.90" overlapTraveltime="59.19" density="11.40" occupancy="2.83" waitingTime="0.00" speed="16.68" departed="0" arrived="0" entered="24" left="1" laneChangedFrom="13" laneChangedTo="13"/>
        <edge id="7/1to8/1" sampledSeconds="6.85" traveltime="44.12" overlapTraveltime="44.34" density="0.12" occupancy="0.03" waitingTime="0.00" speed="22.26" departed="0" arrived="0" entered="1" left="0" laneChangedFrom="0" laneChangedTo="0"/>
    </interval>
    <interval begin="60.00" end="120.00" id="dump_60">
        <edge id="1/1to2/1" sampledSeconds="529.12" traveltime="88.38" overlapTraveltime="88.36" density="8.98" occupancy="2.23" waitingTime="30.00" speed="11.17" departed="30" arrived="0" entered="0" left="26" laneChangedFrom="10" laneChangedTo="10"/>
        <edge id="2/1to3/1" sampledSeconds="1662.11" traveltime="66.86" overlapTraveltime="67.20" density="28.21" occupancy="7.02" waitingTime="0.00" speed="14.69" departed="0" arrived="0" entered="26" left="23" laneChangedFrom="15" laneChangedTo="15"/>
        <edge id="3/1to4/1" sampledSeconds="518.49" traveltime="65.07" overlapTraveltime="65.40" density="8.80" occupancy="2.18" waitingTime="0.00" speed="15.09" departed="0" arrived="0" entered="23" left="0" laneChangedFrom="2" laneChangedTo="2"/>
        <edge id="5/1to6/1" sampledSeconds="485.70" traveltime="80.38" overlapTraveltime="80.20" density="8.24" occupancy="2.05" waitingTime="30.00" speed="12.31" departed="30" arrived="0" entered="0" left="26" laneChangedFrom="10" laneChangedTo="10"/>
        <edge id="6/1to7/1" sampledSeconds="1509.63" traveltime="56.59" overlapTraveltime="56.87" density="25.62" occupancy="6.37" waitingTime="0.00" speed="17.36" departed="0" arrived="0" entered="26" left="25" laneChangedFrom="13" laneChangedTo="13"/>
        <edge id="7/1to8/1" sampledSeconds="676.41" traveltime="56.53" overlapTraveltime="56.79" density="11.48" occupancy="2.85" waitingTime="0.00" speed="17.38" departed="0" arrived="0" entered="25" left="4" laneChangedFrom="9" laneChangedTo="9"/>
        <edge id="8/1to9/1" sampledSeconds="37.05" traveltime="42.42" overlapTraveltime="42.64" density="0.63" occupancy="0.16" waitingTime="0.00" speed="23.15" departed="0" arrived="0" entered="4" left="0" laneChangedFrom="0" laneChangedTo="0"/>
    </interval>
    <interval begin="120.00" end="180.00" id="dump_60">
        <edge id="1/1to2/1" sampledSeconds="794.42" traveltime="79.08" overlapTraveltime="79.31" density="13.48" occupancy="3.36" waitingTime="30.00" speed="12.45" departed="30" arrived="0" entered="0" left="22" laneChangedFrom="16" laneChangedTo="16"/>
        <edge id="2/1to3/1" sampledSeconds="1704.80" traveltime="65.28" overlapTraveltime="65.62" density="28.93" occupancy="7.20" waitingTime="0.00" speed="15.04" departed="0" arrived="0" entered="22" left="25" laneChangedFrom="9" laneChangedTo="9"/>
        <edge id="3/1to4/1" sampledSeconds="1615.15" traveltime="67.62" overlapTraveltime="67.95" density="27.41" occupancy="6.82" waitingTime="0.00" speed="14.53" departed="0" arrived="0" entered="25" left="17" laneChangedFrom="18" laneChangedTo="18"/>
        <edge id="4/1to5/1" sampledSeconds="398.10" traveltime="62.24" overlapTraveltime="62.55" density="6.76" occupancy="1.68" waitingTime="0.00" speed="15.78" departed="0" arrived="0" entered="17" left="0" laneChangedFrom="1" laneChangedTo="1"/>
        <edge id="5/1to6/1" sampledSeconds="706.57" traveltime="66.18" overlapTraveltime="66.34" density="11.99" occupancy="2.98" waitingTime="30.00" speed="14.88" departed="30" arrived="0" entered="0" left="27" laneChangedFrom="18" laneChangedTo="18"/>
        <edge id="6/1to7/1" sampledSeconds="1484.95" traveltime="54.98" overlapTraveltime="55.27" density="25.20" occupancy="6.27" waitingTime="0.00" speed="17.86" departed="0" arrived="0" entered="27" left="25" laneChangedFrom="20" laneChangedTo="20"/>
        <edge id="7/1to8/1" sampledSeconds="1581.32" traveltime="57.60" overlapTraveltime="57.90" density="26.84" occupancy="6.68" waitingTime="0.00" speed="17.05" departed="0" arrived="0" entered="25" left="23" laneChangedFrom="10" laneChangedTo="10"/>
        <edge id="8/1to9/1" sampledSeconds="637.17" traveltime="54.82" overlapTraveltime="55.07" density="10.81" occupancy="2.69" waitingTime="0.00" speed="17.92" departed="0" arrived="0" entered="23" left="4" laneChangedFrom="4" laneChangedTo="4"/>
        <edge id="9/1to10/1" sampledSeconds="103.05" traveltime="42.43" overlapTraveltime="42.64" density="1.75" occupancy="0.44" waitingTime="0.00" speed="23.15" departed="0" arrived="0" entered="4" left="0" laneChangedFrom="0" laneChangedTo="0"/>
    </interval>
    <interval begin="180.00" end="240.00" id="dump_60">
        <edge id="1/1to2/1" sampledSeconds="1125.80" traveltime="73.97" overlapTraveltime="74.29" density="19.11" occupancy="4.75" waitingTime="26.00" speed="13.29" departed="29" arrived="0" entered="3" left="28" laneChangedFrom="15" laneChangedTo="15"/>
        <edge id="10/1to1/1" sampledSeconds="147.26" traveltime="42.61" overlapTraveltime="42.82" density="2.50" occupancy="0.62" waitingTime="0.00" speed="23.05" departed="0" arrived="0" entered="4" left="3" laneChangedFrom="2" laneChangedTo="2"/>
        <edge id="2/1to3/1" sampledSeconds="1608.41" traveltime="66.95" overlapTraveltime="67.28" density="27.30" occupancy="6.79" waitingTime="0.00" speed="14.67" departed="0" arrived="0" entered="28" left="23" laneChangedFrom="17" laneChangedTo="17"/>
        <edge id="3/1to4/1" sampledSeconds="1828.23" traveltime="67.23" overlapTraveltime="67.59" density="31.03" occupancy="7.72" waitingTime="0.00" speed="14.61" departed="0" arrived="0" entered="23" left="28" laneChangedFrom="20" laneChangedTo="20"/>
        <edge id="4/1to5/1" sampledSeconds="1427.59" traveltime="65.76" overlapTraveltime="66.14" density="24.23" occupancy="6.02" waitingTime="0.00" speed="14.92" departed="0" arrived="0" entered="28" left="15" laneChangedFrom="22" laneChangedTo="22"/>
        <edge id="5/1to6/1" sampledSeconds="1241.76" traveltime="66.69" overlapTraveltime="66.96" density="21.07" occupancy="5.21" waitingTime="19.00" speed="14.74" departed="25" arrived="0" entered="15" left="17" laneChangedFrom="18" laneChangedTo="18"/>
        <edge id="6/1to7/1" sampledSeconds="1279.78" traveltime="52.37" overlapTraveltime="52.63" density="21.72" occupancy="5.40" waitingTime="0.00" speed="18.75" departed="0" arrived="0" entered="17" left="30" laneChangedFrom="12" laneChangedTo="12"/>
        <edge id="7/1to8/1" sampledSeconds="1606.18" traveltime="55.60" overlapTraveltime="55.89" density="27.26" occupancy="6.78" waitingTime="0.00" speed="17.66" departed="0" arrived="0" entered="30" left="24" laneChangedFrom="16" laneChangedTo="16"/>
        <edge id="8/1to9/1" sampledSeconds="1680.39" traveltime="60.99" overlapTraveltime="61.30" density="28.52" occupancy="7.10" waitingTime="0.00" speed="16.10" departed="0" arrived="0" entered="24" left="19" laneChangedFrom="10" laneChangedTo="10"/>
        <edge id="9/1to10/1" sampledSeconds="554.74" traveltime="54.64" overlapTraveltime="54.89" density="9.41" occupancy="2.34" waitingTime="0.00" speed="17.98" departed="0" arrived="0" entered="19" left="4" laneChangedFrom="6" laneChangedTo="6"/>
    </interval>
    <interval begin="240.00" end="300.00" id="dump_60">
        <edge id="1/1to2/1" sampledSeconds="1296.73" traveltime="67.40" overlapTraveltime="67.73" density="22.01" occupancy="5.42" waitingTime="15.00" speed="14.57" departed="21" arrived="0" entered="2" left="19" laneChangedFrom="14" laneChangedTo="14"/>
        <edge id="10/1to1/1" sampledSeconds="610.11" traveltime="51.15" overlapTraveltime="51.41" density="10.35" occupancy="2.58" waitingTime="0.00" speed="19.20" departed="0" arrived="0" entered="21" left="2" laneChangedFrom="8" laneChangedTo="8"/>
        <edge id="2/1to3/1" sampledSeconds="1720.89" traveltime="67.00" overlapTraveltime="67.34" density="29.20" occupancy="7.27" waitingTime="0.00" speed="14.66" departed="0" arrived="0" entered="19" left="26" laneChangedFrom="13" laneChangedTo="13"/>
        <edge id="3/1to4/1" sampledSeconds="1541.65" traveltime="66.29" overlapTraveltime="66.63" density="26.16" occupancy="6.50" waitingTime="0.00" speed="14.81" departed="0" arrived="0" entered="26" left="26" laneChangedFrom="19" laneChangedTo="19"/>
        <edge id="4/1to5/1" sampledSeconds="1896.73" traveltime="68.52" overlapTraveltime="68.91" density="32.19" occupancy="8.01" waitingTime="0.00" speed="14.32" departed="0" arrived="0" entered="26" left="22" laneChangedFrom="25" laneChangedTo="25"/>
        <edge id="5/1to6/1" sampledSeconds="2511.41" traveltime="66.30" overlapTraveltime="66.63" density="42.62" occupancy="10.58" waitingTime="8.00" speed="14.82" departed="14" arrived="0" entered="22" left="30" laneChangedFrom="37" laneChangedTo="37"/>
        <edge id="6/1to7/1" sampledSeconds="993.12" traveltime="61.10" overlapTraveltime="61.39" density="16.85" occupancy="4.18" waitingTime="0.00" speed="16.08" departed="0" arrived="0" entered="30" left="14" laneChangedFrom="5" laneChangedTo="5"/>
        <edge id="7/1to8/1" sampledSeconds="1161.21" traveltime="54.23" overlapTraveltime="54.50" density="19.71" occupancy="4.90" waitingTime="0.00" speed="18.11" departed="0" arrived="0" entered="14" left="31" laneChangedFrom="14" laneChangedTo="14"/>
        <edge id="8/1to9/1" sampledSeconds="1750.15" traveltime="54.30" overlapTraveltime="54.59" density="29.70" occupancy="7.39" waitingTime="0.00" speed="18.08" departed="0" arrived="0" entered="31" left="34" laneChangedFrom="15" laneChangedTo="15"/>
        <edge id="9/1to10/1" sampledSeconds="1626.59" traveltime="58.98" overlapTraveltime="59.25" density="27.60" occupancy="6.87" waitingTime="0.00" speed="16.66" departed="0" arrived="0" entered="34" left="21" laneChangedFrom="14" laneChangedTo="14"/>
    </interval>
    <interval begin="300.00" end="360.00" id="dump_60">
        <edge id="1/1to2/1" sampledSeconds="2256.38" traveltime="66.18" overlapTraveltime="66.52" density="38.29" occupancy="9.48" waitingTime="14.00" speed="14.84" departed="21" arrived="0" entered="20" left="22" laneChangedFrom="17" laneChangedTo="17"/>
        <edge id="10/1to1/1" sampledSeconds="1436.04" traveltime="55.52" overlapTraveltime="55.80" density="24.37" occupancy="6.06" waitingTime="0.00" speed="17.69" departed="0" arrived="0" entered="32" left="20" laneChangedFrom="15" laneChangedTo="15"/>
        <edge id="2/1to3/1" sampledSeconds="1186.20" traveltime="65.64" overlapTraveltime="65.97" density="20.13" occupancy="5.00" waitingTime="0.00" speed="14.96" departed="0" arrived="0" entered="22" left="21" laneChangedFrom="11" laneChangedTo="11"/>
        <edge id="3/1to4/1" sampledSeconds="1741.81" traveltime="67.70" overlapTraveltime="68.03" density="29.56" occupancy="7.36" waitingTime="0.00" speed="14.51" departed="0" arrived="0" entered="21" left="20" laneChangedFrom="19" laneChangedTo="19"/>
        <edge id="4/1to5/1" sampledSeconds="1597.94" traveltime="67.13" overlapTraveltime="67.54" density="27.12" occupancy="6.74" waitingTime="0.00" speed="14.62" departed="0" arrived="0" entered="20" left="27" laneChangedFrom="17" laneChangedTo="17"/>
        <edge id="5/1to6/1" sampledSeconds="2859.34" traveltime="71.58" overlapTraveltime="71.91" density="48.52" occupancy="12.03" waitingTime="7.00" speed="13.73" departed="16" arrived="0" entered="27" left="37" laneChangedFrom="20" laneChangedTo="20"/>
        <edge id="6/1to7/1" sampledSeconds="2356.24" traveltime="65.70" overlapTraveltime="66.02" density="39.99" occupancy="9.95" waitingTime="0.00" speed="14.95" departed="0" arrived="0" entered="37" left="25" laneChangedFrom="14" laneChangedTo="14"/>
        <edge id="7/1to8/1" sampledSeconds="868.61" traveltime="58.35" overlapTraveltime="58.65" density="14.74" occupancy="3.66" waitingTime="0.00" speed="16.83" departed="0" arrived="0" entered="25" left="13" laneChangedFrom="6" laneChangedTo="6"/>
        <edge id="8/1to9/1" sampledSeconds="964.36" traveltime="54.28" overlapTraveltime="54.54" density="16.37" occupancy="4.07" waitingTime="0.00" speed="18.10" departed="0" arrived="0" entered="13" left="28" laneChangedFrom="13" laneChangedTo="13"/>
        <edge id="9/1to10/1" sampledSeconds="1984.72" traveltime="57.61" overlapTraveltime="57.90" density="33.68" occupancy="8.38" waitingTime="0.00" speed="17.05" departed="0" arrived="0" entered="28" left="32" laneChangedFrom="16" laneChangedTo="16"/>
    </interval>
    <interval begin="360.00" end="420.00" id="dump_60">
        <edge id="1/1to2/1" sampledSeconds="2739.29" traveltime="65.32" overlapTraveltime="65.63" density="46.49" occupancy="11.55" waitingTime="5.00" speed="15.04" departed="13" arrived="0" entered="33" left="45" laneChangedFrom="23" laneChangedTo="23"/>
        <edge id="10/1to1/1" sampledSeconds="1998.46" traveltime="58.24" overlapTraveltime="58.59" density="33.92" occupancy="8.44" waitingTime="0.00" speed="16.85" departed="0" arrived="0" entered="27" left="33" laneChangedFrom="17" laneChangedTo="17"/>
        <edge id="2/1to3/1" sampledSeconds="2162.89" traveltime="66.07" overlapTraveltime="66.39" density="36.71" occupancy="9.13" waitingTime="0.00" speed="14.87" departed="0" arrived="0" entered="45" left="19" laneChangedFrom="14" laneChangedTo="14"/>
        <edge id="3/1to4/1" sampledSeconds="1267.84" traveltime="64.77" overlapTraveltime="65.16" density="21.52" occupancy="5.35" waitingTime="0.00" speed="15.15" departed="0" arrived="0" entered="19" left="25" laneChangedFrom="15" laneChangedTo="15"/>
        <edge id="4/1to5/1" sampledSeconds="1733.88" traveltime="70.86" overlapTraveltime="71.27" density="29.43" occupancy="7.32" waitingTime="0.00" speed="13.85" departed="0" arrived="0" entered="25" left="25" laneChangedFrom="15" laneChangedTo="15"/>
        <edge id="5/1to6/1" sampledSeconds="3111.11" traveltime="73.91" overlapTraveltime="74.28" density="52.80" occupancy="13.10" waitingTime="7.00" speed="13.29" departed="17" arrived="0" entered="25" left="41" laneChangedFrom="32" laneChangedTo="32"/>
        <edge id="6/1to7/1" sampledSeconds="2424.69" traveltime="67.02" overlapTraveltime="67.36" density="41.15" occupancy="10.23" waitingTime="0.00" speed="14.65" departed="0" arrived="0" entered="40" left="40" laneChangedFrom="18" laneChangedTo="18"/>
        <edge id="7/1to8/1" sampledSeconds="2057.49" traveltime="64.07" overlapTraveltime="64.37" density="34.92" occupancy="8.69" waitingTime="0.00" speed="15.33" departed="0" arrived="0" entered="39" left="20" laneChangedFrom="13" laneChangedTo="13"/>
        <edge id="8/1to9/1" sampledSeconds="875.15" traveltime="58.09" overlapTraveltime="58.39" density="14.85" occupancy="3.69" waitingTime="0.00" speed="16.91" departed="0" arrived="0" entered="20" left="11" laneChangedFrom="5" laneChangedTo="5"/>
        <edge id="9/1to10/1" sampledSeconds="907.61" traveltime="57.48" overlapTraveltime="57.80" density="15.40" occupancy="3.83" waitingTime="0.00" speed="17.08" departed="0" arrived="0" entered="11" left="27" laneChangedFrom="8" laneChangedTo="8"/>
    </interval>
    <interval begin="420.00" end="480.00" id="dump_60">
        <edge id="1/1to2/1" sampledSeconds="3147.99" traveltime="66.61" overlapTraveltime="66.94" density="53.42" occupancy="13.27" waitingTime="5.00" speed="14.75" departed="16" arrived="0" entered="27" left="42" laneChangedFrom="24" laneChangedTo="24"/>
        <edge id="10/1to1/1" sampledSeconds="833.22" traveltime="55.43" overlapTraveltime="55.77" density="14.14" occupancy="3.51" waitingTime="0.00" speed="17.70" departed="0" arrived="0" entered="11" left="27" laneChangedFrom="9" laneChangedTo="9"/>
        <edge id="2/1to3/1" sampledSeconds="2722.31" traveltime="64.66" overlapTraveltime="65.00" density="46.20" occupancy="11.49" waitingTime="0.00" speed="15.19" departed="0" arrived="0" entered="42" left="46" laneChangedFrom="13" laneChangedTo="13"/>
        <edge id="3/1to4/1" sampledSeconds="1949.99" traveltime="64.87" overlapTraveltime="65.19" density="33.09" occupancy="8.23" waitingTime="0.00" speed="15.14" departed="0" arrived="0" entered="46" left="20" laneChangedFrom="12" laneChangedTo="12"/>
        <edge id="4/1to5/1" sampledSeconds="1536.87" traveltime="67.67" overlapTraveltime="68.08" density="26.08" occupancy="6.48" waitingTime="0.00" speed="14.50" departed="0" arrived="0" entered="20" left="26" laneChangedFrom="20" laneChangedTo="20"/>
        <edge id="5/1to6/1" sampledSeconds="2771.61" traveltime="68.75" overlapTraveltime="69.13" density="47.04" occupancy="11.65" waitingTime="15.00" speed="14.28" departed="17" arrived="0" entered="26" left="45" laneChangedFrom="31" laneChangedTo="31"/>
        <edge id="6/1to7/1" sampledSeconds="2961.71" traveltime="75.14" overlapTraveltime="75.49" density="50.26" occupancy="12.51" waitingTime="0.00" speed="13.08" departed="0" arrived="0" entered="46" left="30" laneChangedFrom="17" laneChangedTo="17"/>
        <edge id="7/1to8/1" sampledSeconds="2442.54" traveltime="66.44" overlapTraveltime="66.79" density="41.45" occupancy="10.31" waitingTime="0.00" speed="14.78" departed="0" arrived="0" entered="31" left="38" laneChangedFrom="22" laneChangedTo="22"/>
        <edge id="8/1to9/1" sampledSeconds="1716.69" traveltime="62.07" overlapTraveltime="62.37" density="29.13" occupancy="7.24" waitingTime="0.00" speed="15.83" departed="0" arrived="0" entered="38" left="19" laneChangedFrom="16" laneChangedTo="16"/>
        <edge id="9/1to10/1" sampledSeconds="930.23" traveltime="58.24" overlapTraveltime="58.54" density="15.79" occupancy="3.93" waitingTime="0.00" speed="16.86" departed="0" arrived="0" entered="19" left="11" laneChangedFrom="9" laneChangedTo="9"/>
    </interval>
    <interval begin="480.00" end="540.00" id="dump_60">
        <edge id="1/1to2/1" sampledSeconds="2251.96" traveltime="70.03" overlapTraveltime="70.38" density="38.22" occupancy="9.47" waitingTime="10.00" speed="14.03" departed="17" arrived="0" entered="10" left="43" laneChangedFrom="14" laneChangedTo="14"/>
        <edge id="10/1to1/1" sampledSeconds="1009.42" traveltime="60.41" overlapTraveltime="60.74" density="17.13" occupancy="4.26" waitingTime="0.00" speed="16.25" departed="0" arrived="0" entered="21" left="10" laneChangedFrom="17" laneChangedTo="17"/>
        <edge id="2/1to3/1" sampledSeconds="3117.95" traveltime="69.59" overlapTraveltime="69.94" density="52.91" occupancy="13.17" waitingTime="0.00" speed="14.11" departed="0" arrived="0" entered="43" left="34" laneChangedFrom="10" laneChangedTo="10"/>
        <edge id="3/1to4/1" sampledSeconds="2637.25" traveltime="64.46" overlapTraveltime="64.78" density="44.76" occupancy="11.13" waitingTime="0.00" speed="15.24" departed="0" arrived="0" entered="33" left="45" laneChangedFrom="18" laneChangedTo="18"/>
        <edge id="4/1to5/1" sampledSeconds="1827.04" traveltime="63.08" overlapTraveltime="63.44" density="31.01" occupancy="7.70" waitingTime="0.00" speed="15.56" departed="0" arrived="0" entered="45" left="20" laneChangedFrom="21" laneChangedTo="21"/>
        <edge id="5/1to6/1" sampledSeconds="2903.69" traveltime="67.43" overlapTraveltime="67.78" density="49.28" occupancy="12.23" waitingTime="8.00" speed="14.56" departed="17" arrived="0" entered="20" left="39" laneChangedFrom="24" laneChangedTo="24"/>
        <edge id="6/1to7/1" sampledSeconds="3245.88" traveltime="74.38" overlapTraveltime="74.74" density="55.08" occupancy="13.71" waitingTime="0.00" speed="13.21" departed="0" arrived="0" entered="39" left="46" laneChangedFrom="29" laneChangedTo="29"/>
        <edge id="7/1to8/1" sampledSeconds="2344.87" traveltime="67.54" overlapTraveltime="67.88" density="39.79" occupancy="9.89" waitingTime="0.00" speed="14.54" departed="0" arrived="0" entered="46" left="31" laneChangedFrom="17" laneChangedTo="17"/>
        <edge id="8/1to9/1" sampledSeconds="2437.70" traveltime="65.82" overlapTraveltime="66.15" density="41.37" occupancy="10.29" waitingTime="0.00" speed="14.92" departed="0" arrived="0" entered="31" left="35" laneChangedFrom="21" laneChangedTo="21"/>
        <edge id="9/1to10/1" sampledSeconds="1414.06" traveltime="60.56" overlapTraveltime="60.86" density="24.00" occupancy="5.96" waitingTime="0.00" speed="16.22" departed="0" arrived="0" entered="35" left="21" laneChangedFrom="10" laneChangedTo="10"/>
    </interval>
    <interval begin="540.00" end="600.00" id="dump_60">
        <edge id="1/1to2/1" sampledSeconds="2262.01" traveltime="67.70" overlapTraveltime="68.03" density="38.39" occupancy="9.51" waitingTime="11.00" speed="14.51" departed="17" arrived="0" entered="22" left="25" laneChangedFrom="20" laneChangedTo="20"/>
        <edge id="10/1to1/1" sampledSeconds="1243.44" traveltime="59.13" overlapTraveltime="59.46" density="21.10" occupancy="5.24" waitingTime="0.00" speed="16.60" departed="0" arrived="0" entered="28" left="22" laneChangedFrom="20" laneChangedTo="20"/>
        <edge id="2/1to3/1" sampledSeconds="2466.29" traveltime="69.69" overlapTraveltime="70.06" density="41.85" occupancy="10.41" waitingTime="0.00" speed="14.09" departed="0" arrived="0" entered="25" left="47" laneChangedFrom="23" laneChangedTo="23"/>
        <edge id="3/1to4/1" sampledSeconds="2777.77" traveltime="68.00" overlapTraveltime="68.32" density="47.14" occupancy="11.73" waitingTime="0.00" speed="14.45" departed="0" arrived="0" entered="48" left="29" laneChangedFrom="16" laneChangedTo="16"/>
        <edge id="4/1to5/1" sampledSeconds="2725.70" traveltime="66.87" overlapTraveltime="67.22" density="46.26" occupancy="11.52" waitingTime="0.00" speed="14.68" departed="0" arrived="0" entered="29" left="36" laneChangedFrom="16" laneChangedTo="16"/>
        <edge id="5/1to6/1" sampledSeconds="2780.42" traveltime="67.57" overlapTraveltime="67.91" density="47.19" occupancy="11.71" waitingTime="5.00" speed="14.54" departed="12" arrived="0" entered="36" left="35" laneChangedFrom="27" laneChangedTo="27"/>
        <edge id="6/1to7/1" sampledSeconds="3140.62" traveltime="70.37" overlapTraveltime="70.76" density="53.30" occupancy="13.27" waitingTime="0.00" speed="13.95" departed="0" arrived="0" entered="35" left="40" laneChangedFrom="11" laneChangedTo="11"/>
        <edge id="7/1to8/1" sampledSeconds="3070.14" traveltime="72.83" overlapTraveltime="73.18" density="52.10" occupancy="12.97" waitingTime="0.00" speed="13.49" departed="0" arrived="0" entered="40" left="36" laneChangedFrom="21" laneChangedTo="21"/>
        <edge id="8/1to9/1" sampledSeconds="2197.64" traveltime="65.63" overlapTraveltime="65.96" density="37.30" occupancy="9.27" waitingTime="0.00" speed="14.97" departed="0" arrived="0" entered="36" left="32" laneChangedFrom="16" laneChangedTo="16"/>
        <edge id="9/1to10/1" sampledSeconds="2418.74" traveltime="64.82" overlapTraveltime="65.13" density="41.05" occupancy="10.22" waitingTime="0.00" speed="15.16" departed="0" arrived="0" entered="32" left="28" laneChangedFrom="18" laneChangedTo="18"/>
    </interval>
    <interval begin="600.00" end="660.00" id="dump_60">
        <edge id="1/1to2/1" sampledSeconds="2533.28" traveltime="67.79" overlapTraveltime="68.12" density="42.99" occupancy="10.65" waitingTime="8.00" speed="14.49" departed="16" arrived="0" entered="25" left="40" laneChangedFrom="23" laneChangedTo="23"/>
        <edge id="10/1to1/1" sampledSeconds="2310.98" traveltime="65.65" overlapTraveltime="65.99" density="39.22" occupancy="9.76" waitingTime="0.00" speed="14.96" departed="0" arrived="0" entered="38" left="25" laneChangedFrom="19" laneChangedTo="19"/>
        <edge id="2/1to3/1" sampledSeconds="2229.09" traveltime="66.83" overlapTraveltime="67.21" density="37.83" occupancy="9.40" waitingTime="0.00" speed="14.69" departed="0" arrived="0" entered="40" left="32" laneChangedFrom="13" laneChangedTo="13"/>
        <edge id="3/1to4/1" sampledSeconds="2675.24" traveltime="68.50" overlapTraveltime="68.85" density="45.40" occupancy="11.29" waitingTime="0.00" speed="14.34" departed="0" arrived="0" entered="32" left="50" laneChangedFrom="22" laneChangedTo="22"/>
        <edge id="4/1to5/1" sampledSeconds="2484.13" traveltime="64.77" overlapTraveltime="65.18" density="42.16" occupancy="10.47" waitingTime="0.00" speed="15.14" departed="0" arrived="0" entered="50" left="39" laneChangedFrom="10" laneChangedTo="10"/>
        <edge id="5/1to6/1" sampledSeconds="3607.91" traveltime="68.94" overlapTraveltime="69.28" density="61.23" occupancy="15.20" waitingTime="8.00" speed="14.25" departed="14" arrived="0" entered="39" left="49" laneChangedFrom="25" laneChangedTo="25"/>
        <edge id="6/1to7/1" sampledSeconds="2743.59" traveltime="68.64" overlapTraveltime="68.99" density="46.56" occupancy="11.57" waitingTime="0.00" speed="14.31" departed="0" arrived="0" entered="49" left="46" laneChangedFrom="12" laneChangedTo="12"/>
        <edge id="7/1to8/1" sampledSeconds="3600.34" traveltime="73.57" overlapTraveltime="73.95" density="61.10" occupancy="15.20" waitingTime="0.00" speed="13.35" departed="0" arrived="0" entered="46" left="45" laneChangedFrom="29" laneChangedTo="29"/>
        <edge id="8/1to9/1" sampledSeconds="2554.66" traveltime="70.20" overlapTraveltime="70.53" density="43.35" occupancy="10.78" waitingTime="0.00" speed="14.00" departed="0" arrived="0" entered="45" left="36" laneChangedFrom="21" laneChangedTo="21"/>
        <edge id="9/1to10/1" sampledSeconds="2123.49" traveltime="64.69" overlapTraveltime="65.03" density="36.04" occupancy="8.96" waitingTime="0.00" speed="15.18" departed="0" arrived="0" entered="36" left="38" laneChangedFrom="23" laneChangedTo="23"/>
    </interval>
    <interval begin="660.00" end="720.00" id="dump_60">
        <edge id="1/1to2/1" sampledSeconds="3175.04" traveltime="70.42" overlapTraveltime="70.77" density="53.88" occupancy="13.39" waitingTime="3.00" speed="13.95" departed="10" arrived="0" entered="37" left="36" laneChangedFrom="19" laneChangedTo="19"/>
        <edge id="10/1to1/1" sampledSeconds="2201.48" traveltime="64.08" overlapTraveltime="64.45" density="37.36" occupancy="9.29" waitingTime="0.00" speed="15.32" departed="0" arrived="0" entered="35" left="37" laneChangedFrom="13" laneChangedTo="13"/>
        <edge id="2/1to3/1" sampledSeconds="2321.29" traveltime="66.33" overlapTraveltime="66.65" density="39.39" occupancy="9.80" waitingTime="0.00" speed="14.81" departed="0" arrived="0" entered="35" left="37" laneChangedFrom="21" laneChangedTo="21"/>
        <edge id="3/1to4/1" sampledSeconds="2346.50" traveltime="69.71" overlapTraveltime="70.06" density="39.82" occupancy="9.91" waitingTime="0.00" speed="14.09" departed="0" arrived="0" entered="37" left="25" laneChangedFrom="19" laneChangedTo="19"/>
        <edge id="4/1to5/1" sampledSeconds="2652.14" traveltime="68.19" overlapTraveltime="68.59" density="45.01" occupancy="11.20" waitingTime="0.00" speed="14.39" departed="0" arrived="0" entered="25" left="43" laneChangedFrom="21" laneChangedTo="21"/>
        <edge id="5/1to6/1" sampledSeconds="3636.34" traveltime="69.61" overlapTraveltime="69.98" density="61.71" occupancy="15.31" waitingTime="6.00" speed="14.11" departed="12" arrived="0" entered="43" left="57" laneChangedFrom="19" laneChangedTo="19"/>
        <edge id="6/1to7/1" sampledSeconds="3595.76" traveltime="70.87" overlapTraveltime="71.26" density="61.02" occupancy="15.17" waitingTime="0.00" speed="13.85" departed="0" arrived="0" entered="57" left="45" laneChangedFrom="14" laneChangedTo="14"/>
        <edge id="7/1to8/1" sampledSeconds="2580.83" traveltime="68.21" overlapTraveltime="68.62" density="43.80" occupancy="10.86" waitingTime="0.00" speed="14.39" departed="0" arrived="0" entered="45" left="57" laneChangedFrom="13" laneChangedTo="13"/>
        <edge id="8/1to9/1" sampledSeconds="3618.79" traveltime="76.18" overlapTraveltime="76.53" density="61.41" occupancy="15.28" waitingTime="0.00" speed="12.90" departed="0" arrived="0" entered="57" left="33" laneChangedFrom="20" laneChangedTo="20"/>
        <edge id="9/1to10/1" sampledSeconds="2261.88" traveltime="64.10" overlapTraveltime="64.43" density="38.39" occupancy="9.55" waitingTime="0.00" speed="15.32" departed="0" arrived="0" entered="33" left="35" laneChangedFrom="20" laneChangedTo="20"/>
    </interval>