<?xml version="1.0" encoding="UTF-8"?>

<!-- generated on 2022-12-04 10:24:11 by Eclipse SUMO sumo Version v1_15_0+0749-de9f6f8
This data file and the accompanying materials
are made available under the terms of the Eclipse Public License v2.0
which accompanies this distribution, and is available at
http://www.eclipse.org/legal/epl-v20.html
This file may also be made available under the following Secondary
Licenses when the conditions for such availability set forth in the Eclipse
Public License 2.0 are satisfied: GNU General Public License, version 2
or later which is available at
https://www.gnu.org/licenses/old-licenses/gpl-2.0-standalone.html
SPDX-License-Identifier: EPL-2.0 OR GPL-2.0-or-later
<configuration xmlns:xsi="http://www.w3.org/2001/XMLSchema-instance" xsi:noNamespaceSchemaLocation="http://sumo.dlr.de/xsd/sumoConfiguration.xsd">

    <input>
        <net-file value="net.net.xml"/>
        <route-files value="input_routes.rou.xml"/>
        <additional-files value="input_additional.add.xml,input_additional2.add.xml"/>
    </input>

    <output>
        <write-license value="true"/>
        <tripinfo-output.write-unfinished value="true"/>
    </output>

    <time>
        <begin value="0"/>
        <end value="3000"/>
    </time>

    <processing>
        <default.speeddev value="0"/>
    </processing>

    <report>
        <xml-validation value="never"/>
        <duration-log.statistics value="true"/>
        <no-step-log value="true"/>
    </report>

</configuration>
-->

<meandata xmlns:xsi="http://www.w3.org/2001/XMLSchema-instance" xsi:noNamespaceSchemaLocation="http://sumo.dlr.de/xsd/meandata_file.xsd">
    <interval begin="0.00" end="60.00" id="dump_60">
        <edge id="1/1to2/1" sampledSeconds="225.26" traveltime="134.78" overlapTraveltime="133.00" density="3.82" laneDensity="1.91" occupancy="0.93" waitingTime="28.00" timeLoss="118.02" speed="7.42" speedRelative="0.38" departed="30" arrived="0" entered="0" left="24" laneChangedFrom="2" laneChangedTo="2"/>
        <edge id="2/1to3/1" sampledSeconds="680.30" traveltime="66.83" overlapTraveltime="67.17" density="11.55" laneDensity="5.77" occupancy="2.86" waitingTime="0.00" timeLoss="47.40" speed="14.70" speedRelative="0.75" departed="0" arrived="0" entered="24" left="0" laneChangedFrom="9" laneChangedTo="9"/>
        <edge id="5/1to6/1" sampledSeconds="233.83" traveltime="128.91" overlapTraveltime="127.42" density="3.97" laneDensity="1.98" occupancy="0.97" waitingTime="29.00" timeLoss="138.52" speed="7.75" speedRelative="0.40" departed="30" arrived="0" entered="0" left="24" laneChangedFrom="3" laneChangedTo="3"/>
        <edge id="6/1to7/1" sampledSeconds="666.56" traveltime="58.75" overlapTraveltime="59.04" density="11.31" laneDensity="5.66" occupancy="2.80" waitingTime="0.00" timeLoss="63.55" speed="16.72" speedRelative="0.85" departed="0" arrived="0" entered="24" left="1" laneChangedFrom="13" laneChangedTo="13"/>
        <edge id="7/1to8/1" sampledSeconds="5.89" traveltime="44.95" overlapTraveltime="45.18" density="0.10" laneDensity="0.05" occupancy="0.02" waitingTime="0.00" timeLoss="0.26" speed="21.85" speedRelative="1.11" departed="0" arrived="0" entered="1" left="0" laneChangedFrom="0" laneChangedTo="0"/>
    </interval>
    <interval begin="60.00" end="120.00" id="dump_60">
        <edge id="1/1to2/1" sampledSeconds="518.42" traveltime="88.39" overlapTraveltime="88.37" density="8.80" laneDensity="4.40" occupancy="2.18" waitingTime="30.00" timeLoss="148.73" speed="11.17" speedRelative="0.57" departed="30" arrived="0" entered="0" left="26" laneChangedFrom="8" laneChangedTo="8"/>
        <edge id="2/1to3/1" sampledSeconds="1662.76" traveltime="66.68" overlapTraveltime="67.02" density="28.22" laneDensity="14.11" occupancy="7.02" waitingTime="0.00" timeLoss="87.95" speed="14.73" speedRelative="0.75" departed="0" arrived="0" entered="26" left="23" laneChangedFrom="15" laneChangedTo="15"/>
        <edge id="3/1to4/1" sampledSeconds="528.40" traveltime="64.87" overlapTraveltime="65.20" density="8.97" laneDensity="4.48" occupancy="2.23" waitingTime="0.00" timeLoss="32.65" speed="15.14" speedRelative="0.77" departed="0" arrived="0" entered="23" left="0" laneChangedFrom="4" laneChangedTo="4"/>
        <edge id="5/1to6/1" sampledSeconds="487.05" traveltime="80.69" overlapTraveltime="80.52" density="8.27" laneDensity="4.13" occupancy="2.05" waitingTime="30.00" timeLoss="175.01" speed="12.26" speedRelative="0.63" departed="30" arrived="0" entered="0" left="26" laneChangedFrom="11" laneChangedTo="11"/>
        <edge id="6/1to7/1" sampledSeconds="1514.88" traveltime="57.00" overlapTraveltime="57.28" density="25.71" laneDensity="12.85" occupancy="6.40" waitingTime="0.00" timeLoss="152.32" speed="17.23" speedRelative="0.88" departed="0" arrived="0" entered="26" left="25" laneChangedFrom="13" laneChangedTo="13"/>
        <edge id="7/1to8/1" sampledSeconds="671.96" traveltime="56.61" overlapTraveltime="56.88" density="11.40" laneDensity="5.70" occupancy="2.83" waitingTime="0.00" timeLoss="73.93" speed="17.35" speedRelative="0.89" departed="0" arrived="0" entered="25" left="3" laneChangedFrom="8" laneChangedTo="8"/>
        <edge id="8/1to9/1" sampledSeconds="34.88" traveltime="42.61" overlapTraveltime="42.83" density="0.59" laneDensity="0.30" occupancy="0.15" waitingTime="0.00" timeLoss="0.98" speed="23.05" speedRelative="1.18" departed="0" arrived="0" entered="3" left="0" laneChangedFrom="0" laneChangedTo="0"/>
    </interval>
    <interval begin="120.00" end="180.00" id="dump_60">
        <edge id="1/1to2/1" sampledSeconds="786.18" traveltime="79.43" overlapTraveltime="79.65" density="13.34" laneDensity="6.67" occupancy="3.32" waitingTime="30.00" timeLoss="171.16" speed="12.39" speedRelative="0.63" departed="30" arrived="0" entered="0" left="22" laneChangedFrom="16" laneChangedTo="16"/>
        <edge id="2/1to3/1" sampledSeconds="1696.82" traveltime="65.09" overlapTraveltime="65.42" density="28.80" laneDensity="14.40" occupancy="7.17" waitingTime="0.00" timeLoss="91.52" speed="15.09" speedRelative="0.77" departed="0" arrived="0" entered="22" left="25" laneChangedFrom="10" laneChangedTo="10"/>
        <edge id="3/1to4/1" sampledSeconds="1624.66" traveltime="67.14" overlapTraveltime="67.47" density="27.57" laneDensity="13.79" occupancy="6.86" waitingTime="0.00" timeLoss="103.18" speed="14.63" speedRelative="0.75" departed="0" arrived="0" entered="25" left="17" laneChangedFrom="17" laneChangedTo="17"/>
        <edge id="4/1to5/1" sampledSeconds="404.82" traveltime="62.70" overlapTraveltime="63.02" density="6.87" laneDensity="3.43" occupancy="1.71" waitingTime="0.00" timeLoss="18.51" speed="15.66" speedRelative="0.80" departed="0" arrived="0" entered="17" left="0" laneChangedFrom="3" laneChangedTo="3"/>
        <edge id="5/1to6/1" sampledSeconds="706.67" traveltime="66.11" overlapTraveltime="66.26" density="11.99" laneDensity="6.00" occupancy="2.98" waitingTime="30.00" timeLoss="189.61" speed="14.90" speedRelative="0.76" departed="30" arrived="0" entered="0" left="27" laneChangedFrom="18" laneChangedTo="18"/>
        <edge id="6/1to7/1" sampledSeconds="1492.04" traveltime="55.31" overlapTraveltime="55.60" density="25.32" laneDensity="12.66" occupancy="6.30" waitingTime="0.00" timeLoss="118.59" speed="17.75" speedRelative="0.91" departed="0" arrived="0" entered="27" left="25" laneChangedFrom="15" laneChangedTo="15"/>
        <edge id="7/1to8/1" sampledSeconds="1625.18" traveltime="59.41" overlapTraveltime="59.72" density="27.58" laneDensity="13.79" occupancy="6.86" waitingTime="0.00" timeLoss="208.31" speed="16.53" speedRelative="0.84" departed="0" arrived="0" entered="25" left="24" laneChangedFrom="13" laneChangedTo="13"/>
        <edge id="8/1to9/1" sampledSeconds="589.01" traveltime="54.08" overlapTraveltime="54.33" density="10.00" laneDensity="5.00" occupancy="2.48" waitingTime="0.00" timeLoss="56.79" speed="18.17" speedRelative="0.93" departed="0" arrived="0" entered="24" left="4" laneChangedFrom="3" laneChangedTo="3"/>
        <edge id="9/1to10/1" sampledSeconds="100.40" traveltime="42.25" overlapTraveltime="42.47" density="1.70" laneDensity="0.85" occupancy="0.42" waitingTime="0.00" timeLoss="2.45" speed="23.24" speedRelative="1.19" departed="0" arrived="0" entered="4" left="0" laneChangedFrom="0" laneChangedTo="0"/>
    </interval>
    <interval begin="180.00" end="240.00" id="dump_60">
        <edge id="1/1to2/1" sampledSeconds="1117.25" traveltime="73.92" overlapTraveltime="74.24" density="18.96" laneDensity="9.48" occupancy="4.72" waitingTime="28.00" timeLoss="184.98" speed="13.30" speedRelative="0.68" departed="30" arrived="0" entered="3" left="28" laneChangedFrom="17" laneChangedTo="17"/>
        <edge id="10/1to1/1" sampledSeconds="146.64" traveltime="42.54" overlapTraveltime="42.75" density="2.49" laneDensity="1.24" occupancy="0.62" waitingTime="0.00" timeLoss="4.17" speed="23.09" speedRelative="1.18" departed="0" arrived="0" entered="4" left="3" laneChangedFrom="2" laneChangedTo="2"/>
        <edge id="2/1to3/1" sampledSeconds="1609.37" traveltime="66.58" overlapTraveltime="66.91" density="27.31" laneDensity="13.66" occupancy="6.79" waitingTime="0.00" timeLoss="105.09" speed="14.75" speedRelative="0.75" departed="0" arrived="0" entered="28" left="23" laneChangedFrom="20" laneChangedTo="20"/>
        <edge id="3/1to4/1" sampledSeconds="1797.81" traveltime="66.31" overlapTraveltime="66.66" density="30.51" laneDensity="15.26" occupancy="7.59" waitingTime="0.00" timeLoss="120.27" speed="14.81" speedRelative="0.76" departed="0" arrived="0" entered="23" left="31" laneChangedFrom="13" laneChangedTo="13"/>
        <edge id="4/1to5/1" sampledSeconds="1464.86" traveltime="65.74" overlapTraveltime="66.10" density="24.86" laneDensity="12.43" occupancy="6.18" waitingTime="0.00" timeLoss="81.15" speed="14.93" speedRelative="0.76" departed="0" arrived="0" entered="31" left="15" laneChangedFrom="17" laneChangedTo="17"/>
        <edge id="5/1to6/1" sampledSeconds="1209.18" traveltime="65.46" overlapTraveltime="65.74" density="20.52" laneDensity="10.26" occupancy="5.07" waitingTime="16.00" timeLoss="189.27" speed="15.02" speedRelative="0.77" departed="21" arrived="0" entered="14" left="16" laneChangedFrom="19" laneChangedTo="19"/>
        <edge id="6/1to7/1" sampledSeconds="1282.10" traveltime="52.77" overlapTraveltime="53.04" density="21.76" laneDensity="10.88" occupancy="5.41" waitingTime="0.00" timeLoss="105.60" speed="18.61" speedRelative="0.95" departed="0" arrived="0" entered="16" left="30" laneChangedFrom="17" laneChangedTo="17"/>
        <edge id="7/1to8/1" sampledSeconds="1601.55" traveltime="55.37" overlapTraveltime="55.65" density="27.18" laneDensity="13.59" occupancy="6.76" waitingTime="0.00" timeLoss="151.08" speed="17.74" speedRelative="0.90" departed="0" arrived="0" entered="29" left="25" laneChangedFrom="16" laneChangedTo="16"/>
        <edge id="8/1to9/1" sampledSeconds="1675.80" traveltime="59.60" overlapTraveltime="59.89" density="28.44" laneDensity="14.22" occupancy="7.08" waitingTime="0.00" timeLoss="215.51" speed="16.48" speedRelative="0.84" departed="0" arrived="0" entered="25" left="18" laneChangedFrom="10" laneChangedTo="10"/>
        <edge id="9/1to10/1" sampledSeconds="549.85" traveltime="53.22" overlapTraveltime="53.48" density="9.33" laneDensity="4.67" occupancy="2.32" waitingTime="0.00" timeLoss="53.63" speed="18.46" speedRelative="0.94" departed="0" arrived="0" entered="18" left="4" laneChangedFrom="3" laneChangedTo="3"/>
    </interval>
    <interval begin="240.00" end="300.00" id="dump_60">
        <edge id="1/1to2/1" sampledSeconds="1444.60" traveltime="68.98" overlapTraveltime="69.32" density="24.52" laneDensity="12.26" occupancy="6.05" waitingTime="19.00" timeLoss="203.62" speed="14.24" speedRelative="0.73" departed="24" arrived="0" entered="3" left="19" laneChangedFrom="17" laneChangedTo="17"/>
        <edge id="10/1to1/1" sampledSeconds="583.91" traveltime="51.17" overlapTraveltime="51.43" density="9.91" laneDensity="4.95" occupancy="2.46" waitingTime="0.00" timeLoss="44.55" speed="19.19" speedRelative="0.98" departed="0" arrived="0" entered="20" left="3" laneChangedFrom="7" laneChangedTo="7"/>
        <edge id="2/1to3/1" sampledSeconds="1715.90" traveltime="66.23" overlapTraveltime="66.57" density="29.12" laneDensity="14.56" occupancy="7.25" waitingTime="0.00" timeLoss="113.59" speed="14.83" speedRelative="0.76" departed="0" arrived="0" entered="19" left="27" laneChangedFrom="19" laneChangedTo="19"/>
        <edge id="3/1to4/1" sampledSeconds="1532.95" traveltime="66.27" overlapTraveltime="66.59" density="26.02" laneDensity="13.01" occupancy="6.47" waitingTime="0.00" timeLoss="109.05" speed="14.82" speedRelative="0.76" departed="0" arrived="0" entered="27" left="23" laneChangedFrom="19" laneChangedTo="19"/>
        <edge id="4/1to5/1" sampledSeconds="1877.78" traveltime="66.86" overlapTraveltime="67.25" density="31.87" laneDensity="15.93" occupancy="7.93" waitingTime="0.00" timeLoss="135.71" speed="14.68" speedRelative="0.75" departed="0" arrived="0" entered="23" left="25" laneChangedFrom="17" laneChangedTo="17"/>
        <edge id="5/1to6/1" sampledSeconds="2430.89" traveltime="66.19" overlapTraveltime="66.51" density="41.25" laneDensity="20.63" occupancy="10.24" waitingTime="6.00" timeLoss="358.83" speed="14.84" speedRelative="0.76" departed="13" arrived="0" entered="26" left="28" laneChangedFrom="33" laneChangedTo="33"/>
        <edge id="6/1to7/1" sampledSeconds="970.61" traveltime="60.00" overlapTraveltime="60.31" density="16.47" laneDensity="8.24" occupancy="4.09" waitingTime="0.00" timeLoss="76.25" speed="16.37" speedRelative="0.84" departed="0" arrived="0" entered="28" left="12" laneChangedFrom="13" laneChangedTo="13"/>
        <edge id="7/1to8/1" sampledSeconds="1127.77" traveltime="53.52" overlapTraveltime="53.79" density="19.14" laneDensity="9.57" occupancy="4.76" waitingTime="0.00" timeLoss="88.26" speed="18.35" speedRelative="0.94" departed="0" arrived="0" entered="13" left="30" laneChangedFrom="12" laneChangedTo="12"/>
        <edge id="8/1to9/1" sampledSeconds="1805.40" traveltime="55.36" overlapTraveltime="55.67" density="30.64" laneDensity="15.32" occupancy="7.62" waitingTime="0.00" timeLoss="191.41" speed="17.73" speedRelative="0.90" departed="0" arrived="0" entered="30" left="32" laneChangedFrom="15" laneChangedTo="15"/>
        <edge id="9/1to10/1" sampledSeconds="1596.48" traveltime="58.77" overlapTraveltime="59.05" density="27.09" laneDensity="13.55" occupancy="6.74" waitingTime="0.00" timeLoss="188.04" speed="16.72" speedRelative="0.85" departed="0" arrived="0" entered="32" left="20" laneChangedFrom="15" laneChangedTo="15"/>
    </interval>
    <interval begin="300.00" end="360.00" id="dump_60">
        <edge id="1/1to2/1" sampledSeconds="2261.41" traveltime="66.64" overlapTraveltime="66.98" density="38.38" laneDensity="19.19" occupancy="9.50" waitingTime="10.00" timeLoss="349.45" speed="14.74" speedRelative="0.75" departed="18" arrived="0" entered="19" left="25" laneChangedFrom="26" laneChangedTo="26"/>
        <edge id="10/1to1/1" sampledSeconds="1450.47" traveltime="56.14" overlapTraveltime="56.45" density="24.62" laneDensity="12.31" occupancy="6.12" waitingTime="0.00" timeLoss="124.46" speed="17.49" speedRelative="0.89" departed="0" arrived="0" entered="32" left="19" laneChangedFrom="15" laneChangedTo="15"/>
        <edge id="2/1to3/1" sampledSeconds="1256.17" traveltime="65.34" overlapTraveltime="65.66" density="21.32" laneDensity="10.66" occupancy="5.30" waitingTime="0.00" timeLoss="112.70" speed="15.03" speedRelative="0.77" departed="0" arrived="0" entered="25" left="20" laneChangedFrom="9" laneChangedTo="9"/>
        <edge id="3/1to4/1" sampledSeconds="1767.78" traveltime="66.93" overlapTraveltime="67.26" density="30.00" laneDensity="15.00" occupancy="7.47" waitingTime="0.00" timeLoss="140.20" speed="14.68" speedRelative="0.75" departed="0" arrived="0" entered="20" left="21" laneChangedFrom="21" laneChangedTo="21"/>
        <edge id="4/1to5/1" sampledSeconds="1534.61" traveltime="67.20" overlapTraveltime="67.56" density="26.04" laneDensity="13.02" occupancy="6.48" waitingTime="0.00" timeLoss="128.72" speed="14.61" speedRelative="0.75" departed="0" arrived="0" entered="21" left="25" laneChangedFrom="17" laneChangedTo="17"/>
        <edge id="5/1to6/1" sampledSeconds="2803.80" traveltime="70.28" overlapTraveltime="70.62" density="47.58" laneDensity="23.79" occupancy="11.82" waitingTime="9.00" timeLoss="464.00" speed="13.98" speedRelative="0.71" departed="17" arrived="0" entered="25" left="39" laneChangedFrom="24" laneChangedTo="24"/>
        <edge id="6/1to7/1" sampledSeconds="2232.01" traveltime="65.04" overlapTraveltime="65.35" density="37.88" laneDensity="18.94" occupancy="9.43" waitingTime="0.00" timeLoss="293.82" speed="15.10" speedRelative="0.77" departed="0" arrived="0" entered="39" left="26" laneChangedFrom="15" laneChangedTo="15"/>
        <edge id="7/1to8/1" sampledSeconds="898.01" traveltime="60.17" overlapTraveltime="60.47" density="15.24" laneDensity="7.62" occupancy="3.79" waitingTime="0.00" timeLoss="75.27" speed="16.32" speedRelative="0.83" departed="0" arrived="0" entered="25" left="13" laneChangedFrom="8" laneChangedTo="8"/>
        <edge id="8/1to9/1" sampledSeconds="957.17" traveltime="54.19" overlapTraveltime="54.47" density="16.24" laneDensity="8.12" occupancy="4.04" waitingTime="0.00" timeLoss="66.35" speed="18.12" speedRelative="0.92" departed="0" arrived="0" entered="13" left="30" laneChangedFrom="9" laneChangedTo="9"/>
        <edge id="9/1to10/1" sampledSeconds="2003.96" traveltime="57.72" overlapTraveltime="58.02" density="34.01" laneDensity="17.00" occupancy="8.46" waitingTime="0.00" timeLoss="282.48" speed="17.01" speedRelative="0.87" departed="0" arrived="0" entered="30" left="32" laneChangedFrom="14" laneChangedTo="14"/>
    </interval>
    <interval begin="360.00" end="420.00" id="dump_60">
        <edge id="1/1to2/1" sampledSeconds="2777.08" traveltime="66.59" overlapTraveltime="66.93" density="47.13" laneDensity="23.56" occupancy="11.69" waitingTime="13.00" timeLoss="449.11" speed="14.75" speedRelative="0.75" departed="16" arrived="0" entered="32" left="38" laneChangedFrom="13" laneChangedTo="13"/>
        <edge id="10/1to1/1" sampledSeconds="2021.31" traveltime="57.42" overlapTraveltime="57.75" density="34.30" laneDensity="17.15" occupancy="8.53" waitingTime="0.00" timeLoss="267.34" speed="17.09" speedRelative="0.87" departed="0" arrived="0" entered="29" left="32" laneChangedFrom="16" laneChangedTo="16"/>
        <edge id="2/1to3/1" sampledSeconds="2245.89" traveltime="69.01" overlapTraveltime="69.35" density="38.11" laneDensity="19.06" occupancy="9.49" waitingTime="0.00" timeLoss="392.30" speed="14.23" speedRelative="0.73" departed="0" arrived="0" entered="38" left="22" laneChangedFrom="12" laneChangedTo="12"/>
        <edge id="3/1to4/1" sampledSeconds="1244.55" traveltime="65.98" overlapTraveltime="66.35" density="21.12" laneDensity="10.56" occupancy="5.25" waitingTime="0.00" timeLoss="106.35" speed="14.88" speedRelative="0.76" departed="0" arrived="0" entered="22" left="25" laneChangedFrom="10" laneChangedTo="10"/>
        <edge id="4/1to5/1" sampledSeconds="1787.18" traveltime="67.57" overlapTraveltime="67.97" density="30.33" laneDensity="15.16" occupancy="7.54" waitingTime="0.00" timeLoss="168.26" speed="14.52" speedRelative="0.74" departed="0" arrived="0" entered="25" left="25" laneChangedFrom="23" laneChangedTo="23"/>
        <edge id="5/1to6/1" sampledSeconds="2961.94" traveltime="73.30" overlapTraveltime="73.66" density="50.27" laneDensity="25.13" occupancy="12.46" waitingTime="10.00" timeLoss="596.34" speed="13.40" speedRelative="0.68" departed="19" arrived="0" entered="25" left="39" laneChangedFrom="33" laneChangedTo="33"/>
        <edge id="6/1to7/1" sampledSeconds="2463.99" traveltime="67.23" overlapTraveltime="67.57" density="41.82" laneDensity="20.91" occupancy="10.39" waitingTime="0.00" timeLoss="335.44" speed="14.61" speedRelative="0.75" departed="0" arrived="0" entered="39" left="40" laneChangedFrom="21" laneChangedTo="21"/>
        <edge id="7/1to8/1" sampledSeconds="1986.83" traveltime="62.15" overlapTraveltime="62.45" density="33.72" laneDensity="16.86" occupancy="8.39" waitingTime="0.00" timeLoss="198.66" speed="15.81" speedRelative="0.81" departed="0" arrived="0" entered="41" left="20" laneChangedFrom="14" laneChangedTo="14"/>
        <edge id="8/1to9/1" sampledSeconds="880.53" traveltime="57.43" overlapTraveltime="57.73" density="14.94" laneDensity="7.47" occupancy="3.72" waitingTime="0.00" timeLoss="41.57" speed="17.10" speedRelative="0.87" departed="0" arrived="0" entered="20" left="11" laneChangedFrom="6" laneChangedTo="6"/>
        <edge id="9/1to10/1" sampledSeconds="869.85" traveltime="56.29" overlapTraveltime="56.60" density="14.76" laneDensity="7.38" occupancy="3.66" waitingTime="0.00" timeLoss="78.43" speed="17.44" speedRelative="0.89" departed="0" arrived="0" entered="11" left="29" laneChangedFrom="12" laneChangedTo="12"/>
    </interval>
    <interval begin="420.00" end="480.00" id="dump_60">
        <edge id="1/1to2/1" sampledSeconds="3351.66" traveltime="67.66" overlapTraveltime="68.01" density="56.88" laneDensity="28.44" occupancy="14.13" waitingTime="7.00" timeLoss="602.36" speed="14.51" speedRelative="0.74" departed="15" arrived="0" entered="28" left="50" laneChangedFrom="13" laneChangedTo="13"/>
        <edge id="10/1to1/1" sampledSeconds="820.12" traveltime="58.06" overlapTraveltime="58.41" density="13.92" laneDensity="6.96" occupancy="3.45" waitingTime="0.00" timeLoss="83.06" speed="16.90" speedRelative="0.86" departed="0" arrived="0" entered="10" left="28" laneChangedFrom="11" laneChangedTo="11"/>
        <edge id="2/1to3/1" sampledSeconds="2703.71" traveltime="67.65" overlapTraveltime="67.98" density="45.88" laneDensity="22.94" occupancy="11.40" waitingTime="0.00" timeLoss="499.11" speed="14.52" speedRelative="0.74" departed="0" arrived="0" entered="50" left="42" laneChangedFrom="15" laneChangedTo="15"/>
        <edge id="3/1to4/1" sampledSeconds="2063.81" traveltime="66.66" overlapTraveltime="67.00" density="35.02" laneDensity="17.51" occupancy="8.72" waitingTime="0.00" timeLoss="306.03" speed="14.73" speedRelative="0.75" departed="0" arrived="0" entered="42" left="16" laneChangedFrom="16" laneChangedTo="16"/>
        <edge id="4/1to5/1" sampledSeconds="1301.74" traveltime="67.65" overlapTraveltime="68.06" density="22.09" laneDensity="11.05" occupancy="5.49" waitingTime="0.00" timeLoss="125.46" speed="14.50" speedRelative="0.74" departed="0" arrived="0" entered="15" left="27" laneChangedFrom="25" laneChangedTo="25"/>
        <edge id="5/1to6/1" sampledSeconds="3223.73" traveltime="71.24" overlapTraveltime="71.61" density="54.71" laneDensity="27.35" occupancy="13.60" waitingTime="14.00" timeLoss="676.53" speed="13.78" speedRelative="0.70" departed="22" arrived="0" entered="27" left="43" laneChangedFrom="34" laneChangedTo="34"/>
        <edge id="6/1to7/1" sampledSeconds="2849.28" traveltime="70.35" overlapTraveltime="70.72" density="48.35" laneDensity="24.18" occupancy="12.03" waitingTime="0.00" timeLoss="506.90" speed="13.96" speedRelative="0.71" departed="0" arrived="0" entered="43" left="35" laneChangedFrom="18" laneChangedTo="18"/>
        <edge id="7/1to8/1" sampledSeconds="2222.77" traveltime="66.08" overlapTraveltime="66.41" density="37.72" laneDensity="18.86" occupancy="9.37" waitingTime="0.00" timeLoss="261.35" speed="14.86" speedRelative="0.76" departed="0" arrived="0" entered="34" left="40" laneChangedFrom="14" laneChangedTo="14"/>
        <edge id="8/1to9/1" sampledSeconds="1740.78" traveltime="63.07" overlapTraveltime="63.36" density="29.54" laneDensity="14.77" occupancy="7.35" waitingTime="0.00" timeLoss="204.22" speed="15.58" speedRelative="0.79" departed="0" arrived="0" entered="40" left="20" laneChangedFrom="13" laneChangedTo="13"/>
        <edge id="9/1to10/1" sampledSeconds="941.98" traveltime="57.96" overlapTraveltime="58.26" density="15.99" laneDensity="7.99" occupancy="3.98" waitingTime="0.00" timeLoss="56.18" speed="16.94" speedRelative="0.86" departed="0" arrived="0" entered="20" left="10" laneChangedFrom="11" laneChangedTo="11"/>
    </interval>
    <interval begin="480.00" end="540.00" id="dump_60">
        <edge id="1/1to2/1" sampledSeconds="2314.48" traveltime="71.49" overlapTraveltime="71.85" density="39.28" laneDensity="19.64" occupancy="9.71" waitingTime="17.00" timeLoss="395.39" speed="13.74" speedRelative="0.70" departed="24" arrived="0" entered="10" left="42" laneChangedFrom="19" laneChangedTo="19"/>
        <edge id="10/1to1/1" sampledSeconds="1000.26" traveltime="58.00" overlapTraveltime="58.31" density="16.97" laneDensity="8.49" occupancy="4.22" waitingTime="0.00" timeLoss="73.55" speed="16.93" speedRelative="0.86" departed="0" arrived="0" entered="20" left="10" laneChangedFrom="18" laneChangedTo="18"/>
        <edge id="2/1to3/1" sampledSeconds="3431.26" traveltime="69.65" overlapTraveltime="69.99" density="58.23" laneDensity="29.12" occupancy="14.50" waitingTime="0.00" timeLoss="711.43" speed="14.10" speedRelative="0.72" departed="0" arrived="0" entered="41" left="39" laneChangedFrom="17" laneChangedTo="17"/>
        <edge id="3/1to4/1" sampledSeconds="2522.94" traveltime="64.53" overlapTraveltime="64.86" density="42.82" laneDensity="21.41" occupancy="10.64" waitingTime="0.00" timeLoss="357.75" speed="15.22" speedRelative="0.78" departed="0" arrived="0" entered="39" left="44" laneChangedFrom="18" laneChangedTo="18"/>
        <edge id="4/1to5/1" sampledSeconds="1961.92" traveltime="67.88" overlapTraveltime="68.26" density="33.29" laneDensity="16.65" occupancy="8.28" waitingTime="0.00" timeLoss="321.75" speed="14.46" speedRelative="0.74" departed="0" arrived="0" entered="45" left="14" laneChangedFrom="14" laneChangedTo="14"/>
        <edge id="5/1to6/1" sampledSeconds="3026.90" traveltime="68.20" overlapTraveltime="68.54" density="51.37" laneDensity="25.68" occupancy="12.75" waitingTime="18.00" timeLoss="653.99" speed="14.40" speedRelative="0.73" departed="22" arrived="0" entered="14" left="47" laneChangedFrom="40" laneChangedTo="40"/>
        <edge id="6/1to7/1" sampledSeconds="3132.58" traveltime="71.85" overlapTraveltime="72.21" density="53.16" laneDensity="26.58" occupancy="13.23" waitingTime="0.00" timeLoss="652.37" speed="13.67" speedRelative="0.70" departed="0" arrived="0" entered="47" left="37" laneChangedFrom="21" laneChangedTo="21"/>
        <edge id="7/1to8/1" sampledSeconds="2816.41" traveltime="70.28" overlapTraveltime="70.62" density="47.80" laneDensity="23.90" occupancy="11.90" waitingTime="0.00" timeLoss="521.44" speed="13.98" speedRelative="0.71" departed="0" arrived="0" entered="38" left="24" laneChangedFrom="9" laneChangedTo="9"/>
        <edge id="8/1to9/1" sampledSeconds="2119.26" traveltime="65.28" overlapTraveltime="65.61" density="35.97" laneDensity="17.98" occupancy="8.95" waitingTime="0.00" timeLoss="222.89" speed="15.05" speedRelative="0.77" departed="0" arrived="0" entered="24" left="36" laneChangedFrom="18" laneChangedTo="18"/>
        <edge id="9/1to10/1" sampledSeconds="1466.37" traveltime="61.84" overlapTraveltime="62.14" density="24.89" laneDensity="12.44" occupancy="6.18" waitingTime="0.00" timeLoss="160.66" speed="15.88" speedRelative="0.81" departed="0" arrived="0" entered="36" left="20" laneChangedFrom="6" laneChangedTo="6"/>
    </interval>
    <interval begin="540.00" end="600.00" id="dump_60">
        <edge id="1/1to2/1" sampledSeconds="2697.55" traveltime="69.10" overlapTraveltime="69.43" density="45.78" laneDensity="22.89" occupancy="11.35" waitingTime="11.00" timeLoss="414.18" speed="14.22" speedRelative="0.73" departed="20" arrived="0" entered="20" left="33" laneChangedFrom="24" laneChangedTo="24"/>
        <edge id="10/1to1/1" sampledSeconds="1276.84" traveltime="60.34" overlapTraveltime="60.68" density="21.67" laneDensity="10.83" occupancy="5.38" waitingTime="0.00" timeLoss="114.07" speed="16.27" speedRelative="0.83" departed="0" arrived="0" entered="28" left="20" laneChangedFrom="18" laneChangedTo="18"/>
        <edge id="2/1to3/1" sampledSeconds="2512.61" traveltime="72.73" overlapTraveltime="73.09" density="42.64" laneDensity="21.32" occupancy="10.60" waitingTime="0.00" timeLoss="455.77" speed="13.51" speedRelative="0.69" departed="0" arrived="0" entered="34" left="50" laneChangedFrom="10" laneChangedTo="10"/>
        <edge id="3/1to4/1" sampledSeconds="3053.12" traveltime="67.16" overlapTraveltime="67.50" density="51.81" laneDensity="25.91" occupancy="12.89" waitingTime="0.00" timeLoss="585.47" speed="14.62" speedRelative="0.75" departed="0" arrived="0" entered="50" left="39" laneChangedFrom="14" laneChangedTo="14"/>
        <edge id="4/1to5/1" sampledSeconds="2690.69" traveltime="67.34" overlapTraveltime="67.71" density="45.66" laneDensity="22.83" occupancy="11.36" waitingTime="0.00" timeLoss="461.03" speed="14.58" speedRelative="0.74" departed="0" arrived="0" entered="38" left="39" laneChangedFrom="12" laneChangedTo="12"/>
        <edge id="5/1to6/1" sampledSeconds="3004.34" traveltime="68.84" overlapTraveltime="69.18" density="50.99" laneDensity="25.49" occupancy="12.66" waitingTime="8.00" timeLoss="648.45" speed="14.27" speedRelative="0.73" departed="13" arrived="0" entered="39" left="37" laneChangedFrom="27" laneChangedTo="27"/>
        <edge id="6/1to7/1" sampledSeconds="3475.25" traveltime="72.64" overlapTraveltime="73.02" density="58.98" laneDensity="29.49" occupancy="14.68" waitingTime="0.00" timeLoss="888.48" speed="13.52" speedRelative="0.69" departed="0" arrived="0" entered="36" left="50" laneChangedFrom="10" laneChangedTo="10"/>