<?xml version="1.0" encoding="UTF-8"?>

<!-- generated on Thu Apr 20 14:55:45 2017 by SUMO Version dev-SVN-r23985
<?xml version="1.0" encoding="UTF-8"?>

<configuration xmlns:xsi="http://www.w3.org/2001/XMLSchema-instance" xsi:noNamespaceSchemaLocation="http://sumo.dlr.de/xsd/sumoConfiguration.xsd">

    <input>
        <net-file value="net.net.xml"/>
        <additional-files value="input_districts.taz.xml,input_trips.trips.xml"/>
    </input>

    <output>
        <vehroute-output value="vehroutes.xml"/>
    </output>

    <report>
        <xml-validation value="never"/>
        <duration-log.disable value="true"/>
        <no-step-log value="true"/>
    </report>

</configuration>
-->

<routes xmlns:xsi="http://www.w3.org/2001/XMLSchema-instance" xsi:noNamespaceSchemaLocation="http://sumo.dlr.de/xsd/routes_file.xsd">
    <vehicle id="0" type="passenger" depart="0.00" fromTaz="1" toTaz="2" arrival="96.00">
        <routeDistribution>
            <route edges="beg2left left left2end end"/>
        </routeDistribution>
    </vehicle>

    <vehicle id="2" depart="40.00" fromTaz="1" toTaz="2" arrival="139.00">
        <routeDistribution>
            <route edges="beg2left left left2end end"/>
        </routeDistribution>
    </vehicle>

    <vehicle id="1" type="bus" depart="20.00" fromTaz="1" toTaz="2" arrival="144.00">
        <routeDistribution>
            <route edges="beg middle end"/>
        </routeDistribution>
    </vehicle>

    <vehicle id="3" depart="60.00" fromTaz="1" toTaz="2" arrival="160.00">
        <routeDistribution>
            <route edges="beg2left left left2end end"/>
        </routeDistribution>
    </vehicle>

    <vehicle id="4" depart="80.00" fromTaz="1" toTaz="2" arrival="180.00">
        <routeDistribution>
            <route edges="beg2left left left2end end"/>
        </routeDistribution>
    </vehicle>

    <vehicle id="5" depart="100.00" fromTaz="1" toTaz="2" arrival="200.00">
        <routeDistribution>
            <route edges="beg2left left left2end end"/>
        </routeDistribution>
    </vehicle>

    <vehicle id="6" depart="120.00" fromTaz="1" toTaz="2" arrival="220.00">
        <routeDistribution>
            <route edges="beg2left left left2end end"/>
        </routeDistribution>
    </vehicle>

    <vehicle id="7" depart="140.00" fromTaz="1" toTaz="2" arrival="240.00">
        <routeDistribution>
            <route edges="beg2left left left2end end"/>
        </routeDistribution>
    </vehicle>

    <vehicle id="8" depart="160.00" fromTaz="1" toTaz="2" arrival="260.00">
        <routeDistribution>
            <route edges="beg2left left left2end end"/>
        </routeDistribution>
    </vehicle>

    <vehicle id="9" depart="180.00" fromTaz="1" toTaz="2" arrival="279.00">
        <routeDistribution>
            <route edges="beg2left left left2end end"/>
        </routeDistribution>
    </vehicle>

</routes>
