<?xml version="1.0"?>

<!-- generated on 11/03/08 14:22:24 by SUMO sumo Version dev-SVN-r6273
<configuration>

   <input>
      <net-file>three_split.net.xml</net-file>
      <additional-files>input_routes.rou.xml,input_additional.add.xml</additional-files>
   </input>

   <output>
      <vehroute-output>vehroutes.xml</vehroute-output>
   </output>

   <time>
      <begin>0</begin>
   </time>

   <processing>
      <no-duration-log>true</no-duration-log>
      <no-step-log>true</no-step-log>
   </processing>

   <routing>
      <device.routing.probability>1</device.routing.probability>
   </routing>

</configuration>
-->

<routes>
   <vehicle id="emitter_0_0" depart="0" arrival="72">
      <route>beg middle end rend</route>
   </vehicle>

   <vehicle id="emitter_20_1" depart="20" arrival="93">
      <route>beg middle end rend</route>
   </vehicle>

   <vehicle id="emitter_40_2" depart="40" arrival="113">
      <route>beg middle end rend</route>
   </vehicle>

   <vehicle id="emitter_60_3" depart="60" arrival="132">
      <route>beg middle end rend</route>
   </vehicle>

   <vehicle id="emitter_80_4" depart="80" arrival="152">
      <route>beg middle end rend</route>
   </vehicle>

   <vehicle id="emitter_100_5" depart="100" arrival="172">
      <route>beg middle end rend</route>
   </vehicle>

   <vehicle id="emitter_120_6" depart="120" arrival="192">
      <route>beg middle end rend</route>
   </vehicle>

   <vehicle id="emitter_140_7" depart="140" arrival="213">
      <route>beg middle end rend</route>
   </vehicle>

   <vehicle id="emitter_160_8" depart="160" arrival="232">
      <route>beg middle end rend</route>
   </vehicle>

   <vehicle id="emitter_180_9" depart="180" arrival="252">
      <route>beg middle end rend</route>
   </vehicle>

</routes>
