<?xml version="1.0"?>

<!-- generated on 01/09/09 17:34:42 by SUMO sumo Version dev-SVN-r6603
<configuration>

   <input>
      <net-file>net.net.xml</net-file>
      <route-files>routes.rou.xml</route-files>
   </input>

   <output>
      <netstate-dump>netstate_dump.xml</netstate-dump>
   </output>

   <processing>
      <no-step-log>true</no-step-log>
   </processing>

   <traci_server>
      <remote-port>8803</remote-port>
      <penetration>1</penetration>
   </traci_server>

</configuration>
-->

<sumo-netstate>
   <timestep time="0.00">
      <edge id="e_m4">
         <lane id="e_m4_0">
            <vehicle id="veh0" pos="0.00" speed="10.00"/>
         </lane>
         <lane id="e_m4_1"/>
         <lane id="e_m4_2"/>
      </edge>
      <edge id="e_m5">
         <lane id="e_m5_0">
            <vehicle id="veh1" pos="0.00" speed="10.00"/>
         </lane>
         <lane id="e_m5_1"/>
         <lane id="e_m5_2"/>
      </edge>
   </timestep>
   <timestep time="1.00">
      <edge id="e_m4">
         <lane id="e_m4_0">
            <vehicle id="veh0" pos="10.00" speed="10.00"/>
         </lane>
         <lane id="e_m4_1"/>
         <lane id="e_m4_2"/>
      </edge>
      <edge id="e_m5">
         <lane id="e_m5_0">
            <vehicle id="veh1" pos="10.00" speed="10.00"/>
         </lane>
         <lane id="e_m5_1"/>
         <lane id="e_m5_2"/>
      </edge>
   </timestep>
   <timestep time="2.00">
      <edge id="e_m4">
         <lane id="e_m4_0">
            <vehicle id="veh0" pos="20.00" speed="10.00"/>
         </lane>
         <lane id="e_m4_1"/>
         <lane id="e_m4_2"/>
      </edge>
      <edge id="e_m5">
         <lane id="e_m5_0">
            <vehicle id="veh1" pos="20.00" speed="10.00"/>
         </lane>
         <lane id="e_m5_1"/>
         <lane id="e_m5_2"/>
      </edge>
   </timestep>
   <timestep time="3.00">
      <edge id="e_m4">
         <lane id="e_m4_0">
            <vehicle id="veh0" pos="30.00" speed="10.00"/>
         </lane>
         <lane id="e_m4_1"/>
         <lane id="e_m4_2"/>
      </edge>
      <edge id="e_m5">
         <lane id="e_m5_0">
            <vehicle id="veh1" pos="30.00" speed="10.00"/>
         </lane>
         <lane id="e_m5_1"/>
         <lane id="e_m5_2"/>
      </edge>
   </timestep>
   <timestep time="4.00">
      <edge id="e_m4">
         <lane id="e_m4_0">
            <vehicle id="veh0" pos="40.00" speed="10.00"/>
         </lane>
         <lane id="e_m4_1"/>
         <lane id="e_m4_2"/>
      </edge>
      <edge id="e_m5">
         <lane id="e_m5_0">
            <vehicle id="veh1" pos="40.00" speed="10.00"/>
         </lane>
         <lane id="e_m5_1"/>
         <lane id="e_m5_2"/>
      </edge>
   </timestep>
   <timestep time="5.00">
      <edge id="e_m4">
         <lane id="e_m4_0">
            <vehicle id="veh0" pos="50.00" speed="10.00"/>
         </lane>
         <lane id="e_m4_1"/>
         <lane id="e_m4_2"/>
      </edge>
      <edge id="e_m5">
         <lane id="e_m5_0">
            <vehicle id="veh1" pos="50.00" speed="10.00"/>
         </lane>
         <lane id="e_m5_1"/>
         <lane id="e_m5_2"/>
      </edge>
   </timestep>
   <timestep time="6.00">
      <edge id="e_m4">
         <lane id="e_m4_0">
            <vehicle id="veh0" pos="60.00" speed="10.00"/>
         </lane>
         <lane id="e_m4_1"/>
         <lane id="e_m4_2"/>
      </edge>
      <edge id="e_m5">
         <lane id="e_m5_0">
            <vehicle id="veh1" pos="60.00" speed="10.00"/>
         </lane>
         <lane id="e_m5_1"/>
         <lane id="e_m5_2"/>
      </edge>
   </timestep>
   <timestep time="7.00">
      <edge id="e_m4">
         <lane id="e_m4_0">
            <vehicle id="veh0" pos="70.00" speed="10.00"/>
         </lane>
         <lane id="e_m4_1"/>
         <lane id="e_m4_2"/>
      </edge>
      <edge id="e_m5">
         <lane id="e_m5_0">
            <vehicle id="veh1" pos="70.00" speed="10.00"/>
         </lane>
         <lane id="e_m5_1"/>
         <lane id="e_m5_2"/>
      </edge>
   </timestep>
   <timestep time="8.00">
      <edge id="e_m4">
         <lane id="e_m4_0">
            <vehicle id="veh0" pos="80.00" speed="10.00"/>
         </lane>
         <lane id="e_m4_1"/>
         <lane id="e_m4_2"/>
      </edge>
      <edge id="e_m5">
         <lane id="e_m5_0">
            <vehicle id="veh1" pos="80.00" speed="10.00"/>
         </lane>
         <lane id="e_m5_1"/>
         <lane id="e_m5_2"/>
      </edge>
   </timestep>
   <timestep time="9.00">
      <edge id="e_m4">
         <lane id="e_m4_0">
            <vehicle id="veh0" pos="90.00" speed="10.00"/>
         </lane>
         <lane id="e_m4_1"/>
         <lane id="e_m4_2"/>
      </edge>
      <edge id="e_m5">
         <lane id="e_m5_0">
            <vehicle id="veh1" pos="90.00" speed="10.00"/>
         </lane>
         <lane id="e_m5_1"/>
         <lane id="e_m5_2"/>
      </edge>
   </timestep>
   <timestep time="10.00">
      <edge id="e_m4">
         <lane id="e_m4_0">
            <vehicle id="veh0" pos="100.00" speed="10.00"/>
         </lane>
         <lane id="e_m4_1"/>
         <lane id="e_m4_2"/>
      </edge>
      <edge id="e_m5">
         <lane id="e_m5_0">
            <vehicle id="veh1" pos="100.00" speed="10.00"/>
         </lane>
         <lane id="e_m5_1"/>
         <lane id="e_m5_2"/>
      </edge>
   </timestep>
   <timestep time="11.00">
      <edge id="e_m4">
         <lane id="e_m4_0">
            <vehicle id="veh0" pos="110.00" speed="10.00"/>
         </lane>
         <lane id="e_m4_1"/>
         <lane id="e_m4_2"/>
      </edge>
      <edge id="e_m5">
         <lane id="e_m5_0">
            <vehicle id="veh1" pos="110.00" speed="10.00"/>
         </lane>
         <lane id="e_m5_1"/>
         <lane id="e_m5_2"/>
      </edge>
   </timestep>
   <timestep time="12.00">
      <edge id="e_m4">
         <lane id="e_m4_0">
            <vehicle id="veh0" pos="120.00" speed="10.00"/>
         </lane>
         <lane id="e_m4_1"/>
         <lane id="e_m4_2"/>
      </edge>
      <edge id="e_m5">
         <lane id="e_m5_0">
            <vehicle id="veh1" pos="120.00" speed="10.00"/>
         </lane>
         <lane id="e_m5_1"/>
         <lane id="e_m5_2"/>
      </edge>
   </timestep>
   <timestep time="13.00">
      <edge id="e_m4">
         <lane id="e_m4_0">
            <vehicle id="veh0" pos="130.00" speed="10.00"/>
         </lane>
         <lane id="e_m4_1"/>
         <lane id="e_m4_2"/>
      </edge>
      <edge id="e_m5">
         <lane id="e_m5_0">
            <vehicle id="veh1" pos="130.00" speed="10.00"/>
         </lane>
         <lane id="e_m5_1"/>
         <lane id="e_m5_2"/>
      </edge>
   </timestep>
   <timestep time="14.00">
      <edge id="e_m4">
         <lane id="e_m4_0">
            <vehicle id="veh0" pos="140.00" speed="10.00"/>
         </lane>
         <lane id="e_m4_1"/>
         <lane id="e_m4_2"/>
      </edge>
      <edge id="e_m5">
         <lane id="e_m5_0">
            <vehicle id="veh1" pos="140.00" speed="10.00"/>
         </lane>
         <lane id="e_m5_1"/>
         <lane id="e_m5_2"/>
      </edge>
   </timestep>
   <timestep time="15.00">
      <edge id="e_m4">
         <lane id="e_m4_0">
            <vehicle id="veh0" pos="150.00" speed="10.00"/>
         </lane>
         <lane id="e_m4_1"/>
         <lane id="e_m4_2"/>
      </edge>
      <edge id="e_m5">
         <lane id="e_m5_0">
            <vehicle id="veh1" pos="150.00" speed="10.00"/>
         </lane>
         <lane id="e_m5_1"/>
         <lane id="e_m5_2"/>
      </edge>
   </timestep>
   <timestep time="16.00">
      <edge id="e_m4">
         <lane id="e_m4_0">
            <vehicle id="veh0" pos="160.00" speed="10.00"/>
         </lane>
         <lane id="e_m4_1"/>
         <lane id="e_m4_2"/>
      </edge>
      <edge id="e_m5">
         <lane id="e_m5_0">
            <vehicle id="veh1" pos="160.00" speed="10.00"/>
         </lane>
         <lane id="e_m5_1"/>
         <lane id="e_m5_2"/>
      </edge>
   </timestep>
   <timestep time="17.00">
      <edge id="e_m4">
         <lane id="e_m4_0">
            <vehicle id="veh0" pos="170.00" speed="10.00"/>
         </lane>
         <lane id="e_m4_1"/>
         <lane id="e_m4_2"/>
      </edge>
      <edge id="e_m5">
         <lane id="e_m5_0">
            <vehicle id="veh1" pos="170.00" speed="10.00"/>
         </lane>
         <lane id="e_m5_1"/>
         <lane id="e_m5_2"/>
      </edge>
   </timestep>
   <timestep time="18.00">
      <edge id="e_m4">
         <lane id="e_m4_0">
            <vehicle id="veh0" pos="180.00" speed="10.00"/>
         </lane>
         <lane id="e_m4_1"/>
         <lane id="e_m4_2"/>
      </edge>
      <edge id="e_m5">
         <lane id="e_m5_0">
            <vehicle id="veh1" pos="180.00" speed="10.00"/>
         </lane>
         <lane id="e_m5_1"/>
         <lane id="e_m5_2"/>
      </edge>
   </timestep>
   <timestep time="19.00">
      <edge id="e_m4">
         <lane id="e_m4_0">
            <vehicle id="veh0" pos="190.00" speed="10.00"/>
         </lane>
         <lane id="e_m4_1"/>
         <lane id="e_m4_2"/>
      </edge>
      <edge id="e_m5">
         <lane id="e_m5_0">
            <vehicle id="veh1" pos="190.00" speed="10.00"/>
         </lane>
         <lane id="e_m5_1"/>
         <lane id="e_m5_2"/>
      </edge>
   </timestep>
   <timestep time="20.00">
      <edge id="e_m4">
         <lane id="e_m4_0">
            <vehicle id="veh0" pos="200.00" speed="10.00"/>
         </lane>
         <lane id="e_m4_1"/>
         <lane id="e_m4_2"/>
      </edge>
      <edge id="e_m5">
         <lane id="e_m5_0">
            <vehicle id="veh1" pos="200.00" speed="10.00"/>
         </lane>
         <lane id="e_m5_1"/>
         <lane id="e_m5_2"/>
      </edge>
   </timestep>
   <timestep time="21.00">
      <edge id="e_m4">
         <lane id="e_m4_0">
            <vehicle id="veh0" pos="210.00" speed="10.00"/>
         </lane>
         <lane id="e_m4_1"/>
         <lane id="e_m4_2"/>
      </edge>
      <edge id="e_m5">
         <lane id="e_m5_0">
            <vehicle id="veh1" pos="210.00" speed="10.00"/>
         </lane>
         <lane id="e_m5_1"/>
         <lane id="e_m5_2"/>
      </edge>
   </timestep>
   <timestep time="22.00">
      <edge id="e_m4">
         <lane id="e_m4_0">
            <vehicle id="veh0" pos="220.00" speed="10.00"/>
         </lane>
         <lane id="e_m4_1"/>
         <lane id="e_m4_2"/>
      </edge>
      <edge id="e_m5">
         <lane id="e_m5_0">
            <vehicle id="veh1" pos="220.00" speed="10.00"/>
         </lane>
         <lane id="e_m5_1"/>
         <lane id="e_m5_2"/>
      </edge>
   </timestep>
   <timestep time="23.00">
      <edge id="e_m4">
         <lane id="e_m4_0">
            <vehicle id="veh0" pos="230.00" speed="10.00"/>
         </lane>
         <lane id="e_m4_1"/>
         <lane id="e_m4_2"/>
      </edge>
      <edge id="e_m5">
         <lane id="e_m5_0">
            <vehicle id="veh1" pos="230.00" speed="10.00"/>
         </lane>
         <lane id="e_m5_1"/>
         <lane id="e_m5_2"/>
      </edge>
   </timestep>
   <timestep time="24.00">
      <edge id="e_m4">
         <lane id="e_m4_0">
            <vehicle id="veh0" pos="240.00" speed="10.00"/>
         </lane>
         <lane id="e_m4_1"/>
         <lane id="e_m4_2"/>
      </edge>
      <edge id="e_m5">
         <lane id="e_m5_0">
            <vehicle id="veh1" pos="240.00" speed="10.00"/>
         </lane>
         <lane id="e_m5_1"/>
         <lane id="e_m5_2"/>
      </edge>
   </timestep>
   <timestep time="25.00">
      <edge id="e_m4">
         <lane id="e_m4_0">
            <vehicle id="veh0" pos="250.00" speed="10.00"/>
         </lane>
         <lane id="e_m4_1"/>
         <lane id="e_m4_2"/>
      </edge>
      <edge id="e_m5">
         <lane id="e_m5_0">
            <vehicle id="veh1" pos="250.00" speed="10.00"/>
         </lane>
         <lane id="e_m5_1"/>
         <lane id="e_m5_2"/>
      </edge>
   </timestep>
</sumo-netstate>
