<?xml version="1.0" encoding="UTF-8"?>

<!-- generated on Fri Aug 28 09:47:33 2020 by Eclipse SUMO sumo Version v1_6_0+1817-2302c0012a
This data file and the accompanying materials
are made available under the terms of the Eclipse Public License v2.0
which accompanies this distribution, and is available at
http://www.eclipse.org/legal/epl-v20.html
SPDX-License-Identifier: EPL-2.0
<configuration xmlns:xsi="http://www.w3.org/2001/XMLSchema-instance" xsi:noNamespaceSchemaLocation="http://sumo.dlr.de/xsd/sumoConfiguration.xsd">

    <input>
        <net-file value="net.net.xml"/>
        <route-files value="input_routes.rou.xml"/>
    </input>

    <output>
        <write-license value="true"/>
        <tripinfo-output value="tripinfos.xml"/>
        <lanechange-output value="lanechanges.xml"/>
    </output>

    <processing>
        <lanechange.duration value="3"/>
        <default.speeddev value="0"/>
    </processing>

    <report>
        <xml-validation value="never"/>
        <xml-validation.routes value="never"/>
        <no-step-log value="true"/>
    </report>

</configuration>
-->

<tripinfos xmlns:xsi="http://www.w3.org/2001/XMLSchema-instance" xsi:noNamespaceSchemaLocation="http://sumo.dlr.de/xsd/tripinfo_file.xsd">
    <tripinfo id="main.0" depart="2.00" departLane="beg_1" departPos="0.00" departSpeed="13.89" departDelay="0.00" arrival="24.00" arrivalLane="end_0" arrivalPos="96.00" arrivalSpeed="13.89" duration="22.00" routeLength="300.00" waitingTime="0.00" waitingCount="0" stopTime="0.00" timeLoss="0.00" rerouteNo="0" devices="tripinfo_main.0" vType="t1" speedFactor="1.00" vaporized=""/>
    <tripinfo id="main.1" depart="3.00" departLane="beg_1" departPos="0.00" departSpeed="11.52" departDelay="0.00" arrival="26.00" arrivalLane="end_0" arrivalPos="96.00" arrivalSpeed="13.89" duration="23.00" routeLength="300.00" waitingTime="0.00" waitingCount="0" stopTime="0.00" timeLoss="0.54" rerouteNo="0" devices="tripinfo_main.1" vType="t1" speedFactor="1.00" vaporized=""/>
    <tripinfo id="main.2" depart="4.00" departLane="beg_1" departPos="0.00" departSpeed="9.02" departDelay="0.00" arrival="27.00" arrivalLane="end_0" arrivalPos="96.00" arrivalSpeed="13.89" duration="23.00" routeLength="300.00" waitingTime="0.00" waitingCount="0" stopTime="0.00" timeLoss="1.08" rerouteNo="0" devices="tripinfo_main.2" vType="t1" speedFactor="1.00" vaporized=""/>
    <tripinfo id="main.3" depart="5.00" departLane="beg_1" departPos="0.00" departSpeed="5.28" departDelay="0.00" arrival="29.00" arrivalLane="end_0" arrivalPos="96.00" arrivalSpeed="13.89" duration="24.00" routeLength="300.00" waitingTime="0.00" waitingCount="0" stopTime="0.00" timeLoss="1.62" rerouteNo="0" devices="tripinfo_main.3" vType="t1" speedFactor="1.00" vaporized=""/>
    <tripinfo id="main.4" depart="7.00" departLane="beg_1" departPos="0.00" departSpeed="6.77" departDelay="0.00" arrival="30.00" arrivalLane="end_0" arrivalPos="96.00" arrivalSpeed="13.89" duration="23.00" routeLength="300.00" waitingTime="0.00" waitingCount="0" stopTime="0.00" timeLoss="1.16" rerouteNo="0" devices="tripinfo_main.4" vType="t1" speedFactor="1.00" vaporized=""/>
    <tripinfo id="main.5" depart="9.00" departLane="beg_1" departPos="0.00" departSpeed="9.12" departDelay="1.00" arrival="32.00" arrivalLane="end_0" arrivalPos="96.00" arrivalSpeed="13.89" duration="23.00" routeLength="300.00" waitingTime="0.00" waitingCount="0" stopTime="0.00" timeLoss="0.70" rerouteNo="0" devices="tripinfo_main.5" vType="t1" speedFactor="1.00" vaporized=""/>
    <tripinfo id="main.6" depart="10.00" departLane="beg_1" departPos="0.00" departSpeed="5.43" departDelay="0.00" arrival="33.00" arrivalLane="end_0" arrivalPos="96.00" arrivalSpeed="13.89" duration="23.00" routeLength="300.00" waitingTime="0.00" waitingCount="0" stopTime="0.00" timeLoss="1.31" rerouteNo="0" devices="tripinfo_main.6" vType="t1" speedFactor="1.00" vaporized=""/>
    <tripinfo id="main.7" depart="12.00" departLane="beg_1" departPos="0.00" departSpeed="7.00" departDelay="0.00" arrival="35.00" arrivalLane="end_0" arrivalPos="96.00" arrivalSpeed="13.89" duration="23.00" routeLength="300.00" waitingTime="0.00" waitingCount="0" stopTime="0.00" timeLoss="0.93" rerouteNo="0" devices="tripinfo_main.7" vType="t1" speedFactor="1.00" vaporized=""/>
    <tripinfo id="main.8" depart="14.00" departLane="beg_1" departPos="0.00" departSpeed="9.43" departDelay="1.00" arrival="37.00" arrivalLane="end_0" arrivalPos="96.00" arrivalSpeed="13.89" duration="23.00" routeLength="300.00" waitingTime="0.00" waitingCount="0" stopTime="0.00" timeLoss="0.47" rerouteNo="0" devices="tripinfo_main.8" vType="t1" speedFactor="1.00" vaporized=""/>
    <tripinfo id="main.9" depart="15.00" departLane="beg_1" departPos="0.00" departSpeed="5.90" departDelay="1.00" arrival="38.00" arrivalLane="end_0" arrivalPos="96.00" arrivalSpeed="13.89" duration="23.00" routeLength="300.00" waitingTime="0.00" waitingCount="0" stopTime="0.00" timeLoss="1.18" rerouteNo="0" devices="tripinfo_main.9" vType="t1" speedFactor="1.00" vaporized=""/>
    <tripinfo id="main.10" depart="17.00" departLane="beg_1" departPos="0.00" departSpeed="7.70" departDelay="2.00" arrival="40.00" arrivalLane="end_0" arrivalPos="96.00" arrivalSpeed="13.89" duration="23.00" routeLength="300.00" waitingTime="0.00" waitingCount="0" stopTime="0.00" timeLoss="0.78" rerouteNo="0" devices="tripinfo_main.10" vType="t1" speedFactor="1.00" vaporized=""/>
    <tripinfo id="main.11" depart="18.00" departLane="beg_1" departPos="0.00" departSpeed="3.39" departDelay="2.00" arrival="42.00" arrivalLane="end_0" arrivalPos="96.00" arrivalSpeed="13.89" duration="24.00" routeLength="300.00" waitingTime="0.00" waitingCount="0" stopTime="0.00" timeLoss="1.91" rerouteNo="0" devices="tripinfo_main.11" vType="t1" speedFactor="1.00" vaporized=""/>
    <tripinfo id="main.12" depart="20.00" departLane="beg_1" departPos="0.00" departSpeed="3.38" departDelay="2.00" arrival="44.00" arrivalLane="end_0" arrivalPos="96.00" arrivalSpeed="13.89" duration="24.00" routeLength="300.00" waitingTime="0.00" waitingCount="0" stopTime="0.00" timeLoss="1.91" rerouteNo="0" devices="tripinfo_main.12" vType="t1" speedFactor="1.00" vaporized=""/>
    <tripinfo id="main.13" depart="22.00" departLane="beg_1" departPos="0.00" departSpeed="3.34" departDelay="2.00" arrival="46.00" arrivalLane="end_0" arrivalPos="96.00" arrivalSpeed="13.89" duration="24.00" routeLength="300.00" waitingTime="0.00" waitingCount="0" stopTime="0.00" timeLoss="1.93" rerouteNo="0" devices="tripinfo_main.13" vType="t1" speedFactor="1.00" vaporized=""/>
    <tripinfo id="main.14" depart="24.00" departLane="beg_1" departPos="0.00" departSpeed="3.21" departDelay="3.00" arrival="48.00" arrivalLane="end_0" arrivalPos="96.00" arrivalSpeed="13.89" duration="24.00" routeLength="300.00" waitingTime="0.00" waitingCount="0" stopTime="0.00" timeLoss="1.97" rerouteNo="0" devices="tripinfo_main.14" vType="t1" speedFactor="1.00" vaporized=""/>
    <tripinfo id="main.15" depart="26.00" departLane="beg_1" departPos="0.00" departSpeed="2.83" departDelay="4.00" arrival="50.00" arrivalLane="end_0" arrivalPos="96.00" arrivalSpeed="13.89" duration="24.00" routeLength="300.00" waitingTime="0.00" waitingCount="0" stopTime="0.00" timeLoss="2.11" rerouteNo="0" devices="tripinfo_main.15" vType="t1" speedFactor="1.00" vaporized=""/>
    <tripinfo id="merge.0" depart="30.00" departLane="beg_0" departPos="195.90" departSpeed="0.00" departDelay="0.00" arrival="55.00" arrivalLane="end_0" arrivalPos="96.00" arrivalSpeed="13.89" duration="25.00" routeLength="104.10" waitingTime="15.00" waitingCount="1" stopTime="0.00" timeLoss="17.19" rerouteNo="0" devices="tripinfo_merge.0" vType="t0" speedFactor="1.00" vaporized=""/>
    <tripinfo id="merge.1" depart="31.00" departLane="beg_0" departPos="188.40" departSpeed="0.00" departDelay="0.95" arrival="59.00" arrivalLane="end_0" arrivalPos="96.00" arrivalSpeed="13.89" duration="28.00" routeLength="111.60" waitingTime="15.00" waitingCount="1" stopTime="0.00" timeLoss="19.62" rerouteNo="0" devices="tripinfo_merge.1" vType="t0" speedFactor="1.00" vaporized=""/>
    <tripinfo id="merge.2" depart="31.00" departLane="beg_0" departPos="180.80" departSpeed="0.00" departDelay="0.90" arrival="61.00" arrivalLane="end_0" arrivalPos="96.00" arrivalSpeed="13.89" duration="30.00" routeLength="119.20" waitingTime="16.00" waitingCount="1" stopTime="0.00" timeLoss="20.61" rerouteNo="0" devices="tripinfo_merge.2" vType="t0" speedFactor="1.00" vaporized=""/>
    <tripinfo id="merge.3" depart="31.00" departLane="beg_0" departPos="173.20" departSpeed="0.00" departDelay="0.85" arrival="62.00" arrivalLane="end_0" arrivalPos="96.00" arrivalSpeed="13.89" duration="31.00" routeLength="126.80" waitingTime="17.00" waitingCount="1" stopTime="0.00" timeLoss="21.60" rerouteNo="0" devices="tripinfo_merge.3" vType="t0" speedFactor="1.00" vaporized=""/>
    <tripinfo id="merge.4" depart="31.00" departLane="beg_0" departPos="165.60" departSpeed="0.00" departDelay="0.80" arrival="64.00" arrivalLane="end_0" arrivalPos="96.00" arrivalSpeed="13.89" duration="33.00" routeLength="134.40" waitingTime="18.00" waitingCount="1" stopTime="0.00" timeLoss="23.09" rerouteNo="0" devices="tripinfo_merge.4" vType="t0" speedFactor="1.00" vaporized=""/>
    <tripinfo id="merge.8" depart="31.00" departLane="beg_0" departPos="135.20" departSpeed="0.00" departDelay="0.60" arrival="66.00" arrivalLane="end_0" arrivalPos="96.00" arrivalSpeed="13.89" duration="35.00" routeLength="164.80" waitingTime="13.00" waitingCount="2" stopTime="0.00" timeLoss="22.44" rerouteNo="0" devices="tripinfo_merge.8" vType="t0" speedFactor="1.00" vaporized=""/>
    <tripinfo id="merge.5" depart="31.00" departLane="beg_0" departPos="158.00" departSpeed="0.00" departDelay="0.75" arrival="68.00" arrivalLane="end_0" arrivalPos="96.00" arrivalSpeed="13.89" duration="37.00" routeLength="142.00" waitingTime="20.00" waitingCount="2" stopTime="0.00" timeLoss="26.26" rerouteNo="0" devices="tripinfo_merge.5" vType="t0" speedFactor="1.00" vaporized=""/>
    <tripinfo id="merge.6" depart="31.00" departLane="beg_0" departPos="150.40" departSpeed="0.00" departDelay="0.70" arrival="70.00" arrivalLane="end_0" arrivalPos="96.00" arrivalSpeed="13.89" duration="39.00" routeLength="149.60" waitingTime="21.00" waitingCount="2" stopTime="0.00" timeLoss="27.25" rerouteNo="0" devices="tripinfo_merge.6" vType="t0" speedFactor="1.00" vaporized=""/>
    <tripinfo id="merge.10" depart="31.00" departLane="beg_0" departPos="120.00" departSpeed="0.00" departDelay="0.50" arrival="71.00" arrivalLane="end_0" arrivalPos="96.00" arrivalSpeed="13.89" duration="40.00" routeLength="180.00" waitingTime="16.00" waitingCount="3" stopTime="0.00" timeLoss="26.73" rerouteNo="0" devices="tripinfo_merge.10" vType="t0" speedFactor="1.00" vaporized=""/>
    <tripinfo id="merge.7" depart="31.00" departLane="beg_0" departPos="142.80" departSpeed="0.00" departDelay="0.65" arrival="73.00" arrivalLane="end_0" arrivalPos="96.00" arrivalSpeed="13.89" duration="42.00" routeLength="157.20" waitingTime="22.00" waitingCount="4" stopTime="0.00" timeLoss="30.17" rerouteNo="0" devices="tripinfo_merge.7" vType="t0" speedFactor="1.00" vaporized=""/>
    <tripinfo id="merge.11" depart="31.00" departLane="beg_0" departPos="112.40" departSpeed="0.00" departDelay="0.45" arrival="75.00" arrivalLane="end_0" arrivalPos="96.00" arrivalSpeed="13.89" duration="44.00" routeLength="187.60" waitingTime="18.00" waitingCount="3" stopTime="0.00" timeLoss="29.70" rerouteNo="0" devices="tripinfo_merge.11" vType="t0" speedFactor="1.00" vaporized=""/>
    <tripinfo id="merge.12" depart="31.00" departLane="beg_0" departPos="104.80" departSpeed="0.00" departDelay="0.40" arrival="77.00" arrivalLane="end_0" arrivalPos="96.00" arrivalSpeed="13.89" duration="46.00" routeLength="195.20" waitingTime="24.00" waitingCount="2" stopTime="0.00" timeLoss="31.93" rerouteNo="0" devices="tripinfo_merge.12" vType="t0" speedFactor="1.00" vaporized=""/>
    <tripinfo id="merge.9" depart="31.00" departLane="beg_0" departPos="127.60" departSpeed="0.00" departDelay="0.55" arrival="79.00" arrivalLane="end_0" arrivalPos="96.00" arrivalSpeed="13.89" duration="48.00" routeLength="172.40" waitingTime="21.00" waitingCount="5" stopTime="0.00" timeLoss="35.16" rerouteNo="0" devices="tripinfo_merge.9" vType="t0" speedFactor="1.00" vaporized=""/>
    <tripinfo id="merge.13" depart="31.00" departLane="beg_0" departPos="97.20" departSpeed="0.00" departDelay="0.35" arrival="82.00" arrivalLane="end_0" arrivalPos="96.00" arrivalSpeed="13.89" duration="51.00" routeLength="202.80" waitingTime="26.00" waitingCount="2" stopTime="0.00" timeLoss="35.53" rerouteNo="0" devices="tripinfo_merge.13" vType="t0" speedFactor="1.00" vaporized=""/>
    <tripinfo id="merge.16" depart="31.00" departLane="beg_0" departPos="74.40" departSpeed="0.00" departDelay="0.20" arrival="83.00" arrivalLane="end_0" arrivalPos="96.00" arrivalSpeed="13.89" duration="52.00" routeLength="225.60" waitingTime="27.00" waitingCount="2" stopTime="0.00" timeLoss="35.67" rerouteNo="0" devices="tripinfo_merge.16" vType="t0" speedFactor="1.00" vaporized=""/>
    <tripinfo id="main.16" depart="28.00" departLane="beg_1" departPos="0.00" departSpeed="1.70" departDelay="1.00" arrival="85.00" arrivalLane="end_0" arrivalPos="96.00" arrivalSpeed="13.89" duration="57.00" routeLength="300.00" waitingTime="16.00" waitingCount="6" stopTime="0.00" timeLoss="35.07" rerouteNo="0" devices="tripinfo_main.16" vType="t1" speedFactor="1.00" vaporized=""/>
    <tripinfo id="merge.17" depart="31.00" departLane="beg_0" departPos="66.80" departSpeed="0.00" departDelay="0.15" arrival="88.00" arrivalLane="end_0" arrivalPos="96.00" arrivalSpeed="13.89" duration="57.00" routeLength="233.20" waitingTime="31.00" waitingCount="2" stopTime="0.00" timeLoss="39.64" rerouteNo="0" devices="tripinfo_merge.17" vType="t0" speedFactor="1.00" vaporized=""/>
    <tripinfo id="main.17" depart="31.00" departLane="beg_1" departPos="0.00" departSpeed="6.15" departDelay="3.00" arrival="89.00" arrivalLane="end_0" arrivalPos="96.00" arrivalSpeed="13.89" duration="58.00" routeLength="300.00" waitingTime="16.00" waitingCount="7" stopTime="0.00" timeLoss="36.38" rerouteNo="0" devices="tripinfo_main.17" vType="t1" speedFactor="1.00" vaporized=""/>
    <tripinfo id="main.18" depart="33.00" departLane="beg_1" departPos="0.00" departSpeed="8.07" departDelay="4.00" arrival="91.00" arrivalLane="end_0" arrivalPos="96.00" arrivalSpeed="13.89" duration="58.00" routeLength="300.00" waitingTime="17.00" waitingCount="6" stopTime="0.00" timeLoss="35.92" rerouteNo="0" devices="tripinfo_main.18" vType="t1" speedFactor="1.00" vaporized=""/>
    <tripinfo id="main.19" depart="34.00" departLane="beg_1" departPos="0.00" departSpeed="4.14" departDelay="4.00" arrival="93.00" arrivalLane="end_0" arrivalPos="96.00" arrivalSpeed="13.89" duration="59.00" routeLength="300.00" waitingTime="19.00" waitingCount="4" stopTime="0.00" timeLoss="36.46" rerouteNo="0" devices="tripinfo_main.19" vType="t1" speedFactor="1.00" vaporized=""/>
    <tripinfo id="merge.14" depart="31.00" departLane="beg_0" departPos="89.60" departSpeed="0.00" departDelay="0.30" arrival="94.00" arrivalLane="end_0" arrivalPos="96.00" arrivalSpeed="13.89" duration="63.00" routeLength="210.40" waitingTime="29.00" waitingCount="4" stopTime="0.00" timeLoss="47.45" rerouteNo="0" devices="tripinfo_merge.14" vType="t0" speedFactor="1.00" vaporized=""/>
    <tripinfo id="merge.15" depart="31.00" departLane="beg_0" departPos="82.00" departSpeed="0.00" departDelay="0.25" arrival="96.00" arrivalLane="end_0" arrivalPos="96.00" arrivalSpeed="13.89" duration="65.00" routeLength="218.00" waitingTime="30.00" waitingCount="3" stopTime="0.00" timeLoss="48.44" rerouteNo="0" devices="tripinfo_merge.15" vType="t0" speedFactor="1.00" vaporized=""/>
    <tripinfo id="merge.19" depart="31.00" departLane="beg_0" departPos="51.60" departSpeed="0.00" departDelay="0.05" arrival="97.00" arrivalLane="end_0" arrivalPos="96.00" arrivalSpeed="13.89" duration="66.00" routeLength="248.40" waitingTime="28.00" waitingCount="2" stopTime="0.00" timeLoss="47.79" rerouteNo="0" devices="tripinfo_merge.19" vType="t0" speedFactor="1.00" vaporized=""/>
    <tripinfo id="merge.18" depart="31.00" departLane="beg_0" departPos="59.20" departSpeed="0.00" departDelay="0.10" arrival="99.00" arrivalLane="end_0" arrivalPos="96.00" arrivalSpeed="13.89" duration="68.00" routeLength="240.80" waitingTime="34.00" waitingCount="3" stopTime="0.00" timeLoss="49.88" rerouteNo="0" devices="tripinfo_merge.18" vType="t0" speedFactor="1.00" vaporized=""/>
</tripinfos>
