<?xml version="1.0" encoding="UTF-8"?>

<!-- generated on Fri Sep 25 08:35:33 2020 by Eclipse SUMO sumo Version v1_7_0+0205-1a47d7d093
This data file and the accompanying materials
are made available under the terms of the Eclipse Public License v2.0
which accompanies this distribution, and is available at
http://www.eclipse.org/legal/epl-v20.html
SPDX-License-Identifier: EPL-2.0
<configuration xmlns:xsi="http://www.w3.org/2001/XMLSchema-instance" xsi:noNamespaceSchemaLocation="http://sumo.dlr.de/xsd/sumoConfiguration.xsd">

    <input>
        <net-file value="motorway.net.xml"/>
        <route-files value="input_routes.rou.xml"/>
    </input>

    <output>
        <write-license value="true"/>
        <tripinfo-output value="tripinfos.xml"/>
        <vehroute-output value="vehroutes.xml"/>
    </output>

    <processing>
        <default.speeddev value="0"/>
    </processing>

    <report>
        <xml-validation value="never"/>
        <xml-validation.routes value="never"/>
        <duration-log.disable value="true"/>
        <no-step-log value="true"/>
    </report>

</configuration>
-->

<tripinfos xmlns:xsi="http://www.w3.org/2001/XMLSchema-instance" xsi:noNamespaceSchemaLocation="http://sumo.dlr.de/xsd/tripinfo_file.xsd">
    <tripinfo id="v0.6" depart="12.00" departLane="end3_0" departPos="5.10" departSpeed="0.00" departDelay="0.00" arrival="26.00" arrivalLane="end3_0" arrivalPos="200.00" arrivalSpeed="26.34" duration="14.00" routeLength="194.90" waitingTime="0.00" waitingCount="0" stopTime="0.00" timeLoss="8.33" rerouteNo="0" devices="vehroute_v0.6 tripinfo_v0.6" vType="DEFAULT_VEHTYPE" speedFactor="1.00" vaporized=""/>
    <tripinfo id="v0.8" depart="16.00" departLane="end3_0" departPos="5.10" departSpeed="0.00" departDelay="0.00" arrival="30.00" arrivalLane="end3_0" arrivalPos="200.00" arrivalSpeed="27.31" duration="14.00" routeLength="194.90" waitingTime="0.00" waitingCount="0" stopTime="0.00" timeLoss="8.06" rerouteNo="0" devices="vehroute_v0.8 tripinfo_v0.8" vType="DEFAULT_VEHTYPE" speedFactor="1.00" vaporized=""/>
    <tripinfo id="v0.9" depart="19.00" departLane="end3_0" departPos="5.10" departSpeed="0.00" departDelay="1.00" arrival="34.00" arrivalLane="end3_0" arrivalPos="200.00" arrivalSpeed="28.59" duration="15.00" routeLength="194.90" waitingTime="0.00" waitingCount="0" stopTime="0.00" timeLoss="8.81" rerouteNo="0" devices="vehroute_v0.9 tripinfo_v0.9" vType="DEFAULT_VEHTYPE" speedFactor="1.00" vaporized=""/>
    <tripinfo id="v0.5" depart="10.00" departLane="end2_0" departPos="5.10" departSpeed="0.00" departDelay="0.00" arrival="109.00" arrivalLane="end3_0" arrivalPos="200.00" arrivalSpeed="35.10" duration="99.00" routeLength="3191.00" waitingTime="0.00" waitingCount="0" stopTime="0.00" timeLoss="10.02" rerouteNo="0" devices="vehroute_v0.5 tripinfo_v0.5" vType="DEFAULT_VEHTYPE" speedFactor="1.00" vaporized=""/>
    <tripinfo id="v0.1" depart="2.00" departLane="end_0" departPos="5.10" departSpeed="0.00" departDelay="0.00" arrival="111.00" arrivalLane="end3_0" arrivalPos="200.00" arrivalSpeed="35.90" duration="109.00" routeLength="3391.21" waitingTime="0.00" waitingCount="0" stopTime="0.00" timeLoss="13.98" rerouteNo="0" devices="vehroute_v0.1 tripinfo_v0.1" vType="DEFAULT_VEHTYPE" speedFactor="1.00" vaporized=""/>
    <tripinfo id="v0.2" depart="5.00" departLane="end_0" departPos="5.10" departSpeed="0.00" departDelay="1.00" arrival="112.00" arrivalLane="end3_0" arrivalPos="200.00" arrivalSpeed="35.25" duration="107.00" routeLength="3391.21" waitingTime="0.00" waitingCount="0" stopTime="0.00" timeLoss="12.36" rerouteNo="0" devices="vehroute_v0.2 tripinfo_v0.2" vType="DEFAULT_VEHTYPE" speedFactor="1.00" vaporized=""/>
    <tripinfo id="v0.3" depart="8.00" departLane="end_0" departPos="5.10" departSpeed="0.00" departDelay="2.00" arrival="114.00" arrivalLane="end3_0" arrivalPos="200.00" arrivalSpeed="35.71" duration="106.00" routeLength="3391.21" waitingTime="0.00" waitingCount="0" stopTime="0.00" timeLoss="10.94" rerouteNo="0" devices="vehroute_v0.3 tripinfo_v0.3" vType="DEFAULT_VEHTYPE" speedFactor="1.00" vaporized=""/>
    <tripinfo id="v0.7" depart="14.00" departLane="end_0" departPos="5.10" departSpeed="0.00" departDelay="0.00" arrival="118.00" arrivalLane="end3_0" arrivalPos="200.00" arrivalSpeed="34.90" duration="104.00" routeLength="3391.21" waitingTime="0.00" waitingCount="0" stopTime="0.00" timeLoss="9.51" rerouteNo="0" devices="vehroute_v0.7 tripinfo_v0.7" vType="DEFAULT_VEHTYPE" speedFactor="1.00" vaporized=""/>
    <tripinfo id="v0.4" depart="8.00" departLane="merge_0" departPos="5.10" departSpeed="0.00" departDelay="0.00" arrival="120.00" arrivalLane="end3_0" arrivalPos="200.00" arrivalSpeed="34.84" duration="112.00" routeLength="3491.21" waitingTime="0.00" waitingCount="0" stopTime="0.00" timeLoss="14.24" rerouteNo="0" devices="vehroute_v0.4 tripinfo_v0.4" vType="DEFAULT_VEHTYPE" speedFactor="1.00" vaporized=""/>
    <tripinfo id="v0.16" depart="32.00" departLane="end2_0" departPos="5.10" departSpeed="0.00" departDelay="0.00" arrival="131.00" arrivalLane="end3_0" arrivalPos="200.00" arrivalSpeed="34.83" duration="99.00" routeLength="3191.00" waitingTime="0.00" waitingCount="0" stopTime="0.00" timeLoss="10.09" rerouteNo="0" devices="vehroute_v0.16 tripinfo_v0.16" vType="DEFAULT_VEHTYPE" speedFactor="1.00" vaporized=""/>
    <tripinfo id="v0.11" depart="22.00" departLane="end_0" departPos="5.10" departSpeed="0.00" departDelay="0.00" arrival="133.00" arrivalLane="end3_0" arrivalPos="200.00" arrivalSpeed="34.95" duration="111.00" routeLength="3391.21" waitingTime="0.00" waitingCount="0" stopTime="0.00" timeLoss="16.01" rerouteNo="0" devices="vehroute_v0.11 tripinfo_v0.11" vType="DEFAULT_VEHTYPE" speedFactor="1.00" vaporized=""/>
    <tripinfo id="v0.12" depart="25.00" departLane="end_0" departPos="5.10" departSpeed="0.00" departDelay="1.00" arrival="134.00" arrivalLane="end3_0" arrivalPos="200.00" arrivalSpeed="35.35" duration="109.00" routeLength="3391.21" waitingTime="0.00" waitingCount="0" stopTime="0.00" timeLoss="14.53" rerouteNo="0" devices="vehroute_v0.12 tripinfo_v0.12" vType="DEFAULT_VEHTYPE" speedFactor="1.00" vaporized=""/>
    <tripinfo id="v0.14" depart="28.00" departLane="end_0" departPos="5.10" departSpeed="0.00" departDelay="0.00" arrival="136.00" arrivalLane="end3_0" arrivalPos="200.00" arrivalSpeed="35.99" duration="108.00" routeLength="3391.21" waitingTime="0.00" waitingCount="0" stopTime="0.00" timeLoss="13.00" rerouteNo="0" devices="vehroute_v0.14 tripinfo_v0.14" vType="DEFAULT_VEHTYPE" speedFactor="1.00" vaporized=""/>
    <tripinfo id="v0.18" depart="43.00" departLane="end2_0" departPos="5.10" departSpeed="0.00" departDelay="7.00" arrival="143.00" arrivalLane="end3_0" arrivalPos="200.00" arrivalSpeed="35.17" duration="100.00" routeLength="3191.00" waitingTime="0.00" waitingCount="0" stopTime="0.00" timeLoss="10.53" rerouteNo="0" devices="vehroute_v0.18 tripinfo_v0.18" vType="DEFAULT_VEHTYPE" speedFactor="1.00" vaporized=""/>
    <tripinfo id="v0.17" depart="34.00" departLane="end_0" departPos="5.10" departSpeed="0.00" departDelay="0.00" arrival="144.00" arrivalLane="end3_0" arrivalPos="200.00" arrivalSpeed="35.93" duration="110.00" routeLength="3391.21" waitingTime="0.00" waitingCount="0" stopTime="0.00" timeLoss="15.31" rerouteNo="0" devices="vehroute_v0.17 tripinfo_v0.17" vType="DEFAULT_VEHTYPE" speedFactor="1.00" vaporized=""/>
    <tripinfo id="v0.15" depart="30.00" departLane="merge_0" departPos="5.10" departSpeed="0.00" departDelay="0.00" arrival="146.00" arrivalLane="end3_0" arrivalPos="200.00" arrivalSpeed="35.49" duration="116.00" routeLength="3491.21" waitingTime="0.00" waitingCount="0" stopTime="0.00" timeLoss="18.12" rerouteNo="0" devices="vehroute_v0.15 tripinfo_v0.15" vType="DEFAULT_VEHTYPE" speedFactor="1.00" vaporized=""/>
    <tripinfo id="v0.19" depart="52.00" departLane="end2_0" departPos="5.10" departSpeed="0.00" departDelay="14.00" arrival="150.00" arrivalLane="end3_0" arrivalPos="200.00" arrivalSpeed="35.62" duration="98.00" routeLength="3191.00" waitingTime="0.00" waitingCount="0" stopTime="0.00" timeLoss="9.26" rerouteNo="0" devices="vehroute_v0.19 tripinfo_v0.19" vType="DEFAULT_VEHTYPE" speedFactor="1.00" vaporized=""/>
    <tripinfo id="v0.0" depart="0.00" departLane="beg2_0" departPos="5.10" departSpeed="0.00" departDelay="0.00" arrival="193.00" arrivalLane="end3_0" arrivalPos="200.00" arrivalSpeed="35.59" duration="193.00" routeLength="6491.21" waitingTime="0.00" waitingCount="0" stopTime="0.00" timeLoss="11.85" rerouteNo="0" devices="vehroute_v0.0 tripinfo_v0.0" vType="DEFAULT_VEHTYPE" speedFactor="1.00" vaporized=""/>
    <tripinfo id="v0.10" depart="20.00" departLane="beg2_0" departPos="5.10" departSpeed="0.00" departDelay="0.00" arrival="213.00" arrivalLane="end3_0" arrivalPos="200.00" arrivalSpeed="34.80" duration="193.00" routeLength="6491.21" waitingTime="0.00" waitingCount="0" stopTime="0.00" timeLoss="12.07" rerouteNo="0" devices="vehroute_v0.10 tripinfo_v0.10" vType="DEFAULT_VEHTYPE" speedFactor="1.00" vaporized=""/>
    <tripinfo id="v0.13" depart="26.00" departLane="beg2_0" departPos="5.10" departSpeed="0.00" departDelay="0.00" arrival="219.00" arrivalLane="end3_0" arrivalPos="200.00" arrivalSpeed="35.50" duration="193.00" routeLength="6491.21" waitingTime="0.00" waitingCount="0" stopTime="0.00" timeLoss="11.72" rerouteNo="0" devices="vehroute_v0.13 tripinfo_v0.13" vType="DEFAULT_VEHTYPE" speedFactor="1.00" vaporized=""/>
</tripinfos>
