<?xml version="1.0" encoding="UTF-8"?>

<!-- generated on 2026-07-15T13:18:12.566135+01:00 by Eclipse SUMO sumo v1_27_1+0277-6c4bbc91d13
This data file and the accompanying materials
are made available under the terms of the Eclipse Public License v2.0
which accompanies this distribution, and is available at
http://www.eclipse.org/legal/epl-v20.html
This file may also be made available under the following Secondary
Licenses when the conditions for such availability set forth in the Eclipse
Public License 2.0 are satisfied: GNU General Public License, version 2
or later which is available at
https://www.gnu.org/licenses/old-licenses/gpl-2.0-standalone.html
SPDX-License-Identifier: EPL-2.0 OR GPL-2.0-or-later
<sumoConfiguration xmlns:xsi="http://www.w3.org/2001/XMLSchema-instance" xsi:noNamespaceSchemaLocation="http://sumo.dlr.de/xsd/sumoConfiguration.xsd">

    <input>
        <net-file value="net.net.xml"/>
        <route-files value="input_routes.rou.xml"/>
        <additional-files value="input_additional.add.xml"/>
    </input>

    <output>
        <write-license value="true"/>
        <fcd-output value="fcd.xml"/>
    </output>

    <time>
        <end value="900"/>
    </time>

    <processing>
        <default.departspeed value="0"/>
        <default.departlane value="first"/>
        <default.speeddev value="0"/>
        <pedestrian.model value="jupedsim"/>
    </processing>

    <report>
        <verbose value="true"/>
        <xml-validation value="never"/>
        <duration-log.disable value="true"/>
        <no-step-log value="true"/>
    </report>

    <fcd_device>
        <device.fcd.period value="100"/>
    </fcd_device>

</sumoConfiguration>
-->

<fcd-export xmlns:xsi="http://www.w3.org/2001/XMLSchema-instance" xsi:noNamespaceSchemaLocation="http://sumo.dlr.de/xsd/fcd_file.xsd">
    <timestep time="0.00">
        <vehicle id="S1.0" x="149.98" y="196.22" angle="90.10" type="SBahn" speed="0.00" pos="40.10" lane="E9_0" slope="0.00"/>
        <person id="pf_0.0" x="0.05" y="200.70" angle="89.86" type="DEFAULT_PEDTYPE" speed="0.00" pos="0.34" edge="E3" slope="0.00"/>
    </timestep>
    <timestep time="100.00">
        <vehicle id="S1.0" x="69.32" y="10.93" angle="276.65" type="SBahn" speed="0.00" pos="70.00" lane="E26_0" slope="0.00"/>
        <person id="pf_0.13" x="8.38" y="200.71" angle="89.95" type="DEFAULT_PEDTYPE" speed="1.39" pos="8.67" edge="E3" slope="0.00"/>
        <person id="pf_0.12" x="18.10" y="200.72" angle="89.95" type="DEFAULT_PEDTYPE" speed="1.39" pos="18.39" edge="E3" slope="0.00"/>
        <person id="pf_0.11" x="27.83" y="200.72" angle="89.95" type="DEFAULT_PEDTYPE" speed="1.39" pos="28.12" edge="E3" slope="0.00"/>
        <person id="pf_0.10" x="38.94" y="200.73" angle="89.95" type="DEFAULT_PEDTYPE" speed="1.39" pos="39.23" edge="E3" slope="0.00"/>
        <person id="pf_0.9" x="48.66" y="200.74" angle="89.95" type="DEFAULT_PEDTYPE" speed="1.39" pos="48.95" edge="E3" slope="0.00"/>
        <person id="pf_0.8" x="58.38" y="200.75" angle="89.95" type="DEFAULT_PEDTYPE" speed="1.39" pos="58.67" edge="E3" slope="0.00"/>
        <person id="pf_0.7" x="68.10" y="200.75" angle="89.95" type="DEFAULT_PEDTYPE" speed="1.39" pos="68.39" edge="E3" slope="0.00"/>
        <person id="pf_0.6" x="77.83" y="200.76" angle="89.95" type="DEFAULT_PEDTYPE" speed="1.39" pos="78.12" edge="E3" slope="0.00"/>
        <person id="pf_0.5" x="88.94" y="200.77" angle="89.95" type="DEFAULT_PEDTYPE" speed="1.39" pos="89.23" edge="E3" slope="0.00"/>
        <person id="pf_0.4" x="98.66" y="200.78" angle="89.95" type="DEFAULT_PEDTYPE" speed="1.39" pos="98.95" edge="E3" slope="0.00"/>
        <person id="pf_0.3" x="108.38" y="200.79" angle="89.95" type="DEFAULT_PEDTYPE" speed="1.39" pos="9.18" edge="E4" slope="0.00"/>
        <person id="pf_0.2" x="118.10" y="200.79" angle="89.95" type="DEFAULT_PEDTYPE" speed="1.39" pos="18.90" edge="E4" slope="0.00"/>
        <person id="pf_0.1" x="127.83" y="200.80" angle="89.95" type="DEFAULT_PEDTYPE" speed="1.39" pos="28.63" edge="E4" slope="0.00"/>
        <person id="pf_0.0" x="138.94" y="200.81" angle="89.95" type="DEFAULT_PEDTYPE" speed="1.39" pos="39.74" edge="E4" slope="0.00"/>
    </timestep>
    <timestep time="200.00">
        <vehicle id="S1.1" x="207.02" y="196.01" angle="90.25" type="SBahn" speed="0.00" pos="40.72" lane="E10_0" slope="0.00"/>
        <person id="pf_0.0" x="207.02" y="196.01" angle="90.25" type="DEFAULT_PEDTYPE" speed="0.00" pos="40.72" edge="E10" slope="0.00"/>
        <person id="pf_0.1" x="207.02" y="196.01" angle="90.25" type="DEFAULT_PEDTYPE" speed="0.00" pos="40.72" edge="E10" slope="0.00"/>
        <person id="pf_0.2" x="207.02" y="196.01" angle="90.25" type="DEFAULT_PEDTYPE" speed="0.00" pos="40.72" edge="E10" slope="0.00"/>
        <person id="pf_0.3" x="207.02" y="196.01" angle="90.25" type="DEFAULT_PEDTYPE" speed="0.00" pos="40.72" edge="E10" slope="0.00"/>
        <person id="pf_0.4" x="207.02" y="196.01" angle="90.25" type="DEFAULT_PEDTYPE" speed="0.00" pos="40.72" edge="E10" slope="0.00"/>
        <person id="pf_0.5" x="192.19" y="197.37" angle="246.31" type="DEFAULT_PEDTYPE" speed="1.39" pos="22.98" edge="E10" slope="0.00"/>
        <person id="pf_0.6" x="195.22" y="198.70" angle="246.31" type="DEFAULT_PEDTYPE" speed="1.39" pos="22.98" edge="E10" slope="0.00"/>
        <person id="pf_0.7" x="197.87" y="199.86" angle="246.31" type="DEFAULT_PEDTYPE" speed="1.39" pos="22.98" edge="E10" slope="0.00"/>
        <person id="pf_0.27" x="6.99" y="200.71" angle="89.95" type="DEFAULT_PEDTYPE" speed="1.39" pos="7.28" edge="E3" slope="0.00"/>
        <person id="pf_0.26" x="16.72" y="200.71" angle="89.95" type="DEFAULT_PEDTYPE" speed="1.39" pos="17.01" edge="E3" slope="0.00"/>
        <person id="pf_0.25" x="27.83" y="200.72" angle="89.95" type="DEFAULT_PEDTYPE" speed="1.39" pos="28.12" edge="E3" slope="0.00"/>
        <person id="pf_0.24" x="37.55" y="200.73" angle="89.95" type="DEFAULT_PEDTYPE" speed="1.39" pos="37.84" edge="E3" slope="0.00"/>
        <person id="pf_0.23" x="47.27" y="200.74" angle="89.95" type="DEFAULT_PEDTYPE" speed="1.39" pos="47.56" edge="E3" slope="0.00"/>
        <person id="pf_0.22" x="56.99" y="200.75" angle="89.95" type="DEFAULT_PEDTYPE" speed="1.39" pos="57.28" edge="E3" slope="0.00"/>
        <person id="pf_0.21" x="66.72" y="200.75" angle="89.95" type="DEFAULT_PEDTYPE" speed="1.39" pos="67.01" edge="E3" slope="0.00"/>
        <person id="pf_0.20" x="77.83" y="200.76" angle="89.95" type="DEFAULT_PEDTYPE" speed="1.39" pos="78.12" edge="E3" slope="0.00"/>
        <person id="pf_0.19" x="87.55" y="200.77" angle="89.95" type="DEFAULT_PEDTYPE" speed="1.39" pos="87.84" edge="E3" slope="0.00"/>
        <person id="pf_0.18" x="97.27" y="200.78" angle="89.95" type="DEFAULT_PEDTYPE" speed="1.39" pos="97.56" edge="E3" slope="0.00"/>
        <person id="pf_0.17" x="106.99" y="200.79" angle="89.95" type="DEFAULT_PEDTYPE" speed="1.39" pos="7.79" edge="E4" slope="0.00"/>
        <person id="pf_0.16" x="116.72" y="200.79" angle="89.95" type="DEFAULT_PEDTYPE" speed="1.39" pos="17.52" edge="E4" slope="0.00"/>
        <person id="pf_0.15" x="127.83" y="200.80" angle="89.95" type="DEFAULT_PEDTYPE" speed="1.39" pos="28.63" edge="E4" slope="0.00"/>
        <person id="pf_0.14" x="137.55" y="200.81" angle="89.95" type="DEFAULT_PEDTYPE" speed="1.39" pos="38.35" edge="E4" slope="0.00"/>
        <person id="pf_0.13" x="147.27" y="200.82" angle="89.95" type="DEFAULT_PEDTYPE" speed="1.39" pos="48.07" edge="E4" slope="0.00"/>
        <person id="pf_0.12" x="156.99" y="200.83" angle="89.95" type="DEFAULT_PEDTYPE" speed="1.39" pos="57.79" edge="E4" slope="0.00"/>
        <person id="pf_0.11" x="166.72" y="200.83" angle="89.95" type="DEFAULT_PEDTYPE" speed="1.39" pos="67.52" edge="E4" slope="0.00"/>
        <person id="pf_0.10" x="177.83" y="200.84" angle="89.95" type="DEFAULT_PEDTYPE" speed="1.39" pos="78.63" edge="E4" slope="0.00"/>
        <person id="pf_0.9" x="187.55" y="200.85" angle="89.95" type="DEFAULT_PEDTYPE" speed="1.39" pos="88.35" edge="E4" slope="0.00"/>
        <person id="pf_0.8" x="197.27" y="200.86" angle="89.95" type="DEFAULT_PEDTYPE" speed="1.39" pos="98.07" edge="E4" slope="0.00"/>
    </timestep>
    <timestep time="300.00">
        <vehicle id="S1.1" x="67.57" y="11.31" angle="278.41" type="SBahn" speed="1.79" pos="71.79" lane="E26_0" slope="0.00"/>
        <person id="pf_0.18" x="189.92" y="196.38" angle="246.31" type="DEFAULT_PEDTYPE" speed="1.39" pos="22.98" edge="E10" slope="0.00"/>
        <person id="pf_0.19" x="192.57" y="197.54" angle="246.31" type="DEFAULT_PEDTYPE" speed="1.39" pos="22.98" edge="E10" slope="0.00"/>
        <person id="pf_0.20" x="195.22" y="198.70" angle="246.31" type="DEFAULT_PEDTYPE" speed="1.39" pos="22.98" edge="E10" slope="0.00"/>
        <person id="pf_0.21" x="198.25" y="200.03" angle="246.31" type="DEFAULT_PEDTYPE" speed="1.39" pos="22.98" edge="E10" slope="0.00"/>
        <person id="pf_0.17" x="197.01" y="194.46" angle="0.25" type="DEFAULT_PEDTYPE" speed="0.00" pos="30.72" edge="E10" slope="0.00"/>
        <person id="pf_0.16" x="197.81" y="194.45" angle="0.25" type="DEFAULT_PEDTYPE" speed="0.00" pos="31.52" edge="E10" slope="0.00"/>
        <person id="pf_0.15" x="198.61" y="194.45" angle="0.25" type="DEFAULT_PEDTYPE" speed="0.00" pos="32.32" edge="E10" slope="0.00"/>
        <person id="pf_0.14" x="199.41" y="194.45" angle="0.25" type="DEFAULT_PEDTYPE" speed="0.00" pos="33.12" edge="E10" slope="0.00"/>
        <person id="pf_0.13" x="200.21" y="194.44" angle="0.25" type="DEFAULT_PEDTYPE" speed="0.00" pos="33.92" edge="E10" slope="0.00"/>
        <person id="pf_0.12" x="201.01" y="194.44" angle="0.25" type="DEFAULT_PEDTYPE" speed="0.00" pos="34.72" edge="E10" slope="0.00"/>
        <person id="pf_0.6" x="201.81" y="194.44" angle="0.25" type="DEFAULT_PEDTYPE" speed="0.00" pos="35.52" edge="E10" slope="0.00"/>
        <person id="pf_0.5" x="202.61" y="194.43" angle="0.25" type="DEFAULT_PEDTYPE" speed="0.00" pos="36.32" edge="E10" slope="0.00"/>
        <person id="pf_0.11" x="203.41" y="194.43" angle="0.25" type="DEFAULT_PEDTYPE" speed="0.00" pos="37.12" edge="E10" slope="0.00"/>
        <person id="pf_0.10" x="204.21" y="194.43" angle="0.25" type="DEFAULT_PEDTYPE" speed="0.00" pos="37.92" edge="E10" slope="0.00"/>
        <person id="pf_0.9" x="205.01" y="194.42" angle="0.25" type="DEFAULT_PEDTYPE" speed="0.00" pos="38.72" edge="E10" slope="0.00"/>
        <person id="pf_0.8" x="205.81" y="194.42" angle="0.25" type="DEFAULT_PEDTYPE" speed="0.00" pos="39.52" edge="E10" slope="0.00"/>
        <person id="pf_0.7" x="206.61" y="194.41" angle="0.25" type="DEFAULT_PEDTYPE" speed="0.00" pos="40.32" edge="E10" slope="0.00"/>
        <person id="pf_0.41" x="5.60" y="200.71" angle="89.95" type="DEFAULT_PEDTYPE" speed="1.39" pos="5.89" edge="E3" slope="0.00"/>
        <person id="pf_0.40" x="16.72" y="200.71" angle="89.95" type="DEFAULT_PEDTYPE" speed="1.39" pos="17.01" edge="E3" slope="0.00"/>
        <person id="pf_0.39" x="26.44" y="200.72" angle="89.95" type="DEFAULT_PEDTYPE" speed="1.39" pos="26.73" edge="E3" slope="0.00"/>
        <person id="pf_0.38" x="36.16" y="200.73" angle="89.95" type="DEFAULT_PEDTYPE" speed="1.39" pos="36.45" edge="E3" slope="0.00"/>
        <person id="pf_0.37" x="45.88" y="200.74" angle="89.95" type="DEFAULT_PEDTYPE" speed="1.39" pos="46.17" edge="E3" slope="0.00"/>
        <person id="pf_0.36" x="55.60" y="200.75" angle="89.95" type="DEFAULT_PEDTYPE" speed="1.39" pos="55.89" edge="E3" slope="0.00"/>
        <person id="pf_0.35" x="66.72" y="200.75" angle="89.95" type="DEFAULT_PEDTYPE" speed="1.39" pos="67.01" edge="E3" slope="0.00"/>
        <person id="pf_0.34" x="76.44" y="200.76" angle="89.95" type="DEFAULT_PEDTYPE" speed="1.39" pos="76.73" edge="E3" slope="0.00"/>
        <person id="pf_0.33" x="86.16" y="200.77" angle="89.95" type="DEFAULT_PEDTYPE" speed="1.39" pos="86.45" edge="E3" slope="0.00"/>
        <person id="pf_0.32" x="95.88" y="200.78" angle="89.95" type="DEFAULT_PEDTYPE" speed="1.39" pos="96.17" edge="E3" slope="0.00"/>
        <person id="pf_0.31" x="105.60" y="200.78" angle="89.95" type="DEFAULT_PEDTYPE" speed="1.39" pos="6.40" edge="E4" slope="0.00"/>
        <person id="pf_0.30" x="116.72" y="200.79" angle="89.95" type="DEFAULT_PEDTYPE" speed="1.39" pos="17.52" edge="E4" slope="0.00"/>
        <person id="pf_0.29" x="126.44" y="200.80" angle="89.95" type="DEFAULT_PEDTYPE" speed="1.39" pos="27.24" edge="E4" slope="0.00"/>
        <person id="pf_0.28" x="136.16" y="200.81" angle="89.95" type="DEFAULT_PEDTYPE" speed="1.39" pos="36.96" edge="E4" slope="0.00"/>
        <person id="pf_0.27" x="145.88" y="200.82" angle="89.95" type="DEFAULT_PEDTYPE" speed="1.39" pos="46.68" edge="E4" slope="0.00"/>
        <person id="pf_0.26" x="155.60" y="200.82" angle="89.95" type="DEFAULT_PEDTYPE" speed="1.39" pos="56.40" edge="E4" slope="0.00"/>
        <person id="pf_0.25" x="166.72" y="200.83" angle="89.95" type="DEFAULT_PEDTYPE" speed="1.39" pos="67.52" edge="E4" slope="0.00"/>
        <person id="pf_0.24" x="176.44" y="200.84" angle="89.95" type="DEFAULT_PEDTYPE" speed="1.39" pos="77.24" edge="E4" slope="0.00"/>
        <person id="pf_0.23" x="186.16" y="200.85" angle="89.95" type="DEFAULT_PEDTYPE" speed="1.39" pos="86.96" edge="E4" slope="0.00"/>
        <person id="pf_0.22" x="195.88" y="200.86" angle="89.95" type="DEFAULT_PEDTYPE" speed="1.39" pos="96.68" edge="E4" slope="0.00"/>
    </timestep>
    <timestep time="400.00">
        <vehicle id="S1.2" x="69.32" y="10.93" angle="276.65" type="SBahn" speed="0.00" pos="70.00" lane="E26_0" slope="0.00"/>
        <person id="pf_0.24" x="69.32" y="10.93" angle="276.65" type="DEFAULT_PEDTYPE" speed="0.00" pos="70.00" edge="E26" slope="0.00"/>
        <person id="pf_0.14" x="104.93" y="11.32" angle="259.61" type="DEFAULT_PEDTYPE" speed="0.00" pos="5.12" edge="E1" slope="0.00"/>
        <person id="pf_0.11" x="102.26" y="9.23" angle="191.40" type="DEFAULT_PEDTYPE" speed="1.39" pos="8.12" edge="E1" slope="0.00"/>
        <person id="pf_0.5" x="100.32" y="7.37" angle="259.84" type="DEFAULT_PEDTYPE" speed="1.39" pos="10.37" edge="E1" slope="0.00"/>
        <person id="pf_0.13" x="91.10" y="9.43" angle="155.05" type="DEFAULT_PEDTYPE" speed="1.39" pos="19.55" edge="E1" slope="0.00"/>
        <person id="pf_0.12" x="82.18" y="8.66" angle="199.80" type="DEFAULT_PEDTYPE" speed="1.30" pos="29.02" edge="E1" slope="0.00"/>
        <person id="pf_0.10" x="81.65" y="6.96" angle="194.42" type="DEFAULT_PEDTYPE" speed="1.39" pos="29.46" edge="E1" slope="0.00"/>
        <person id="pf_0.15" x="81.59" y="8.93" angle="273.32" type="DEFAULT_PEDTYPE" speed="0.00" pos="29.63" edge="E1" slope="0.00"/>
        <person id="pf_0.6" x="79.29" y="6.70" angle="273.53" type="DEFAULT_PEDTYPE" speed="1.39" pos="31.79" edge="E1" slope="0.00"/>
        <person id="pf_0.8" x="74.32" y="9.31" angle="264.69" type="DEFAULT_PEDTYPE" speed="0.89" pos="37.36" edge="E1" slope="0.00"/>
        <person id="pf_0.7" x="72.78" y="9.27" angle="263.88" type="DEFAULT_PEDTYPE" speed="1.15" pos="38.86" edge="E1" slope="0.00"/>
        <person id="pf_0.9" x="71.73" y="8.25" angle="222.06" type="DEFAULT_PEDTYPE" speed="1.38" pos="39.71" edge="E1" slope="0.00"/>
        <person id="pf_0.25" x="189.26" y="194.49" angle="0.25" type="DEFAULT_PEDTYPE" speed="0.00" pos="22.98" edge="E10" slope="0.00"/>
        <person id="pf_0.26" x="189.26" y="194.49" angle="0.25" type="DEFAULT_PEDTYPE" speed="0.00" pos="22.98" edge="E10" slope="0.00"/>
        <person id="pf_0.32" x="190.30" y="196.54" angle="246.31" type="DEFAULT_PEDTYPE" speed="1.39" pos="22.98" edge="E10" slope="0.00"/>
        <person id="pf_0.33" x="192.95" y="197.70" angle="246.31" type="DEFAULT_PEDTYPE" speed="1.39" pos="22.98" edge="E10" slope="0.00"/>
        <person id="pf_0.34" x="195.60" y="198.87" angle="246.31" type="DEFAULT_PEDTYPE" speed="1.39" pos="22.98" edge="E10" slope="0.00"/>
        <person id="pf_0.35" x="198.25" y="200.03" angle="246.31" type="DEFAULT_PEDTYPE" speed="1.39" pos="22.98" edge="E10" slope="0.00"/>
        <person id="pf_0.31" x="203.41" y="194.43" angle="0.25" type="DEFAULT_PEDTYPE" speed="0.00" pos="37.12" edge="E10" slope="0.00"/>
        <person id="pf_0.30" x="204.21" y="194.43" angle="0.25" type="DEFAULT_PEDTYPE" speed="0.00" pos="37.92" edge="E10" slope="0.00"/>
        <person id="pf_0.29" x="205.01" y="194.42" angle="0.25" type="DEFAULT_PEDTYPE" speed="0.00" pos="38.72" edge="E10" slope="0.00"/>
        <person id="pf_0.28" x="205.81" y="194.42" angle="0.25" type="DEFAULT_PEDTYPE" speed="0.00" pos="39.52" edge="E10" slope="0.00"/>
        <person id="pf_0.27" x="206.61" y="194.41" angle="0.25" type="DEFAULT_PEDTYPE" speed="0.00" pos="40.32" edge="E10" slope="0.00"/>
        <person id="pf_0.16" x="107.14" y="12.21" angle="90.00" type="DEFAULT_PEDTYPE" speed="1.39" pos="2.79" edge="E26" slope="0.00"/>
        <person id="pf_0.23" x="104.29" y="11.21" angle="90.00" type="DEFAULT_PEDTYPE" speed="1.39" pos="5.78" edge="E26" slope="0.00"/>
        <person id="pf_0.19" x="103.39" y="10.54" angle="90.00" type="DEFAULT_PEDTYPE" speed="1.39" pos="6.78" edge="E26" slope="0.00"/>
        <person id="pf_0.18" x="103.56" y="9.56" angle="90.00" type="DEFAULT_PEDTYPE" speed="1.39" pos="6.79" edge="E26" slope="0.00"/>
        <person id="pf_0.22" x="85.47" y="10.26" angle="90.00" type="DEFAULT_PEDTYPE" speed="1.39" pos="25.83" edge="E26" slope="0.00"/>
        <person id="pf_0.20" x="82.40" y="8.39" angle="90.00" type="DEFAULT_PEDTYPE" speed="1.39" pos="28.79" edge="E26" slope="0.00"/>
        <person id="pf_0.21" x="79.91" y="8.49" angle="90.00" type="DEFAULT_PEDTYPE" speed="1.39" pos="31.28" edge="E26" slope="0.00"/>
        <person id="pf_0.17" x="70.59" y="11.01" angle="90.00" type="DEFAULT_PEDTYPE" speed="1.39" pos="41.34" edge="E26" slope="0.00"/>
        <person id="pf_0.55" x="5.60" y="200.71" angle="89.95" type="DEFAULT_PEDTYPE" speed="1.39" pos="5.89" edge="E3" slope="0.00"/>
        <person id="pf_0.54" x="15.33" y="200.71" angle="89.95" type="DEFAULT_PEDTYPE" speed="1.39" pos="15.62" edge="E3" slope="0.00"/>
        <person id="pf_0.53" x="25.05" y="200.72" angle="89.95" type="DEFAULT_PEDTYPE" speed="1.39" pos="25.34" edge="E3" slope="0.00"/>
        <person id="pf_0.52" x="34.77" y="200.73" angle="89.95" type="DEFAULT_PEDTYPE" speed="1.39" pos="35.06" edge="E3" slope="0.00"/>
        <person id="pf_0.51" x="44.49" y="200.74" angle="89.95" type="DEFAULT_PEDTYPE" speed="1.39" pos="44.78" edge="E3" slope="0.00"/>
        <person id="pf_0.50" x="55.60" y="200.75" angle="89.95" type="DEFAULT_PEDTYPE" speed="1.39" pos="55.89" edge="E3" slope="0.00"/>
        <person id="pf_0.49" x="65.33" y="200.75" angle="89.95" type="DEFAULT_PEDTYPE" speed="1.39" pos="65.62" edge="E3" slope="0.00"/>
        <person id="pf_0.48" x="75.05" y="200.76" angle="89.95" type="DEFAULT_PEDTYPE" speed="1.39" pos="75.34" edge="E3" slope="0.00"/>
        <person id="pf_0.47" x="84.77" y="200.77" angle="89.95" type="DEFAULT_PEDTYPE" speed="1.39" pos="85.06" edge="E3" slope="0.00"/>
        <person id="pf_0.46" x="94.49" y="200.78" angle="89.95" type="DEFAULT_PEDTYPE" speed="1.39" pos="94.78" edge="E3" slope="0.00"/>
        <person id="pf_0.45" x="105.60" y="200.78" angle="89.95" type="DEFAULT_PEDTYPE" speed="1.39" pos="6.40" edge="E4" slope="0.00"/>
        <person id="pf_0.44" x="115.33" y="200.79" angle="89.95" type="DEFAULT_PEDTYPE" speed="1.39" pos="16.13" edge="E4" slope="0.00"/>
        <person id="pf_0.43" x="125.05" y="200.80" angle="89.95" type="DEFAULT_PEDTYPE" speed="1.39" pos="25.85" edge="E4" slope="0.00"/>
        <person id="pf_0.42" x="134.77" y="200.81" angle="89.95" type="DEFAULT_PEDTYPE" speed="1.39" pos="35.57" edge="E4" slope="0.00"/>
        <person id="pf_0.41" x="144.49" y="200.82" angle="89.95" type="DEFAULT_PEDTYPE" speed="1.39" pos="45.29" edge="E4" slope="0.00"/>
        <person id="pf_0.40" x="155.60" y="200.82" angle="89.95" type="DEFAULT_PEDTYPE" speed="1.39" pos="56.40" edge="E4" slope="0.00"/>
        <person id="pf_0.39" x="165.33" y="200.83" angle="89.95" type="DEFAULT_PEDTYPE" speed="1.39" pos="66.13" edge="E4" slope="0.00"/>
        <person id="pf_0.38" x="175.05" y="200.84" angle="89.95" type="DEFAULT_PEDTYPE" speed="1.39" pos="75.85" edge="E4" slope="0.00"/>
        <person id="pf_0.37" x="184.77" y="200.85" angle="89.95" type="DEFAULT_PEDTYPE" speed="1.39" pos="85.57" edge="E4" slope="0.00"/>
        <person id="pf_0.36" x="194.49" y="200.86" angle="89.95" type="DEFAULT_PEDTYPE" speed="1.39" pos="95.29" edge="E4" slope="0.00"/>
    </timestep>
    <timestep time="500.00">
        <vehicle id="S1.3" x="208.81" y="196.01" angle="90.25" type="SBahn" speed="1.79" pos="42.51" lane="E10_0" slope="0.00"/>
        <person id="pf_0.25" x="208.81" y="196.01" angle="90.25" type="DEFAULT_PEDTYPE" speed="1.79" pos="42.51" edge="E10" slope="0.00"/>
        <person id="pf_0.26" x="208.81" y="196.01" angle="90.25" type="DEFAULT_PEDTYPE" speed="1.79" pos="42.51" edge="E10" slope="0.00"/>
        <person id="pf_0.27" x="208.81" y="196.01" angle="90.25" type="DEFAULT_PEDTYPE" speed="1.79" pos="42.51" edge="E10" slope="0.00"/>
        <person id="pf_0.28" x="208.81" y="196.01" angle="90.25" type="DEFAULT_PEDTYPE" speed="1.79" pos="42.51" edge="E10" slope="0.00"/>
        <person id="pf_0.29" x="208.81" y="196.01" angle="90.25" type="DEFAULT_PEDTYPE" speed="1.79" pos="42.51" edge="E10" slope="0.00"/>
        <person id="pf_0.30" x="208.81" y="196.01" angle="90.25" type="DEFAULT_PEDTYPE" speed="1.79" pos="42.51" edge="E10" slope="0.00"/>
        <person id="pf_0.31" x="208.81" y="196.01" angle="90.25" type="DEFAULT_PEDTYPE" speed="1.79" pos="42.51" edge="E10" slope="0.00"/>
        <person id="pf_0.32" x="208.81" y="196.01" angle="90.25" type="DEFAULT_PEDTYPE" speed="1.79" pos="42.51" edge="E10" slope="0.00"/>
        <person id="pf_0.33" x="208.81" y="196.01" angle="90.25" type="DEFAULT_PEDTYPE" speed="1.79" pos="42.51" edge="E10" slope="0.00"/>
        <person id="pf_0.34" x="208.81" y="196.01" angle="90.25" type="DEFAULT_PEDTYPE" speed="1.79" pos="42.51" edge="E10" slope="0.00"/>
        <person id="pf_0.35" x="208.81" y="196.01" angle="90.25" type="DEFAULT_PEDTYPE" speed="1.79" pos="42.51" edge="E10" slope="0.00"/>
        <person id="pf_0.36" x="208.81" y="196.01" angle="90.25" type="DEFAULT_PEDTYPE" speed="1.79" pos="42.51" edge="E10" slope="0.00"/>
        <person id="pf_0.37" x="208.81" y="196.01" angle="90.25" type="DEFAULT_PEDTYPE" speed="1.79" pos="42.51" edge="E10" slope="0.00"/>
        <person id="pf_0.38" x="208.81" y="196.01" angle="90.25" type="DEFAULT_PEDTYPE" speed="1.79" pos="42.51" edge="E10" slope="0.00"/>
        <person id="pf_0.39" x="208.81" y="196.01" angle="90.25" type="DEFAULT_PEDTYPE" speed="1.79" pos="42.51" edge="E10" slope="0.00"/>
        <person id="pf_0.40" x="208.81" y="196.01" angle="90.25" type="DEFAULT_PEDTYPE" speed="1.79" pos="42.51" edge="E10" slope="0.00"/>
        <person id="pf_0.41" x="208.81" y="196.01" angle="90.25" type="DEFAULT_PEDTYPE" speed="1.79" pos="42.51" edge="E10" slope="0.00"/>
        <person id="pf_0.42" x="208.81" y="196.01" angle="90.25" type="DEFAULT_PEDTYPE" speed="1.79" pos="42.51" edge="E10" slope="0.00"/>
        <person id="pf_0.43" x="208.81" y="196.01" angle="90.25" type="DEFAULT_PEDTYPE" speed="1.79" pos="42.51" edge="E10" slope="0.00"/>
        <person id="pf_0.44" x="208.81" y="196.01" angle="90.25" type="DEFAULT_PEDTYPE" speed="1.79" pos="42.51" edge="E10" slope="0.00"/>
        <person id="pf_0.45" x="208.81" y="196.01" angle="90.25" type="DEFAULT_PEDTYPE" speed="1.79" pos="42.51" edge="E10" slope="0.00"/>
        <person id="pf_0.46" x="190.68" y="196.71" angle="246.31" type="DEFAULT_PEDTYPE" speed="1.39" pos="22.98" edge="E10" slope="0.00"/>
        <person id="pf_0.47" x="193.33" y="197.87" angle="246.31" type="DEFAULT_PEDTYPE" speed="1.39" pos="22.98" edge="E10" slope="0.00"/>
        <person id="pf_0.48" x="195.98" y="199.03" angle="246.31" type="DEFAULT_PEDTYPE" speed="1.39" pos="22.98" edge="E10" slope="0.00"/>
        <person id="pf_0.49" x="198.63" y="200.20" angle="246.31" type="DEFAULT_PEDTYPE" speed="1.39" pos="22.98" edge="E10" slope="0.00"/>
        <person id="pf_0.69" x="4.22" y="200.70" angle="89.95" type="DEFAULT_PEDTYPE" speed="1.39" pos="4.51" edge="E3" slope="0.00"/>
        <person id="pf_0.68" x="13.94" y="200.71" angle="89.95" type="DEFAULT_PEDTYPE" speed="1.39" pos="14.23" edge="E3" slope="0.00"/>
        <person id="pf_0.67" x="23.66" y="200.72" angle="89.95" type="DEFAULT_PEDTYPE" speed="1.39" pos="23.95" edge="E3" slope="0.00"/>
        <person id="pf_0.66" x="33.38" y="200.73" angle="89.95" type="DEFAULT_PEDTYPE" speed="1.39" pos="33.67" edge="E3" slope="0.00"/>
        <person id="pf_0.65" x="44.49" y="200.74" angle="89.95" type="DEFAULT_PEDTYPE" speed="1.39" pos="44.78" edge="E3" slope="0.00"/>
        <person id="pf_0.64" x="54.22" y="200.74" angle="89.95" type="DEFAULT_PEDTYPE" speed="1.39" pos="54.51" edge="E3" slope="0.00"/>
        <person id="pf_0.63" x="63.94" y="200.75" angle="89.95" type="DEFAULT_PEDTYPE" speed="1.39" pos="64.23" edge="E3" slope="0.00"/>
        <person id="pf_0.62" x="73.66" y="200.76" angle="89.95" type="DEFAULT_PEDTYPE" speed="1.39" pos="73.95" edge="E3" slope="0.00"/>
        <person id="pf_0.61" x="83.38" y="200.77" angle="89.95" type="DEFAULT_PEDTYPE" speed="1.39" pos="83.67" edge="E3" slope="0.00"/>
        <person id="pf_0.60" x="94.49" y="200.78" angle="89.95" type="DEFAULT_PEDTYPE" speed="1.39" pos="94.78" edge="E3" slope="0.00"/>
        <person id="pf_0.59" x="104.22" y="200.78" angle="89.95" type="DEFAULT_PEDTYPE" speed="1.39" pos="5.02" edge="E4" slope="0.00"/>
        <person id="pf_0.58" x="113.94" y="200.79" angle="89.95" type="DEFAULT_PEDTYPE" speed="1.39" pos="14.74" edge="E4" slope="0.00"/>
        <person id="pf_0.57" x="123.66" y="200.80" angle="89.95" type="DEFAULT_PEDTYPE" speed="1.39" pos="24.46" edge="E4" slope="0.00"/>
        <person id="pf_0.56" x="133.38" y="200.81" angle="89.95" type="DEFAULT_PEDTYPE" speed="1.39" pos="34.18" edge="E4" slope="0.00"/>
        <person id="pf_0.55" x="144.49" y="200.82" angle="89.95" type="DEFAULT_PEDTYPE" speed="1.39" pos="45.29" edge="E4" slope="0.00"/>
        <person id="pf_0.54" x="154.22" y="200.82" angle="89.95" type="DEFAULT_PEDTYPE" speed="1.39" pos="55.02" edge="E4" slope="0.00"/>
        <person id="pf_0.53" x="163.94" y="200.83" angle="89.95" type="DEFAULT_PEDTYPE" speed="1.39" pos="64.74" edge="E4" slope="0.00"/>
        <person id="pf_0.52" x="173.66" y="200.84" angle="89.95" type="DEFAULT_PEDTYPE" speed="1.39" pos="74.46" edge="E4" slope="0.00"/>
        <person id="pf_0.51" x="183.38" y="200.85" angle="89.95" type="DEFAULT_PEDTYPE" speed="1.39" pos="84.18" edge="E4" slope="0.00"/>
        <person id="pf_0.50" x="194.49" y="200.86" angle="89.95" type="DEFAULT_PEDTYPE" speed="1.39" pos="95.29" edge="E4" slope="0.00"/>
    </timestep>
    <timestep time="600.00">
        <vehicle id="S1.3" x="67.57" y="11.31" angle="278.41" type="SBahn" speed="1.79" pos="71.79" lane="E26_0" slope="0.00"/>
        <person id="pf_0.41" x="47.64" y="16.30" angle="301.10" type="DEFAULT_PEDTYPE" speed="1.39" pos="16.69" edge="E0" slope="0.00"/>
        <person id="pf_0.42" x="46.03" y="17.27" angle="301.10" type="DEFAULT_PEDTYPE" speed="1.39" pos="18.57" edge="E0" slope="0.00"/>
        <person id="pf_0.45" x="44.42" y="18.25" angle="301.10" type="DEFAULT_PEDTYPE" speed="1.39" pos="20.44" edge="E0" slope="0.00"/>
        <person id="pf_0.39" x="42.80" y="19.22" angle="301.10" type="DEFAULT_PEDTYPE" speed="1.39" pos="22.32" edge="E0" slope="0.00"/>
        <person id="pf_0.47" x="189.26" y="194.49" angle="0.25" type="DEFAULT_PEDTYPE" speed="0.00" pos="22.98" edge="E10" slope="0.00"/>
        <person id="pf_0.60" x="190.68" y="196.71" angle="246.31" type="DEFAULT_PEDTYPE" speed="1.39" pos="22.98" edge="E10" slope="0.00"/>
        <person id="pf_0.61" x="193.71" y="198.04" angle="246.31" type="DEFAULT_PEDTYPE" speed="1.39" pos="22.98" edge="E10" slope="0.00"/>
        <person id="pf_0.62" x="196.36" y="199.20" angle="246.31" type="DEFAULT_PEDTYPE" speed="1.39" pos="22.98" edge="E10" slope="0.00"/>
        <person id="pf_0.63" x="199.00" y="200.36" angle="246.31" type="DEFAULT_PEDTYPE" speed="1.39" pos="22.98" edge="E10" slope="0.00"/>
        <person id="pf_0.46" x="191.41" y="194.48" angle="0.25" type="DEFAULT_PEDTYPE" speed="0.00" pos="25.12" edge="E10" slope="0.00"/>
        <person id="pf_0.59" x="197.81" y="194.45" angle="0.25" type="DEFAULT_PEDTYPE" speed="0.00" pos="31.52" edge="E10" slope="0.00"/>
        <person id="pf_0.58" x="198.61" y="194.45" angle="0.25" type="DEFAULT_PEDTYPE" speed="0.00" pos="32.32" edge="E10" slope="0.00"/>
        <person id="pf_0.57" x="199.41" y="194.45" angle="0.25" type="DEFAULT_PEDTYPE" speed="0.00" pos="33.12" edge="E10" slope="0.00"/>
        <person id="pf_0.56" x="200.21" y="194.44" angle="0.25" type="DEFAULT_PEDTYPE" speed="0.00" pos="33.92" edge="E10" slope="0.00"/>
        <person id="pf_0.55" x="201.01" y="194.44" angle="0.25" type="DEFAULT_PEDTYPE" speed="0.00" pos="34.72" edge="E10" slope="0.00"/>
        <person id="pf_0.54" x="201.81" y="194.44" angle="0.25" type="DEFAULT_PEDTYPE" speed="0.00" pos="35.52" edge="E10" slope="0.00"/>
        <person id="pf_0.53" x="202.61" y="194.43" angle="0.25" type="DEFAULT_PEDTYPE" speed="0.00" pos="36.32" edge="E10" slope="0.00"/>
        <person id="pf_0.52" x="203.41" y="194.43" angle="0.25" type="DEFAULT_PEDTYPE" speed="0.00" pos="37.12" edge="E10" slope="0.00"/>
        <person id="pf_0.51" x="204.21" y="194.43" angle="0.25" type="DEFAULT_PEDTYPE" speed="0.00" pos="37.92" edge="E10" slope="0.00"/>
        <person id="pf_0.50" x="205.01" y="194.42" angle="0.25" type="DEFAULT_PEDTYPE" speed="0.00" pos="38.72" edge="E10" slope="0.00"/>