<?xml version="1.0" encoding="UTF-8"?>

<!-- generated on 2025-03-09 13:50:51 by Eclipse SUMO sumo Version v1_22_0+0728-b12b56f69e2
This data file and the accompanying materials
are made available under the terms of the Eclipse Public License v2.0
which accompanies this distribution, and is available at
http://www.eclipse.org/legal/epl-v20.html
This file may also be made available under the following Secondary
Licenses when the conditions for such availability set forth in the Eclipse
Public License 2.0 are satisfied: GNU General Public License, version 2
or later which is available at
https://www.gnu.org/licenses/old-licenses/gpl-2.0-standalone.html
SPDX-License-Identifier: EPL-2.0 OR GPL-2.0-or-later
<sumoConfiguration xmlns:xsi="http://www.w3.org/2001/XMLSchema-instance" xsi:noNamespaceSchemaLocation="http://sumo.dlr.de/xsd/sumoConfiguration.xsd">

    <input>
        <net-file value="motorway.net.xml"/>
        <route-files value="input_routes.rou.xml"/>
        <additional-files value="input_additional.add.xml,input_additional2.add.xml"/>
    </input>

    <output>
        <write-license value="true"/>
    </output>

    <processing>
        <default.speeddev value="0"/>
    </processing>

    <report>
        <xml-validation value="never"/>
        <duration-log.statistics value="true"/>
        <no-step-log value="true"/>
    </report>

</sumoConfiguration>
-->

<meandata xmlns:xsi="http://www.w3.org/2001/XMLSchema-instance" xsi:noNamespaceSchemaLocation="http://sumo.dlr.de/xsd/meandata_file.xsd">
    <interval begin="0.00" end="1024.00" id="laneData">
        <edge id="beg2">
            <lane id="beg2_0" sampledSeconds="2022.49" traveltime="92.45" overlapTraveltime="92.92" density="0.66" laneDensity="0.66" occupancy="0.33" waitingTime="0.00" timeLoss="188.90" speed="32.25" speedRelative="0.90" departed="356" arrived="0" entered="0" left="250" laneChangedFrom="107" laneChangedTo="1"/>
            <lane id="beg2_1" sampledSeconds="2303.04" traveltime="89.12" overlapTraveltime="89.36" density="0.75" laneDensity="0.75" occupancy="0.37" waitingTime="0.00" timeLoss="162.52" speed="33.54" speedRelative="0.93" departed="339" arrived="0" entered="0" left="445" laneChangedFrom="1" laneChangedTo="107"/>
        </edge>
        <edge id="end">
            <lane id="end_0" sampledSeconds="3382.68" traveltime="7.67" overlapTraveltime="7.83" density="17.21" laneDensity="17.21" occupancy="8.36" waitingTime="0.00" timeLoss="987.75" speed="25.16" speedRelative="0.70" departed="0" arrived="433" entered="433" left="0" laneChangedFrom="0" laneChangedTo="0"/>
            <lane id="end_1" sampledSeconds="2965.20" traveltime="5.98" overlapTraveltime="6.13" density="15.08" laneDensity="15.08" occupancy="7.36" waitingTime="0.00" timeLoss="328.56" speed="32.16" speedRelative="0.89" departed="0" arrived="485" entered="485" left="0" laneChangedFrom="0" laneChangedTo="0"/>
        </edge>
        <edge id="merge">
            <lane id="merge_0" sampledSeconds="857.31" traveltime="7.58" overlapTraveltime="7.99" density="9.10" laneDensity="9.10" occupancy="4.44" waitingTime="161.00" timeLoss="564.54" speed="12.14" speedRelative="0.34" departed="0" arrived="0" entered="223" left="0" laneChangedFrom="223" laneChangedTo="0"/>
            <lane id="merge_1" sampledSeconds="1750.68" traveltime="4.71" overlapTraveltime="5.10" density="18.58" laneDensity="18.58" occupancy="8.77" waitingTime="12.00" timeLoss="814.20" speed="19.01" speedRelative="0.53" departed="0" arrived="0" entered="249" left="433" laneChangedFrom="40" laneChangedTo="224"/>
            <lane id="merge_2" sampledSeconds="1450.65" traveltime="2.94" overlapTraveltime="3.10" density="15.40" laneDensity="15.40" occupancy="7.30" waitingTime="0.00" timeLoss="197.28" speed="31.27" speedRelative="0.87" departed="0" arrived="0" entered="446" left="485" laneChangedFrom="1" laneChangedTo="40"/>
        </edge>
        <edge id="onRamp">
            <lane id="onRamp_0" sampledSeconds="2033.88" traveltime="9.09" overlapTraveltime="9.28" density="6.63" laneDensity="6.63" occupancy="3.28" waitingTime="0.00" timeLoss="173.81" speed="32.85" speedRelative="0.91" departed="223" arrived="0" entered="0" left="223" laneChangedFrom="0" laneChangedTo="0"/>
        </edge>
    </interval>
</meandata>
