<?xml version="1.0" encoding="UTF-8"?>

<!-- generated on 2022-12-04 16:29:28 by Eclipse SUMO sumo Version v1_15_0+0751-db72905
This data file and the accompanying materials
are made available under the terms of the Eclipse Public License v2.0
which accompanies this distribution, and is available at
http://www.eclipse.org/legal/epl-v20.html
This file may also be made available under the following Secondary
Licenses when the conditions for such availability set forth in the Eclipse
Public License 2.0 are satisfied: GNU General Public License, version 2
or later which is available at
https://www.gnu.org/licenses/old-licenses/gpl-2.0-standalone.html
SPDX-License-Identifier: EPL-2.0 OR GPL-2.0-or-later
<configuration xmlns:xsi="http://www.w3.org/2001/XMLSchema-instance" xsi:noNamespaceSchemaLocation="http://sumo.dlr.de/xsd/sumoConfiguration.xsd">

    <input>
        <net-file value="motorway.net.xml"/>
        <route-files value="input_routes.rou.xml"/>
        <additional-files value="input_additional.add.xml"/>
    </input>

    <output>
        <write-license value="true"/>
    </output>

    <processing>
        <default.speeddev value="0"/>
    </processing>

    <report>
        <xml-validation value="never"/>
        <duration-log.statistics value="true"/>
        <no-step-log value="true"/>
    </report>

</configuration>
-->

<meandata xmlns:xsi="http://www.w3.org/2001/XMLSchema-instance" xsi:noNamespaceSchemaLocation="http://sumo.dlr.de/xsd/meandata_file.xsd">
    <interval begin="0.00" end="1017.00" id="laneData">
        <edge id="beg">
            <lane id="beg_0" sampledSeconds="0.00" departed="0" arrived="0" entered="0" left="0" laneChangedFrom="0" laneChangedTo="0"/>
            <lane id="beg_1" sampledSeconds="0.00" departed="0" arrived="0" entered="0" left="0" laneChangedFrom="0" laneChangedTo="0"/>
            <lane id="beg_2" sampledSeconds="0.00" departed="0" arrived="0" entered="0" left="0" laneChangedFrom="0" laneChangedTo="0"/>
        </edge>
        <edge id="beg2">
            <lane id="beg2_0" sampledSeconds="2017.37" traveltime="91.79" overlapTraveltime="92.18" density="0.66" laneDensity="0.66" occupancy="0.33" waitingTime="0.00" timeLoss="175.93" speed="32.57" speedRelative="0.90" departed="356" arrived="0" entered="0" left="250" laneChangedFrom="108" laneChangedTo="2"/>
            <lane id="beg2_1" sampledSeconds="2277.17" traveltime="88.82" overlapTraveltime="89.04" density="0.75" laneDensity="0.75" occupancy="0.37" waitingTime="0.00" timeLoss="144.62" speed="33.71" speedRelative="0.94" departed="339" arrived="0" entered="0" left="445" laneChangedFrom="2" laneChangedTo="108"/>
        </edge>
        <edge id="end">
            <lane id="end_0" sampledSeconds="3294.72" traveltime="7.48" overlapTraveltime="7.64" density="16.44" laneDensity="16.44" occupancy="8.00" waitingTime="0.00" timeLoss="846.09" speed="26.43" speedRelative="0.73" departed="0" arrived="432" entered="434" left="0" laneChangedFrom="2" laneChangedTo="0"/>
            <lane id="end_1" sampledSeconds="3016.96" traveltime="6.07" overlapTraveltime="6.22" density="15.06" laneDensity="15.06" occupancy="7.35" waitingTime="0.00" timeLoss="305.76" speed="32.48" speedRelative="0.90" departed="0" arrived="486" entered="484" left="0" laneChangedFrom="0" laneChangedTo="2"/>
        </edge>
        <edge id="end2">
            <lane id="end2_0" sampledSeconds="0.00" departed="0" arrived="0" entered="0" left="0" laneChangedFrom="0" laneChangedTo="0"/>
        </edge>
        <edge id="end3">
            <lane id="end3_0" sampledSeconds="0.00" departed="0" arrived="0" entered="0" left="0" laneChangedFrom="0" laneChangedTo="0"/>
        </edge>
        <edge id="merge">
            <lane id="merge_0" sampledSeconds="777.42" traveltime="7.81" overlapTraveltime="8.21" density="7.88" laneDensity="7.88" occupancy="3.84" waitingTime="160.00" timeLoss="505.57" speed="12.42" speedRelative="0.35" departed="0" arrived="0" entered="223" left="0" laneChangedFrom="223" laneChangedTo="0"/>
            <lane id="merge_1" sampledSeconds="1587.99" traveltime="4.10" overlapTraveltime="4.43" density="16.10" laneDensity="16.10" occupancy="7.61" waitingTime="6.00" timeLoss="562.21" speed="23.00" speedRelative="0.64" departed="0" arrived="0" entered="249" left="434" laneChangedFrom="38" laneChangedTo="223"/>
            <lane id="merge_2" sampledSeconds="1489.77" traveltime="3.04" overlapTraveltime="3.20" density="15.10" laneDensity="15.10" occupancy="7.18" waitingTime="0.00" timeLoss="176.85" speed="31.85" speedRelative="0.88" departed="0" arrived="0" entered="446" left="484" laneChangedFrom="0" laneChangedTo="38"/>
        </edge>
        <edge id="offRamp">
            <lane id="offRamp_0" sampledSeconds="0.00" departed="0" arrived="0" entered="0" left="0" laneChangedFrom="0" laneChangedTo="0"/>
        </edge>
        <edge id="onRamp">
            <lane id="onRamp_0" sampledSeconds="2049.70" traveltime="9.17" overlapTraveltime="9.35" density="6.67" laneDensity="6.67" occupancy="3.30" waitingTime="0.00" timeLoss="174.27" speed="32.87" speedRelative="0.91" departed="223" arrived="0" entered="0" left="223" laneChangedFrom="0" laneChangedTo="0"/>
        </edge>
    </interval>
</meandata>
