<?xml version="1.0" encoding="UTF-8"?>

<!-- generated on 2022-02-08 11:24:39 by Eclipse SUMO sumo Version v1_12_0+0353-0cd4bcd
<configuration xmlns:xsi="http://www.w3.org/2001/XMLSchema-instance" xsi:noNamespaceSchemaLocation="http://sumo.dlr.de/xsd/sumoConfiguration.xsd">

    <input>
        <net-file value="input_net.net.xml"/>
        <additional-files value="input_routes.rou.xml,input_additional.add.xml,input_additional2.add.xml"/>
    </input>

    <time>
        <begin value="0"/>
        <end value="1000"/>
        <step-length value="1"/>
    </time>

    <report>
        <duration-log.disable value="true"/>
        <no-step-log value="true"/>
    </report>

    <gui_only>
        <tracker-interval value="1"/>
    </gui_only>

</configuration>
-->

<detector xmlns:xsi="http://www.w3.org/2001/XMLSchema-instance" xsi:noNamespaceSchemaLocation="http://sumo.dlr.de/xsd/det_e1_file.xsd">
    <interval begin="0.00" end="100.00" id="e1_2/1to1/1_0" nVehContrib="3" flow="108.00" occupancy="1.46" speed="10.27" harmonicMeanSpeed="10.26" length="5.00" nVehEntered="3"/>
   <interval begin="0.00" end="100.00" id="e2_2/1to1/1_0" sampledSeconds="98.38" nVehEntered="5" nVehLeft="0" nVehSeen="5" meanSpeed="10.27" meanTimeLoss="0.32" meanOccupancy="0.02" maxOccupancy="0.08" meanMaxJamLengthInVehicles="0.00" meanMaxJamLengthInMeters="0.00" maxJamLengthInVehicles="0" maxJamLengthInMeters="0.00" jamLengthInVehiclesSum="0" jamLengthInMetersSum="0.00" meanHaltingDuration="0.00" maxHaltingDuration="0.00" haltingDurationSum="0.00" meanIntervalHaltingDuration="0.00" maxIntervalHaltingDuration="0.00" intervalHaltingDurationSum="0.00" startedHalts="0.00" meanVehicleNumber="1.01" maxVehicleNumber="5" />
   <interval begin="0.00" end="100.00" id="e3_2/1to1/1_0" meanTravelTime="-1.00" meanOverlapTravelTime="-1.00" meanSpeed="-1.00" meanHaltsPerVehicle="-1.00" meanTimeLoss="-1.00" vehicleSum="0" meanSpeedWithin="9.87" meanHaltsPerVehicleWithin="0.00" meanDurationWithin="20.68" vehicleSumWithin="5" meanIntervalSpeedWithin="9.87" meanIntervalHaltsPerVehicleWithin="0.00" meanIntervalDurationWithin="20.68" meanTimeLossWithin="0.32"/>
    <interval begin="0.00" end="100.00" id="e1_1/1to0/1_0" nVehContrib="0" flow="0.00" occupancy="0.00" speed="-1.00" harmonicMeanSpeed="-1.00" length="-1.00" nVehEntered="0"/>
   <interval begin="0.00" end="100.00" id="e2_1/1to0/1_0" sampledSeconds="0.00" nVehEntered="0" nVehLeft="0" nVehSeen="0" meanSpeed="-1.00" meanTimeLoss="-1.00" meanOccupancy="0.00" maxOccupancy="0.00" meanMaxJamLengthInVehicles="0.00" meanMaxJamLengthInMeters="0.00" maxJamLengthInVehicles="0" maxJamLengthInMeters="0.00" jamLengthInVehiclesSum="0" jamLengthInMetersSum="0.00" meanHaltingDuration="0.00" maxHaltingDuration="0.00" haltingDurationSum="0.00" meanIntervalHaltingDuration="0.00" maxIntervalHaltingDuration="0.00" intervalHaltingDurationSum="0.00" startedHalts="0.00" meanVehicleNumber="0.00" maxVehicleNumber="0" />
   <interval begin="0.00" end="100.00" id="e3_1/1to0/1_0" meanTravelTime="-1.00" meanOverlapTravelTime="-1.00" meanSpeed="-1.00" meanHaltsPerVehicle="-1.00" meanTimeLoss="-1.00" vehicleSum="0" meanSpeedWithin="-1.00" meanHaltsPerVehicleWithin="-1.00" meanDurationWithin="-1.00" vehicleSumWithin="0" meanIntervalSpeedWithin="-1.00" meanIntervalHaltsPerVehicleWithin="-1.00" meanIntervalDurationWithin="-1.00" meanTimeLossWithin="-1.00"/>
    <interval begin="100.00" end="200.00" id="e1_2/1to1/1_0" nVehContrib="35" flow="1260.00" occupancy="20.95" speed="8.45" harmonicMeanSpeed="8.44" length="5.00" nVehEntered="36"/>
   <interval begin="100.00" end="200.00" id="e2_2/1to1/1_0" sampledSeconds="2702.19" nVehEntered="42" nVehLeft="0" nVehSeen="47" meanSpeed="7.83" meanTimeLoss="11.78" meanOccupancy="0.45" maxOccupancy="0.78" meanMaxJamLengthInVehicles="2.10" meanMaxJamLengthInMeters="14.35" maxJamLengthInVehicles="11" maxJamLengthInMeters="80.01" jamLengthInVehiclesSum="210" jamLengthInMetersSum="1435.15" meanHaltingDuration="18.50" maxHaltingDuration="57.00" haltingDurationSum="222.00" meanIntervalHaltingDuration="18.50" maxIntervalHaltingDuration="57.00" intervalHaltingDurationSum="222.00" startedHalts="12.00" meanVehicleNumber="27.24" maxVehicleNumber="47" />
   <interval begin="100.00" end="200.00" id="e3_2/1to1/1_0" meanTravelTime="46.14" meanOverlapTravelTime="46.73" meanSpeed="8.72" meanHaltsPerVehicle="0.00" meanTimeLoss="4.87" vehicleSum="26" meanSpeedWithin="8.58" meanHaltsPerVehicleWithin="0.00" meanDurationWithin="28.31" vehicleSumWithin="21" meanIntervalSpeedWithin="8.58" meanIntervalHaltsPerVehicleWithin="0.00" meanIntervalDurationWithin="28.31" meanTimeLossWithin="5.13"/>
    <interval begin="100.00" end="200.00" id="e1_1/1to0/1_0" nVehContrib="19" flow="684.00" occupancy="11.30" speed="8.71" harmonicMeanSpeed="8.65" length="5.00" nVehEntered="20"/>
   <interval begin="100.00" end="200.00" id="e2_1/1to0/1_0" sampledSeconds="1027.47" nVehEntered="26" nVehLeft="0" nVehSeen="26" meanSpeed="6.75" meanTimeLoss="12.34" meanOccupancy="0.17" maxOccupancy="0.43" meanMaxJamLengthInVehicles="2.10" meanMaxJamLengthInMeters="14.35" maxJamLengthInVehicles="11" maxJamLengthInMeters="80.01" jamLengthInVehiclesSum="210" jamLengthInMetersSum="1435.15" meanHaltingDuration="18.50" maxHaltingDuration="57.00" haltingDurationSum="222.00" meanIntervalHaltingDuration="18.50" maxIntervalHaltingDuration="57.00" intervalHaltingDurationSum="222.00" startedHalts="12.00" meanVehicleNumber="10.40" maxVehicleNumber="26" />
   <interval begin="100.00" end="200.00" id="e3_1/1to0/1_0" meanTravelTime="-1.00" meanOverlapTravelTime="-1.00" meanSpeed="-1.00" meanHaltsPerVehicle="-1.00" meanTimeLoss="-1.00" vehicleSum="0" meanSpeedWithin="7.50" meanHaltsPerVehicleWithin="0.42" meanDurationWithin="40.52" vehicleSumWithin="26" meanIntervalSpeedWithin="7.50" meanIntervalHaltsPerVehicleWithin="0.42" meanIntervalDurationWithin="40.52" meanTimeLossWithin="10.14"/>
    <interval begin="200.00" end="300.00" id="e1_2/1to1/1_0" nVehContrib="16" flow="576.00" occupancy="9.13" speed="8.60" harmonicMeanSpeed="8.57" length="5.00" nVehEntered="15"/>
   <interval begin="200.00" end="300.00" id="e2_2/1to1/1_0" sampledSeconds="5316.38" nVehEntered="7" nVehLeft="0" nVehSeen="54" meanSpeed="1.94" meanTimeLoss="79.37" meanOccupancy="0.89" maxOccupancy="0.90" meanMaxJamLengthInVehicles="40.46" meanMaxJamLengthInMeters="302.13" maxJamLengthInVehicles="54" maxJamLengthInMeters="406.00" jamLengthInVehiclesSum="4046" jamLengthInMetersSum="30212.73" meanHaltingDuration="79.81" maxHaltingDuration="157.00" haltingDurationSum="4310.00" meanIntervalHaltingDuration="75.70" maxIntervalHaltingDuration="100.00" intervalHaltingDurationSum="4088.00" startedHalts="42.00" meanVehicleNumber="53.19" maxVehicleNumber="54" />
   <interval begin="200.00" end="300.00" id="e3_2/1to1/1_0" meanTravelTime="47.39" meanOverlapTravelTime="47.99" meanSpeed="8.45" meanHaltsPerVehicle="0.00" meanTimeLoss="8.16" vehicleSum="27" meanSpeedWithin="5.54" meanHaltsPerVehicleWithin="1.00" meanDurationWithin="73.96" vehicleSumWithin="1" meanIntervalSpeedWithin="5.54" meanIntervalHaltsPerVehicleWithin="1.00" meanIntervalDurationWithin="73.96" meanTimeLossWithin="35.32"/>
    <interval begin="200.00" end="300.00" id="e1_1/1to0/1_0" nVehContrib="7" flow="252.00" occupancy="78.47" speed="8.37" harmonicMeanSpeed="8.37" length="5.00" nVehEntered="7"/>
   <interval begin="200.00" end="300.00" id="e2_1/1to0/1_0" sampledSeconds="4537.40" nVehEntered="27" nVehLeft="0" nVehSeen="53" meanSpeed="0.86" meanTimeLoss="78.18" meanOccupancy="0.76" maxOccupancy="0.88" meanMaxJamLengthInVehicles="40.13" meanMaxJamLengthInMeters="298.51" maxJamLengthInVehicles="53" maxJamLengthInMeters="395.05" jamLengthInVehiclesSum="4013" jamLengthInMetersSum="29851.41" meanHaltingDuration="80.68" maxHaltingDuration="157.00" haltingDurationSum="4276.00" meanIntervalHaltingDuration="76.49" maxIntervalHaltingDuration="100.00" intervalHaltingDurationSum="4054.00" startedHalts="41.00" meanVehicleNumber="45.53" maxVehicleNumber="53" />
   <interval begin="200.00" end="300.00" id="e3_1/1to0/1_0" meanTravelTime="-1.00" meanOverlapTravelTime="-1.00" meanSpeed="-1.00" meanHaltsPerVehicle="-1.00" meanTimeLoss="-1.00" vehicleSum="0" meanSpeedWithin="1.85" meanHaltsPerVehicleWithin="1.00" meanDurationWithin="106.00" vehicleSumWithin="53" meanIntervalSpeedWithin="0.94" meanIntervalHaltsPerVehicleWithin="0.79" meanIntervalDurationWithin="86.12" meanTimeLossWithin="76.26"/>
    <interval begin="300.00" end="400.00" id="e1_2/1to1/1_0" nVehContrib="0" flow="0.00" occupancy="0.00" speed="-1.00" harmonicMeanSpeed="-1.00" length="-1.00" nVehEntered="0"/>
   <interval begin="300.00" end="400.00" id="e2_2/1to1/1_0" sampledSeconds="5400.00" nVehEntered="0" nVehLeft="0" nVehSeen="54" meanSpeed="0.00" meanTimeLoss="100.00" meanOccupancy="0.90" maxOccupancy="0.90" meanMaxJamLengthInVehicles="54.00" meanMaxJamLengthInMeters="406.00" maxJamLengthInVehicles="54" maxJamLengthInMeters="406.00" jamLengthInVehiclesSum="5400" jamLengthInMetersSum="40600.10" meanHaltingDuration="179.81" maxHaltingDuration="257.00" haltingDurationSum="9710.00" meanIntervalHaltingDuration="100.00" maxIntervalHaltingDuration="100.00" intervalHaltingDurationSum="5400.00" startedHalts="0.00" meanVehicleNumber="54.00" maxVehicleNumber="54" />
   <interval begin="300.00" end="400.00" id="e3_2/1to1/1_0" meanTravelTime="-1.00" meanOverlapTravelTime="-1.00" meanSpeed="-1.00" meanHaltsPerVehicle="-1.00" meanTimeLoss="-1.00" vehicleSum="0" meanSpeedWithin="2.35" meanHaltsPerVehicleWithin="1.00" meanDurationWithin="173.96" vehicleSumWithin="1" meanIntervalSpeedWithin="0.00" meanIntervalHaltsPerVehicleWithin="0.00" meanIntervalDurationWithin="100.00" meanTimeLossWithin="100.00"/>
    <interval begin="300.00" end="400.00" id="e1_1/1to0/1_0" nVehContrib="0" flow="0.00" occupancy="100.00" speed="-1.00" harmonicMeanSpeed="-1.00" length="-1.00" nVehEntered="0"/>
   <interval begin="300.00" end="400.00" id="e2_1/1to0/1_0" sampledSeconds="5300.00" nVehEntered="0" nVehLeft="0" nVehSeen="53" meanSpeed="0.00" meanTimeLoss="100.00" meanOccupancy="0.88" maxOccupancy="0.88" meanMaxJamLengthInVehicles="53.00" meanMaxJamLengthInMeters="395.05" maxJamLengthInVehicles="53" maxJamLengthInMeters="395.05" jamLengthInVehiclesSum="5300" jamLengthInMetersSum="39505.20" meanHaltingDuration="180.68" maxHaltingDuration="257.00" haltingDurationSum="9576.00" meanIntervalHaltingDuration="100.00" maxIntervalHaltingDuration="100.00" intervalHaltingDurationSum="5300.00" startedHalts="0.00" meanVehicleNumber="53.00" maxVehicleNumber="53" />
   <interval begin="300.00" end="400.00" id="e3_1/1to0/1_0" meanTravelTime="-1.00" meanOverlapTravelTime="-1.00" meanSpeed="-1.00" meanHaltsPerVehicle="-1.00" meanTimeLoss="-1.00" vehicleSum="0" meanSpeedWithin="0.96" meanHaltsPerVehicleWithin="1.00" meanDurationWithin="206.00" vehicleSumWithin="53" meanIntervalSpeedWithin="0.00" meanIntervalHaltsPerVehicleWithin="0.00" meanIntervalDurationWithin="100.00" meanTimeLossWithin="98.11"/>
    <interval begin="400.00" end="500.00" id="e1_2/1to1/1_0" nVehContrib="0" flow="0.00" occupancy="0.00" speed="-1.00" harmonicMeanSpeed="-1.00" length="-1.00" nVehEntered="0"/>
   <interval begin="400.00" end="500.00" id="e2_2/1to1/1_0" sampledSeconds="5400.00" nVehEntered="0" nVehLeft="0" nVehSeen="54" meanSpeed="0.00" meanTimeLoss="100.00" meanOccupancy="0.90" maxOccupancy="0.90" meanMaxJamLengthInVehicles="54.00" meanMaxJamLengthInMeters="406.00" maxJamLengthInVehicles="54" maxJamLengthInMeters="406.00" jamLengthInVehiclesSum="5400" jamLengthInMetersSum="40600.10" meanHaltingDuration="279.81" maxHaltingDuration="357.00" haltingDurationSum="15110.00" meanIntervalHaltingDuration="100.00" maxIntervalHaltingDuration="100.00" intervalHaltingDurationSum="5400.00" startedHalts="0.00" meanVehicleNumber="54.00" maxVehicleNumber="54" />
   <interval begin="400.00" end="500.00" id="e3_2/1to1/1_0" meanTravelTime="-1.00" meanOverlapTravelTime="-1.00" meanSpeed="-1.00" meanHaltsPerVehicle="-1.00" meanTimeLoss="-1.00" vehicleSum="0" meanSpeedWithin="1.50" meanHaltsPerVehicleWithin="1.00" meanDurationWithin="273.96" vehicleSumWithin="1" meanIntervalSpeedWithin="0.00" meanIntervalHaltsPerVehicleWithin="0.00" meanIntervalDurationWithin="100.00" meanTimeLossWithin="100.00"/>
    <interval begin="400.00" end="500.00" id="e1_1/1to0/1_0" nVehContrib="0" flow="0.00" occupancy="100.00" speed="-1.00" harmonicMeanSpeed="-1.00" length="-1.00" nVehEntered="0"/>
   <interval begin="400.00" end="500.00" id="e2_1/1to0/1_0" sampledSeconds="5300.00" nVehEntered="0" nVehLeft="0" nVehSeen="53" meanSpeed="0.00" meanTimeLoss="100.00" meanOccupancy="0.88" maxOccupancy="0.88" meanMaxJamLengthInVehicles="53.00" meanMaxJamLengthInMeters="395.05" maxJamLengthInVehicles="53" maxJamLengthInMeters="395.05" jamLengthInVehiclesSum="5300" jamLengthInMetersSum="39505.20" meanHaltingDuration="280.68" maxHaltingDuration="357.00" haltingDurationSum="14876.00" meanIntervalHaltingDuration="100.00" maxIntervalHaltingDuration="100.00" intervalHaltingDurationSum="5300.00" startedHalts="0.00" meanVehicleNumber="53.00" maxVehicleNumber="53" />
   <interval begin="400.00" end="500.00" id="e3_1/1to0/1_0" meanTravelTime="-1.00" meanOverlapTravelTime="-1.00" meanSpeed="-1.00" meanHaltsPerVehicle="-1.00" meanTimeLoss="-1.00" vehicleSum="0" meanSpeedWithin="0.66" meanHaltsPerVehicleWithin="1.00" meanDurationWithin="306.00" vehicleSumWithin="53" meanIntervalSpeedWithin="0.00" meanIntervalHaltsPerVehicleWithin="0.00" meanIntervalDurationWithin="100.00" meanTimeLossWithin="98.11"/>
    <interval begin="500.00" end="600.00" id="e1_2/1to1/1_0" nVehContrib="0" flow="0.00" occupancy="0.00" speed="-1.00" harmonicMeanSpeed="-1.00" length="-1.00" nVehEntered="0"/>
   <interval begin="500.00" end="600.00" id="e2_2/1to1/1_0" sampledSeconds="5367.00" nVehEntered="0" nVehLeft="1" nVehSeen="54" meanSpeed="0.00" meanTimeLoss="99.39" meanOccupancy="0.89" maxOccupancy="0.90" meanMaxJamLengthInVehicles="53.67" meanMaxJamLengthInMeters="402.39" maxJamLengthInVehicles="54" maxJamLengthInMeters="406.00" jamLengthInVehiclesSum="5367" jamLengthInMetersSum="40238.78" meanHaltingDuration="380.68" maxHaltingDuration="457.00" haltingDurationSum="20176.00" meanIntervalHaltingDuration="100.00" maxIntervalHaltingDuration="100.00" intervalHaltingDurationSum="5300.00" startedHalts="0.00" meanVehicleNumber="53.67" maxVehicleNumber="54" />
   <interval begin="500.00" end="600.00" id="e3_2/1to1/1_0" meanTravelTime="-1.00" meanOverlapTravelTime="-1.00" meanSpeed="-1.00" meanHaltsPerVehicle="-1.00" meanTimeLoss="-1.00" vehicleSum="0" meanSpeedWithin="-1.00" meanHaltsPerVehicleWithin="-1.00" meanDurationWithin="-1.00" vehicleSumWithin="0" meanIntervalSpeedWithin="-1.00" meanIntervalHaltsPerVehicleWithin="-1.00" meanIntervalDurationWithin="-1.00" meanTimeLossWithin="-1.00"/>
    <interval begin="500.00" end="600.00" id="e1_1/1to0/1_0" nVehContrib="0" flow="0.00" occupancy="100.00" speed="-1.00" harmonicMeanSpeed="-1.00" length="-1.00" nVehEntered="0"/>
   <interval begin="500.00" end="600.00" id="e2_1/1to0/1_0" sampledSeconds="5300.00" nVehEntered="0" nVehLeft="0" nVehSeen="53" meanSpeed="0.00" meanTimeLoss="100.00" meanOccupancy="0.88" maxOccupancy="0.88" meanMaxJamLengthInVehicles="53.00" meanMaxJamLengthInMeters="395.05" maxJamLengthInVehicles="53" maxJamLengthInMeters="395.05" jamLengthInVehiclesSum="5300" jamLengthInMetersSum="39505.20" meanHaltingDuration="380.68" maxHaltingDuration="457.00" haltingDurationSum="20176.00" meanIntervalHaltingDuration="100.00" maxIntervalHaltingDuration="100.00" intervalHaltingDurationSum="5300.00" startedHalts="0.00" meanVehicleNumber="53.00" maxVehicleNumber="53" />
   <interval begin="500.00" end="600.00" id="e3_1/1to0/1_0" meanTravelTime="-1.00" meanOverlapTravelTime="-1.00" meanSpeed="-1.00" meanHaltsPerVehicle="-1.00" meanTimeLoss="-1.00" vehicleSum="0" meanSpeedWithin="0.50" meanHaltsPerVehicleWithin="1.00" meanDurationWithin="406.00" vehicleSumWithin="53" meanIntervalSpeedWithin="0.00" meanIntervalHaltsPerVehicleWithin="0.00" meanIntervalDurationWithin="100.00" meanTimeLossWithin="98.11"/>
    <interval begin="600.00" end="700.00" id="e1_2/1to1/1_0" nVehContrib="0" flow="0.00" occupancy="0.00" speed="-1.00" harmonicMeanSpeed="-1.00" length="-1.00" nVehEntered="0"/>
   <interval begin="600.00" end="700.00" id="e2_2/1to1/1_0" sampledSeconds="5300.00" nVehEntered="0" nVehLeft="0" nVehSeen="53" meanSpeed="0.00" meanTimeLoss="100.00" meanOccupancy="0.88" maxOccupancy="0.88" meanMaxJamLengthInVehicles="53.00" meanMaxJamLengthInMeters="395.05" maxJamLengthInVehicles="53" maxJamLengthInMeters="395.05" jamLengthInVehiclesSum="5300" jamLengthInMetersSum="39505.20" meanHaltingDuration="480.68" maxHaltingDuration="557.00" haltingDurationSum="25476.00" meanIntervalHaltingDuration="100.00" maxIntervalHaltingDuration="100.00" intervalHaltingDurationSum="5300.00" startedHalts="0.00" meanVehicleNumber="53.00" maxVehicleNumber="53" />
   <interval begin="600.00" end="700.00" id="e3_2/1to1/1_0" meanTravelTime="-1.00" meanOverlapTravelTime="-1.00" meanSpeed="-1.00" meanHaltsPerVehicle="-1.00" meanTimeLoss="-1.00" vehicleSum="0" meanSpeedWithin="-1.00" meanHaltsPerVehicleWithin="-1.00" meanDurationWithin="-1.00" vehicleSumWithin="0" meanIntervalSpeedWithin="-1.00" meanIntervalHaltsPerVehicleWithin="-1.00" meanIntervalDurationWithin="-1.00" meanTimeLossWithin="-1.00"/>
    <interval begin="600.00" end="700.00" id="e1_1/1to0/1_0" nVehContrib="0" flow="0.00" occupancy="100.00" speed="-1.00" harmonicMeanSpeed="-1.00" length="-1.00" nVehEntered="0"/>
   <interval begin="600.00" end="700.00" id="e2_1/1to0/1_0" sampledSeconds="5300.00" nVehEntered="0" nVehLeft="0" nVehSeen="53" meanSpeed="0.00" meanTimeLoss="100.00" meanOccupancy="0.88" maxOccupancy="0.88" meanMaxJamLengthInVehicles="53.00" meanMaxJamLengthInMeters="395.05" maxJamLengthInVehicles="53" maxJamLengthInMeters="395.05" jamLengthInVehiclesSum="5300" jamLengthInMetersSum="39505.20" meanHaltingDuration="480.68" maxHaltingDuration="557.00" haltingDurationSum="25476.00" meanIntervalHaltingDuration="100.00" maxIntervalHaltingDuration="100.00" intervalHaltingDurationSum="5300.00" startedHalts="0.00" meanVehicleNumber="53.00" maxVehicleNumber="53" />
   <interval begin="600.00" end="700.00" id="e3_1/1to0/1_0" meanTravelTime="-1.00" meanOverlapTravelTime="-1.00" meanSpeed="-1.00" meanHaltsPerVehicle="-1.00" meanTimeLoss="-1.00" vehicleSum="0" meanSpeedWithin="0.41" meanHaltsPerVehicleWithin="1.00" meanDurationWithin="506.00" vehicleSumWithin="53" meanIntervalSpeedWithin="0.00" meanIntervalHaltsPerVehicleWithin="0.00" meanIntervalDurationWithin="100.00" meanTimeLossWithin="98.11"/>
    <interval begin="700.00" end="800.00" id="e1_2/1to1/1_0" nVehContrib="0" flow="0.00" occupancy="0.00" speed="-1.00" harmonicMeanSpeed="-1.00" length="-1.00" nVehEntered="0"/>
   <interval begin="700.00" end="800.00" id="e2_2/1to1/1_0" sampledSeconds="5300.00" nVehEntered="0" nVehLeft="0" nVehSeen="53" meanSpeed="0.00" meanTimeLoss="100.00" meanOccupancy="0.88" maxOccupancy="0.88" meanMaxJamLengthInVehicles="53.00" meanMaxJamLengthInMeters="395.05" maxJamLengthInVehicles="53" maxJamLengthInMeters="395.05" jamLengthInVehiclesSum="5300" jamLengthInMetersSum="39505.20" meanHaltingDuration="580.68" maxHaltingDuration="657.00" haltingDurationSum="30776.00" meanIntervalHaltingDuration="100.00" maxIntervalHaltingDuration="100.00" intervalHaltingDurationSum="5300.00" startedHalts="0.00" meanVehicleNumber="53.00" maxVehicleNumber="53" />
   <interval begin="700.00" end="800.00" id="e3_2/1to1/1_0" meanTravelTime="-1.00" meanOverlapTravelTime="-1.00" meanSpeed="-1.00" meanHaltsPerVehicle="-1.00" meanTimeLoss="-1.00" vehicleSum="0" meanSpeedWithin="-1.00" meanHaltsPerVehicleWithin="-1.00" meanDurationWithin="-1.00" vehicleSumWithin="0" meanIntervalSpeedWithin="-1.00" meanIntervalHaltsPerVehicleWithin="-1.00" meanIntervalDurationWithin="-1.00" meanTimeLossWithin="-1.00"/>
    <interval begin="700.00" end="800.00" id="e1_1/1to0/1_0" nVehContrib="0" flow="0.00" occupancy="100.00" speed="-1.00" harmonicMeanSpeed="-1.00" length="-1.00" nVehEntered="0"/>
   <interval begin="700.00" end="800.00" id="e2_1/1to0/1_0" sampledSeconds="5300.00" nVehEntered="0" nVehLeft="0" nVehSeen="53" meanSpeed="0.00" meanTimeLoss="100.00" meanOccupancy="0.88" maxOccupancy="0.88" meanMaxJamLengthInVehicles="53.00" meanMaxJamLengthInMeters="395.05" maxJamLengthInVehicles="53" maxJamLengthInMeters="395.05" jamLengthInVehiclesSum="5300" jamLengthInMetersSum="39505.20" meanHaltingDuration="580.68" maxHaltingDuration="657.00" haltingDurationSum="30776.00" meanIntervalHaltingDuration="100.00" maxIntervalHaltingDuration="100.00" intervalHaltingDurationSum="5300.00" startedHalts="0.00" meanVehicleNumber="53.00" maxVehicleNumber="53" />
   <interval begin="700.00" end="800.00" id="e3_1/1to0/1_0" meanTravelTime="-1.00" meanOverlapTravelTime="-1.00" meanSpeed="-1.00" meanHaltsPerVehicle="-1.00" meanTimeLoss="-1.00" vehicleSum="0" meanSpeedWithin="0.34" meanHaltsPerVehicleWithin="1.00" meanDurationWithin="606.00" vehicleSumWithin="53" meanIntervalSpeedWithin="0.00" meanIntervalHaltsPerVehicleWithin="0.00" meanIntervalDurationWithin="100.00" meanTimeLossWithin="98.11"/>
    <interval begin="800.00" end="900.00" id="e1_2/1to1/1_0" nVehContrib="0" flow="0.00" occupancy="0.00" speed="-1.00" harmonicMeanSpeed="-1.00" length="-1.00" nVehEntered="0"/>
   <interval begin="800.00" end="900.00" id="e2_2/1to1/1_0" sampledSeconds="5300.00" nVehEntered="0" nVehLeft="0" nVehSeen="53" meanSpeed="0.00" meanTimeLoss="100.00" meanOccupancy="0.88" maxOccupancy="0.88" meanMaxJamLengthInVehicles="53.00" meanMaxJamLengthInMeters="395.05" maxJamLengthInVehicles="53" maxJamLengthInMeters="395.05" jamLengthInVehiclesSum="5300" jamLengthInMetersSum="39505.20" meanHaltingDuration="680.68" maxHaltingDuration="757.00" haltingDurationSum="36076.00" meanIntervalHaltingDuration="100.00" maxIntervalHaltingDuration="100.00" intervalHaltingDurationSum="5300.00" startedHalts="0.00" meanVehicleNumber="53.00" maxVehicleNumber="53" />
   <interval begin="800.00" end="900.00" id="e3_2/1to1/1_0" meanTravelTime="-1.00" meanOverlapTravelTime="-1.00" meanSpeed="-1.00" meanHaltsPerVehicle="-1.00" meanTimeLoss="-1.00" vehicleSum="0" meanSpeedWithin="-1.00" meanHaltsPerVehicleWithin="-1.00" meanDurationWithin="-1.00" vehicleSumWithin="0" meanIntervalSpeedWithin="-1.00" meanIntervalHaltsPerVehicleWithin="-1.00" meanIntervalDurationWithin="-1.00" meanTimeLossWithin="-1.00"/>
    <interval begin="800.00" end="900.00" id="e1_1/1to0/1_0" nVehContrib="0" flow="0.00" occupancy="100.00" speed="-1.00" harmonicMeanSpeed="-1.00" length="-1.00" nVehEntered="0"/>
   <interval begin="800.00" end="900.00" id="e2_1/1to0/1_0" sampledSeconds="5300.00" nVehEntered="0" nVehLeft="0" nVehSeen="53" meanSpeed="0.00" meanTimeLoss="100.00" meanOccupancy="0.88" maxOccupancy="0.88" meanMaxJamLengthInVehicles="53.00" meanMaxJamLengthInMeters="395.05" maxJamLengthInVehicles="53" maxJamLengthInMeters="395.05" jamLengthInVehiclesSum="5300" jamLengthInMetersSum="39505.20" meanHaltingDuration="680.68" maxHaltingDuration="757.00" haltingDurationSum="36076.00" meanIntervalHaltingDuration="100.00" maxIntervalHaltingDuration="100.00" intervalHaltingDurationSum="5300.00" startedHalts="0.00" meanVehicleNumber="53.00" maxVehicleNumber="53" />
   <interval begin="800.00" end="900.00" id="e3_1/1to0/1_0" meanTravelTime="-1.00" meanOverlapTravelTime="-1.00" meanSpeed="-1.00" meanHaltsPerVehicle="-1.00" meanTimeLoss="-1.00" vehicleSum="0" meanSpeedWithin="0.29" meanHaltsPerVehicleWithin="1.00" meanDurationWithin="706.00" vehicleSumWithin="53" meanIntervalSpeedWithin="0.00" meanIntervalHaltsPerVehicleWithin="0.00" meanIntervalDurationWithin="100.00" meanTimeLossWithin="98.11"/>
    <interval begin="900.00" end="1000.00" id="e1_2/1to1/1_0" nVehContrib="0" flow="0.00" occupancy="0.00" speed="-1.00" harmonicMeanSpeed="-1.00" length="-1.00" nVehEntered="0"/>
   <interval begin="900.00" end="1000.00" id="e2_2/1to1/1_0" sampledSeconds="5300.00" nVehEntered="0" nVehLeft="0" nVehSeen="53" meanSpeed="0.00" meanTimeLoss="100.00" meanOccupancy="0.88" maxOccupancy="0.88" meanMaxJamLengthInVehicles="53.00" meanMaxJamLengthInMeters="395.05" maxJamLengthInVehicles="53" maxJamLengthInMeters="395.05" jamLengthInVehiclesSum="5300" jamLengthInMetersSum="39505.20" meanHaltingDuration="780.68" maxHaltingDuration="857.00" haltingDurationSum="41376.00" meanIntervalHaltingDuration="100.00" maxIntervalHaltingDuration="100.00" intervalHaltingDurationSum="5300.00" startedHalts="0.00" meanVehicleNumber="53.00" maxVehicleNumber="53" />
   <interval begin="900.00" end="1000.00" id="e3_2/1to1/1_0" meanTravelTime="-1.00" meanOverlapTravelTime="-1.00" meanSpeed="-1.00" meanHaltsPerVehicle="-1.00" meanTimeLoss="-1.00" vehicleSum="0" meanSpeedWithin="-1.00" meanHaltsPerVehicleWithin="-1.00" meanDurationWithin="-1.00" vehicleSumWithin="0" meanIntervalSpeedWithin="-1.00" meanIntervalHaltsPerVehicleWithin="-1.00" meanIntervalDurationWithin="-1.00" meanTimeLossWithin="-1.00"/>
    <interval begin="900.00" end="1000.00" id="e1_1/1to0/1_0" nVehContrib="0" flow="0.00" occupancy="100.00" speed="-1.00" harmonicMeanSpeed="-1.00" length="-1.00" nVehEntered="0"/>
   <interval begin="900.00" end="1000.00" id="e2_1/1to0/1_0" sampledSeconds="5300.00" nVehEntered="0" nVehLeft="0" nVehSeen="53" meanSpeed="0.00" meanTimeLoss="100.00" meanOccupancy="0.88" maxOccupancy="0.88" meanMaxJamLengthInVehicles="53.00" meanMaxJamLengthInMeters="395.05" maxJamLengthInVehicles="53" maxJamLengthInMeters="395.05" jamLengthInVehiclesSum="5300" jamLengthInMetersSum="39505.20" meanHaltingDuration="780.68" maxHaltingDuration="857.00" haltingDurationSum="41376.00" meanIntervalHaltingDuration="100.00" maxIntervalHaltingDuration="100.00" intervalHaltingDurationSum="5300.00" startedHalts="0.00" meanVehicleNumber="53.00" maxVehicleNumber="53" />
   <interval begin="900.00" end="1000.00" id="e3_1/1to0/1_0" meanTravelTime="-1.00" meanOverlapTravelTime="-1.00" meanSpeed="-1.00" meanHaltsPerVehicle="-1.00" meanTimeLoss="-1.00" vehicleSum="0" meanSpeedWithin="0.26" meanHaltsPerVehicleWithin="1.00" meanDurationWithin="806.00" vehicleSumWithin="53" meanIntervalSpeedWithin="0.00" meanIntervalHaltsPerVehicleWithin="0.00" meanIntervalDurationWithin="100.00" meanTimeLossWithin="98.11"/>
</detector>
