<?xml version="1.0" encoding="UTF-8"?>

<!-- generated on Wed Feb 12 15:16:42 2020 by Eclipse SUMO Version v1_5_0+0030-33ecf87
This data file and the accompanying materials
are made available under the terms of the Eclipse Public License v2.0
which accompanies this distribution, and is available at
http://www.eclipse.org/legal/epl-v20.html
SPDX-License-Identifier: EPL-2.0
<configuration xmlns:xsi="http://www.w3.org/2001/XMLSchema-instance" xsi:noNamespaceSchemaLocation="http://sumo.dlr.de/xsd/sumoConfiguration.xsd">

    <input>
        <net-file value="net.net.xml"/>
        <route-files value="input_routes.rou.xml"/>
    </input>

    <output>
        <write-license value="true"/>
        <fcd-output value="fcd.xml"/>
        <fcd-output.signals value="true"/>
        <tripinfo-output value="tripinfos.xml"/>
        <lanechange-output value="lanechanges.xml"/>
    </output>

    <time>
        <step-length value="0.2"/>
    </time>

    <processing>
        <lateral-resolution value="0.2"/>
        <default.speeddev value="0"/>
    </processing>

    <report>
        <xml-validation value="never"/>
        <no-step-log value="true"/>
    </report>

    <gui_only>
        <tracker-interval value="0.2"/>
    </gui_only>

</configuration>
-->

<fcd-export xmlns:xsi="http://www.w3.org/2001/XMLSchema-instance" xsi:noNamespaceSchemaLocation="http://sumo.dlr.de/xsd/fcd_file.xsd">
    <timestep time="0.00">
        <vehicle id="blocker1" x="0.00" y="-4.80" angle="90.00" type="t1" speed="27.78" pos="0.00" lane="beg_1" slope="0.00" signals="0"/>
        <vehicle id="merge" x="5.00" y="-8.00" angle="90.00" type="t0" speed="27.78" pos="5.00" lane="beg_0" slope="0.00" signals="0"/>
    </timestep>
    <timestep time="0.20">
        <vehicle id="blocker1" x="5.56" y="-4.76" angle="89.78" type="t1" speed="27.78" pos="5.56" lane="beg_1" slope="0.00" signals="0"/>
        <vehicle id="merge" x="10.56" y="-8.00" angle="90.00" type="t0" speed="27.78" pos="10.56" lane="beg_0" slope="0.00" signals="0"/>
    </timestep>
    <timestep time="0.40">
        <vehicle id="blocker1" x="10.93" y="-4.68" angle="89.56" type="t1" speed="26.88" pos="10.93" lane="beg_1" slope="0.00" signals="2"/>
        <vehicle id="merge" x="16.11" y="-8.00" angle="90.00" type="t0" speed="27.78" pos="16.11" lane="beg_0" slope="0.00" signals="2"/>
    </timestep>
    <timestep time="0.60">
        <vehicle id="blocker1" x="16.13" y="-4.56" angle="89.33" type="t1" speed="25.98" pos="16.13" lane="beg_1" slope="0.00" signals="2"/>
        <vehicle id="merge" x="21.67" y="-8.00" angle="90.00" type="t0" speed="27.78" pos="21.67" lane="beg_0" slope="0.00" signals="2"/>
    </timestep>
    <timestep time="0.80">
        <vehicle id="blocker1" x="21.14" y="-4.40" angle="89.08" type="t1" speed="25.08" pos="21.14" lane="beg_1" slope="0.00" signals="2"/>
        <vehicle id="merge" x="27.22" y="-8.00" angle="90.00" type="t0" speed="27.78" pos="27.22" lane="beg_0" slope="0.00" signals="2"/>
    </timestep>
    <timestep time="1.00">
        <vehicle id="blocker1" x="25.98" y="-4.20" angle="88.84" type="t1" speed="24.18" pos="25.98" lane="beg_1" slope="0.00" signals="10"/>
        <vehicle id="merge" x="32.78" y="-8.00" angle="90.00" type="t0" speed="27.78" pos="32.78" lane="beg_0" slope="0.00" signals="2"/>
    </timestep>
    <timestep time="1.20">
        <vehicle id="blocker1" x="30.92" y="-4.00" angle="88.85" type="t1" speed="24.70" pos="30.92" lane="beg_1" slope="0.00" signals="2"/>
        <vehicle id="merge" x="38.34" y="-8.00" angle="90.00" type="t0" speed="27.78" pos="38.34" lane="beg_0" slope="0.00" signals="2"/>
    </timestep>
    <timestep time="1.40">
        <vehicle id="blocker1" x="35.92" y="-3.80" angle="88.85" type="t1" speed="25.00" pos="35.92" lane="beg_1" slope="0.00" signals="2"/>
        <vehicle id="merge" x="43.89" y="-8.00" angle="90.00" type="t0" speed="27.78" pos="43.89" lane="beg_0" slope="0.00" signals="2"/>
    </timestep>
    <timestep time="1.60">
        <vehicle id="blocker1" x="40.74" y="-3.60" angle="88.83" type="t1" speed="24.10" pos="40.74" lane="beg_1" slope="0.00" signals="10"/>
        <vehicle id="merge" x="49.45" y="-8.00" angle="90.00" type="t0" speed="27.78" pos="49.45" lane="beg_0" slope="0.00" signals="2"/>
    </timestep>
    <timestep time="1.80">
        <vehicle id="blocker1" x="45.67" y="-3.40" angle="88.85" type="t1" speed="24.62" pos="45.67" lane="beg_1" slope="0.00" signals="2"/>
        <vehicle id="merge" x="55.00" y="-8.00" angle="90.00" type="t0" speed="27.78" pos="55.00" lane="beg_0" slope="0.00" signals="2"/>
    </timestep>
    <timestep time="2.00">
        <vehicle id="blocker1" x="50.67" y="-3.20" angle="88.85" type="t1" speed="25.00" pos="50.67" lane="beg_1" slope="0.00" signals="2"/>
        <vehicle id="merge" x="60.56" y="-7.96" angle="89.78" type="t0" speed="27.78" pos="60.56" lane="beg_0" slope="0.00" signals="2"/>
    </timestep>
    <timestep time="2.20">
        <vehicle id="blocker1" x="55.77" y="-3.00" angle="88.87" type="t1" speed="25.52" pos="55.77" lane="beg_2" slope="0.00" signals="2"/>
        <vehicle id="merge" x="66.12" y="-7.88" angle="89.57" type="t0" speed="27.78" pos="66.12" lane="beg_0" slope="0.00" signals="2"/>
    </timestep>
    <timestep time="2.40">
        <vehicle id="blocker1" x="60.98" y="-2.80" angle="88.88" type="t1" speed="26.04" pos="60.98" lane="beg_2" slope="0.00" signals="2"/>
        <vehicle id="merge" x="71.67" y="-7.76" angle="89.35" type="t0" speed="27.78" pos="71.67" lane="beg_0" slope="0.00" signals="2"/>
    </timestep>
    <timestep time="2.60">
        <vehicle id="blocker1" x="66.29" y="-2.60" angle="88.89" type="t1" speed="26.56" pos="66.29" lane="beg_2" slope="0.00" signals="0"/>
        <vehicle id="merge" x="77.23" y="-7.60" angle="89.13" type="t0" speed="27.78" pos="77.23" lane="beg_0" slope="0.00" signals="2"/>
    </timestep>
    <timestep time="2.80">
        <vehicle id="blocker1" x="71.71" y="-2.40" angle="88.90" type="t1" speed="27.08" pos="71.71" lane="beg_2" slope="0.00" signals="0"/>
        <vehicle id="merge" x="82.78" y="-7.40" angle="88.91" type="t0" speed="27.78" pos="82.78" lane="beg_0" slope="0.00" signals="2"/>
    </timestep>
    <timestep time="3.00">
        <vehicle id="blocker1" x="77.23" y="-2.20" angle="88.91" type="t1" speed="27.60" pos="77.23" lane="beg_2" slope="0.00" signals="0"/>
        <vehicle id="merge" x="88.34" y="-7.20" angle="88.91" type="t0" speed="27.78" pos="88.34" lane="beg_0" slope="0.00" signals="2"/>
    </timestep>
    <timestep time="3.20">
        <vehicle id="blocker1" x="82.78" y="-2.00" angle="88.91" type="t1" speed="27.78" pos="82.78" lane="beg_2" slope="0.00" signals="0"/>
        <vehicle id="merge" x="93.90" y="-7.00" angle="88.91" type="t0" speed="27.78" pos="93.90" lane="beg_0" slope="0.00" signals="2"/>
    </timestep>
    <timestep time="3.40">
        <vehicle id="blocker1" x="88.34" y="-1.84" angle="89.13" type="t1" speed="27.78" pos="88.34" lane="beg_2" slope="0.00" signals="0"/>
        <vehicle id="merge" x="99.45" y="-6.80" angle="88.91" type="t0" speed="27.78" pos="99.45" lane="beg_0" slope="0.00" signals="2"/>
    </timestep>
    <timestep time="3.60">
        <vehicle id="blocker1" x="93.90" y="-1.72" angle="89.35" type="t1" speed="27.78" pos="93.90" lane="beg_2" slope="0.00" signals="0"/>
        <vehicle id="merge" x="105.01" y="-6.60" angle="88.91" type="t0" speed="27.78" pos="105.01" lane="beg_0" slope="0.00" signals="2"/>
    </timestep>
    <timestep time="3.80">
        <vehicle id="blocker1" x="99.45" y="-1.64" angle="89.57" type="t1" speed="27.78" pos="99.45" lane="beg_2" slope="0.00" signals="0"/>
        <vehicle id="merge" x="110.56" y="-6.40" angle="88.91" type="t0" speed="27.78" pos="110.56" lane="beg_0" slope="0.00" signals="2"/>
    </timestep>
    <timestep time="4.00">
        <vehicle id="blocker1" x="105.01" y="-1.60" angle="89.78" type="t1" speed="27.78" pos="105.01" lane="beg_2" slope="0.00" signals="0"/>
        <vehicle id="merge" x="116.12" y="-6.20" angle="88.91" type="t0" speed="27.78" pos="116.12" lane="beg_1" slope="0.00" signals="2"/>
    </timestep>
    <timestep time="4.20">
        <vehicle id="blocker1" x="110.56" y="-1.60" angle="90.00" type="t1" speed="27.78" pos="110.56" lane="beg_2" slope="0.00" signals="0"/>
        <vehicle id="merge" x="121.68" y="-6.00" angle="88.91" type="t0" speed="27.78" pos="121.68" lane="beg_1" slope="0.00" signals="2"/>
    </timestep>
    <timestep time="4.40">
        <vehicle id="blocker1" x="116.12" y="-1.60" angle="90.00" type="t1" speed="27.78" pos="116.12" lane="beg_2" slope="0.00" signals="0"/>
        <vehicle id="merge" x="127.23" y="-5.84" angle="89.13" type="t0" speed="27.78" pos="127.23" lane="beg_1" slope="0.00" signals="2"/>
    </timestep>
    <timestep time="4.60">
        <vehicle id="blocker1" x="121.68" y="-1.60" angle="90.00" type="t1" speed="27.78" pos="121.68" lane="beg_2" slope="0.00" signals="0"/>
        <vehicle id="merge" x="132.79" y="-5.72" angle="89.35" type="t0" speed="27.78" pos="132.79" lane="beg_1" slope="0.00" signals="2"/>
    </timestep>
    <timestep time="4.80">
        <vehicle id="blocker1" x="127.23" y="-1.60" angle="90.00" type="t1" speed="27.78" pos="127.23" lane="beg_2" slope="0.00" signals="0"/>
        <vehicle id="merge" x="138.34" y="-5.64" angle="89.57" type="t0" speed="27.78" pos="138.34" lane="beg_1" slope="0.00" signals="2"/>
    </timestep>
    <timestep time="5.00">
        <vehicle id="blocker1" x="132.79" y="-1.60" angle="90.00" type="t1" speed="27.78" pos="132.79" lane="beg_2" slope="0.00" signals="0"/>
        <vehicle id="merge" x="143.90" y="-5.52" angle="89.35" type="t0" speed="27.78" pos="143.90" lane="beg_1" slope="0.00" signals="2"/>
    </timestep>
    <timestep time="5.20">
        <vehicle id="blocker1" x="138.34" y="-1.60" angle="90.00" type="t1" speed="27.78" pos="138.34" lane="beg_2" slope="0.00" signals="0"/>
        <vehicle id="merge" x="149.46" y="-5.36" angle="89.13" type="t0" speed="27.78" pos="149.46" lane="beg_1" slope="0.00" signals="0"/>
    </timestep>
    <timestep time="5.40">
        <vehicle id="blocker1" x="143.90" y="-1.60" angle="90.00" type="t1" speed="27.78" pos="143.90" lane="beg_2" slope="0.00" signals="0"/>
        <vehicle id="merge" x="155.01" y="-5.20" angle="89.13" type="t0" speed="27.78" pos="155.01" lane="beg_1" slope="0.00" signals="0"/>
    </timestep>
    <timestep time="5.60">
        <vehicle id="blocker1" x="149.46" y="-1.60" angle="90.00" type="t1" speed="27.78" pos="149.46" lane="beg_2" slope="0.00" signals="0"/>
        <vehicle id="merge" x="160.57" y="-5.04" angle="89.13" type="t0" speed="27.78" pos="160.57" lane="beg_1" slope="0.00" signals="0"/>
    </timestep>
    <timestep time="5.80">
        <vehicle id="blocker1" x="155.01" y="-1.60" angle="90.00" type="t1" speed="27.78" pos="155.01" lane="beg_2" slope="0.00" signals="0"/>
        <vehicle id="merge" x="166.12" y="-4.92" angle="89.35" type="t0" speed="27.78" pos="166.12" lane="beg_1" slope="0.00" signals="0"/>
    </timestep>
    <timestep time="6.00">
        <vehicle id="blocker1" x="160.57" y="-1.60" angle="90.00" type="t1" speed="27.78" pos="160.57" lane="beg_2" slope="0.00" signals="0"/>
        <vehicle id="merge" x="171.68" y="-4.84" angle="89.57" type="t0" speed="27.78" pos="171.68" lane="beg_1" slope="0.00" signals="0"/>
    </timestep>
    <timestep time="6.20">
        <vehicle id="blocker1" x="166.12" y="-1.60" angle="90.00" type="t1" speed="27.78" pos="166.12" lane="beg_2" slope="0.00" signals="0"/>
        <vehicle id="merge" x="177.24" y="-4.80" angle="89.78" type="t0" speed="27.78" pos="177.24" lane="beg_1" slope="0.00" signals="0"/>
    </timestep>
    <timestep time="6.40">
        <vehicle id="blocker1" x="171.68" y="-1.60" angle="90.00" type="t1" speed="27.78" pos="171.68" lane="beg_2" slope="0.00" signals="0"/>
        <vehicle id="merge" x="182.79" y="-4.80" angle="90.00" type="t0" speed="27.78" pos="182.79" lane="beg_1" slope="0.00" signals="0"/>
    </timestep>
    <timestep time="6.60">
        <vehicle id="blocker1" x="177.24" y="-1.60" angle="90.00" type="t1" speed="27.78" pos="177.24" lane="beg_2" slope="0.00" signals="0"/>
        <vehicle id="merge" x="188.35" y="-4.80" angle="90.00" type="t0" speed="27.78" pos="188.35" lane="beg_1" slope="0.00" signals="0"/>
    </timestep>
    <timestep time="6.80">
        <vehicle id="blocker1" x="182.79" y="-1.60" angle="90.00" type="t1" speed="27.78" pos="182.79" lane="beg_2" slope="0.00" signals="0"/>
        <vehicle id="merge" x="193.90" y="-4.80" angle="90.00" type="t0" speed="27.78" pos="193.90" lane="beg_1" slope="0.00" signals="0"/>
    </timestep>
    <timestep time="7.00">
        <vehicle id="blocker1" x="188.35" y="-1.60" angle="90.00" type="t1" speed="27.78" pos="188.35" lane="beg_2" slope="0.00" signals="0"/>
        <vehicle id="merge" x="199.46" y="-4.80" angle="90.00" type="t0" speed="27.78" pos="3.46" lane=":gneJ1_0_0" slope="0.00" signals="0"/>
    </timestep>
    <timestep time="7.20">
        <vehicle id="blocker1" x="193.90" y="-1.60" angle="90.00" type="t1" speed="27.78" pos="193.90" lane="beg_2" slope="0.00" signals="0"/>
        <vehicle id="merge" x="205.02" y="-4.80" angle="90.00" type="t0" speed="27.78" pos="1.02" lane="end_0" slope="0.00" signals="0"/>
    </timestep>
    <timestep time="7.40">
        <vehicle id="blocker1" x="199.46" y="-1.60" angle="90.00" type="t1" speed="27.78" pos="3.46" lane=":gneJ1_0_1" slope="0.00" signals="0"/>
        <vehicle id="merge" x="210.57" y="-4.80" angle="90.00" type="t0" speed="27.78" pos="6.57" lane="end_0" slope="0.00" signals="0"/>
    </timestep>
    <timestep time="7.60">
        <vehicle id="blocker1" x="205.02" y="-1.60" angle="90.00" type="t1" speed="27.78" pos="1.02" lane="end_1" slope="0.00" signals="0"/>
        <vehicle id="merge" x="216.13" y="-4.80" angle="90.00" type="t0" speed="27.78" pos="12.13" lane="end_0" slope="0.00" signals="0"/>
    </timestep>
    <timestep time="7.80">
        <vehicle id="blocker1" x="210.57" y="-1.60" angle="90.00" type="t1" speed="27.78" pos="6.57" lane="end_1" slope="0.00" signals="0"/>
        <vehicle id="merge" x="221.68" y="-4.80" angle="90.00" type="t0" speed="27.78" pos="17.68" lane="end_0" slope="0.00" signals="0"/>
    </timestep>
    <timestep time="8.00">
        <vehicle id="blocker1" x="216.13" y="-1.60" angle="90.00" type="t1" speed="27.78" pos="12.13" lane="end_1" slope="0.00" signals="0"/>
        <vehicle id="merge" x="227.24" y="-4.80" angle="90.00" type="t0" speed="27.78" pos="23.24" lane="end_0" slope="0.00" signals="0"/>
    </timestep>
    <timestep time="8.20">
        <vehicle id="blocker1" x="221.68" y="-1.60" angle="90.00" type="t1" speed="27.78" pos="17.68" lane="end_1" slope="0.00" signals="0"/>
        <vehicle id="merge" x="232.80" y="-4.80" angle="90.00" type="t0" speed="27.78" pos="28.80" lane="end_0" slope="0.00" signals="0"/>
    </timestep>
    <timestep time="8.40">
        <vehicle id="blocker1" x="227.24" y="-1.60" angle="90.00" type="t1" speed="27.78" pos="23.24" lane="end_1" slope="0.00" signals="0"/>
        <vehicle id="merge" x="238.35" y="-4.80" angle="90.00" type="t0" speed="27.78" pos="34.35" lane="end_0" slope="0.00" signals="0"/>
    </timestep>
    <timestep time="8.60">
        <vehicle id="blocker1" x="232.80" y="-1.60" angle="90.00" type="t1" speed="27.78" pos="28.80" lane="end_1" slope="0.00" signals="0"/>
        <vehicle id="merge" x="243.91" y="-4.80" angle="90.00" type="t0" speed="27.78" pos="39.91" lane="end_0" slope="0.00" signals="0"/>
    </timestep>
    <timestep time="8.80">
        <vehicle id="blocker1" x="238.35" y="-1.60" angle="90.00" type="t1" speed="27.78" pos="34.35" lane="end_1" slope="0.00" signals="0"/>
        <vehicle id="merge" x="249.46" y="-4.80" angle="90.00" type="t0" speed="27.78" pos="45.46" lane="end_0" slope="0.00" signals="0"/>
    </timestep>
    <timestep time="9.00">
        <vehicle id="blocker1" x="243.91" y="-1.60" angle="90.00" type="t1" speed="27.78" pos="39.91" lane="end_1" slope="0.00" signals="0"/>
        <vehicle id="merge" x="255.02" y="-4.80" angle="90.00" type="t0" speed="27.78" pos="51.02" lane="end_0" slope="0.00" signals="0"/>
    </timestep>
    <timestep time="9.20">
        <vehicle id="blocker1" x="249.46" y="-1.60" angle="90.00" type="t1" speed="27.78" pos="45.46" lane="end_1" slope="0.00" signals="0"/>
        <vehicle id="merge" x="260.58" y="-4.80" angle="90.00" type="t0" speed="27.78" pos="56.58" lane="end_0" slope="0.00" signals="0"/>
    </timestep>
    <timestep time="9.40">
        <vehicle id="blocker1" x="255.02" y="-1.60" angle="90.00" type="t1" speed="27.78" pos="51.02" lane="end_1" slope="0.00" signals="0"/>
        <vehicle id="merge" x="266.13" y="-4.80" angle="90.00" type="t0" speed="27.78" pos="62.13" lane="end_0" slope="0.00" signals="0"/>
    </timestep>
    <timestep time="9.60">
        <vehicle id="blocker1" x="260.58" y="-1.60" angle="90.00" type="t1" speed="27.78" pos="56.58" lane="end_1" slope="0.00" signals="0"/>
        <vehicle id="merge" x="271.69" y="-4.80" angle="90.00" type="t0" speed="27.78" pos="67.69" lane="end_0" slope="0.00" signals="0"/>
    </timestep>
    <timestep time="9.80">
        <vehicle id="blocker1" x="266.13" y="-1.60" angle="90.00" type="t1" speed="27.78" pos="62.13" lane="end_1" slope="0.00" signals="0"/>
        <vehicle id="merge" x="277.24" y="-4.80" angle="90.00" type="t0" speed="27.78" pos="73.24" lane="end_0" slope="0.00" signals="0"/>
    </timestep>
    <timestep time="10.00">
        <vehicle id="blocker1" x="271.69" y="-1.60" angle="90.00" type="t1" speed="27.78" pos="67.69" lane="end_1" slope="0.00" signals="0"/>
        <vehicle id="merge" x="282.80" y="-4.80" angle="90.00" type="t0" speed="27.78" pos="78.80" lane="end_0" slope="0.00" signals="0"/>
    </timestep>
    <timestep time="10.20">
        <vehicle id="blocker1" x="277.24" y="-1.60" angle="90.00" type="t1" speed="27.78" pos="73.24" lane="end_1" slope="0.00" signals="0"/>
        <vehicle id="merge" x="288.36" y="-4.80" angle="90.00" type="t0" speed="27.78" pos="84.36" lane="end_0" slope="0.00" signals="0"/>
    </timestep>
    <timestep time="10.40">
        <vehicle id="blocker1" x="282.80" y="-1.60" angle="90.00" type="t1" speed="27.78" pos="78.80" lane="end_1" slope="0.00" signals="0"/>
        <vehicle id="merge" x="293.91" y="-4.80" angle="90.00" type="t0" speed="27.78" pos="89.91" lane="end_0" slope="0.00" signals="0"/>
    </timestep>
    <timestep time="10.60">
        <vehicle id="blocker1" x="288.36" y="-1.60" angle="90.00" type="t1" speed="27.78" pos="84.36" lane="end_1" slope="0.00" signals="0"/>
        <vehicle id="merge" x="299.47" y="-4.80" angle="90.00" type="t0" speed="27.78" pos="95.47" lane="end_0" slope="0.00" signals="0"/>
    </timestep>
    <timestep time="10.80">
        <vehicle id="blocker1" x="293.91" y="-1.60" angle="90.00" type="t1" speed="27.78" pos="89.91" lane="end_1" slope="0.00" signals="0"/>
    </timestep>
    <timestep time="11.00">
        <vehicle id="blocker1" x="299.47" y="-1.60" angle="90.00" type="t1" speed="27.78" pos="95.47" lane="end_1" slope="0.00" signals="0"/>
    </timestep>
    <timestep time="11.20"/>
</fcd-export>
