<?xml version="1.0" encoding="UTF-8"?>

<!-- generated on 04/21/17 08:18:23 by SUMO Version dev-SVN-r23990
<?xml version="1.0" encoding="UTF-8"?>

<configuration xmlns:xsi="http://www.w3.org/2001/XMLSchema-instance" xsi:noNamespaceSchemaLocation="http://sumo.dlr.de/xsd/sumoConfiguration.xsd">

    <input>
        <net-file value="net.net.xml"/>
        <route-files value="routes.rou.xml"/>
    </input>

    <output>
        <vehroute-output value="vehroutes.xml"/>
    </output>

    <report>
        <xml-validation value="never"/>
        <no-step-log value="true"/>
    </report>

    <traci_server>
        <remote-port value="60076"/>
    </traci_server>

</configuration>
-->

<routes xmlns:xsi="http://www.w3.org/2001/XMLSchema-instance" xsi:noNamespaceSchemaLocation="http://sumo.dlr.de/xsd/routes_file.xsd">
    <vehicle id="veh0" type="SUMO_DEFAULT_TYPE" depart="0.00" departPos="236.15" arrivalPos="5.00" arrival="800.00">
        <routeDistribution>
            <route replacedOnEdge="1si" replacedAtTime="5.00" probability="0" edges="1si 2o"/>
            <route edges="1si 2o 2fi 2si 3o 3fi"/>
        </routeDistribution>
    </vehicle>

</routes>
