<?xml version="1.0" encoding="UTF-8"?>

<!-- generated on 05/02/13 14:14:25 by SUMO sumo Version 0.17.0
<?xml version="1.0" encoding="UTF-8"?>

<configuration xmlns:xsi="http://www.w3.org/2001/XMLSchema-instance" xsi:noNamespaceSchemaLocation="http://sumo-sim.org/xsd/sumoConfiguration.xsd">

    <input>
        <net-file value="net.net.xml"/>
        <additional-files value="input_routes.rou.xml,input_additional.add.xml,input_additional2.add.xml"/>
    </input>

    <time>
        <begin value="0"/>
        <end value="1000"/>
    </time>

    <processing>
        <time-to-teleport value="-1"/>
    </processing>

    <report>
        <no-duration-log value="true"/>
        <no-step-log value="true"/>
    </report>

</configuration>
-->

<meandata xmlns:xsi="http://www.w3.org/2001/XMLSchema-instance" xsi:noNamespaceSchemaLocation="http://sumo-sim.org/xsd/meandata_file.xsd">
    <interval begin="600.00" end="615.00" id="dump_15">
        <edge id="3/1to2/1">
            <lane id="3/1to2/1_0" sampledSeconds="300.00" CO_abs="1911.468333" CO2_abs="180507.833333" HC_abs="104.826000" PMx_abs="6.378446" NOx_abs="251.853000" fuel_abs="71.965654"
            CO_normed="1174.782074" CO2_normed="110939.513444" HC_normed="64.425711" PMx_normed="3.920172" NOx_normed="154.788015" fuel_normed="44.229851"
            traveltime="100.00" CO_perVeh="637.156111" CO2_perVeh="60169.277778" HC_perVeh="34.942000" PMx_perVeh="2.126149" NOx_perVeh="83.951000" fuel_perVeh="23.988551"/>
        </edge>
    </interval>
    <interval begin="615.00" end="630.00" id="dump_15">
        <edge id="3/1to2/1">
            <lane id="3/1to2/1_0" sampledSeconds="300.00" CO_abs="1911.468333" CO2_abs="180507.833333" HC_abs="104.826000" PMx_abs="6.378446" NOx_abs="251.853000" fuel_abs="71.965654"
            CO_normed="1174.782074" CO2_normed="110939.513444" HC_normed="64.425711" PMx_normed="3.920172" NOx_normed="154.788015" fuel_normed="44.229851"
            traveltime="100.00" CO_perVeh="637.156111" CO2_perVeh="60169.277778" HC_perVeh="34.942000" PMx_perVeh="2.126149" NOx_perVeh="83.951000" fuel_perVeh="23.988551"/>
        </edge>
    </interval>
    <interval begin="630.00" end="645.00" id="dump_15">
        <edge id="3/1to2/1">
            <lane id="3/1to2/1_0" sampledSeconds="300.00" CO_abs="1911.468333" CO2_abs="180507.833333" HC_abs="104.826000" PMx_abs="6.378446" NOx_abs="251.853000" fuel_abs="71.965654"
            CO_normed="1174.782074" CO2_normed="110939.513444" HC_normed="64.425711" PMx_normed="3.920172" NOx_normed="154.788015" fuel_normed="44.229851"
            traveltime="100.00" CO_perVeh="637.156111" CO2_perVeh="60169.277778" HC_perVeh="34.942000" PMx_perVeh="2.126149" NOx_perVeh="83.951000" fuel_perVeh="23.988551"/>
        </edge>
    </interval>
    <interval begin="645.00" end="660.00" id="dump_15">
        <edge id="3/1to2/1">
            <lane id="3/1to2/1_0" sampledSeconds="300.00" CO_abs="1911.468333" CO2_abs="180507.833333" HC_abs="104.826000" PMx_abs="6.378446" NOx_abs="251.853000" fuel_abs="71.965654"
            CO_normed="1174.782074" CO2_normed="110939.513444" HC_normed="64.425711" PMx_normed="3.920172" NOx_normed="154.788015" fuel_normed="44.229851"
            traveltime="100.00" CO_perVeh="637.156111" CO2_perVeh="60169.277778" HC_perVeh="34.942000" PMx_perVeh="2.126149" NOx_perVeh="83.951000" fuel_perVeh="23.988551"/>
        </edge>
    </interval>
</meandata>
