<?xml version="1.0" encoding="UTF-8"?>

<!-- generated on Sun Apr 19 08:19:17 2020 by Eclipse SUMO Version v1_5_0+1206-9f2346b26d
This data file and the accompanying materials
are made available under the terms of the Eclipse Public License v2.0
which accompanies this distribution, and is available at
http://www.eclipse.org/legal/epl-v20.html
SPDX-License-Identifier: EPL-2.0
<configuration xmlns:xsi="http://www.w3.org/2001/XMLSchema-instance" xsi:noNamespaceSchemaLocation="http://sumo.dlr.de/xsd/sumoConfiguration.xsd">

    <input>
        <net-file value="net3.net.xml"/>
        <additional-files value="input_routes.rou.xml"/>
    </input>

    <output>
        <write-license value="true"/>
        <tripinfo-output value="tripinfos.xml"/>
    </output>

    <processing>
        <default.speeddev value="0"/>
        <pedestrian.model value="striping"/>
        <pedestrian.striping.dawdling value="0"/>
    </processing>

    <report>
        <xml-validation value="never"/>
        <no-step-log value="true"/>
    </report>

</configuration>
-->

<tripinfos xmlns:xsi="http://www.w3.org/2001/XMLSchema-instance" xsi:noNamespaceSchemaLocation="http://sumo.dlr.de/xsd/tripinfo_file.xsd">
    <personinfo id="fwd0" depart="1.00" type="ped">
        <walk depart="1.00" departPos="0.00" arrival="59.00" arrivalPos="85.15" duration="58.00" routeLength="85.15" timeLoss="0.16" maxSpeed="1.47"/>
    </personinfo>
    <personinfo id="bwd0" depart="2.00" type="ped">
        <walk depart="2.00" departPos="85.15" arrival="68.00" arrivalPos="0.00" duration="66.00" routeLength="85.15" timeLoss="0.79" maxSpeed="1.31"/>
    </personinfo>
    <personinfo id="bwd1" depart="3.00" type="ped">
        <walk depart="3.00" departPos="85.15" arrival="68.00" arrivalPos="0.00" duration="65.00" routeLength="85.15" timeLoss="8.59" maxSpeed="1.51"/>
    </personinfo>
    <personinfo id="fwd1" depart="3.00" type="ped">
        <walk depart="3.00" departPos="0.00" arrival="69.00" arrivalPos="85.15" duration="66.00" routeLength="85.15" timeLoss="0.66" maxSpeed="1.30"/>
    </personinfo>
    <personinfo id="fwd2" depart="5.00" type="ped">
        <walk depart="5.00" departPos="0.00" arrival="69.00" arrivalPos="85.15" duration="64.00" routeLength="85.15" timeLoss="3.32" maxSpeed="1.40"/>
    </personinfo>
    <personinfo id="fwd3" depart="6.00" type="ped">
        <walk depart="6.00" departPos="0.00" arrival="69.00" arrivalPos="85.15" duration="63.00" routeLength="85.15" timeLoss="6.37" maxSpeed="1.50"/>
    </personinfo>
    <personinfo id="fwd4" depart="12.00" type="ped">
        <walk depart="12.00" departPos="0.00" arrival="72.00" arrivalPos="85.15" duration="60.00" routeLength="85.15" timeLoss="0.50" maxSpeed="1.43"/>
    </personinfo>
    <personinfo id="bwd2" depart="10.00" type="ped">
        <walk depart="10.00" departPos="85.15" arrival="79.00" arrivalPos="0.00" duration="69.00" routeLength="85.15" timeLoss="0.60" maxSpeed="1.24"/>
    </personinfo>
    <personinfo id="bwd3" depart="11.00" type="ped">
        <walk depart="11.00" departPos="85.15" arrival="80.00" arrivalPos="0.00" duration="69.00" routeLength="85.15" timeLoss="0.34" maxSpeed="1.24"/>
    </personinfo>
    <personinfo id="bwd4" depart="17.00" type="ped">
        <walk depart="17.00" departPos="85.15" arrival="80.00" arrivalPos="0.00" duration="63.00" routeLength="85.15" timeLoss="9.32" maxSpeed="1.59"/>
    </personinfo>
    <personinfo id="bwd5" depart="20.00" type="ped">
        <walk depart="20.00" departPos="85.15" arrival="85.00" arrivalPos="0.00" duration="65.00" routeLength="85.15" timeLoss="0.86" maxSpeed="1.33"/>
    </personinfo>
    <personinfo id="bwd6" depart="21.00" type="ped">
        <walk depart="21.00" departPos="85.15" arrival="88.00" arrivalPos="0.00" duration="67.00" routeLength="85.15" timeLoss="0.31" maxSpeed="1.28"/>
    </personinfo>
    <personinfo id="bwd7" depart="24.00" type="ped">
        <walk depart="24.00" departPos="85.15" arrival="88.00" arrivalPos="0.00" duration="64.00" routeLength="85.15" timeLoss="7.74" maxSpeed="1.51"/>
    </personinfo>
    <personinfo id="bwd8" depart="26.00" type="ped">
        <walk depart="26.00" departPos="85.15" arrival="89.00" arrivalPos="0.00" duration="63.00" routeLength="85.15" timeLoss="3.53" maxSpeed="1.43"/>
    </personinfo>
    <personinfo id="bwd9" depart="27.00" type="ped">
        <walk depart="27.00" departPos="85.15" arrival="89.00" arrivalPos="0.00" duration="62.00" routeLength="85.15" timeLoss="5.41" maxSpeed="1.50"/>
    </personinfo>
    <personinfo id="bwd10" depart="28.00" type="ped">
        <walk depart="28.00" departPos="85.15" arrival="89.00" arrivalPos="0.00" duration="61.00" routeLength="85.15" timeLoss="3.41" maxSpeed="1.48"/>
    </personinfo>
    <personinfo id="fwd5" depart="16.00" type="ped">
        <walk depart="16.00" departPos="0.00" arrival="90.00" arrivalPos="85.15" duration="74.00" routeLength="85.15" timeLoss="0.23" maxSpeed="1.15"/>
    </personinfo>
    <personinfo id="bwd11" depart="34.00" type="ped">
        <walk depart="34.00" departPos="85.15" arrival="90.00" arrivalPos="0.00" duration="56.00" routeLength="85.15" timeLoss="0.26" maxSpeed="1.53"/>
    </personinfo>
    <personinfo id="fwd6" depart="19.00" type="ped">
        <walk depart="19.00" departPos="0.00" arrival="91.00" arrivalPos="85.15" duration="72.00" routeLength="85.15" timeLoss="13.38" maxSpeed="1.45"/>
    </personinfo>
    <personinfo id="fwd7" depart="20.00" type="ped">
        <walk depart="20.00" departPos="0.00" arrival="91.00" arrivalPos="85.15" duration="71.00" routeLength="85.15" timeLoss="1.80" maxSpeed="1.23"/>
    </personinfo>
    <personinfo id="fwd8" depart="21.00" type="ped">
        <walk depart="21.00" departPos="0.00" arrival="91.00" arrivalPos="85.15" duration="70.00" routeLength="85.15" timeLoss="4.63" maxSpeed="1.30"/>
    </personinfo>
    <personinfo id="fwd9" depart="22.00" type="ped">
        <walk depart="22.00" departPos="0.00" arrival="94.00" arrivalPos="85.15" duration="72.00" routeLength="85.15" timeLoss="0.46" maxSpeed="1.19"/>
    </personinfo>
    <personinfo id="fwd10" depart="28.00" type="ped">
        <walk depart="28.00" departPos="0.00" arrival="94.00" arrivalPos="85.15" duration="66.00" routeLength="85.15" timeLoss="9.79" maxSpeed="1.51"/>
    </personinfo>
    <personinfo id="fwd11" depart="36.00" type="ped">
        <walk depart="36.00" departPos="0.00" arrival="96.00" arrivalPos="85.15" duration="60.00" routeLength="85.15" timeLoss="0.26" maxSpeed="1.43"/>
    </personinfo>
    <personinfo id="fwd12" depart="37.00" type="ped">
        <walk depart="37.00" departPos="0.00" arrival="96.00" arrivalPos="85.15" duration="59.00" routeLength="85.15" timeLoss="0.45" maxSpeed="1.45"/>
    </personinfo>
    <personinfo id="bwd12" depart="36.00" type="ped">
        <walk depart="36.00" departPos="85.15" arrival="96.00" arrivalPos="0.00" duration="60.00" routeLength="85.15" timeLoss="0.26" maxSpeed="1.43"/>
    </personinfo>
    <personinfo id="fwd13" depart="42.00" type="ped">
        <walk depart="42.00" departPos="0.00" arrival="97.00" arrivalPos="85.15" duration="55.00" routeLength="85.15" timeLoss="0.40" maxSpeed="1.56"/>
    </personinfo>
    <personinfo id="bwd13" depart="37.00" type="ped">
        <walk depart="37.00" departPos="85.15" arrival="97.00" arrivalPos="0.00" duration="60.00" routeLength="85.15" timeLoss="0.46" maxSpeed="1.43"/>
    </personinfo>
    <personinfo id="bwd14" depart="38.00" type="ped">
        <walk depart="38.00" departPos="85.15" arrival="97.00" arrivalPos="0.00" duration="59.00" routeLength="85.15" timeLoss="2.34" maxSpeed="1.50"/>
    </personinfo>
    <personinfo id="fwd14" depart="43.00" type="ped">
        <walk depart="43.00" departPos="0.00" arrival="105.00" arrivalPos="85.15" duration="62.00" routeLength="85.15" timeLoss="0.15" maxSpeed="1.38"/>
    </personinfo>
    <personinfo id="bwd15" depart="41.00" type="ped">
        <walk depart="41.00" departPos="85.15" arrival="107.00" arrivalPos="0.00" duration="66.00" routeLength="85.15" timeLoss="0.91" maxSpeed="1.31"/>
    </personinfo>
    <personinfo id="fwd15" depart="49.00" type="ped">
        <walk depart="49.00" departPos="0.00" arrival="116.00" arrivalPos="85.15" duration="67.00" routeLength="85.15" timeLoss="0.85" maxSpeed="1.29"/>
    </personinfo>
    <personinfo id="bwd16" depart="51.00" type="ped">
        <walk depart="51.00" departPos="85.15" arrival="118.00" arrivalPos="0.00" duration="67.00" routeLength="85.15" timeLoss="0.07" maxSpeed="1.27"/>
    </personinfo>
    <personinfo id="bwd17" depart="60.00" type="ped">
        <walk depart="60.00" departPos="85.15" arrival="119.00" arrivalPos="0.00" duration="59.00" routeLength="85.15" timeLoss="2.18" maxSpeed="1.50"/>
    </personinfo>
    <personinfo id="fwd16" depart="55.00" type="ped">
        <walk depart="55.00" departPos="0.00" arrival="125.00" arrivalPos="85.15" duration="70.00" routeLength="85.15" timeLoss="0.21" maxSpeed="1.22"/>
    </personinfo>
    <personinfo id="fwd17" depart="57.00" type="ped">
        <walk depart="57.00" departPos="0.00" arrival="126.00" arrivalPos="85.15" duration="69.00" routeLength="85.15" timeLoss="3.88" maxSpeed="1.31"/>
    </personinfo>
    <personinfo id="fwd18" depart="59.00" type="ped">
        <walk depart="59.00" departPos="0.00" arrival="126.00" arrivalPos="85.15" duration="67.00" routeLength="85.15" timeLoss="1.52" maxSpeed="1.30"/>
    </personinfo>
    <personinfo id="fwd19" depart="60.00" type="ped">
        <walk depart="60.00" departPos="0.00" arrival="126.00" arrivalPos="85.15" duration="66.00" routeLength="85.15" timeLoss="13.07" maxSpeed="1.61"/>
    </personinfo>
    <personinfo id="fwd20" depart="65.00" type="ped">
        <walk depart="65.00" departPos="0.00" arrival="127.00" arrivalPos="85.15" duration="62.00" routeLength="85.15" timeLoss="1.78" maxSpeed="1.41"/>
    </personinfo>
    <personinfo id="fwd21" depart="66.00" type="ped">
        <walk depart="66.00" departPos="0.00" arrival="127.00" arrivalPos="85.15" duration="61.00" routeLength="85.15" timeLoss="0.31" maxSpeed="1.40"/>
    </personinfo>
    <personinfo id="bwd18" depart="61.00" type="ped">
        <walk depart="61.00" departPos="85.15" arrival="130.00" arrivalPos="0.00" duration="69.00" routeLength="85.15" timeLoss="0.23" maxSpeed="1.24"/>
    </personinfo>
    <personinfo id="bwd19" depart="66.00" type="ped">
        <walk depart="66.00" departPos="85.15" arrival="131.00" arrivalPos="0.00" duration="65.00" routeLength="85.15" timeLoss="1.90" maxSpeed="1.35"/>
    </personinfo>
    <personinfo id="bwd20" depart="68.00" type="ped">
        <walk depart="68.00" departPos="85.15" arrival="132.00" arrivalPos="0.00" duration="64.00" routeLength="85.15" timeLoss="0.87" maxSpeed="1.35"/>
    </personinfo>
    <personinfo id="fwd22" depart="71.00" type="ped">
        <walk depart="71.00" departPos="0.00" arrival="134.00" arrivalPos="85.15" duration="63.00" routeLength="85.15" timeLoss="0.12" maxSpeed="1.35"/>
    </personinfo>
    <personinfo id="fwd23" depart="73.00" type="ped">
        <walk depart="73.00" departPos="0.00" arrival="142.00" arrivalPos="85.15" duration="69.00" routeLength="85.15" timeLoss="0.08" maxSpeed="1.24"/>
    </personinfo>
    <personinfo id="bwd21" depart="74.00" type="ped">
        <walk depart="74.00" departPos="85.15" arrival="142.00" arrivalPos="0.00" duration="68.00" routeLength="85.15" timeLoss="0.00" maxSpeed="1.25"/>
    </personinfo>
    <personinfo id="bwd22" depart="85.00" type="ped">
        <walk depart="85.00" departPos="85.15" arrival="151.00" arrivalPos="0.00" duration="66.00" routeLength="85.15" timeLoss="0.00" maxSpeed="1.29"/>
    </personinfo>
    <personinfo id="fwd24" depart="81.00" type="ped">
        <walk depart="81.00" departPos="0.00" arrival="156.00" arrivalPos="85.15" duration="75.00" routeLength="85.15" timeLoss="0.75" maxSpeed="1.15"/>
    </personinfo>
    <personinfo id="fwd25" depart="82.00" type="ped">
        <walk depart="82.00" departPos="0.00" arrival="156.00" arrivalPos="85.15" duration="74.00" routeLength="85.15" timeLoss="3.74" maxSpeed="1.21"/>
    </personinfo>
    <personinfo id="fwd26" depart="84.00" type="ped">
        <walk depart="84.00" departPos="0.00" arrival="156.00" arrivalPos="85.15" duration="72.00" routeLength="85.15" timeLoss="5.16" maxSpeed="1.27"/>
    </personinfo>
    <personinfo id="bwd23" depart="101.00" type="ped">
        <walk depart="101.00" departPos="85.15" arrival="157.00" arrivalPos="0.00" duration="56.00" routeLength="85.15" timeLoss="0.05" maxSpeed="1.52"/>
    </personinfo>
    <personinfo id="fwd27" depart="93.00" type="ped">
        <walk depart="93.00" departPos="0.00" arrival="158.00" arrivalPos="85.15" duration="65.00" routeLength="85.15" timeLoss="0.39" maxSpeed="1.32"/>
    </personinfo>
    <personinfo id="fwd28" depart="94.00" type="ped">
        <walk depart="94.00" departPos="0.00" arrival="158.00" arrivalPos="85.15" duration="64.00" routeLength="85.15" timeLoss="9.83" maxSpeed="1.57"/>
    </personinfo>
    <personinfo id="bwd24" depart="104.00" type="ped">
        <walk depart="104.00" departPos="85.15" arrival="162.00" arrivalPos="0.00" duration="58.00" routeLength="85.15" timeLoss="0.59" maxSpeed="1.48"/>
    </personinfo>
    <personinfo id="fwd29" depart="97.00" type="ped">
        <walk depart="97.00" departPos="0.00" arrival="163.00" arrivalPos="85.15" duration="66.00" routeLength="85.15" timeLoss="0.17" maxSpeed="1.29"/>
    </personinfo>
    <personinfo id="fwd30" depart="101.00" type="ped">
        <walk depart="101.00" departPos="0.00" arrival="164.00" arrivalPos="85.15" duration="63.00" routeLength="85.15" timeLoss="10.98" maxSpeed="1.64"/>
    </personinfo>
    <personinfo id="fwd31" depart="103.00" type="ped">
        <walk depart="103.00" departPos="0.00" arrival="164.00" arrivalPos="85.15" duration="61.00" routeLength="85.15" timeLoss="7.89" maxSpeed="1.60"/>
    </personinfo>
    <personinfo id="fwd32" depart="105.00" type="ped">
        <walk depart="105.00" departPos="0.00" arrival="166.00" arrivalPos="85.15" duration="61.00" routeLength="85.15" timeLoss="0.01" maxSpeed="1.40"/>
    </personinfo>
    <personinfo id="fwd33" depart="107.00" type="ped">
        <walk depart="107.00" departPos="0.00" arrival="167.00" arrivalPos="85.15" duration="60.00" routeLength="85.15" timeLoss="7.68" maxSpeed="1.63"/>
    </personinfo>
    <personinfo id="bwd25" depart="105.00" type="ped">
        <walk depart="105.00" departPos="85.15" arrival="167.00" arrivalPos="0.00" duration="62.00" routeLength="85.15" timeLoss="0.62" maxSpeed="1.39"/>
    </personinfo>
    <personinfo id="fwd34" depart="109.00" type="ped">
        <walk depart="109.00" departPos="0.00" arrival="171.00" arrivalPos="85.15" duration="62.00" routeLength="85.15" timeLoss="0.37" maxSpeed="1.38"/>
    </personinfo>
    <personinfo id="fwd35" depart="110.00" type="ped">
        <walk depart="110.00" departPos="0.00" arrival="171.00" arrivalPos="85.15" duration="61.00" routeLength="85.15" timeLoss="0.88" maxSpeed="1.42"/>
    </personinfo>
    <personinfo id="fwd36" depart="111.00" type="ped">
        <walk depart="111.00" departPos="0.00" arrival="174.00" arrivalPos="85.15" duration="63.00" routeLength="85.15" timeLoss="0.01" maxSpeed="1.35"/>
    </personinfo>
    <personinfo id="fwd37" depart="120.00" type="ped">
        <walk depart="120.00" departPos="0.00" arrival="175.00" arrivalPos="85.15" duration="55.00" routeLength="85.15" timeLoss="3.03" maxSpeed="1.64"/>
    </personinfo>
    <personinfo id="fwd38" depart="127.00" type="ped">
        <walk depart="127.00" departPos="0.00" arrival="183.00" arrivalPos="85.15" duration="56.00" routeLength="85.15" timeLoss="0.38" maxSpeed="1.53"/>
    </personinfo>
    <personinfo id="bwd26" depart="110.00" type="ped">
        <walk depart="110.00" departPos="85.15" arrival="183.00" arrivalPos="0.00" duration="73.00" routeLength="85.15" timeLoss="0.12" maxSpeed="1.17"/>
    </personinfo>
    <personinfo id="bwd27" depart="111.00" type="ped">
        <walk depart="111.00" departPos="85.15" arrival="184.00" arrivalPos="0.00" duration="73.00" routeLength="85.15" timeLoss="13.48" maxSpeed="1.43"/>
    </personinfo>
    <personinfo id="bwd28" depart="112.00" type="ped">
        <walk depart="112.00" departPos="85.15" arrival="184.00" arrivalPos="0.00" duration="72.00" routeLength="85.15" timeLoss="1.76" maxSpeed="1.21"/>
    </personinfo>
    <personinfo id="bwd29" depart="116.00" type="ped">
        <walk depart="116.00" departPos="85.15" arrival="184.00" arrivalPos="0.00" duration="68.00" routeLength="85.15" timeLoss="10.42" maxSpeed="1.48"/>
    </personinfo>
    <personinfo id="bwd30" depart="120.00" type="ped">
        <walk depart="120.00" departPos="85.15" arrival="194.00" arrivalPos="0.00" duration="74.00" routeLength="85.15" timeLoss="0.00" maxSpeed="1.15"/>
    </personinfo>
    <personinfo id="bwd31" depart="127.00" type="ped">
        <walk depart="127.00" departPos="85.15" arrival="195.00" arrivalPos="0.00" duration="68.00" routeLength="85.15" timeLoss="3.29" maxSpeed="1.32"/>
    </personinfo>
    <personinfo id="fwd39" depart="130.00" type="ped">
        <walk depart="130.00" departPos="0.00" arrival="198.00" arrivalPos="85.15" duration="68.00" routeLength="85.15" timeLoss="0.00" maxSpeed="1.25"/>
    </personinfo>
    <personinfo id="bwd32" depart="128.00" type="ped">
        <walk depart="128.00" departPos="85.15" arrival="198.00" arrivalPos="0.00" duration="70.00" routeLength="85.15" timeLoss="0.00" maxSpeed="1.22"/>
    </personinfo>
    <personinfo id="fwd40" depart="131.00" type="ped">
        <walk depart="131.00" departPos="0.00" arrival="199.00" arrivalPos="85.15" duration="68.00" routeLength="85.15" timeLoss="8.50" maxSpeed="1.43"/>
    </personinfo>
    <personinfo id="fwd41" depart="134.00" type="ped">
        <walk depart="134.00" departPos="0.00" arrival="199.00" arrivalPos="85.15" duration="65.00" routeLength="85.15" timeLoss="0.95" maxSpeed="1.33"/>
    </personinfo>
    <personinfo id="bwd33" depart="133.00" type="ped">
        <walk depart="133.00" departPos="85.15" arrival="199.00" arrivalPos="0.00" duration="66.00" routeLength="85.15" timeLoss="6.77" maxSpeed="1.44"/>
    </personinfo>
    <personinfo id="bwd34" depart="134.00" type="ped">
        <walk depart="134.00" departPos="85.15" arrival="199.00" arrivalPos="0.00" duration="65.00" routeLength="85.15" timeLoss="9.70" maxSpeed="1.54"/>
    </personinfo>
    <personinfo id="bwd35" depart="136.00" type="ped">
        <walk depart="136.00" departPos="85.15" arrival="199.00" arrivalPos="0.00" duration="63.00" routeLength="85.15" timeLoss="5.56" maxSpeed="1.48"/>
    </personinfo>
    <personinfo id="fwd42" depart="135.00" type="ped">
        <walk depart="135.00" departPos="0.00" arrival="200.00" arrivalPos="85.15" duration="65.00" routeLength="85.15" timeLoss="8.85" maxSpeed="1.52"/>
    </personinfo>
    <personinfo id="bwd36" depart="140.00" type="ped">
        <walk depart="140.00" departPos="85.15" arrival="200.00" arrivalPos="0.00" duration="60.00" routeLength="85.15" timeLoss="0.00" maxSpeed="1.42"/>
    </personinfo>
    <personinfo id="fwd43" depart="142.00" type="ped">
        <walk depart="142.00" departPos="0.00" arrival="202.00" arrivalPos="85.15" duration="60.00" routeLength="85.15" timeLoss="0.92" maxSpeed="1.44"/>
    </personinfo>
    <personinfo id="bwd37" depart="144.00" type="ped">
        <walk depart="144.00" departPos="85.15" arrival="206.00" arrivalPos="0.00" duration="62.00" routeLength="85.15" timeLoss="0.90" maxSpeed="1.39"/>
    </personinfo>
    <personinfo id="fwd44" depart="148.00" type="ped">
        <walk depart="148.00" departPos="0.00" arrival="207.00" arrivalPos="85.15" duration="59.00" routeLength="85.15" timeLoss="0.24" maxSpeed="1.45"/>
    </personinfo>
    <personinfo id="fwd45" depart="151.00" type="ped">
        <walk depart="151.00" departPos="0.00" arrival="208.00" arrivalPos="85.15" duration="57.00" routeLength="85.15" timeLoss="0.65" maxSpeed="1.51"/>
    </personinfo>
    <personinfo id="bwd38" depart="151.00" type="ped">
        <walk depart="151.00" departPos="85.15" arrival="215.00" arrivalPos="0.00" duration="64.00" routeLength="85.15" timeLoss="0.88" maxSpeed="1.35"/>
    </personinfo>
    <personinfo id="fwd46" depart="155.00" type="ped">
        <walk depart="155.00" departPos="0.00" arrival="217.00" arrivalPos="85.15" duration="62.00" routeLength="85.15" timeLoss="0.53" maxSpeed="1.39"/>
    </personinfo>
    <personinfo id="bwd39" depart="154.00" type="ped">
        <walk depart="154.00" departPos="85.15" arrival="218.00" arrivalPos="0.00" duration="64.00" routeLength="85.15" timeLoss="0.27" maxSpeed="1.34"/>
    </personinfo>
    <personinfo id="bwd40" depart="162.00" type="ped">
        <walk depart="162.00" departPos="85.15" arrival="225.00" arrivalPos="0.00" duration="63.00" routeLength="85.15" timeLoss="0.72" maxSpeed="1.37"/>
    </personinfo>
    <personinfo id="bwd41" depart="169.00" type="ped">
        <walk depart="169.00" departPos="85.15" arrival="225.00" arrivalPos="0.00" duration="56.00" routeLength="85.15" timeLoss="0.51" maxSpeed="1.53"/>
    </personinfo>
    <personinfo id="fwd47" depart="157.00" type="ped">
        <walk depart="157.00" departPos="0.00" arrival="226.00" arrivalPos="85.15" duration="69.00" routeLength="85.15" timeLoss="0.92" maxSpeed="1.25"/>
    </personinfo>
    <personinfo id="fwd48" depart="158.00" type="ped">
        <walk depart="158.00" departPos="0.00" arrival="228.00" arrivalPos="85.15" duration="70.00" routeLength="85.15" timeLoss="0.09" maxSpeed="1.22"/>
    </personinfo>
    <personinfo id="bwd42" depart="170.00" type="ped">
        <walk depart="170.00" departPos="85.15" arrival="230.00" arrivalPos="0.00" duration="60.00" routeLength="85.15" timeLoss="0.85" maxSpeed="1.44"/>
    </personinfo>
    <personinfo id="fwd49" depart="160.00" type="ped">
        <walk depart="160.00" departPos="0.00" arrival="233.00" arrivalPos="85.15" duration="73.00" routeLength="85.15" timeLoss="0.90" maxSpeed="1.18"/>
    </personinfo>
    <personinfo id="fwd50" depart="161.00" type="ped">
        <walk depart="161.00" departPos="0.00" arrival="233.00" arrivalPos="85.15" duration="72.00" routeLength="85.15" timeLoss="0.29" maxSpeed="1.19"/>
    </personinfo>
    <personinfo id="bwd43" depart="171.00" type="ped">
        <walk depart="171.00" departPos="85.15" arrival="233.00" arrivalPos="0.00" duration="62.00" routeLength="85.15" timeLoss="0.86" maxSpeed="1.39"/>
    </personinfo>
    <personinfo id="bwd44" depart="173.00" type="ped">
        <walk depart="173.00" departPos="85.15" arrival="233.00" arrivalPos="0.00" duration="60.00" routeLength="85.15" timeLoss="4.36" maxSpeed="1.53"/>
    </personinfo>
    <personinfo id="fwd51" depart="162.00" type="ped">
        <walk depart="162.00" departPos="0.00" arrival="234.00" arrivalPos="85.15" duration="72.00" routeLength="85.15" timeLoss="19.55" maxSpeed="1.62"/>
    </personinfo>
    <personinfo id="fwd52" depart="164.00" type="ped">
        <walk depart="164.00" departPos="0.00" arrival="234.00" arrivalPos="85.15" duration="70.00" routeLength="85.15" timeLoss="9.70" maxSpeed="1.41"/>
    </personinfo>
    <personinfo id="fwd53" depart="168.00" type="ped">
        <walk depart="168.00" departPos="0.00" arrival="234.00" arrivalPos="85.15" duration="66.00" routeLength="85.15" timeLoss="10.05" maxSpeed="1.52"/>
    </personinfo>
    <personinfo id="fwd54" depart="170.00" type="ped">
        <walk depart="170.00" departPos="0.00" arrival="235.00" arrivalPos="85.15" duration="65.00" routeLength="85.15" timeLoss="3.89" maxSpeed="1.39"/>
    </personinfo>
    <personinfo id="fwd55" depart="171.00" type="ped">
        <walk depart="171.00" departPos="0.00" arrival="235.00" arrivalPos="85.15" duration="64.00" routeLength="85.15" timeLoss="2.45" maxSpeed="1.38"/>
    </personinfo>
    <personinfo id="fwd56" depart="173.00" type="ped">
        <walk depart="173.00" departPos="0.00" arrival="242.00" arrivalPos="85.15" duration="69.00" routeLength="85.15" timeLoss="0.80" maxSpeed="1.25"/>
    </personinfo>
    <personinfo id="fwd57" depart="175.00" type="ped">
        <walk depart="175.00" departPos="0.00" arrival="242.00" arrivalPos="85.15" duration="67.00" routeLength="85.15" timeLoss="13.34" maxSpeed="1.59"/>
    </personinfo>
    <personinfo id="fwd58" depart="179.00" type="ped">
        <walk depart="179.00" departPos="0.00" arrival="242.00" arrivalPos="85.15" duration="63.00" routeLength="85.15" timeLoss="3.10" maxSpeed="1.42"/>
    </personinfo>
    <personinfo id="fwd59" depart="180.00" type="ped">
        <walk depart="180.00" departPos="0.00" arrival="244.00" arrivalPos="85.15" duration="64.00" routeLength="85.15" timeLoss="0.77" maxSpeed="1.35"/>
    </personinfo>
    <personinfo id="fwd60" depart="187.00" type="ped">
        <walk depart="187.00" departPos="0.00" arrival="244.00" arrivalPos="85.15" duration="57.00" routeLength="85.15" timeLoss="0.36" maxSpeed="1.50"/>
    </personinfo>
    <personinfo id="bwd45" depart="174.00" type="ped">
        <walk depart="174.00" departPos="85.15" arrival="248.00" arrivalPos="0.00" duration="74.00" routeLength="85.15" timeLoss="0.35" maxSpeed="1.16"/>
    </personinfo>
    <personinfo id="bwd46" depart="181.00" type="ped">
        <walk depart="181.00" departPos="85.15" arrival="248.00" arrivalPos="0.00" duration="67.00" routeLength="85.15" timeLoss="10.64" maxSpeed="1.51"/>
    </personinfo>
    <personinfo id="bwd47" depart="183.00" type="ped">
        <walk depart="183.00" departPos="85.15" arrival="249.00" arrivalPos="0.00" duration="66.00" routeLength="85.15" timeLoss="2.73" maxSpeed="1.35"/>
    </personinfo>
    <personinfo id="bwd48" depart="187.00" type="ped">
        <walk depart="187.00" departPos="85.15" arrival="249.00" arrivalPos="0.00" duration="62.00" routeLength="85.15" timeLoss="4.73" maxSpeed="1.49"/>
    </personinfo>
    <personinfo id="bwd49" depart="188.00" type="ped">
        <walk depart="188.00" departPos="85.15" arrival="250.00" arrivalPos="0.00" duration="62.00" routeLength="85.15" timeLoss="4.55" maxSpeed="1.48"/>
    </personinfo>
    <personinfo id="fwd61" depart="198.00" type="ped">
        <walk depart="198.00" departPos="0.00" arrival="253.00" arrivalPos="85.15" duration="55.00" routeLength="85.15" timeLoss="0.23" maxSpeed="1.55"/>
    </personinfo>
    <personinfo id="bwd50" depart="192.00" type="ped">
        <walk depart="192.00" departPos="85.15" arrival="260.00" arrivalPos="0.00" duration="68.00" routeLength="85.15" timeLoss="0.65" maxSpeed="1.26"/>
    </personinfo>
    <personinfo id="fwd62" depart="202.00" type="ped">
        <walk depart="202.00" departPos="0.00" arrival="263.00" arrivalPos="85.15" duration="61.00" routeLength="85.15" timeLoss="0.64" maxSpeed="1.41"/>
    </personinfo>
    <personinfo id="bwd51" depart="207.00" type="ped">
        <walk depart="207.00" departPos="85.15" arrival="269.00" arrivalPos="0.00" duration="62.00" routeLength="85.15" timeLoss="0.44" maxSpeed="1.38"/>
    </personinfo>
    <personinfo id="bwd52" depart="212.00" type="ped">
        <walk depart="212.00" departPos="85.15" arrival="269.00" arrivalPos="0.00" duration="57.00" routeLength="85.15" timeLoss="3.59" maxSpeed="1.59"/>
    </personinfo>
    <personinfo id="fwd63" depart="208.00" type="ped">
        <walk depart="208.00" departPos="0.00" arrival="271.00" arrivalPos="85.15" duration="63.00" routeLength="85.15" timeLoss="0.88" maxSpeed="1.37"/>
    </personinfo>
    <personinfo id="fwd64" depart="211.00" type="ped">
        <walk depart="211.00" departPos="0.00" arrival="277.00" arrivalPos="85.15" duration="66.00" routeLength="85.15" timeLoss="0.62" maxSpeed="1.30"/>
    </personinfo>
    <personinfo id="fwd65" depart="214.00" type="ped">
        <walk depart="214.00" departPos="0.00" arrival="284.00" arrivalPos="85.15" duration="70.00" routeLength="85.15" timeLoss="0.51" maxSpeed="1.23"/>
    </personinfo>
    <personinfo id="fwd66" depart="216.00" type="ped">
        <walk depart="216.00" departPos="0.00" arrival="284.00" arrivalPos="85.15" duration="68.00" routeLength="85.15" timeLoss="0.39" maxSpeed="1.26"/>
    </personinfo>
    <personinfo id="bwd57" depart="231.00" type="ped">
        <walk depart="231.00" departPos="85.15" arrival="285.00" arrivalPos="0.00" duration="54.00" routeLength="85.15" timeLoss="4.65" maxSpeed="1.73"/>
    </personinfo>
    <personinfo id="fwd67" depart="220.00" type="ped">
        <walk depart="220.00" departPos="0.00" arrival="287.00" arrivalPos="85.15" duration="67.00" routeLength="85.15" timeLoss="0.00" maxSpeed="1.27"/>
    </personinfo>
    <personinfo id="bwd53" depart="213.00" type="ped">
        <walk depart="213.00" departPos="85.15" arrival="287.00" arrivalPos="0.00" duration="74.00" routeLength="85.15" timeLoss="0.64" maxSpeed="1.16"/>
    </personinfo>
    <personinfo id="fwd68" depart="222.00" type="ped">
        <walk depart="222.00" departPos="0.00" arrival="288.00" arrivalPos="85.15" duration="66.00" routeLength="85.15" timeLoss="7.05" maxSpeed="1.44"/>
    </personinfo>
    <personinfo id="fwd69" depart="226.00" type="ped">
        <walk depart="226.00" departPos="0.00" arrival="288.00" arrivalPos="85.15" duration="62.00" routeLength="85.15" timeLoss="2.02" maxSpeed="1.42"/>
    </personinfo>
    <personinfo id="bwd54" depart="215.00" type="ped">
        <walk depart="215.00" departPos="85.15" arrival="288.00" arrivalPos="0.00" duration="73.00" routeLength="85.15" timeLoss="15.40" maxSpeed="1.48"/>
    </personinfo>
    <personinfo id="bwd55" depart="218.00" type="ped">
        <walk depart="218.00" departPos="85.15" arrival="288.00" arrivalPos="0.00" duration="70.00" routeLength="85.15" timeLoss="9.60" maxSpeed="1.41"/>
    </personinfo>
    <personinfo id="bwd56" depart="222.00" type="ped">