<?xml version="1.0" encoding="UTF-8"?>

<!-- generated on 2025-05-24 10:21:48 by Eclipse SUMO sumo Version v1_23_1+0287-c293321ede3
<sumoConfiguration xmlns:xsi="http://www.w3.org/2001/XMLSchema-instance" xsi:noNamespaceSchemaLocation="http://sumo.dlr.de/xsd/sumoConfiguration.xsd">

    <input>
        <net-file value="input_net.net.xml"/>
        <additional-files value="input_additional.add.xml,input_routes.rou.xml"/>
    </input>

    <output>
        <tripinfo-output value="tripinfo.xml"/>
    </output>

    <report>
        <no-step-log value="true"/>
    </report>

    <traci_server>
        <remote-port value="46571"/>
    </traci_server>

</sumoConfiguration>
-->

<tripinfos xmlns:xsi="http://www.w3.org/2001/XMLSchema-instance" xsi:noNamespaceSchemaLocation="http://sumo.dlr.de/xsd/tripinfo_file.xsd">
    <personinfo id="person" depart="0.00" type="DEFAULT_PEDTYPE" speedFactor="1.06" duration="23.00" waitingTime="0.00" timeLoss="1.45" traveltime="13.00">
        <walk depart="0.00" departPos="0.00" arrival="13.00" arrivalPos="17.01" duration="13.00" routeLength="17.01" timeLoss="1.45" maxSpeed="1.47" waitingTime="0.00"/>
        <stop duration="10.00" arrival="23.00" arrivalPos="17.01" actType="waiting"/>
    </personinfo>
</tripinfos>
