<?xml version="1.0" encoding="UTF-8"?>

<!-- generated on Tue Sep  5 22:01:56 2017 by SUMO Version dev-SVN-r24506
<?xml version="1.0" encoding="UTF-8"?>

<configuration xmlns:xsi="http://www.w3.org/2001/XMLSchema-instance" xsi:noNamespaceSchemaLocation="http://sumo.dlr.de/xsd/sumoConfiguration.xsd">

    <input>
        <net-file value="net.net.xml"/>
        <route-files value="input_routes.rou.xml"/>
        <additional-files value="input_additional.add.xml"/>
    </input>

    <output>
        <tripinfo-output value="tripinfos.xml"/>
    </output>

    <processing>
        <pedestrian.model value="nonInteracting"/>
    </processing>

    <report>
        <verbose value="true"/>
        <xml-validation value="never"/>
        <no-step-log value="true"/>
    </report>

</configuration>
-->

<tripinfos xmlns:xsi="http://www.w3.org/2001/XMLSchema-instance" xsi:noNamespaceSchemaLocation="http://sumo.dlr.de/xsd/tripinfo_file.xsd">
    <tripinfo id="train0" depart="50.00" departLane="1/4to1/3_0" departPos="25.10" departSpeed="0.00" departDelay="0.00" arrival="192.00" arrivalLane="1/4to1/3_0" arrivalPos="90.50" arrivalSpeed="13.90" duration="142.00" routeLength="447.98" waitSteps="0" timeLoss="11.12" rerouteNo="0" devices="tripinfo_train0 person_train0" vType="train" speedFactor="1.00" vaporized=""/>
    <tripinfo id="train1" depart="55.00" departLane="1/4to1/3_0" departPos="25.10" departSpeed="0.00" departDelay="5.00" arrival="209.00" arrivalLane="1/4to1/3_0" arrivalPos="90.50" arrivalSpeed="13.90" duration="154.00" routeLength="447.98" waitSteps="82" timeLoss="99.11" rerouteNo="0" devices="tripinfo_train1 person_train1" vType="train" speedFactor="1.00" vaporized=""/>
    <personinfo id="person0" depart="0.00">
        <walk depart="0.00" arrival="47.00" arrivalPos="55.00"/>
        <ride waitingTime="74.00" vehicle="train0" depart="121.00" arrival="140.00" arrivalPos="92.00"/>
        <walk depart="140.00" arrival="184.00" arrivalPos="30.00"/>
        <stop duration="20.00" arrival="204.00" arrivalPos="30.00" actType="singing"/>
        <ride waitingTime="0.00" vehicle="car0" depart="204.00" arrival="248.00" arrivalPos="92.00"/>
    </personinfo>
    <tripinfo id="car0" depart="204.00" departLane="1/4to2/4_0" departPos="40.00" departSpeed="0.00" departDelay="204.00" arrival="248.00" arrivalLane="3/4to4/4_0" arrivalPos="92.00" arrivalSpeed="13.90" duration="44.00" routeLength="252.00" waitSteps="0" timeLoss="4.75" rerouteNo="0" devices="tripinfo_car0 person_car0" vType="DEFAULT_VEHTYPE" speedFactor="1.00" vaporized=""/>
    <personinfo id="person1" depart="0.00">
        <walk depart="0.00" arrival="47.00" arrivalPos="55.00"/>
        <ride waitingTime="91.00" vehicle="train1" depart="138.00" arrival="187.00" arrivalPos="92.00"/>
        <walk depart="187.00" arrival="231.00" arrivalPos="30.00"/>
        <stop duration="20.00" arrival="251.00" arrivalPos="30.00" actType="singing"/>
    </personinfo>
</tripinfos>
