<?xml version="1.0"?>

<!-- generated on Sun Dec 19 22:46:05 2010 by SUMO dfrouter Version dev-SVN-r9480
<?xml version="1.0" encoding="iso-8859-1"?>

<configuration xmlns:xsi="http://www.w3.org/2001/XMLSchema-instance" xsi:noNamespaceSchemaLocation="http://sumo.sf.net/xsd/dfrouterConfiguration.xsd">

    <input>
        <net-file value="input_net.net.xml"/>
        <detector-files value="input_detectors.det.xml"/>
        <detector-flow-files value="input_flows.txt"/>
    </input>

    <output>
        <routes-output value="routes.rou.xml"/>
        <emitters-output value="emitters.add.xml"/>
    </output>

</configuration>
-->

<additional>
    <routeDistribution id="MQ_1to2">
        <route refid="1to2_to_9to10" probability="0.50"/>
        <route refid="1to2_to_4to5" probability="0.50"/>
    </routeDistribution>
    <vehicle id="emitter_MQ_1to2_0" depart="0" departspeed="max" departpos="5.00" departlane="0" route="1to2_to_4to5"/>
    <vehicle id="emitter_MQ_1to2_3" depart="3" departspeed="max" departpos="5.00" departlane="0" route="1to2_to_4to5"/>
    <vehicle id="emitter_MQ_1to2_6" depart="6" departspeed="max" departpos="5.00" departlane="0" route="1to2_to_9to10"/>
    <vehicle id="emitter_MQ_1to2_9" depart="9" departspeed="max" departpos="5.00" departlane="0" route="1to2_to_9to10"/>
    <vehicle id="emitter_MQ_1to2_12" depart="12" departspeed="max" departpos="5.00" departlane="0" route="1to2_to_4to5"/>
    <vehicle id="emitter_MQ_1to2_15" depart="15" departspeed="max" departpos="5.00" departlane="0" route="1to2_to_9to10"/>
    <vehicle id="emitter_MQ_1to2_18" depart="18" departspeed="max" departpos="5.00" departlane="0" route="1to2_to_4to5"/>
    <vehicle id="emitter_MQ_1to2_21" depart="21" departspeed="max" departpos="5.00" departlane="0" route="1to2_to_9to10"/>
    <vehicle id="emitter_MQ_1to2_24" depart="24" departspeed="max" departpos="5.00" departlane="0" route="1to2_to_4to5"/>
    <vehicle id="emitter_MQ_1to2_27" depart="27" departspeed="max" departpos="5.00" departlane="0" route="1to2_to_4to5"/>
    <vehicle id="emitter_MQ_1to2_30" depart="30" departspeed="max" departpos="5.00" departlane="0" route="1to2_to_9to10"/>
    <vehicle id="emitter_MQ_1to2_33" depart="33" departspeed="max" departpos="5.00" departlane="0" route="1to2_to_4to5"/>
    <vehicle id="emitter_MQ_1to2_36" depart="36" departspeed="max" departpos="5.00" departlane="0" route="1to2_to_9to10"/>
    <vehicle id="emitter_MQ_1to2_39" depart="39" departspeed="max" departpos="5.00" departlane="0" route="1to2_to_9to10"/>
    <vehicle id="emitter_MQ_1to2_42" depart="42" departspeed="max" departpos="5.00" departlane="0" route="1to2_to_4to5"/>
    <vehicle id="emitter_MQ_1to2_45" depart="45" departspeed="max" departpos="5.00" departlane="0" route="1to2_to_9to10"/>
    <vehicle id="emitter_MQ_1to2_48" depart="48" departspeed="max" departpos="5.00" departlane="0" route="1to2_to_9to10"/>
    <vehicle id="emitter_MQ_1to2_51" depart="51" departspeed="max" departpos="5.00" departlane="0" route="1to2_to_4to5"/>
    <vehicle id="emitter_MQ_1to2_54" depart="54" departspeed="max" departpos="5.00" departlane="0" route="1to2_to_9to10"/>
    <vehicle id="emitter_MQ_1to2_57" depart="57" departspeed="max" departpos="5.00" departlane="0" route="1to2_to_4to5"/>
    <routeDistribution id="MQ_6to7">
        <route refid="6to7_to_9to10" probability="1.00"/>
    </routeDistribution>
    <vehicle id="emitter_MQ_6to7_0" depart="0" departspeed="max" departpos="5.00" departlane="0" route="6to7_to_9to10"/>
    <vehicle id="emitter_MQ_6to7_6" depart="6" departspeed="max" departpos="5.00" departlane="0" route="6to7_to_9to10"/>
    <vehicle id="emitter_MQ_6to7_12" depart="12" departspeed="max" departpos="5.00" departlane="0" route="6to7_to_9to10"/>
    <vehicle id="emitter_MQ_6to7_18" depart="18" departspeed="max" departpos="5.00" departlane="0" route="6to7_to_9to10"/>
    <vehicle id="emitter_MQ_6to7_24" depart="24" departspeed="max" departpos="5.00" departlane="0" route="6to7_to_9to10"/>
    <vehicle id="emitter_MQ_6to7_30" depart="30" departspeed="max" departpos="5.00" departlane="0" route="6to7_to_9to10"/>
    <vehicle id="emitter_MQ_6to7_36" depart="36" departspeed="max" departpos="5.00" departlane="0" route="6to7_to_9to10"/>
    <vehicle id="emitter_MQ_6to7_42" depart="42" departspeed="max" departpos="5.00" departlane="0" route="6to7_to_9to10"/>
    <vehicle id="emitter_MQ_6to7_48" depart="48" departspeed="max" departpos="5.00" departlane="0" route="6to7_to_9to10"/>
    <vehicle id="emitter_MQ_6to7_54" depart="54" departspeed="max" departpos="5.00" departlane="0" route="6to7_to_9to10"/>
</additional>
