<?xml version="1.0"?>

<!-- generated on 09/10/07 09:25:35 by SUMO dfrouter Version 0.9.6
<configuration>

   <input>
      <net-file>input_net.net.xml</net-file>
      <detector-files>input_detectors.det.xml</detector-files>
      <detector-flow-files>input_flows.txt</detector-flow-files>
   </input>

   <output>
      <routes-output>routes.rou.xml</routes-output>
      <emitters-output>emitters.add.xml</emitters-output>
   </output>

</configuration>
-->

<triggeredsource>
   <routedistelem id="1to2_to_9to10" probability="0.50"/>
   <routedistelem id="1to2_to_4to5" probability="0.50"/>
   <emit id="emitter_MQ_1to2_0" time="0" speed="100.00" route="1to2_to_4to5"/>
   <emit id="emitter_MQ_1to2_3" time="3" speed="100.00" route="1to2_to_4to5"/>
   <emit id="emitter_MQ_1to2_6" time="6" speed="100.00" route="1to2_to_9to10"/>
   <emit id="emitter_MQ_1to2_9" time="9" speed="100.00" route="1to2_to_9to10"/>
   <emit id="emitter_MQ_1to2_12" time="12" speed="100.00" route="1to2_to_4to5"/>
   <emit id="emitter_MQ_1to2_15" time="15" speed="100.00" route="1to2_to_9to10"/>
   <emit id="emitter_MQ_1to2_18" time="18" speed="100.00" route="1to2_to_4to5"/>
   <emit id="emitter_MQ_1to2_21" time="21" speed="100.00" route="1to2_to_9to10"/>
   <emit id="emitter_MQ_1to2_24" time="24" speed="100.00" route="1to2_to_4to5"/>
   <emit id="emitter_MQ_1to2_27" time="27" speed="100.00" route="1to2_to_4to5"/>
   <emit id="emitter_MQ_1to2_30" time="30" speed="100.00" route="1to2_to_9to10"/>
   <emit id="emitter_MQ_1to2_33" time="33" speed="100.00" route="1to2_to_4to5"/>
   <emit id="emitter_MQ_1to2_36" time="36" speed="100.00" route="1to2_to_9to10"/>
   <emit id="emitter_MQ_1to2_39" time="39" speed="100.00" route="1to2_to_9to10"/>
   <emit id="emitter_MQ_1to2_42" time="42" speed="100.00" route="1to2_to_4to5"/>
   <emit id="emitter_MQ_1to2_45" time="45" speed="100.00" route="1to2_to_9to10"/>
   <emit id="emitter_MQ_1to2_48" time="48" speed="100.00" route="1to2_to_9to10"/>
   <emit id="emitter_MQ_1to2_51" time="51" speed="100.00" route="1to2_to_4to5"/>
   <emit id="emitter_MQ_1to2_54" time="54" speed="100.00" route="1to2_to_9to10"/>
   <emit id="emitter_MQ_1to2_57" time="57" speed="100.00" route="1to2_to_4to5"/>
</triggeredsource>
