<?xml version="1.0" encoding="UTF-8"?>

<!-- generated on 2022-04-05 10:31:17 by Eclipse SUMO sumo Version v1_12_0+1949-1d2ae20f770
This data file and the accompanying materials
are made available under the terms of the Eclipse Public License v2.0
which accompanies this distribution, and is available at
http://www.eclipse.org/legal/epl-v20.html
This file may also be made available under the following Secondary
Licenses when the conditions for such availability set forth in the Eclipse
Public License 2.0 are satisfied: GNU General Public License, version 2
or later which is available at
https://www.gnu.org/licenses/old-licenses/gpl-2.0-standalone.html
SPDX-License-Identifier: EPL-2.0 OR GPL-2.0-or-later
<configuration xmlns:xsi="http://www.w3.org/2001/XMLSchema-instance" xsi:noNamespaceSchemaLocation="http://sumo.dlr.de/xsd/sumoConfiguration.xsd">

    <input>
        <net-file value="net2.net.xml"/>
        <route-files value="input_routes.rou.xml"/>
        <additional-files value="C:\Users\behr_mi\Projekte\sumo\repos\sumo/data/emissions/MMPEVEM/BMW_i3.xml"/>
    </input>

    <output>
        <write-license value="true"/>
        <emission-output value="rawdump.xml"/>
    </output>

    <processing>
        <default.speeddev value="0"/>
        <pedestrian.model value="nonInteracting"/>
    </processing>

    <report>
        <xml-validation value="never"/>
        <xml-validation.routes value="never"/>
        <duration-log.disable value="true"/>
        <no-step-log value="true"/>
    </report>

    <mesoscopic>
        <mesosim value="true"/>
    </mesoscopic>

</configuration>
-->

<emission-export xmlns:xsi="http://www.w3.org/2001/XMLSchema-instance" xsi:noNamespaceSchemaLocation="http://sumo.dlr.de/xsd/emission_file.xsd">
    <timestep time="0.00">
        <vehicle id="BMW_i3" eclass="MMPEVEM/default" CO2="0.00" CO="0.00" HC="0.00" NOx="0.00" PMx="0.00" fuel="0.00" electricity="1.14" noise="64.57" route="r1" type="BMW_i3" waiting="0.00" edge="WC" pos="0.00" speed="13.89" angle="90.00" x="0.00" y="95.05"/>
    </timestep>
    <timestep time="1.00">
        <vehicle id="BMW_i3" eclass="MMPEVEM/default" CO2="0.00" CO="0.00" HC="0.00" NOx="0.00" PMx="0.00" fuel="0.00" electricity="1.14" noise="64.57" route="r1" type="BMW_i3" waiting="0.00" edge="WC" pos="0.00" speed="13.89" angle="90.00" x="0.00" y="95.05"/>
    </timestep>
    <timestep time="2.00">
        <vehicle id="BMW_i3" eclass="MMPEVEM/default" CO2="0.00" CO="0.00" HC="0.00" NOx="0.00" PMx="0.00" fuel="0.00" electricity="1.14" noise="64.57" route="r1" type="BMW_i3" waiting="0.00" edge="WC" pos="0.00" speed="13.89" angle="90.00" x="0.00" y="95.05"/>
    </timestep>
    <timestep time="3.00">
        <vehicle id="BMW_i3" eclass="MMPEVEM/default" CO2="0.00" CO="0.00" HC="0.00" NOx="0.00" PMx="0.00" fuel="0.00" electricity="1.14" noise="64.57" route="r1" type="BMW_i3" waiting="0.00" edge="WC" pos="0.00" speed="13.89" angle="90.00" x="0.00" y="95.05"/>
    </timestep>
    <timestep time="4.00">
        <vehicle id="BMW_i3" eclass="MMPEVEM/default" CO2="0.00" CO="0.00" HC="0.00" NOx="0.00" PMx="0.00" fuel="0.00" electricity="1.14" noise="64.57" route="r1" type="BMW_i3" waiting="0.00" edge="WC" pos="0.00" speed="13.89" angle="90.00" x="0.00" y="95.05"/>
    </timestep>
    <timestep time="5.00">
        <vehicle id="BMW_i3" eclass="MMPEVEM/default" CO2="0.00" CO="0.00" HC="0.00" NOx="0.00" PMx="0.00" fuel="0.00" electricity="1.14" noise="64.57" route="r1" type="BMW_i3" waiting="0.00" edge="WC" pos="0.00" speed="13.89" angle="90.00" x="0.00" y="95.05"/>
    </timestep>
    <timestep time="6.00">
        <vehicle id="BMW_i3" eclass="MMPEVEM/default" CO2="0.00" CO="0.00" HC="0.00" NOx="0.00" PMx="0.00" fuel="0.00" electricity="1.14" noise="64.57" route="r1" type="BMW_i3" waiting="0.00" edge="WC" pos="0.00" speed="13.89" angle="90.00" x="0.00" y="95.05"/>
    </timestep>
    <timestep time="7.00">
        <vehicle id="BMW_i3" eclass="MMPEVEM/default" CO2="0.00" CO="0.00" HC="0.00" NOx="0.00" PMx="0.00" fuel="0.00" electricity="0.10" noise="55.94" route="r1" type="BMW_i3" waiting="0.00" edge="CE" pos="0.00" speed="0.00" angle="90.00" x="108.05" y="95.05"/>
    </timestep>
    <timestep time="8.00">
        <vehicle id="BMW_i3" eclass="MMPEVEM/default" CO2="0.00" CO="0.00" HC="0.00" NOx="0.00" PMx="0.00" fuel="0.00" electricity="0.10" noise="55.94" route="r1" type="BMW_i3" waiting="0.00" edge="CE" pos="0.00" speed="0.00" angle="90.00" x="108.05" y="95.05"/>
    </timestep>
    <timestep time="9.00">
        <vehicle id="BMW_i3" eclass="MMPEVEM/default" CO2="0.00" CO="0.00" HC="0.00" NOx="0.00" PMx="0.00" fuel="0.00" electricity="0.10" noise="55.94" route="r1" type="BMW_i3" waiting="0.00" edge="CE" pos="0.00" speed="0.00" angle="90.00" x="108.05" y="95.05"/>
    </timestep>
    <timestep time="10.00">
        <vehicle id="BMW_i3" eclass="MMPEVEM/default" CO2="0.00" CO="0.00" HC="0.00" NOx="0.00" PMx="0.00" fuel="0.00" electricity="0.10" noise="55.94" route="r1" type="BMW_i3" waiting="0.00" edge="CE" pos="0.00" speed="0.00" angle="90.00" x="108.05" y="95.05"/>
    </timestep>
    <timestep time="11.00">
        <vehicle id="BMW_i3" eclass="MMPEVEM/default" CO2="0.00" CO="0.00" HC="0.00" NOx="0.00" PMx="0.00" fuel="0.00" electricity="0.10" noise="55.94" route="r1" type="BMW_i3" waiting="0.00" edge="CE" pos="0.00" speed="0.00" angle="90.00" x="108.05" y="95.05"/>
    </timestep>
    <timestep time="12.00">
        <vehicle id="BMW_i3" eclass="MMPEVEM/default" CO2="0.00" CO="0.00" HC="0.00" NOx="0.00" PMx="0.00" fuel="0.00" electricity="0.10" noise="55.94" route="r1" type="BMW_i3" waiting="0.00" edge="CE" pos="0.00" speed="0.00" angle="90.00" x="108.05" y="95.05"/>
    </timestep>
    <timestep time="13.00">
        <vehicle id="BMW_i3" eclass="MMPEVEM/default" CO2="0.00" CO="0.00" HC="0.00" NOx="0.00" PMx="0.00" fuel="0.00" electricity="0.10" noise="55.94" route="r1" type="BMW_i3" waiting="0.00" edge="CE" pos="0.00" speed="0.00" angle="90.00" x="108.05" y="95.05"/>
    </timestep>
    <timestep time="14.00">
        <vehicle id="BMW_i3" eclass="MMPEVEM/default" CO2="0.00" CO="0.00" HC="0.00" NOx="0.00" PMx="0.00" fuel="0.00" electricity="0.10" noise="55.94" route="r1" type="BMW_i3" waiting="0.00" edge="CE" pos="0.00" speed="0.00" angle="90.00" x="108.05" y="95.05"/>
    </timestep>
    <timestep time="15.00">
        <vehicle id="BMW_i3" eclass="MMPEVEM/default" CO2="0.00" CO="0.00" HC="0.00" NOx="0.00" PMx="0.00" fuel="0.00" electricity="0.10" noise="55.94" route="r1" type="BMW_i3" waiting="0.00" edge="CE" pos="0.00" speed="0.00" angle="90.00" x="108.05" y="95.05"/>
    </timestep>
    <timestep time="16.00">
        <vehicle id="BMW_i3" eclass="MMPEVEM/default" CO2="0.00" CO="0.00" HC="0.00" NOx="0.00" PMx="0.00" fuel="0.00" electricity="0.10" noise="55.94" route="r1" type="BMW_i3" waiting="0.00" edge="CE" pos="0.00" speed="0.00" angle="90.00" x="108.05" y="95.05"/>
    </timestep>
    <timestep time="17.00">
        <vehicle id="BMW_i3" eclass="MMPEVEM/default" CO2="0.00" CO="0.00" HC="0.00" NOx="0.00" PMx="0.00" fuel="0.00" electricity="0.10" noise="55.94" route="r1" type="BMW_i3" waiting="0.00" edge="CE" pos="0.00" speed="0.00" angle="90.00" x="108.05" y="95.05"/>
    </timestep>
    <timestep time="18.00">
        <vehicle id="BMW_i3" eclass="MMPEVEM/default" CO2="0.00" CO="0.00" HC="0.00" NOx="0.00" PMx="0.00" fuel="0.00" electricity="0.10" noise="55.94" route="r1" type="BMW_i3" waiting="0.00" edge="CE" pos="0.00" speed="0.00" angle="90.00" x="108.05" y="95.05"/>
    </timestep>
    <timestep time="19.00">
        <vehicle id="BMW_i3" eclass="MMPEVEM/default" CO2="0.00" CO="0.00" HC="0.00" NOx="0.00" PMx="0.00" fuel="0.00" electricity="0.10" noise="55.94" route="r1" type="BMW_i3" waiting="0.00" edge="CE" pos="0.00" speed="0.00" angle="90.00" x="108.05" y="95.05"/>
    </timestep>
    <timestep time="20.00">
        <vehicle id="BMW_i3" eclass="MMPEVEM/default" CO2="0.00" CO="0.00" HC="0.00" NOx="0.00" PMx="0.00" fuel="0.00" electricity="0.10" noise="55.94" route="r1" type="BMW_i3" waiting="0.00" edge="CE" pos="0.00" speed="0.00" angle="90.00" x="108.05" y="95.05"/>
    </timestep>
    <timestep time="21.00">
        <vehicle id="BMW_i3" eclass="MMPEVEM/default" CO2="0.00" CO="0.00" HC="0.00" NOx="0.00" PMx="0.00" fuel="0.00" electricity="0.10" noise="55.94" route="r1" type="BMW_i3" waiting="0.00" edge="CE" pos="0.00" speed="0.00" angle="90.00" x="108.05" y="95.05"/>
    </timestep>
    <timestep time="22.00">
        <vehicle id="BMW_i3" eclass="MMPEVEM/default" CO2="0.00" CO="0.00" HC="0.00" NOx="0.00" PMx="0.00" fuel="0.00" electricity="0.10" noise="55.94" route="r1" type="BMW_i3" waiting="0.00" edge="CE" pos="0.00" speed="0.00" angle="90.00" x="108.05" y="95.05"/>
    </timestep>
    <timestep time="23.00">
        <vehicle id="BMW_i3" eclass="MMPEVEM/default" CO2="0.00" CO="0.00" HC="0.00" NOx="0.00" PMx="0.00" fuel="0.00" electricity="0.10" noise="55.94" route="r1" type="BMW_i3" waiting="0.00" edge="CE" pos="0.00" speed="0.00" angle="90.00" x="108.05" y="95.05"/>
    </timestep>
    <timestep time="24.00">
        <vehicle id="BMW_i3" eclass="MMPEVEM/default" CO2="0.00" CO="0.00" HC="0.00" NOx="0.00" PMx="0.00" fuel="0.00" electricity="0.10" noise="55.94" route="r1" type="BMW_i3" waiting="0.00" edge="CE" pos="0.00" speed="0.00" angle="90.00" x="108.05" y="95.05"/>
    </timestep>
    <timestep time="25.00">
        <vehicle id="BMW_i3" eclass="MMPEVEM/default" CO2="0.00" CO="0.00" HC="0.00" NOx="0.00" PMx="0.00" fuel="0.00" electricity="0.10" noise="55.94" route="r1" type="BMW_i3" waiting="0.00" edge="CE" pos="0.00" speed="0.00" angle="90.00" x="108.05" y="95.05"/>
    </timestep>
    <timestep time="26.00">
        <vehicle id="BMW_i3" eclass="MMPEVEM/default" CO2="0.00" CO="0.00" HC="0.00" NOx="0.00" PMx="0.00" fuel="0.00" electricity="0.10" noise="55.94" route="r1" type="BMW_i3" waiting="0.00" edge="CE" pos="0.00" speed="0.00" angle="90.00" x="108.05" y="95.05"/>
    </timestep>
    <timestep time="27.00">
        <vehicle id="BMW_i3" eclass="MMPEVEM/default" CO2="0.00" CO="0.00" HC="0.00" NOx="0.00" PMx="0.00" fuel="0.00" electricity="0.10" noise="55.94" route="r1" type="BMW_i3" waiting="0.00" edge="CE" pos="0.00" speed="0.00" angle="90.00" x="108.05" y="95.05"/>
    </timestep>
    <timestep time="28.00">
        <vehicle id="BMW_i3" eclass="MMPEVEM/default" CO2="0.00" CO="0.00" HC="0.00" NOx="0.00" PMx="0.00" fuel="0.00" electricity="0.10" noise="55.94" route="r1" type="BMW_i3" waiting="0.00" edge="CE" pos="0.00" speed="0.00" angle="90.00" x="108.05" y="95.05"/>
    </timestep>
    <timestep time="29.00">
        <vehicle id="BMW_i3" eclass="MMPEVEM/default" CO2="0.00" CO="0.00" HC="0.00" NOx="0.00" PMx="0.00" fuel="0.00" electricity="0.10" noise="55.94" route="r1" type="BMW_i3" waiting="0.00" edge="CE" pos="0.00" speed="0.00" angle="90.00" x="108.05" y="95.05"/>
    </timestep>
    <timestep time="30.00">
        <vehicle id="BMW_i3" eclass="MMPEVEM/default" CO2="0.00" CO="0.00" HC="0.00" NOx="0.00" PMx="0.00" fuel="0.00" electricity="0.10" noise="55.94" route="r1" type="BMW_i3" waiting="0.00" edge="CE" pos="0.00" speed="0.00" angle="90.00" x="108.05" y="95.05"/>
    </timestep>
    <timestep time="31.00">
        <vehicle id="BMW_i3" eclass="MMPEVEM/default" CO2="0.00" CO="0.00" HC="0.00" NOx="0.00" PMx="0.00" fuel="0.00" electricity="0.10" noise="55.94" route="r1" type="BMW_i3" waiting="0.00" edge="CE" pos="0.00" speed="0.00" angle="90.00" x="108.05" y="95.05"/>
    </timestep>
    <timestep time="32.00">
        <vehicle id="BMW_i3" eclass="MMPEVEM/default" CO2="0.00" CO="0.00" HC="0.00" NOx="0.00" PMx="0.00" fuel="0.00" electricity="0.10" noise="55.94" route="r1" type="BMW_i3" waiting="0.00" edge="CE" pos="0.00" speed="0.00" angle="90.00" x="108.05" y="95.05"/>
    </timestep>
    <timestep time="33.00">
        <vehicle id="BMW_i3" eclass="MMPEVEM/default" CO2="0.00" CO="0.00" HC="0.00" NOx="0.00" PMx="0.00" fuel="0.00" electricity="0.10" noise="55.94" route="r1" type="BMW_i3" waiting="0.00" edge="CE" pos="0.00" speed="0.00" angle="90.00" x="108.05" y="95.05"/>
    </timestep>
    <timestep time="34.00"/>
</emission-export>
