<?xml version="1.0" encoding="UTF-8"?>

<!-- generated on 2026-04-23T10:51:36.197695+01:00 by Eclipse SUMO sumo v1_26_0+1336-682400df945
This data file and the accompanying materials
are made available under the terms of the Eclipse Public License v2.0
which accompanies this distribution, and is available at
http://www.eclipse.org/legal/epl-v20.html
This file may also be made available under the following Secondary
Licenses when the conditions for such availability set forth in the Eclipse
Public License 2.0 are satisfied: GNU General Public License, version 2
or later which is available at
https://www.gnu.org/licenses/old-licenses/gpl-2.0-standalone.html
SPDX-License-Identifier: EPL-2.0 OR GPL-2.0-or-later
<sumoConfiguration xmlns:xsi="http://www.w3.org/2001/XMLSchema-instance" xsi:noNamespaceSchemaLocation="http://sumo.dlr.de/xsd/sumoConfiguration.xsd">

    <input>
        <net-file value="net.net.xml"/>
        <route-files value="input_routes.rou.xml"/>
        <junction-taz value="true"/>
    </input>

    <output>
        <write-license value="true"/>
        <tripinfo-output value="tripinfos.xml"/>
        <tripinfo-output.write-unfinished value="true"/>
        <vehroute-output value="vehroutes.xml"/>
        <vehroute-output.write-unfinished value="true"/>
    </output>

    <time>
        <end value="1000"/>
    </time>

    <processing>
        <default.departspeed value="0"/>
        <default.departlane value="first"/>
        <default.speeddev value="0"/>
    </processing>

    <report>
        <xml-validation value="never"/>
        <duration-log.disable value="true"/>
        <no-step-log value="true"/>
    </report>

    <taxi_device>
        <device.taxi.idle-algorithm value="randomCircling"/>
    </taxi_device>

</sumoConfiguration>
-->

<routes xmlns:xsi="http://www.w3.org/2001/XMLSchema-instance" xsi:noNamespaceSchemaLocation="http://sumo.dlr.de/xsd/routes_file.xsd">
    <person id="p0" depart="0.00" arrival="214.00">
        <ride from="B2C2" to="A0B0" arrivalPos="287.60" lines="taxi"/>
    </person>

    <vehicle id="trip_0" type="taxi" depart="0.00">
        <routeDistribution>
            <route replacedOnEdge="A0B0" reason="taxi:idling:randomCircling" replacedAtTime="0.00" probability="0" edges="A0B0 B0C0"/>
            <route replacedOnEdge="B0C0" replacedOnIndex="1" reason="taxi:idling:randomCircling" replacedAtTime="26.00" probability="0" edges="A0B0 B0C0 C0B0"/>
            <route replacedOnEdge="C0B0" replacedOnIndex="2" reason="taxi:idling:randomCircling" replacedAtTime="50.00" probability="0" edges="A0B0 B0C0 C0B0 B0B1"/>
            <route replacedOnEdge="C0B0" replacedOnIndex="2" reason="taxi:idling:randomCircling" replacedAtTime="65.00" probability="0" edges="A0B0 B0C0 C0B0 B0B1 B1C1"/>
            <route replacedOnEdge="B1C1" replacedOnIndex="4" reason="taxi:idling:randomCircling" replacedAtTime="86.00" probability="0" edges="A0B0 B0C0 C0B0 B0B1 B1C1 C1C0"/>
            <route replacedOnEdge="B1C1" replacedOnIndex="4" reason="taxi:idling:randomCircling" replacedAtTime="100.00" probability="0" edges="A0B0 B0C0 C0B0 B0B1 B1C1 C1C0 C0D0"/>
            <route replacedOnEdge="C0D0" replacedOnIndex="6" reason="taxi:idling:randomCircling" replacedAtTime="122.00" probability="0" edges="A0B0 B0C0 C0B0 B0B1 B1C1 C1C0 C0D0 D0C0"/>
            <route replacedOnEdge="D0C0" replacedOnIndex="7" reason="taxi:idling:randomCircling" replacedAtTime="147.00" probability="0" edges="A0B0 B0C0 C0B0 B0B1 B1C1 C1C0 C0D0 D0C0 C0B0"/>
            <route replacedOnEdge="C0B0" replacedOnIndex="8" reason="taxi:idling:randomCircling" replacedAtTime="172.00" probability="0" edges="A0B0 B0C0 C0B0 B0B1 B1C1 C1C0 C0D0 D0C0 C0B0 B0B1"/>
            <route replacedOnEdge="C0B0" replacedOnIndex="8" reason="taxi:idling:randomCircling" replacedAtTime="185.00" probability="0" edges="A0B0 B0C0 C0B0 B0B1 B1C1 C1C0 C0D0 D0C0 C0B0 B0B1 B1B0"/>
            <route replacedOnEdge="C0B0" replacedOnIndex="8" reason="taxi:idling:randomCircling" replacedAtTime="191.00" probability="0" edges="A0B0 B0C0 C0B0 B0B1 B1C1 C1C0 C0D0 D0C0 C0B0 B0B1 B1B0 B0A0"/>
            <route replacedOnEdge="B0A0" replacedOnIndex="11" reason="taxi:idling:randomCircling" replacedAtTime="217.00" probability="0" edges="A0B0 B0C0 C0B0 B0B1 B1C1 C1C0 C0D0 D0C0 C0B0 B0B1 B1B0 B0A0 A0A1"/>
            <route replacedOnEdge="B0A0" replacedOnIndex="11" reason="taxi:idling:randomCircling" replacedAtTime="232.00" probability="0" edges="A0B0 B0C0 C0B0 B0B1 B1C1 C1C0 C0D0 D0C0 C0B0 B0B1 B1B0 B0A0 A0A1 A1B1"/>
            <route replacedOnEdge="A1B1" replacedOnIndex="13" reason="taxi:idling:randomCircling" replacedAtTime="252.00" probability="0" edges="A0B0 B0C0 C0B0 B0B1 B1C1 C1C0 C0D0 D0C0 C0B0 B0B1 B1B0 B0A0 A0A1 A1B1 B1C1"/>
            <route replacedOnEdge="B1C1" replacedOnIndex="14" reason="taxi:idling:randomCircling" replacedAtTime="276.00" probability="0" edges="A0B0 B0C0 C0B0 B0B1 B1C1 C1C0 C0D0 D0C0 C0B0 B0B1 B1B0 B0A0 A0A1 A1B1 B1C1 C1C2"/>
            <route replacedOnEdge="B1C1" replacedOnIndex="14" reason="taxi:idling:randomCircling" replacedAtTime="289.00" probability="0" edges="A0B0 B0C0 C0B0 B0B1 B1C1 C1C0 C0D0 D0C0 C0B0 B0B1 B1B0 B0A0 A0A1 A1B1 B1C1 C1C2 C2C1"/>
            <route replacedOnEdge="B1C1" replacedOnIndex="14" reason="taxi:idling:randomCircling" replacedAtTime="296.00" probability="0" edges="A0B0 B0C0 C0B0 B0B1 B1C1 C1C0 C0D0 D0C0 C0B0 B0B1 B1B0 B0A0 A0A1 A1B1 B1C1 C1C2 C2C1 C1B1"/>
            <route replacedOnEdge="C1B1" replacedOnIndex="17" reason="taxi:idling:randomCircling" replacedAtTime="322.00" probability="0" edges="A0B0 B0C0 C0B0 B0B1 B1C1 C1C0 C0D0 D0C0 C0B0 B0B1 B1B0 B0A0 A0A1 A1B1 B1C1 C1C2 C2C1 C1B1 B1A1"/>
            <route replacedOnEdge="B1A1" replacedOnIndex="18" reason="taxi:idling:randomCircling" replacedAtTime="347.00" probability="0" edges="A0B0 B0C0 C0B0 B0B1 B1C1 C1C0 C0D0 D0C0 C0B0 B0B1 B1B0 B0A0 A0A1 A1B1 B1C1 C1C2 C2C1 C1B1 B1A1 A1A2"/>
            <route replacedOnEdge="B1A1" replacedOnIndex="18" reason="taxi:idling:randomCircling" replacedAtTime="360.00" probability="0" edges="A0B0 B0C0 C0B0 B0B1 B1C1 C1C0 C0D0 D0C0 C0B0 B0B1 B1B0 B0A0 A0A1 A1B1 B1C1 C1C2 C2C1 C1B1 B1A1 A1A2 A2B2"/>
            <route replacedOnEdge="A2B2" replacedOnIndex="20" reason="taxi:idling:randomCircling" replacedAtTime="381.00" probability="0" edges="A0B0 B0C0 C0B0 B0B1 B1C1 C1C0 C0D0 D0C0 C0B0 B0B1 B1B0 B0A0 A0A1 A1B1 B1C1 C1C2 C2C1 C1B1 B1A1 A1A2 A2B2 B2A2"/>
            <route replacedOnEdge="B2A2" replacedOnIndex="21" reason="taxi:idling:randomCircling" replacedAtTime="407.00" probability="0" edges="A0B0 B0C0 C0B0 B0B1 B1C1 C1C0 C0D0 D0C0 C0B0 B0B1 B1B0 B0A0 A0A1 A1B1 B1C1 C1C2 C2C1 C1B1 B1A1 A1A2 A2B2 B2A2 A2A1"/>
            <route replacedOnEdge="B2A2" replacedOnIndex="21" reason="taxi:idling:randomCircling" replacedAtTime="423.00" probability="0" edges="A0B0 B0C0 C0B0 B0B1 B1C1 C1C0 C0D0 D0C0 C0B0 B0B1 B1B0 B0A0 A0A1 A1B1 B1C1 C1C2 C2C1 C1B1 B1A1 A1A2 A2B2 B2A2 A2A1 A1A0"/>
            <route replacedOnEdge="B2A2" replacedOnIndex="21" reason="taxi:idling:randomCircling" replacedAtTime="429.00" probability="0" edges="A0B0 B0C0 C0B0 B0B1 B1C1 C1C0 C0D0 D0C0 C0B0 B0B1 B1B0 B0A0 A0A1 A1B1 B1C1 C1C2 C2C1 C1B1 B1A1 A1A2 A2B2 B2A2 A2A1 A1A0 A0B0"/>
            <route replacedOnEdge="A0B0" replacedOnIndex="24" reason="taxi:idling:randomCircling" replacedAtTime="450.00" probability="0" edges="A0B0 B0C0 C0B0 B0B1 B1C1 C1C0 C0D0 D0C0 C0B0 B0B1 B1B0 B0A0 A0A1 A1B1 B1C1 C1C2 C2C1 C1B1 B1A1 A1A2 A2B2 B2A2 A2A1 A1A0 A0B0 B0B1"/>
            <route replacedOnEdge="A0B0" replacedOnIndex="24" reason="taxi:idling:randomCircling" replacedAtTime="464.00" probability="0" edges="A0B0 B0C0 C0B0 B0B1 B1C1 C1C0 C0D0 D0C0 C0B0 B0B1 B1B0 B0A0 A0A1 A1B1 B1C1 C1C2 C2C1 C1B1 B1A1 A1A2 A2B2 B2A2 A2A1 A1A0 A0B0 B0B1 B1B2"/>
            <route replacedOnEdge="A0B0" replacedOnIndex="24" reason="taxi:idling:randomCircling" replacedAtTime="471.00" probability="0" edges="A0B0 B0C0 C0B0 B0B1 B1C1 C1C0 C0D0 D0C0 C0B0 B0B1 B1B0 B0A0 A0A1 A1B1 B1C1 C1C2 C2C1 C1B1 B1A1 A1A2 A2B2 B2A2 A2A1 A1A0 A0B0 B0B1 B1B2 B2B1"/>
            <route replacedOnEdge="B0B1" replacedOnIndex="25" reason="taxi:idling:randomCircling" replacedAtTime="480.00" probability="0" edges="A0B0 B0C0 C0B0 B0B1 B1C1 C1C0 C0D0 D0C0 C0B0 B0B1 B1B0 B0A0 A0A1 A1B1 B1C1 C1C2 C2C1 C1B1 B1A1 A1A2 A2B2 B2A2 A2A1 A1A0 A0B0 B0B1 B1B2 B2B1 B1A1"/>
            <route replacedOnEdge="B1A1" replacedOnIndex="28" reason="taxi:idling:randomCircling" replacedAtTime="503.00" probability="0" edges="A0B0 B0C0 C0B0 B0B1 B1C1 C1C0 C0D0 D0C0 C0B0 B0B1 B1B0 B0A0 A0A1 A1B1 B1C1 C1C2 C2C1 C1B1 B1A1 A1A2 A2B2 B2A2 A2A1 A1A0 A0B0 B0B1 B1B2 B2B1 B1A1 A1B1"/>
            <route replacedOnEdge="A1B1" replacedOnIndex="29" reason="taxi:idling:randomCircling" replacedAtTime="529.00" probability="0" edges="A0B0 B0C0 C0B0 B0B1 B1C1 C1C0 C0D0 D0C0 C0B0 B0B1 B1B0 B0A0 A0A1 A1B1 B1C1 C1C2 C2C1 C1B1 B1A1 A1A2 A2B2 B2A2 A2A1 A1A0 A0B0 B0B1 B1B2 B2B1 B1A1 A1B1 B1B0"/>
            <route replacedOnEdge="A1B1" replacedOnIndex="29" reason="taxi:idling:randomCircling" replacedAtTime="545.00" probability="0" edges="A0B0 B0C0 C0B0 B0B1 B1C1 C1C0 C0D0 D0C0 C0B0 B0B1 B1B0 B0A0 A0A1 A1B1 B1C1 C1C2 C2C1 C1B1 B1A1 A1A2 A2B2 B2A2 A2A1 A1A0 A0B0 B0B1 B1B2 B2B1 B1A1 A1B1 B1B0 B0A0"/>
            <route replacedOnEdge="B0A0" replacedOnIndex="31" reason="taxi:idling:randomCircling" replacedAtTime="566.00" probability="0" edges="A0B0 B0C0 C0B0 B0B1 B1C1 C1C0 C0D0 D0C0 C0B0 B0B1 B1B0 B0A0 A0A1 A1B1 B1C1 C1C2 C2C1 C1B1 B1A1 A1A2 A2B2 B2A2 A2A1 A1A0 A0B0 B0B1 B1B2 B2B1 B1A1 A1B1 B1B0 B0A0 A0A1"/>
            <route replacedOnEdge="B0A0" replacedOnIndex="31" reason="taxi:idling:randomCircling" replacedAtTime="580.00" probability="0" edges="A0B0 B0C0 C0B0 B0B1 B1C1 C1C0 C0D0 D0C0 C0B0 B0B1 B1B0 B0A0 A0A1 A1B1 B1C1 C1C2 C2C1 C1B1 B1A1 A1A2 A2B2 B2A2 A2A1 A1A0 A0B0 B0B1 B1B2 B2B1 B1A1 A1B1 B1B0 B0A0 A0A1 A1B1"/>
            <route replacedOnEdge="A1B1" replacedOnIndex="33" reason="taxi:idling:randomCircling" replacedAtTime="601.00" probability="0" edges="A0B0 B0C0 C0B0 B0B1 B1C1 C1C0 C0D0 D0C0 C0B0 B0B1 B1B0 B0A0 A0A1 A1B1 B1C1 C1C2 C2C1 C1B1 B1A1 A1A2 A2B2 B2A2 A2A1 A1A0 A0B0 B0B1 B1B2 B2B1 B1A1 A1B1 B1B0 B0A0 A0A1 A1B1 B1C1"/>
            <route replacedOnEdge="B1C1" replacedOnIndex="34" reason="taxi:idling:randomCircling" replacedAtTime="625.00" probability="0" edges="A0B0 B0C0 C0B0 B0B1 B1C1 C1C0 C0D0 D0C0 C0B0 B0B1 B1B0 B0A0 A0A1 A1B1 B1C1 C1C2 C2C1 C1B1 B1A1 A1A2 A2B2 B2A2 A2A1 A1A0 A0B0 B0B1 B1B2 B2B1 B1A1 A1B1 B1B0 B0A0 A0A1 A1B1 B1C1 C1D1"/>
            <route replacedOnEdge="C1D1" replacedOnIndex="35" reason="taxi:idling:randomCircling" replacedAtTime="650.00" probability="0" edges="A0B0 B0C0 C0B0 B0B1 B1C1 C1C0 C0D0 D0C0 C0B0 B0B1 B1B0 B0A0 A0A1 A1B1 B1C1 C1C2 C2C1 C1B1 B1A1 A1A2 A2B2 B2A2 A2A1 A1A0 A0B0 B0B1 B1B2 B2B1 B1A1 A1B1 B1B0 B0A0 A0A1 A1B1 B1C1 C1D1 D1D2"/>
            <route replacedOnEdge="C1D1" replacedOnIndex="35" reason="taxi:idling:randomCircling" replacedAtTime="663.00" probability="0" edges="A0B0 B0C0 C0B0 B0B1 B1C1 C1C0 C0D0 D0C0 C0B0 B0B1 B1B0 B0A0 A0A1 A1B1 B1C1 C1C2 C2C1 C1B1 B1A1 A1A2 A2B2 B2A2 A2A1 A1A0 A0B0 B0B1 B1B2 B2B1 B1A1 A1B1 B1B0 B0A0 A0A1 A1B1 B1C1 C1D1 D1D2 D2E2"/>
            <route replacedOnEdge="D2E2" replacedOnIndex="37" reason="taxi:idling:randomCircling" replacedAtTime="685.00" probability="0" edges="A0B0 B0C0 C0B0 B0B1 B1C1 C1C0 C0D0 D0C0 C0B0 B0B1 B1B0 B0A0 A0A1 A1B1 B1C1 C1C2 C2C1 C1B1 B1A1 A1A2 A2B2 B2A2 A2A1 A1A0 A0B0 B0B1 B1B2 B2B1 B1A1 A1B1 B1B0 B0A0 A0A1 A1B1 B1C1 C1D1 D1D2 D2E2 E2F2"/>
            <route replacedOnEdge="E2F2" replacedOnIndex="38" reason="taxi:idling:randomCircling" replacedAtTime="709.00" probability="0" edges="A0B0 B0C0 C0B0 B0B1 B1C1 C1C0 C0D0 D0C0 C0B0 B0B1 B1B0 B0A0 A0A1 A1B1 B1C1 C1C2 C2C1 C1B1 B1A1 A1A2 A2B2 B2A2 A2A1 A1A0 A0B0 B0B1 B1B2 B2B1 B1A1 A1B1 B1B0 B0A0 A0A1 A1B1 B1C1 C1D1 D1D2 D2E2 E2F2 F2F1"/>
            <route replacedOnEdge="E2F2" replacedOnIndex="38" reason="taxi:idling:randomCircling" replacedAtTime="722.00" probability="0" edges="A0B0 B0C0 C0B0 B0B1 B1C1 C1C0 C0D0 D0C0 C0B0 B0B1 B1B0 B0A0 A0A1 A1B1 B1C1 C1C2 C2C1 C1B1 B1A1 A1A2 A2B2 B2A2 A2A1 A1A0 A0B0 B0B1 B1B2 B2B1 B1A1 A1B1 B1B0 B0A0 A0A1 A1B1 B1C1 C1D1 D1D2 D2E2 E2F2 F2F1 F1F0"/>
            <route replacedOnEdge="E2F2" replacedOnIndex="38" reason="taxi:idling:randomCircling" replacedAtTime="728.00" probability="0" edges="A0B0 B0C0 C0B0 B0B1 B1C1 C1C0 C0D0 D0C0 C0B0 B0B1 B1B0 B0A0 A0A1 A1B1 B1C1 C1C2 C2C1 C1B1 B1A1 A1A2 A2B2 B2A2 A2A1 A1A0 A0B0 B0B1 B1B2 B2B1 B1A1 A1B1 B1B0 B0A0 A0A1 A1B1 B1C1 C1D1 D1D2 D2E2 E2F2 F2F1 F1F0 F0E0"/>
            <route replacedOnEdge="F0E0" replacedOnIndex="41" reason="taxi:idling:randomCircling" replacedAtTime="750.00" probability="0" edges="A0B0 B0C0 C0B0 B0B1 B1C1 C1C0 C0D0 D0C0 C0B0 B0B1 B1B0 B0A0 A0A1 A1B1 B1C1 C1C2 C2C1 C1B1 B1A1 A1A2 A2B2 B2A2 A2A1 A1A0 A0B0 B0B1 B1B2 B2B1 B1A1 A1B1 B1B0 B0A0 A0A1 A1B1 B1C1 C1D1 D1D2 D2E2 E2F2 F2F1 F1F0 F0E0 E0D0"/>
            <route replacedOnEdge="E0D0" replacedOnIndex="42" reason="taxi:idling:randomCircling" replacedAtTime="774.00" probability="0" edges="A0B0 B0C0 C0B0 B0B1 B1C1 C1C0 C0D0 D0C0 C0B0 B0B1 B1B0 B0A0 A0A1 A1B1 B1C1 C1C2 C2C1 C1B1 B1A1 A1A2 A2B2 B2A2 A2A1 A1A0 A0B0 B0B1 B1B2 B2B1 B1A1 A1B1 B1B0 B0A0 A0A1 A1B1 B1C1 C1D1 D1D2 D2E2 E2F2 F2F1 F1F0 F0E0 E0D0 D0D1"/>
            <route replacedOnEdge="E0D0" replacedOnIndex="42" reason="taxi:idling:randomCircling" replacedAtTime="787.00" probability="0" edges="A0B0 B0C0 C0B0 B0B1 B1C1 C1C0 C0D0 D0C0 C0B0 B0B1 B1B0 B0A0 A0A1 A1B1 B1C1 C1C2 C2C1 C1B1 B1A1 A1A2 A2B2 B2A2 A2A1 A1A0 A0B0 B0B1 B1B2 B2B1 B1A1 A1B1 B1B0 B0A0 A0A1 A1B1 B1C1 C1D1 D1D2 D2E2 E2F2 F2F1 F1F0 F0E0 E0D0 D0D1 D1D2"/>
            <route replacedOnEdge="E0D0" replacedOnIndex="42" reason="taxi:idling:randomCircling" replacedAtTime="794.00" probability="0" edges="A0B0 B0C0 C0B0 B0B1 B1C1 C1C0 C0D0 D0C0 C0B0 B0B1 B1B0 B0A0 A0A1 A1B1 B1C1 C1C2 C2C1 C1B1 B1A1 A1A2 A2B2 B2A2 A2A1 A1A0 A0B0 B0B1 B1B2 B2B1 B1A1 A1B1 B1B0 B0A0 A0A1 A1B1 B1C1 C1D1 D1D2 D2E2 E2F2 F2F1 F1F0 F0E0 E0D0 D0D1 D1D2 D2C2"/>
            <route replacedOnEdge="D2C2" replacedOnIndex="45" reason="taxi:idling:randomCircling" replacedAtTime="816.00" probability="0" edges="A0B0 B0C0 C0B0 B0B1 B1C1 C1C0 C0D0 D0C0 C0B0 B0B1 B1B0 B0A0 A0A1 A1B1 B1C1 C1C2 C2C1 C1B1 B1A1 A1A2 A2B2 B2A2 A2A1 A1A0 A0B0 B0B1 B1B2 B2B1 B1A1 A1B1 B1B0 B0A0 A0A1 A1B1 B1C1 C1D1 D1D2 D2E2 E2F2 F2F1 F1F0 F0E0 E0D0 D0D1 D1D2 D2C2 C2D2"/>
            <route replacedOnEdge="C2D2" replacedOnIndex="46" reason="taxi:idling:randomCircling" replacedAtTime="841.00" probability="0" edges="A0B0 B0C0 C0B0 B0B1 B1C1 C1C0 C0D0 D0C0 C0B0 B0B1 B1B0 B0A0 A0A1 A1B1 B1C1 C1C2 C2C1 C1B1 B1A1 A1A2 A2B2 B2A2 A2A1 A1A0 A0B0 B0B1 B1B2 B2B1 B1A1 A1B1 B1B0 B0A0 A0A1 A1B1 B1C1 C1D1 D1D2 D2E2 E2F2 F2F1 F1F0 F0E0 E0D0 D0D1 D1D2 D2C2 C2D2 D2C2"/>
            <route replacedOnEdge="D2C2" replacedOnIndex="47" reason="taxi:idling:randomCircling" replacedAtTime="867.00" probability="0" edges="A0B0 B0C0 C0B0 B0B1 B1C1 C1C0 C0D0 D0C0 C0B0 B0B1 B1B0 B0A0 A0A1 A1B1 B1C1 C1C2 C2C1 C1B1 B1A1 A1A2 A2B2 B2A2 A2A1 A1A0 A0B0 B0B1 B1B2 B2B1 B1A1 A1B1 B1B0 B0A0 A0A1 A1B1 B1C1 C1D1 D1D2 D2E2 E2F2 F2F1 F1F0 F0E0 E0D0 D0D1 D1D2 D2C2 C2D2 D2C2 C2D2"/>
            <route replacedOnEdge="C2D2" replacedOnIndex="48" reason="taxi:idling:randomCircling" replacedAtTime="893.00" probability="0" edges="A0B0 B0C0 C0B0 B0B1 B1C1 C1C0 C0D0 D0C0 C0B0 B0B1 B1B0 B0A0 A0A1 A1B1 B1C1 C1C2 C2C1 C1B1 B1A1 A1A2 A2B2 B2A2 A2A1 A1A0 A0B0 B0B1 B1B2 B2B1 B1A1 A1B1 B1B0 B0A0 A0A1 A1B1 B1C1 C1D1 D1D2 D2E2 E2F2 F2F1 F1F0 F0E0 E0D0 D0D1 D1D2 D2C2 C2D2 D2C2 C2D2 D2D1"/>
            <route replacedOnEdge="C2D2" replacedOnIndex="48" reason="taxi:idling:randomCircling" replacedAtTime="908.00" probability="0" edges="A0B0 B0C0 C0B0 B0B1 B1C1 C1C0 C0D0 D0C0 C0B0 B0B1 B1B0 B0A0 A0A1 A1B1 B1C1 C1C2 C2C1 C1B1 B1A1 A1A2 A2B2 B2A2 A2A1 A1A0 A0B0 B0B1 B1B2 B2B1 B1A1 A1B1 B1B0 B0A0 A0A1 A1B1 B1C1 C1D1 D1D2 D2E2 E2F2 F2F1 F1F0 F0E0 E0D0 D0D1 D1D2 D2C2 C2D2 D2C2 C2D2 D2D1 D1D0"/>
            <route replacedOnEdge="C2D2" replacedOnIndex="48" reason="taxi:idling:randomCircling" replacedAtTime="914.00" probability="0" edges="A0B0 B0C0 C0B0 B0B1 B1C1 C1C0 C0D0 D0C0 C0B0 B0B1 B1B0 B0A0 A0A1 A1B1 B1C1 C1C2 C2C1 C1B1 B1A1 A1A2 A2B2 B2A2 A2A1 A1A0 A0B0 B0B1 B1B2 B2B1 B1A1 A1B1 B1B0 B0A0 A0A1 A1B1 B1C1 C1D1 D1D2 D2E2 E2F2 F2F1 F1F0 F0E0 E0D0 D0D1 D1D2 D2C2 C2D2 D2C2 C2D2 D2D1 D1D0 D0C0"/>
            <route replacedOnEdge="D0C0" replacedOnIndex="51" reason="taxi:idling:randomCircling" replacedAtTime="936.00" probability="0" edges="A0B0 B0C0 C0B0 B0B1 B1C1 C1C0 C0D0 D0C0 C0B0 B0B1 B1B0 B0A0 A0A1 A1B1 B1C1 C1C2 C2C1 C1B1 B1A1 A1A2 A2B2 B2A2 A2A1 A1A0 A0B0 B0B1 B1B2 B2B1 B1A1 A1B1 B1B0 B0A0 A0A1 A1B1 B1C1 C1D1 D1D2 D2E2 E2F2 F2F1 F1F0 F0E0 E0D0 D0D1 D1D2 D2C2 C2D2 D2C2 C2D2 D2D1 D1D0 D0C0 C0C1"/>
            <route replacedOnEdge="D0C0" replacedOnIndex="51" reason="taxi:idling:randomCircling" replacedAtTime="950.00" probability="0" edges="A0B0 B0C0 C0B0 B0B1 B1C1 C1C0 C0D0 D0C0 C0B0 B0B1 B1B0 B0A0 A0A1 A1B1 B1C1 C1C2 C2C1 C1B1 B1A1 A1A2 A2B2 B2A2 A2A1 A1A0 A0B0 B0B1 B1B2 B2B1 B1A1 A1B1 B1B0 B0A0 A0A1 A1B1 B1C1 C1D1 D1D2 D2E2 E2F2 F2F1 F1F0 F0E0 E0D0 D0D1 D1D2 D2C2 C2D2 D2C2 C2D2 D2D1 D1D0 D0C0 C0C1 C1B1"/>
            <route replacedOnEdge="C1B1" replacedOnIndex="53" reason="taxi:idling:randomCircling" replacedAtTime="971.00" probability="0" edges="A0B0 B0C0 C0B0 B0B1 B1C1 C1C0 C0D0 D0C0 C0B0 B0B1 B1B0 B0A0 A0A1 A1B1 B1C1 C1C2 C2C1 C1B1 B1A1 A1A2 A2B2 B2A2 A2A1 A1A0 A0B0 B0B1 B1B2 B2B1 B1A1 A1B1 B1B0 B0A0 A0A1 A1B1 B1C1 C1D1 D1D2 D2E2 E2F2 F2F1 F1F0 F0E0 E0D0 D0D1 D1D2 D2C2 C2D2 D2C2 C2D2 D2D1 D1D0 D0C0 C0C1 C1B1 B1A1"/>
            <route replacedOnEdge="B1A1" replacedOnIndex="54" reason="taxi:idling:randomCircling" replacedAtTime="997.00" probability="0" edges="A0B0 B0C0 C0B0 B0B1 B1C1 C1C0 C0D0 D0C0 C0B0 B0B1 B1B0 B0A0 A0A1 A1B1 B1C1 C1C2 C2C1 C1B1 B1A1 A1A2 A2B2 B2A2 A2A1 A1A0 A0B0 B0B1 B1B2 B2B1 B1A1 A1B1 B1B0 B0A0 A0A1 A1B1 B1C1 C1D1 D1D2 D2E2 E2F2 F2F1 F1F0 F0E0 E0D0 D0D1 D1D2 D2C2 C2D2 D2C2 C2D2 D2D1 D1D0 D0C0 C0C1 C1B1 B1A1 A1A0"/>
            <route edges="A0B0 B0C0 C0B0 B0B1 B1C1 C1C0 C0D0 D0C0 C0B0 B0B1 B1B0 B0A0 A0A1 A1B1 B1C1 C1C2 C2C1 C1B1 B1A1 A1A2 A2B2 B2A2 A2A1 A1A0 A0B0 B0B1 B1B2 B2B1 B1A1 A1B1 B1B0 B0A0 A0A1 A1B1 B1C1 C1D1 D1D2 D2E2 E2F2 F2F1 F1F0 F0E0 E0D0 D0D1 D1D2 D2C2 C2D2 D2C2 C2D2 D2D1 D1D0 D0C0 C0C1 C1B1 B1A1 A1A0 A0B0"/>
        </routeDistribution>
    </vehicle>

    <vehicle id="trip_1" type="taxi" depart="0.00">
        <routeDistribution>
            <route replacedOnEdge="A2B2" reason="taxi:idling:randomCircling" replacedAtTime="0.00" probability="0" edges="A2B2 B2C2"/>
            <route replacedOnEdge="A2B2" reason="taxi:prepare_dispatch" replacedAtTime="0.00" probability="0" edges="A2B2 B2C2 C2C1"/>
            <route replacedOnEdge="A2B2" reason="taxi:dispatch" replacedAtTime="0.00" probability="0" edges="A2B2 B2C2 A0B0"/>
            <route replacedOnEdge="A0B0" replacedOnIndex="6" reason="taxi:idling:randomCircling" replacedAtTime="215.00" probability="0" edges="A2B2 B2C2 C2C1 C1B1 B1A1 A1A0 A0B0"/>
            <route replacedOnEdge="B1C1" replacedOnIndex="8" reason="taxi:idling:randomCircling" replacedAtTime="228.00" probability="0" edges="A2B2 B2C2 C2C1 C1B1 B1A1 A1A0 A0B0 B0B1 B1C1 C1C2"/>
            <route replacedOnEdge="B1C1" replacedOnIndex="8" reason="taxi:idling:randomCircling" replacedAtTime="242.00" probability="0" edges="A2B2 B2C2 C2C1 C1B1 B1A1 A1A0 A0B0 B0B1 B1C1 C1C2 C2D2"/>
            <route replacedOnEdge="C2D2" replacedOnIndex="10" reason="taxi:idling:randomCircling" replacedAtTime="264.00" probability="0" edges="A2B2 B2C2 C2C1 C1B1 B1A1 A1A0 A0B0 B0B1 B1C1 C1C2 C2D2 D2D1"/>
            <route replacedOnEdge="C2D2" replacedOnIndex="10" reason="taxi:idling:randomCircling" replacedAtTime="278.00" probability="0" edges="A2B2 B2C2 C2C1 C1B1 B1A1 A1A0 A0B0 B0B1 B1C1 C1C2 C2D2 D2D1 D1C1"/>
            <route replacedOnEdge="D1C1" replacedOnIndex="12" reason="taxi:idling:randomCircling" replacedAtTime="299.00" probability="0" edges="A2B2 B2C2 C2C1 C1B1 B1A1 A1A0 A0B0 B0B1 B1C1 C1C2 C2D2 D2D1 D1C1 C1D1"/>
            <route replacedOnEdge="C1D1" replacedOnIndex="13" reason="taxi:idling:randomCircling" replacedAtTime="325.00" probability="0" edges="A2B2 B2C2 C2C1 C1B1 B1A1 A1A0 A0B0 B0B1 B1C1 C1C2 C2D2 D2D1 D1C1 C1D1 D1D2"/>
            <route replacedOnEdge="C1D1" replacedOnIndex="13" reason="taxi:idling:randomCircling" replacedAtTime="340.00" probability="0" edges="A2B2 B2C2 C2C1 C1B1 B1A1 A1A0 A0B0 B0B1 B1C1 C1C2 C2D2 D2D1 D1C1 C1D1 D1D2 D2C2"/>
            <route replacedOnEdge="D2C2" replacedOnIndex="15" reason="taxi:idling:randomCircling" replacedAtTime="362.00" probability="0" edges="A2B2 B2C2 C2C1 C1B1 B1A1 A1A0 A0B0 B0B1 B1C1 C1C2 C2D2 D2D1 D1C1 C1D1 D1D2 D2C2 C2D2"/>
            <route replacedOnEdge="C2D2" replacedOnIndex="16" reason="taxi:idling:randomCircling" replacedAtTime="387.00" probability="0" edges="A2B2 B2C2 C2C1 C1B1 B1A1 A1A0 A0B0 B0B1 B1C1 C1C2 C2D2 D2D1 D1C1 C1D1 D1D2 D2C2 C2D2 D2D1"/>
            <route replacedOnEdge="C2D2" replacedOnIndex="16" reason="taxi:idling:randomCircling" replacedAtTime="402.00" probability="0" edges="A2B2 B2C2 C2C1 C1B1 B1A1 A1A0 A0B0 B0B1 B1C1 C1C2 C2D2 D2D1 D1C1 C1D1 D1D2 D2C2 C2D2 D2D1 D1E1"/>
            <route replacedOnEdge="D1E1" replacedOnIndex="18" reason="taxi:idling:randomCircling" replacedAtTime="423.00" probability="0" edges="A2B2 B2C2 C2C1 C1B1 B1A1 A1A0 A0B0 B0B1 B1C1 C1C2 C2D2 D2D1 D1C1 C1D1 D1D2 D2C2 C2D2 D2D1 D1E1 E1E0"/>
            <route replacedOnEdge="D1E1" replacedOnIndex="18" reason="taxi:idling:randomCircling" replacedAtTime="436.00" probability="0" edges="A2B2 B2C2 C2C1 C1B1 B1A1 A1A0 A0B0 B0B1 B1C1 C1C2 C2D2 D2D1 D1C1 C1D1 D1D2 D2C2 C2D2 D2D1 D1E1 E1E0 E0E1"/>
            <route replacedOnEdge="D1E1" replacedOnIndex="18" reason="taxi:idling:randomCircling" replacedAtTime="443.00" probability="0" edges="A2B2 B2C2 C2C1 C1B1 B1A1 A1A0 A0B0 B0B1 B1C1 C1C2 C2D2 D2D1 D1C1 C1D1 D1D2 D2C2 C2D2 D2D1 D1E1 E1E0 E0E1 E1D1"/>
            <route replacedOnEdge="E1D1" replacedOnIndex="21" reason="taxi:idling:randomCircling" replacedAtTime="469.00" probability="0" edges="A2B2 B2C2 C2C1 C1B1 B1A1 A1A0 A0B0 B0B1 B1C1 C1C2 C2D2 D2D1 D1C1 C1D1 D1D2 D2C2 C2D2 D2D1 D1E1 E1E0 E0E1 E1D1 D1E1"/>
            <route replacedOnEdge="D1E1" replacedOnIndex="22" reason="taxi:idling:randomCircling" replacedAtTime="494.00" probability="0" edges="A2B2 B2C2 C2C1 C1B1 B1A1 A1A0 A0B0 B0B1 B1C1 C1C2 C2D2 D2D1 D1C1 C1D1 D1D2 D2C2 C2D2 D2D1 D1E1 E1E0 E0E1 E1D1 D1E1 E1F1"/>
            <route replacedOnEdge="E1F1" replacedOnIndex="23" reason="taxi:idling:randomCircling" replacedAtTime="521.00" probability="0" edges="A2B2 B2C2 C2C1 C1B1 B1A1 A1A0 A0B0 B0B1 B1C1 C1C2 C2D2 D2D1 D1C1 C1D1 D1D2 D2C2 C2D2 D2D1 D1E1 E1E0 E0E1 E1D1 D1E1 E1F1 F1F2"/>
            <route replacedOnEdge="E1F1" replacedOnIndex="23" reason="taxi:idling:randomCircling" replacedAtTime="534.00" probability="0" edges="A2B2 B2C2 C2C1 C1B1 B1A1 A1A0 A0B0 B0B1 B1C1 C1C2 C2D2 D2D1 D1C1 C1D1 D1D2 D2C2 C2D2 D2D1 D1E1 E1E0 E0E1 E1D1 D1E1 E1F1 F1F2 F2E2"/>
            <route replacedOnEdge="F2E2" replacedOnIndex="25" reason="taxi:idling:randomCircling" replacedAtTime="554.00" probability="0" edges="A2B2 B2C2 C2C1 C1B1 B1A1 A1A0 A0B0 B0B1 B1C1 C1C2 C2D2 D2D1 D1C1 C1D1 D1D2 D2C2 C2D2 D2D1 D1E1 E1E0 E0E1 E1D1 D1E1 E1F1 F1F2 F2E2 E2E1"/>
            <route replacedOnEdge="F2E2" replacedOnIndex="25" reason="taxi:idling:randomCircling" replacedAtTime="569.00" probability="0" edges="A2B2 B2C2 C2C1 C1B1 B1A1 A1A0 A0B0 B0B1 B1C1 C1C2 C2D2 D2D1 D1C1 C1D1 D1D2 D2C2 C2D2 D2D1 D1E1 E1E0 E0E1 E1D1 D1E1 E1F1 F1F2 F2E2 E2E1 E1F1"/>
            <route replacedOnEdge="E1F1" replacedOnIndex="27" reason="taxi:idling:randomCircling" replacedAtTime="590.00" probability="0" edges="A2B2 B2C2 C2C1 C1B1 B1A1 A1A0 A0B0 B0B1 B1C1 C1C2 C2D2 D2D1 D1C1 C1D1 D1D2 D2C2 C2D2 D2D1 D1E1 E1E0 E0E1 E1D1 D1E1 E1F1 F1F2 F2E2 E2E1 E1F1 F1F2"/>
            <route replacedOnEdge="E1F1" replacedOnIndex="27" reason="taxi:idling:randomCircling" replacedAtTime="604.00" probability="0" edges="A2B2 B2C2 C2C1 C1B1 B1A1 A1A0 A0B0 B0B1 B1C1 C1C2 C2D2 D2D1 D1C1 C1D1 D1D2 D2C2 C2D2 D2D1 D1E1 E1E0 E0E1 E1D1 D1E1 E1F1 F1F2 F2E2 E2E1 E1F1 F1F2 F2E2"/>
            <route replacedOnEdge="F2E2" replacedOnIndex="29" reason="taxi:idling:randomCircling" replacedAtTime="624.00" probability="0" edges="A2B2 B2C2 C2C1 C1B1 B1A1 A1A0 A0B0 B0B1 B1C1 C1C2 C2D2 D2D1 D1C1 C1D1 D1D2 D2C2 C2D2 D2D1 D1E1 E1E0 E0E1 E1D1 D1E1 E1F1 F1F2 F2E2 E2E1 E1F1 F1F2 F2E2 E2F2"/>
            <route replacedOnEdge="E2F2" replacedOnIndex="30" reason="taxi:idling:randomCircling" replacedAtTime="649.00" probability="0" edges="A2B2 B2C2 C2C1 C1B1 B1A1 A1A0 A0B0 B0B1 B1C1 C1C2 C2D2 D2D1 D1C1 C1D1 D1D2 D2C2 C2D2 D2D1 D1E1 E1E0 E0E1 E1D1 D1E1 E1F1 F1F2 F2E2 E2E1 E1F1 F1F2 F2E2 E2F2 F2F1"/>
            <route replacedOnEdge="E2F2" replacedOnIndex="30" reason="taxi:idling:randomCircling" replacedAtTime="665.00" probability="0" edges="A2B2 B2C2 C2C1 C1B1 B1A1 A1A0 A0B0 B0B1 B1C1 C1C2 C2D2 D2D1 D1C1 C1D1 D1D2 D2C2 C2D2 D2D1 D1E1 E1E0 E0E1 E1D1 D1E1 E1F1 F1F2 F2E2 E2E1 E1F1 F1F2 F2E2 E2F2 F2F1 F1F0"/>
            <route replacedOnEdge="E2F2" replacedOnIndex="30" reason="taxi:idling:randomCircling" replacedAtTime="671.00" probability="0" edges="A2B2 B2C2 C2C1 C1B1 B1A1 A1A0 A0B0 B0B1 B1C1 C1C2 C2D2 D2D1 D1C1 C1D1 D1D2 D2C2 C2D2 D2D1 D1E1 E1E0 E0E1 E1D1 D1E1 E1F1 F1F2 F2E2 E2E1 E1F1 F1F2 F2E2 E2F2 F2F1 F1F0 F0E0"/>
            <route replacedOnEdge="F0E0" replacedOnIndex="33" reason="taxi:idling:randomCircling" replacedAtTime="693.00" probability="0" edges="A2B2 B2C2 C2C1 C1B1 B1A1 A1A0 A0B0 B0B1 B1C1 C1C2 C2D2 D2D1 D1C1 C1D1 D1D2 D2C2 C2D2 D2D1 D1E1 E1E0 E0E1 E1D1 D1E1 E1F1 F1F2 F2E2 E2E1 E1F1 F1F2 F2E2 E2F2 F2F1 F1F0 F0E0 E0D0"/>
            <route replacedOnEdge="E0D0" replacedOnIndex="34" reason="taxi:idling:randomCircling" replacedAtTime="717.00" probability="0" edges="A2B2 B2C2 C2C1 C1B1 B1A1 A1A0 A0B0 B0B1 B1C1 C1C2 C2D2 D2D1 D1C1 C1D1 D1D2 D2C2 C2D2 D2D1 D1E1 E1E0 E0E1 E1D1 D1E1 E1F1 F1F2 F2E2 E2E1 E1F1 F1F2 F2E2 E2F2 F2F1 F1F0 F0E0 E0D0 D0D1"/>
            <route replacedOnEdge="E0D0" replacedOnIndex="34" reason="taxi:idling:randomCircling" replacedAtTime="730.00" probability="0" edges="A2B2 B2C2 C2C1 C1B1 B1A1 A1A0 A0B0 B0B1 B1C1 C1C2 C2D2 D2D1 D1C1 C1D1 D1D2 D2C2 C2D2 D2D1 D1E1 E1E0 E0E1 E1D1 D1E1 E1F1 F1F2 F2E2 E2E1 E1F1 F1F2 F2E2 E2F2 F2F1 F1F0 F0E0 E0D0 D0D1 D1D0"/>
            <route replacedOnEdge="E0D0" replacedOnIndex="34" reason="taxi:idling:randomCircling" replacedAtTime="736.00" probability="0" edges="A2B2 B2C2 C2C1 C1B1 B1A1 A1A0 A0B0 B0B1 B1C1 C1C2 C2D2 D2D1 D1C1 C1D1 D1D2 D2C2 C2D2 D2D1 D1E1 E1E0 E0E1 E1D1 D1E1 E1F1 F1F2 F2E2 E2E1 E1F1 F1F2 F2E2 E2F2 F2F1 F1F0 F0E0 E0D0 D0D1 D1D0 D0D1"/>
            <route replacedOnEdge="D0D1" replacedOnIndex="35" reason="taxi:idling:randomCircling" replacedAtTime="746.00" probability="0" edges="A2B2 B2C2 C2C1 C1B1 B1A1 A1A0 A0B0 B0B1 B1C1 C1C2 C2D2 D2D1 D1C1 C1D1 D1D2 D2C2 C2D2 D2D1 D1E1 E1E0 E0E1 E1D1 D1E1 E1F1 F1F2 F2E2 E2E1 E1F1 F1F2 F2E2 E2F2 F2F1 F1F0 F0E0 E0D0 D0D1 D1D0 D0D1 D1D2"/>
            <route replacedOnEdge="D1D0" replacedOnIndex="36" reason="taxi:idling:randomCircling" replacedAtTime="757.00" probability="0" edges="A2B2 B2C2 C2C1 C1B1 B1A1 A1A0 A0B0 B0B1 B1C1 C1C2 C2D2 D2D1 D1C1 C1D1 D1D2 D2C2 C2D2 D2D1 D1E1 E1E0 E0E1 E1D1 D1E1 E1F1 F1F2 F2E2 E2E1 E1F1 F1F2 F2E2 E2F2 F2F1 F1F0 F0E0 E0D0 D0D1 D1D0 D0D1 D1D2 D2C2"/>
            <route replacedOnEdge="D2C2" replacedOnIndex="39" reason="taxi:idling:randomCircling" replacedAtTime="781.00" probability="0" edges="A2B2 B2C2 C2C1 C1B1 B1A1 A1A0 A0B0 B0B1 B1C1 C1C2 C2D2 D2D1 D1C1 C1D1 D1D2 D2C2 C2D2 D2D1 D1E1 E1E0 E0E1 E1D1 D1E1 E1F1 F1F2 F2E2 E2E1 E1F1 F1F2 F2E2 E2F2 F2F1 F1F0 F0E0 E0D0 D0D1 D1D0 D0D1 D1D2 D2C2 C2D2"/>
            <route replacedOnEdge="C2D2" replacedOnIndex="40" reason="taxi:idling:randomCircling" replacedAtTime="806.00" probability="0" edges="A2B2 B2C2 C2C1 C1B1 B1A1 A1A0 A0B0 B0B1 B1C1 C1C2 C2D2 D2D1 D1C1 C1D1 D1D2 D2C2 C2D2 D2D1 D1E1 E1E0 E0E1 E1D1 D1E1 E1F1 F1F2 F2E2 E2E1 E1F1 F1F2 F2E2 E2F2 F2F1 F1F0 F0E0 E0D0 D0D1 D1D0 D0D1 D1D2 D2C2 C2D2 D2C2"/>
            <route replacedOnEdge="D2C2" replacedOnIndex="41" reason="taxi:idling:randomCircling" replacedAtTime="832.00" probability="0" edges="A2B2 B2C2 C2C1 C1B1 B1A1 A1A0 A0B0 B0B1 B1C1 C1C2 C2D2 D2D1 D1C1 C1D1 D1D2 D2C2 C2D2 D2D1 D1E1 E1E0 E0E1 E1D1 D1E1 E1F1 F1F2 F2E2 E2E1 E1F1 F1F2 F2E2 E2F2 F2F1 F1F0 F0E0 E0D0 D0D1 D1D0 D0D1 D1D2 D2C2 C2D2 D2C2 C2B2"/>
            <route replacedOnEdge="C2B2" replacedOnIndex="42" reason="taxi:idling:randomCircling" replacedAtTime="857.00" probability="0" edges="A2B2 B2C2 C2C1 C1B1 B1A1 A1A0 A0B0 B0B1 B1C1 C1C2 C2D2 D2D1 D1C1 C1D1 D1D2 D2C2 C2D2 D2D1 D1E1 E1E0 E0E1 E1D1 D1E1 E1F1 F1F2 F2E2 E2E1 E1F1 F1F2 F2E2 E2F2 F2F1 F1F0 F0E0 E0D0 D0D1 D1D0 D0D1 D1D2 D2C2 C2D2 D2C2 C2B2 B2A2"/>
            <route replacedOnEdge="B2A2" replacedOnIndex="43" reason="taxi:idling:randomCircling" replacedAtTime="879.00" probability="0" edges="A2B2 B2C2 C2C1 C1B1 B1A1 A1A0 A0B0 B0B1 B1C1 C1C2 C2D2 D2D1 D1C1 C1D1 D1D2 D2C2 C2D2 D2D1 D1E1 E1E0 E0E1 E1D1 D1E1 E1F1 F1F2 F2E2 E2E1 E1F1 F1F2 F2E2 E2F2 F2F1 F1F0 F0E0 E0D0 D0D1 D1D0 D0D1 D1D2 D2C2 C2D2 D2C2 C2B2 B2A2 A2A1"/>
            <route replacedOnEdge="B2A2" replacedOnIndex="43" reason="taxi:idling:randomCircling" replacedAtTime="893.00" probability="0" edges="A2B2 B2C2 C2C1 C1B1 B1A1 A1A0 A0B0 B0B1 B1C1 C1C2 C2D2 D2D1 D1C1 C1D1 D1D2 D2C2 C2D2 D2D1 D1E1 E1E0 E0E1 E1D1 D1E1 E1F1 F1F2 F2E2 E2E1 E1F1 F1F2 F2E2 E2F2 F2F1 F1F0 F0E0 E0D0 D0D1 D1D0 D0D1 D1D2 D2C2 C2D2 D2C2 C2B2 B2A2 A2A1 A1B1"/>