<?xml version="1.0"?>

<!-- generated on 04/03/08 11:06:14 by SUMO sumo Version 0.9.7
<configuration>

   <input>
      <net-file>net.net.xml</net-file>
      <additional-files>input_routes.rou.xml,input_additional2.add.xml</additional-files>
   </input>

   <output>
      <tripinfo-output>tripinfos.xml</tripinfo-output>
   </output>

   <time>
      <begin>0</begin>
      <end>1000</end>
   </time>

   <processing>
      <no-duration-log>true</no-duration-log>
      <no-step-log>true</no-step-log>
   </processing>

</configuration>
-->

<tripinfos>
    <tripinfo id="emitter_0_0" depart="0" departLane="4/1to3/1_0" departPos="100.00" departSpeed="10.00" departDelay="0" arrival="108" arrivalLane="2/1to1/1_0" arrivalPos="8.50" arrivalSpeed="10.00" duration="108" routeLength="1080.00" waitSteps="0" rerouteNo="0" devices="" vtype="t1" vaporized=""/>
    <tripinfo id="emitter_5_1" depart="5" departLane="4/1to3/1_0" departPos="100.00" departSpeed="10.00" departDelay="0" arrival="113" arrivalLane="2/1to1/1_0" arrivalPos="8.50" arrivalSpeed="10.00" duration="108" routeLength="1080.00" waitSteps="0" rerouteNo="0" devices="" vtype="t1" vaporized=""/>
</tripinfos>
