<?xml version="1.0" encoding="UTF-8"?>

<!-- generated on 10/23/17 14:23:14 by SUMO Version dev-SVN-r26670
<?xml version="1.0" encoding="UTF-8"?>

<configuration xmlns:xsi="http://www.w3.org/2001/XMLSchema-instance" xsi:noNamespaceSchemaLocation="http://sumo.dlr.de/xsd/sumoConfiguration.xsd">

    <input>
        <net-file value="net.net.xml"/>
        <route-files value="input_routes.rou.xml"/>
        <additional-files value="input_additional.add.xml"/>
    </input>

    <output>
        <vehroute-output value="vehroutes.xml"/>
    </output>

    <report>
        <no-step-log value="true"/>
    </report>

</configuration>
-->

<routes xmlns:xsi="http://www.w3.org/2001/XMLSchema-instance" xsi:noNamespaceSchemaLocation="http://sumo.dlr.de/xsd/routes_file.xsd">
    <vehicle id="bus.0" depart="0.00" line="bus" arrival="137.00">
        <routeDistribution>
            <route replacedOnEdge="" replacedAtTime="0.00" probability="0" edges="beg beg end end"/>
            <route edges="beg middle end"/>
        </routeDistribution>
        <stop busStop="beg_0" until="0.00"/>
        <stop busStop="end_0" until="100.00"/>
    </vehicle>

    <vehicle id="bus.1" depart="100.00" line="bus" arrival="235.00">
        <routeDistribution>
            <route replacedOnEdge="" replacedAtTime="100.00" probability="0" edges="beg beg end end"/>
            <route edges="beg beg2left left left2end end"/>
        </routeDistribution>
        <stop busStop="beg_0" until="100.00"/>
        <stop busStop="end_0" until="200.00"/>
    </vehicle>

    <vehicle id="bus.2" depart="200.00" line="bus" arrival="337.00">
        <routeDistribution>
            <route replacedOnEdge="" replacedAtTime="200.00" probability="0" edges="beg beg end end"/>
            <route edges="beg middle end"/>
        </routeDistribution>
        <stop busStop="beg_0" until="200.00"/>
        <stop busStop="end_0" until="300.00"/>
    </vehicle>

    <vehicle id="bus.3" depart="300.00" line="bus" arrival="437.00">
        <routeDistribution>
            <route replacedOnEdge="" replacedAtTime="300.00" probability="0" edges="beg beg end end"/>
            <route edges="beg beg2left left left2end end"/>
        </routeDistribution>
        <stop busStop="beg_0" until="300.00"/>
        <stop busStop="end_0" until="400.00"/>
    </vehicle>

    <vehicle id="bus.4" depart="400.00" line="bus" arrival="536.00">
        <routeDistribution>
            <route replacedOnEdge="" replacedAtTime="400.00" probability="0" edges="beg beg end end"/>
            <route edges="beg middle end"/>
        </routeDistribution>
        <stop busStop="beg_0" until="400.00"/>
        <stop busStop="end_0" until="500.00"/>
    </vehicle>

    <person id="p0" depart="0.00" arrival="1596.00">
        <walk edges="beg middle end"/>
    </person>

</routes>
