<?xml version="1.0" encoding="UTF-8"?>

<!-- generated on Tue Dec 13 13:39:43 2016 by SUMO Version dev-SVN-r22280
<?xml version="1.0" encoding="UTF-8"?>

<configuration xmlns:xsi="http://www.w3.org/2001/XMLSchema-instance" xsi:noNamespaceSchemaLocation="http://sumo.dlr.de/xsd/sumoConfiguration.xsd">

    <input>
        <net-file value="net.net.xml"/>
        <additional-files value="input_routes.rou.xml,input_additional.add.xml,input_additional2.add.xml"/>
    </input>

    <time>
        <begin value="0"/>
        <end value="150"/>
    </time>

    <report>
        <xml-validation value="never"/>
        <duration-log.disable value="true"/>
        <no-step-log value="true"/>
    </report>

</configuration>
-->

<meandata xmlns:xsi="http://www.w3.org/2001/XMLSchema-instance" xsi:noNamespaceSchemaLocation="http://sumo.dlr.de/xsd/meandata_file.xsd">
    <interval begin="15.00" end="30.00" id="dump_15">
        <edge id="4/1to3/1" sampledSeconds="30.00" CO_abs="577.500000" CO2_abs="63366.666667" HC_abs="3.991667" PMx_abs="0.374167" NOx_abs="20.858333" fuel_abs="27.239443" electricity_abs="0"
            CO_normed="346.500000" CO2_normed="38020.000000" HC_normed="2.395000" PMx_normed="0.224500" NOx_normed="12.515000" fuel_normed="16.343666" electricity_normed="0"
            traveltime="40.00" CO_perVeh="770.000000" CO2_perVeh="84488.888889" HC_perVeh="5.322222" PMx_perVeh="0.498889" NOx_perVeh="27.811111" fuel_perVeh="36.319257" electricity_perVeh="0"/>
    </interval>
    <interval begin="45.00" end="60.00" id="dump_15">
        <edge id="3/1to2/1" sampledSeconds="30.00" CO_abs="577.500000" CO2_abs="63366.666667" HC_abs="3.991667" PMx_abs="0.374167" NOx_abs="20.858333" fuel_abs="27.239443" electricity_abs="0"
            CO_normed="346.500000" CO2_normed="38020.000000" HC_normed="2.395000" PMx_normed="0.224500" NOx_normed="12.515000" fuel_normed="16.343666" electricity_normed="0"
            traveltime="40.00" CO_perVeh="770.000000" CO2_perVeh="84488.888889" HC_perVeh="5.322222" PMx_perVeh="0.498889" NOx_perVeh="27.811111" fuel_perVeh="36.319257" electricity_perVeh="0"/>
    </interval>
</meandata>
