<?xml version="1.0" encoding="UTF-8"?>

<!-- generated on Thu Jan  5 14:45:26 2017 by SUMO Version dev-SVN-r22466
<?xml version="1.0" encoding="UTF-8"?>

<configuration xmlns:xsi="http://www.w3.org/2001/XMLSchema-instance" xsi:noNamespaceSchemaLocation="http://sumo.dlr.de/xsd/sumoConfiguration.xsd">

    <input>
        <net-file value="net.net.xml"/>
        <additional-files value="input_routes.rou.xml,input_additional.add.xml,input_additional2.add.xml"/>
    </input>

    <time>
        <begin value="0"/>
        <end value="1000"/>
    </time>

    <processing>
        <time-to-teleport value="-1"/>
    </processing>

    <report>
        <xml-validation value="never"/>
        <duration-log.disable value="true"/>
        <no-step-log value="true"/>
    </report>

    <mesoscopic>
        <mesosim value="true"/>
    </mesoscopic>

</configuration>
-->

<meandata xmlns:xsi="http://www.w3.org/2001/XMLSchema-instance" xsi:noNamespaceSchemaLocation="http://sumo.dlr.de/xsd/meandata_file.xsd">
    <interval begin="600.00" end="615.00" id="dump_15">
        <edge id="2/1to1/1" sampledSeconds="195.00" noise="0.00" traveltime="8000.00"/>
        <edge id="3/1to2/1" sampledSeconds="105.00" noise="0.00" traveltime="7742.48"/>
    </interval>
    <interval begin="615.00" end="630.00" id="dump_15">
        <edge id="2/1to1/1" sampledSeconds="195.00" noise="0.00" traveltime="8000.00"/>
        <edge id="3/1to2/1" sampledSeconds="105.00" noise="0.00" traveltime="7742.48"/>
    </interval>
    <interval begin="630.00" end="645.00" id="dump_15">
        <edge id="2/1to1/1" sampledSeconds="195.00" noise="0.00" traveltime="8000.00"/>
        <edge id="3/1to2/1" sampledSeconds="105.00" noise="0.00" traveltime="7742.48"/>
    </interval>
    <interval begin="645.00" end="660.00" id="dump_15">
        <edge id="2/1to1/1" sampledSeconds="195.00" noise="0.00" traveltime="8000.00"/>
        <edge id="3/1to2/1" sampledSeconds="105.00" noise="0.00" traveltime="7742.48"/>
    </interval>
</meandata>
