<?xml version="1.0" encoding="UTF-8"?>

<!-- generated on 05/24/19 08:48:09 by Eclipse SUMO Version v1_1_0+1379-f2e706eba2
This data file and the accompanying materials
are made available under the terms of the Eclipse Public License v2.0
which accompanies this distribution, and is available at
http://www.eclipse.org/legal/epl-v20.html
SPDX-License-Identifier: EPL-2.0
<configuration xmlns:xsi="http://www.w3.org/2001/XMLSchema-instance" xsi:noNamespaceSchemaLocation="http://sumo.dlr.de/xsd/sumoConfiguration.xsd">

    <input>
        <net-file value="three_split.net.xml"/>
        <additional-files value="input_routes.rou.xml"/>
        <weight-files value="input_additional.add.xml"/>
    </input>

    <output>
        <write-license value="true"/>
        <vehroute-output value="vehroutes.xml"/>
    </output>

    <time>
        <begin value="100"/>
    </time>

    <processing>
        <default.speeddev value="0"/>
    </processing>

    <routing>
        <device.rerouting.probability value="1"/>
        <device.rerouting.init-with-loaded-weights value="true"/>
    </routing>

    <report>
        <xml-validation value="never"/>
        <duration-log.disable value="true"/>
        <no-step-log value="true"/>
    </report>

</configuration>
-->

<routes xmlns:xsi="http://www.w3.org/2001/XMLSchema-instance" xsi:noNamespaceSchemaLocation="http://sumo.dlr.de/xsd/routes_file.xsd">
    <vehicle id="0" type="KRAUSS_DEFAULT" depart="101.00" arrival="308.00">
        <route edges="beg beg2right right right2end end rend"/>
    </vehicle>

</routes>
