<?xml version="1.0" encoding="UTF-8"?>

<!-- generated on 2024-06-25 18:13:29 by Eclipse SUMO sumo Version v1_20_0+0816-6bffe6d98f6
This data file and the accompanying materials
are made available under the terms of the Eclipse Public License v2.0
which accompanies this distribution, and is available at
http://www.eclipse.org/legal/epl-v20.html
This file may also be made available under the following Secondary
Licenses when the conditions for such availability set forth in the Eclipse
Public License 2.0 are satisfied: GNU General Public License, version 2
or later which is available at
https://www.gnu.org/licenses/old-licenses/gpl-2.0-standalone.html
SPDX-License-Identifier: EPL-2.0 OR GPL-2.0-or-later
<sumoConfiguration xmlns:xsi="http://www.w3.org/2001/XMLSchema-instance" xsi:noNamespaceSchemaLocation="http://sumo.dlr.de/xsd/sumoConfiguration.xsd">

    <input>
        <net-file value="net.net.xml"/>
        <route-files value="input_routes.rou.xml"/>
        <additional-files value="input_additional.add.xml"/>
    </input>

    <output>
        <write-license value="true"/>
        <tripinfo-output value="tripinfos.xml"/>
        <tripinfo-output.write-unfinished value="true"/>
        <vehroute-output value="vehroutes.xml"/>
        <vehroute-output.write-unfinished value="true"/>
    </output>

    <processing>
        <default.speeddev value="0"/>
    </processing>

    <report>
        <xml-validation value="never"/>
        <duration-log.disable value="true"/>
        <no-step-log value="true"/>
    </report>

    <taxi_device>
        <device.taxi.idle-algorithm value="taxistand"/>
    </taxi_device>

    <mesoscopic>
        <mesosim value="true"/>
    </mesoscopic>

</sumoConfiguration>
-->

<tripinfos xmlns:xsi="http://www.w3.org/2001/XMLSchema-instance" xsi:noNamespaceSchemaLocation="http://sumo.dlr.de/xsd/tripinfo_file.xsd">
    <personinfo id="p.0" depart="100.00" type="DEFAULT_PEDTYPE" speedFactor="1.00" duration="157.00" waitingTime="68.00" timeLoss="0.00" traveltime="89.00">
        <ride waitingTime="68.00" vehicle="trip_0" depart="168.00" arrival="257.00" arrivalPos="191.73" duration="89.00" routeLength="1221.73" timeLoss="0.00"/>
    </personinfo>
    <personinfo id="p.1" depart="300.00" type="DEFAULT_PEDTYPE" speedFactor="1.00" duration="125.00" waitingTime="36.00" timeLoss="0.00" traveltime="89.00">
        <ride waitingTime="36.00" vehicle="trip_0" depart="336.00" arrival="425.00" arrivalPos="191.73" duration="89.00" routeLength="1221.73" timeLoss="0.00"/>
    </personinfo>
    <personinfo id="p.2" depart="500.00" type="DEFAULT_PEDTYPE" speedFactor="1.00" duration="176.00" waitingTime="87.00" timeLoss="0.00" traveltime="89.00">
        <ride waitingTime="87.00" vehicle="trip_0" depart="587.00" arrival="676.00" arrivalPos="191.73" duration="89.00" routeLength="1221.73" timeLoss="0.00"/>
    </personinfo>
    <personinfo id="p.3" depart="700.00" type="DEFAULT_PEDTYPE" speedFactor="1.00" duration="144.00" waitingTime="55.00" timeLoss="0.00" traveltime="89.00">
        <ride waitingTime="55.00" vehicle="trip_0" depart="755.00" arrival="844.00" arrivalPos="191.73" duration="89.00" routeLength="1221.73" timeLoss="0.00"/>
    </personinfo>
    <personinfo id="p.4" depart="900.00" type="DEFAULT_PEDTYPE" speedFactor="1.00" duration="112.00" waitingTime="24.00" timeLoss="0.00" traveltime="88.00">
        <ride waitingTime="24.00" vehicle="trip_0" depart="924.00" arrival="1012.00" arrivalPos="191.73" duration="88.00" routeLength="1221.73" timeLoss="0.00"/>
    </personinfo>
    <personinfo id="p.5" depart="1100.00" type="DEFAULT_PEDTYPE" speedFactor="1.00" duration="177.00" waitingTime="88.00" timeLoss="0.00" traveltime="89.00">
        <ride waitingTime="88.00" vehicle="trip_0" depart="1188.00" arrival="1277.00" arrivalPos="191.73" duration="89.00" routeLength="1221.73" timeLoss="0.00"/>
    </personinfo>
    <personinfo id="p.6" depart="1300.00" type="DEFAULT_PEDTYPE" speedFactor="1.00" duration="145.00" waitingTime="56.00" timeLoss="0.00" traveltime="89.00">
        <ride waitingTime="56.00" vehicle="trip_0" depart="1356.00" arrival="1445.00" arrivalPos="191.73" duration="89.00" routeLength="1221.73" timeLoss="0.00"/>
    </personinfo>
    <personinfo id="p.7" depart="1500.00" type="DEFAULT_PEDTYPE" speedFactor="1.00" duration="113.00" waitingTime="24.00" timeLoss="0.00" traveltime="89.00">
        <ride waitingTime="24.00" vehicle="trip_0" depart="1524.00" arrival="1613.00" arrivalPos="191.73" duration="89.00" routeLength="1221.73" timeLoss="0.00"/>
    </personinfo>
    <personinfo id="p.8" depart="1700.00" type="DEFAULT_PEDTYPE" speedFactor="1.00" duration="176.00" waitingTime="88.00" timeLoss="0.00" traveltime="88.00">
        <ride waitingTime="88.00" vehicle="trip_0" depart="1788.00" arrival="1876.00" arrivalPos="191.73" duration="88.00" routeLength="1221.73" timeLoss="0.00"/>
    </personinfo>
    <personinfo id="p.9" depart="1900.00" type="DEFAULT_PEDTYPE" speedFactor="1.00" duration="145.00" waitingTime="56.00" timeLoss="0.00" traveltime="89.00">
        <ride waitingTime="56.00" vehicle="trip_0" depart="1956.00" arrival="2045.00" arrivalPos="191.73" duration="89.00" routeLength="1221.73" timeLoss="0.00"/>
    </personinfo>
    <tripinfo id="trip_0" depart="0.00" departLane="" departPos="0.00" departSpeed="13.89" departDelay="0.00" arrival="-1.00" arrivalLane="" arrivalPos="-1.00" arrivalSpeed="-1.00" duration="2120.00" routeLength="17555.60" waitingTime="0.00" waitingCount="0" stopTime="615.00" timeLoss="844.00" rerouteNo="31" devices="vehroute_trip_0 tripinfo_trip_0 routing_trip_0 taxi_trip_0 person_trip_0" vType="taxi" speedFactor="1.00" vaporized="end">
        <taxi customers="10" occupiedDistance="12217.33" occupiedTime="889.60"/>
    </tripinfo>
    <tripinfo id="trip_1" depart="0.00" departLane="" departPos="0.00" departSpeed="13.89" departDelay="0.00" arrival="-1.00" arrivalLane="" arrivalPos="-1.00" arrivalSpeed="-1.00" duration="2120.00" routeLength="554.00" waitingTime="0.00" waitingCount="0" stopTime="1.00" timeLoss="0.00" rerouteNo="1" devices="vehroute_trip_1 tripinfo_trip_1 routing_trip_1 taxi_trip_1" vType="taxi" speedFactor="1.00" vaporized="end">
        <taxi customers="0" occupiedDistance="0.00" occupiedTime="0.00"/>
    </tripinfo>
</tripinfos>
