<?xml version="1.0" encoding="UTF-8"?>

<!-- generated on 2025-01-02 14:27:34 by Eclipse SUMO sumo Version v1_21_0+1623-640c91a7eff
This data file and the accompanying materials
are made available under the terms of the Eclipse Public License v2.0
which accompanies this distribution, and is available at
http://www.eclipse.org/legal/epl-v20.html
This file may also be made available under the following Secondary
Licenses when the conditions for such availability set forth in the Eclipse
Public License 2.0 are satisfied: GNU General Public License, version 2
or later which is available at
https://www.gnu.org/licenses/old-licenses/gpl-2.0-standalone.html
SPDX-License-Identifier: EPL-2.0 OR GPL-2.0-or-later
<sumoConfiguration xmlns:xsi="http://www.w3.org/2001/XMLSchema-instance" xsi:noNamespaceSchemaLocation="http://sumo.dlr.de/xsd/sumoConfiguration.xsd">

    <input>
        <net-file value="net3.net.xml"/>
        <route-files value="input_trips.trips.xml"/>
    </input>

    <output>
        <write-license value="true"/>
        <vehroute-output value="vehroutes.xml"/>
        <vehroute-output.skip-ptlines value="true"/>
    </output>

    <processing>
        <default.speeddev value="0"/>
    </processing>

    <routing>
        <routing-algorithm value="astar"/>
    </routing>

    <report>
        <xml-validation value="never"/>
        <no-step-log value="true"/>
    </report>

</sumoConfiguration>
-->

<routes xmlns:xsi="http://www.w3.org/2001/XMLSchema-instance" xsi:noNamespaceSchemaLocation="http://sumo.dlr.de/xsd/routes_file.xsd">
    <person id="2" depart="0.00" arrival="1047.00">
        <walk edges="-24214693#0 -7727483#3 -7727483#2 -7727483#1 -26816590#2 -26816590#1 -26816590#0 -26816413#1 -26816413#0 -5198597#2 27445015#1 27445015#2 27445015#3 27445015#4"/>
    </person>

    <person id="0" depart="0.00" arrival="1066.00">
        <walk edges="-24214693#0 -7727483#3 -7727483#2 -7727483#1 -7727483#0 7727482 27445003 27437972#4 27437972#3 27437972#2 27437972#1"/>
        <stop lane="27437972#1_0" endPos="124.54" duration="10.00"/>
        <walk edges="27437972#1 -5784968#5 -5784968#4 27445015#4"/>
    </person>

</routes>
