<?xml version="1.0" encoding="UTF-8"?>

<!-- generated on Fri Apr  9 16:35:31 2021 by Eclipse SUMO sumo Version v1_8_0+1972-5c957188c2
<configuration xmlns:xsi="http://www.w3.org/2001/XMLSchema-instance" xsi:noNamespaceSchemaLocation="http://sumo.dlr.de/xsd/sumoConfiguration.xsd">

    <input>
        <net-file value="net.net.xml"/>
        <route-files value="input_routes2.rou.xml,input_routes.rou.xml"/>
    </input>

    <output>
        <tripinfo-output value="tripinfos.xml"/>
        <tripinfo-output.write-unfinished value="true"/>
    </output>

    <report>
        <log value="log.txt"/>
    </report>

    <taxi_device>
        <device.taxi.dispatch-algorithm value="traci"/>
    </taxi_device>

    <traci_server>
        <remote-port value="61576"/>
    </traci_server>

</configuration>
-->

<tripinfos xmlns:xsi="http://www.w3.org/2001/XMLSchema-instance" xsi:noNamespaceSchemaLocation="http://sumo.dlr.de/xsd/tripinfo_file.xsd">
    <personinfo id="0" depart="0.00" type="DEFAULT_PEDTYPE">
        <ride waitingTime="61.00" vehicle="taxiB" depart="61.00" arrival="144.00" arrivalPos="285.60" duration="83.00" routeLength="865.13" timeLoss="20.68"/>
    </personinfo>
    <personinfo id="3" depart="30.00" type="DEFAULT_PEDTYPE">
        <ride waitingTime="51.00" vehicle="taxiA" depart="81.00" arrival="157.00" arrivalPos="85.60" duration="76.00" routeLength="765.31" timeLoss="19.62"/>
    </personinfo>
    <personinfo id="7" depart="70.00" type="DEFAULT_PEDTYPE">
        <ride waitingTime="121.00" vehicle="taxiB" depart="191.00" arrival="250.00" arrivalPos="85.60" duration="59.00" routeLength="560.16" timeLoss="18.05"/>
    </personinfo>
    <personinfo id="4" depart="40.00" type="DEFAULT_PEDTYPE">
        <ride waitingTime="240.00" vehicle="NULL" depart="-1" arrival="280.00" arrivalPos="87.60" duration="280.00" routeLength="-1.00" timeLoss="-0.00"/>
        <stop duration="0.00" arrival="280.00" arrivalPos="0.00" actType="last stage removed"/>
    </personinfo>
    <personinfo id="1" depart="10.00" type="DEFAULT_PEDTYPE">
        <ride waitingTime="57.00" vehicle="taxiA" depart="67.00" arrival="282.00" arrivalPos="285.60" duration="215.00" routeLength="1544.81" timeLoss="39.89"/>
    </personinfo>
    <personinfo id="2" depart="20.00" type="DEFAULT_PEDTYPE">
        <ride waitingTime="290.00" vehicle="NULL" depart="-1" arrival="310.00" arrivalPos="85.60" duration="310.00" routeLength="-1.00" timeLoss="-0.00"/>
        <stop duration="0.00" arrival="310.00" arrivalPos="0.00" actType="last stage removed"/>
    </personinfo>
    <personinfo id="8" depart="80.00" type="DEFAULT_PEDTYPE">
        <ride waitingTime="260.00" vehicle="NULL" depart="-1" arrival="340.00" arrivalPos="85.60" duration="340.00" routeLength="-1.00" timeLoss="-0.00"/>
        <stop duration="0.00" arrival="340.00" arrivalPos="0.00" actType="last stage removed"/>
    </personinfo>
    <personinfo id="9" depart="90.00" type="DEFAULT_PEDTYPE">
        <ride waitingTime="250.00" vehicle="NULL" depart="-1" arrival="340.00" arrivalPos="285.60" duration="340.00" routeLength="-1.00" timeLoss="-0.00"/>
        <stop duration="0.00" arrival="340.00" arrivalPos="0.00" actType="last stage removed"/>
    </personinfo>
    <personinfo id="5" depart="50.00" type="DEFAULT_PEDTYPE">
        <ride waitingTime="141.00" vehicle="taxiB" depart="191.00" arrival="396.00" arrivalPos="87.60" duration="205.00" routeLength="1551.42" timeLoss="34.66"/>
    </personinfo>
    <personinfo id="6" depart="60.00" type="DEFAULT_PEDTYPE">
        <ride waitingTime="258.00" vehicle="taxiA" depart="318.00" arrival="421.00" arrivalPos="285.60" duration="103.00" routeLength="1161.18" timeLoss="17.94"/>
    </personinfo>
    <tripinfo id="taxiA" depart="0.00" departLane="A0B0_1" departPos="5.10" departSpeed="0.00" departDelay="0.00" arrival="-1.00" arrivalLane="" arrivalPos="-1.00" arrivalSpeed="-1.00" duration="430.00" routeLength="3217.33" waitingTime="9.00" waitingCount="3" stopTime="115.00" timeLoss="77.39" rerouteNo="5" devices="tripinfo_taxiA routing_taxiA taxi_taxiA person_taxiA" vType="taxi" speedFactor="1.01" vaporized="">
        <taxi customers="3" occupiedDistance="2705.99" occupiedTime="263.00"/>
    </tripinfo>
    <tripinfo id="taxiB" depart="0.00" departLane="A2B2_1" departPos="5.10" departSpeed="0.00" departDelay="0.00" arrival="-1.00" arrivalLane="" arrivalPos="-1.00" arrivalSpeed="-1.00" duration="430.00" routeLength="3422.48" waitingTime="10.00" waitingCount="3" stopTime="114.00" timeLoss="71.91" rerouteNo="5" devices="tripinfo_taxiB routing_taxiB taxi_taxiB person_taxiB" vType="taxi" speedFactor="1.04" vaporized="">
        <taxi customers="3" occupiedDistance="2416.55" occupiedTime="233.00"/>
    </tripinfo>
</tripinfos>
