<?xml version="1.0" encoding="UTF-8"?>

<!-- generated on 2025-10-06T15:48:49.069984+01:00 by Eclipse SUMO sumo v1_24_0+1178-de214a718bf
This data file and the accompanying materials
are made available under the terms of the Eclipse Public License v2.0
which accompanies this distribution, and is available at
http://www.eclipse.org/legal/epl-v20.html
This file may also be made available under the following Secondary
Licenses when the conditions for such availability set forth in the Eclipse
Public License 2.0 are satisfied: GNU General Public License, version 2
or later which is available at
https://www.gnu.org/licenses/old-licenses/gpl-2.0-standalone.html
SPDX-License-Identifier: EPL-2.0 OR GPL-2.0-or-later
<sumoConfiguration xmlns:xsi="http://www.w3.org/2001/XMLSchema-instance" xsi:noNamespaceSchemaLocation="http://sumo.dlr.de/xsd/sumoConfiguration.xsd">

    <input>
        <net-file value="net.net.xml"/>
        <route-files value="routes.rou.xml"/>
    </input>

    <output>
        <write-license value="true"/>
        <netstate-dump value="netstate_dump.xml"/>
    </output>

    <report>
        <xml-validation value="never"/>
        <no-step-log value="true"/>
    </report>

    <traci_server>
        <remote-port value="53365"/>
    </traci_server>

</sumoConfiguration>
-->

<netstate xmlns:xsi="http://www.w3.org/2001/XMLSchema-instance" xsi:noNamespaceSchemaLocation="http://sumo.dlr.de/xsd/netstate_file.xsd">
    <timestep time="0.00">
        <edge id="e_m5">
            <lane id="e_m5_0">
                <vehicle id="veh0" pos="0.00" speed="0.00"/>
            </lane>
            <lane id="e_m5_1"/>
            <lane id="e_m5_2"/>
        </edge>
    </timestep>
    <timestep time="1.00">
        <edge id="e_m5">
            <lane id="e_m5_0">
                <vehicle id="veh0" pos="0.60" speed="0.60"/>
            </lane>
            <lane id="e_m5_1"/>
            <lane id="e_m5_2"/>
        </edge>
    </timestep>
    <timestep time="2.00">
        <edge id="e_m5">
            <lane id="e_m5_0">
                <vehicle id="veh0" pos="1.97" speed="1.37"/>
            </lane>
            <lane id="e_m5_1"/>
            <lane id="e_m5_2"/>
        </edge>
    </timestep>
    <timestep time="3.00">
        <edge id="e_m5">
            <lane id="e_m5_0">
                <vehicle id="veh0" pos="3.76" speed="1.79"/>
            </lane>
            <lane id="e_m5_1"/>
            <lane id="e_m5_2"/>
        </edge>
    </timestep>
    <timestep time="4.00">
        <edge id="e_m5">
            <lane id="e_m5_0">
                <vehicle id="veh0" pos="6.29" speed="2.53"/>
            </lane>
            <lane id="e_m5_1"/>
            <lane id="e_m5_2"/>
        </edge>
    </timestep>
    <timestep time="5.00">
        <edge id="e_m5">
            <lane id="e_m5_0">
                <vehicle id="veh0" pos="16.29" speed="10.00"/>
            </lane>
            <lane id="e_m5_1"/>
            <lane id="e_m5_2"/>
        </edge>
    </timestep>
    <timestep time="6.00">
        <edge id="e_m5">
            <lane id="e_m5_0">
                <vehicle id="veh0" pos="26.29" speed="10.00"/>
            </lane>
            <lane id="e_m5_1"/>
            <lane id="e_m5_2"/>
        </edge>
    </timestep>
    <timestep time="7.00">
        <edge id="e_m5">
            <lane id="e_m5_0">
                <vehicle id="veh0" pos="36.29" speed="10.00"/>
            </lane>
            <lane id="e_m5_1"/>
            <lane id="e_m5_2"/>
        </edge>
    </timestep>
    <timestep time="8.00">
        <edge id="e_m5">
            <lane id="e_m5_0">
                <vehicle id="veh0" pos="46.29" speed="10.00"/>
            </lane>
            <lane id="e_m5_1"/>
            <lane id="e_m5_2"/>
        </edge>
    </timestep>
    <timestep time="9.00">
        <edge id="e_m5">
            <lane id="e_m5_0">
                <vehicle id="veh0" pos="56.29" speed="10.00"/>
            </lane>
            <lane id="e_m5_1"/>
            <lane id="e_m5_2"/>
        </edge>
    </timestep>
    <timestep time="10.00">
        <edge id="e_m5">
            <lane id="e_m5_0">
                <vehicle id="veh0" pos="66.29" speed="10.00"/>
            </lane>
            <lane id="e_m5_1"/>
            <lane id="e_m5_2"/>
        </edge>
    </timestep>
    <timestep time="11.00">
        <edge id="e_m5">
            <lane id="e_m5_0">
                <vehicle id="veh0" pos="76.29" speed="10.00"/>
            </lane>
            <lane id="e_m5_1"/>
            <lane id="e_m5_2"/>
        </edge>
    </timestep>
    <timestep time="12.00">
        <edge id="e_m5">
            <lane id="e_m5_0">
                <vehicle id="veh0" pos="86.29" speed="10.00"/>
            </lane>
            <lane id="e_m5_1"/>
            <lane id="e_m5_2"/>
        </edge>
    </timestep>
    <timestep time="13.00">
        <edge id="e_m5">
            <lane id="e_m5_0">
                <vehicle id="veh0" pos="96.29" speed="10.00"/>
            </lane>
            <lane id="e_m5_1"/>
            <lane id="e_m5_2"/>
        </edge>
    </timestep>
    <timestep time="14.00">
        <edge id="e_m5">
            <lane id="e_m5_0">
                <vehicle id="veh0" pos="106.29" speed="10.00"/>
            </lane>
            <lane id="e_m5_1"/>
            <lane id="e_m5_2"/>
        </edge>
    </timestep>
    <timestep time="15.00">
        <edge id="e_m5">
            <lane id="e_m5_0">
                <vehicle id="veh0" pos="111.79" speed="5.50"/>
            </lane>
            <lane id="e_m5_1"/>
            <lane id="e_m5_2"/>
        </edge>
    </timestep>
    <timestep time="16.00">
        <edge id="e_m5">
            <lane id="e_m5_0">
                <vehicle id="veh0" pos="116.79" speed="5.00"/>
            </lane>
            <lane id="e_m5_1"/>
            <lane id="e_m5_2"/>
        </edge>
    </timestep>
    <timestep time="17.00">
        <edge id="e_m5">
            <lane id="e_m5_0">
                <vehicle id="veh0" pos="122.33" speed="5.54"/>
            </lane>
            <lane id="e_m5_1"/>
            <lane id="e_m5_2"/>
        </edge>
    </timestep>
    <timestep time="18.00">
        <edge id="e_m5">
            <lane id="e_m5_0">
                <vehicle id="veh0" pos="128.42" speed="6.09"/>
            </lane>
            <lane id="e_m5_1"/>
            <lane id="e_m5_2"/>
        </edge>
    </timestep>
    <timestep time="19.00">
        <edge id="e_m5">
            <lane id="e_m5_0">
                <vehicle id="veh0" pos="135.17" speed="6.75"/>
            </lane>
            <lane id="e_m5_1"/>
            <lane id="e_m5_2"/>
        </edge>
    </timestep>
    <timestep time="20.00">
        <edge id="e_m5">
            <lane id="e_m5_0">
                <vehicle id="veh0" pos="142.64" speed="7.47"/>
            </lane>
            <lane id="e_m5_1"/>
            <lane id="e_m5_2"/>
        </edge>
    </timestep>
    <timestep time="21.00">
        <edge id="e_m5">
            <lane id="e_m5_0">
                <vehicle id="veh0" pos="150.67" speed="8.03"/>
            </lane>
            <lane id="e_m5_1"/>
            <lane id="e_m5_2"/>
        </edge>
    </timestep>
    <timestep time="22.00">
        <edge id="e_m5">
            <lane id="e_m5_0">
                <vehicle id="veh0" pos="159.40" speed="8.74"/>
            </lane>
            <lane id="e_m5_1"/>
            <lane id="e_m5_2"/>
        </edge>
    </timestep>
    <timestep time="23.00">
        <edge id="e_m5">
            <lane id="e_m5_0">
                <vehicle id="veh0" pos="168.91" speed="9.50"/>
            </lane>
            <lane id="e_m5_1"/>
            <lane id="e_m5_2"/>
        </edge>
    </timestep>
    <timestep time="24.00">
        <edge id="e_m5">
            <lane id="e_m5_0">
                <vehicle id="veh0" pos="178.88" speed="9.97"/>
            </lane>
            <lane id="e_m5_1"/>
            <lane id="e_m5_2"/>
        </edge>
    </timestep>
    <timestep time="25.00">
        <edge id="e_m5">
            <lane id="e_m5_0">
                <vehicle id="veh0" pos="189.30" speed="10.42"/>
            </lane>
            <lane id="e_m5_1"/>
            <lane id="e_m5_2"/>
        </edge>
    </timestep>
</netstate>
