<?xml version="1.0"?>

<!-- generated on 07/15/08 11:47:51 by SUMO sumo Version dev-SVN-r5691
<configuration>

   <input>
      <net-file>net.net.xml</net-file>
      <route-files>routes.rou.xml</route-files>
   </input>

   <output>
      <netstate-dump>netstate_dump.xml</netstate-dump>
   </output>

   <processing>
      <no-step-log>true</no-step-log>
   </processing>

   <traffic_control_interface_(traci)_server>
      <remote-port>8809</remote-port>
      <penetration>1</penetration>
   </traffic_control_interface_(traci)_server>

</configuration>
-->

<sumo-netstate>
   <timestep time="0">
      <edge id="e_m0">
         <lane id="e_m0_0">
            <vehicle id="veh0" pos="0.00" speed="0.00"/>
         </lane>
         <lane id="e_m0_1"/>
         <lane id="e_m0_2"/>
      </edge>
   </timestep>
   <timestep time="1">
      <edge id="e_m0">
         <lane id="e_m0_0">
            <vehicle id="veh0" pos="0.52" speed="0.52"/>
         </lane>
         <lane id="e_m0_1"/>
         <lane id="e_m0_2"/>
      </edge>
   </timestep>
   <timestep time="2">
      <edge id="e_m0">
         <lane id="e_m0_0">
            <vehicle id="veh0" pos="1.81" speed="1.29"/>
         </lane>
         <lane id="e_m0_1"/>
         <lane id="e_m0_2"/>
      </edge>
   </timestep>
   <timestep time="3">
      <edge id="e_m0">
         <lane id="e_m0_0">
            <vehicle id="veh0" pos="3.70" speed="1.89"/>
         </lane>
         <lane id="e_m0_1"/>
         <lane id="e_m0_2"/>
      </edge>
   </timestep>
   <timestep time="4">
      <edge id="e_m0">
         <lane id="e_m0_0">
            <vehicle id="veh0" pos="6.14" speed="2.44"/>
         </lane>
         <lane id="e_m0_1"/>
         <lane id="e_m0_2"/>
      </edge>
   </timestep>
   <timestep time="5">
      <edge id="e_m0">
         <lane id="e_m0_0">
            <vehicle id="veh0" pos="9.34" speed="3.20"/>
         </lane>
         <lane id="e_m0_1"/>
         <lane id="e_m0_2"/>
      </edge>
   </timestep>
   <timestep time="6">
      <edge id="e_m0">
         <lane id="e_m0_0">
            <vehicle id="veh0" pos="13.02" speed="3.68"/>
         </lane>
         <lane id="e_m0_1"/>
         <lane id="e_m0_2"/>
      </edge>
   </timestep>
   <timestep time="7">
      <edge id="e_m0">
         <lane id="e_m0_0">
            <vehicle id="veh0" pos="17.36" speed="4.34"/>
         </lane>
         <lane id="e_m0_1"/>
         <lane id="e_m0_2"/>
      </edge>
   </timestep>
   <timestep time="8">
      <edge id="e_m0">
         <lane id="e_m0_0">
            <vehicle id="veh0" pos="22.25" speed="4.89"/>
         </lane>
         <lane id="e_m0_1"/>
         <lane id="e_m0_2"/>
      </edge>
   </timestep>
   <timestep time="9">
      <edge id="e_m0">
         <lane id="e_m0_0">
            <vehicle id="veh0" pos="27.62" speed="5.36"/>
         </lane>
         <lane id="e_m0_1"/>
         <lane id="e_m0_2"/>
      </edge>
   </timestep>
   <timestep time="10">
      <edge id="e_m0">
         <lane id="e_m0_0">
            <vehicle id="veh0" pos="33.71" speed="6.10"/>
         </lane>
         <lane id="e_m0_1"/>
         <lane id="e_m0_2"/>
      </edge>
   </timestep>
   <timestep time="11">
      <edge id="e_m0">
         <lane id="e_m0_0">
            <vehicle id="veh0" pos="40.30" speed="6.59"/>
         </lane>
         <lane id="e_m0_1"/>
         <lane id="e_m0_2"/>
      </edge>
   </timestep>
   <timestep time="12">
      <edge id="e_m0">
         <lane id="e_m0_0">
            <vehicle id="veh0" pos="47.44" speed="7.14"/>
         </lane>
         <lane id="e_m0_1"/>
         <lane id="e_m0_2"/>
      </edge>
   </timestep>
   <timestep time="13">
      <edge id="e_m0">
         <lane id="e_m0_0">
            <vehicle id="veh0" pos="55.15" speed="7.70"/>
         </lane>
         <lane id="e_m0_1"/>
         <lane id="e_m0_2"/>
      </edge>
   </timestep>
   <timestep time="14">
      <edge id="e_m0">
         <lane id="e_m0_0">
            <vehicle id="veh0" pos="63.36" speed="8.21"/>
         </lane>
         <lane id="e_m0_1"/>
         <lane id="e_m0_2"/>
      </edge>
   </timestep>
   <timestep time="15">
      <edge id="e_m0">
         <lane id="e_m0_0">
            <vehicle id="veh0" pos="72.19" speed="8.83"/>
         </lane>
         <lane id="e_m0_1"/>
         <lane id="e_m0_2"/>
      </edge>
   </timestep>
   <timestep time="16">
      <edge id="e_m0">
         <lane id="e_m0_0">
            <vehicle id="veh0" pos="81.69" speed="9.51"/>
         </lane>
         <lane id="e_m0_1"/>
         <lane id="e_m0_2"/>
      </edge>
   </timestep>
   <timestep time="17">
      <edge id="e_m0">
         <lane id="e_m0_0">
            <vehicle id="veh0" pos="91.59" speed="9.90"/>
         </lane>
         <lane id="e_m0_1"/>
         <lane id="e_m0_2"/>
      </edge>
   </timestep>
   <timestep time="18">
      <edge id="e_m0">
         <lane id="e_m0_0">
            <vehicle id="veh0" pos="102.07" speed="10.48"/>
         </lane>
         <lane id="e_m0_1"/>
         <lane id="e_m0_2"/>
      </edge>
   </timestep>
   <timestep time="19">
      <edge id="e_m0">
         <lane id="e_m0_0">
            <vehicle id="veh0" pos="113.00" speed="10.93"/>
         </lane>
         <lane id="e_m0_1"/>
         <lane id="e_m0_2"/>
      </edge>
   </timestep>
   <timestep time="20">
      <edge id="e_m0">
         <lane id="e_m0_0">
            <vehicle id="veh0" pos="124.58" speed="11.59"/>
         </lane>
         <lane id="e_m0_1"/>
         <lane id="e_m0_2"/>
      </edge>
   </timestep>
   <timestep time="21">
      <edge id="e_m0">
         <lane id="e_m0_0">
            <vehicle id="veh0" pos="136.67" speed="12.08"/>
         </lane>
         <lane id="e_m0_1"/>
         <lane id="e_m0_2"/>
      </edge>
   </timestep>
   <timestep time="22">
      <edge id="e_m0">
         <lane id="e_m0_0">
            <vehicle id="veh0" pos="149.31" speed="12.65"/>
         </lane>
         <lane id="e_m0_1"/>
         <lane id="e_m0_2"/>
      </edge>
   </timestep>
   <timestep time="23">
      <edge id="e_m0">
         <lane id="e_m0_0">
            <vehicle id="veh0" pos="162.41" speed="13.10"/>
         </lane>
         <lane id="e_m0_1"/>
         <lane id="e_m0_2"/>
      </edge>
   </timestep>
   <timestep time="24">
      <edge id="e_m0">
         <lane id="e_m0_0">
            <vehicle id="veh0" pos="175.85" speed="13.44"/>
         </lane>
         <lane id="e_m0_1"/>
         <lane id="e_m0_2"/>
      </edge>
   </timestep>
   <timestep time="25">
      <edge id="e_m0">
         <lane id="e_m0_0">
            <vehicle id="veh0" pos="189.68" speed="13.83"/>
         </lane>
         <lane id="e_m0_1"/>
         <lane id="e_m0_2"/>
      </edge>
   </timestep>
   <timestep time="26">
      <edge id="e_m0">
         <lane id="e_m0_0">
            <vehicle id="veh0" pos="203.13" speed="13.44"/>
         </lane>
         <lane id="e_m0_1"/>
         <lane id="e_m0_2"/>
      </edge>
   </timestep>
   <timestep time="27">
      <edge id="e_m0">
         <lane id="e_m0_0">
            <vehicle id="veh0" pos="216.36" speed="13.23"/>
         </lane>
         <lane id="e_m0_1"/>
         <lane id="e_m0_2"/>
      </edge>
   </timestep>
   <timestep time="28">
      <edge id="e_m0">
         <lane id="e_m0_0">
            <vehicle id="veh0" pos="229.38" speed="13.02"/>
         </lane>
         <lane id="e_m0_1"/>
         <lane id="e_m0_2"/>
      </edge>
   </timestep>
   <timestep time="29">
      <edge id="e_m0">
         <lane id="e_m0_0">
            <vehicle id="veh0" pos="242.19" speed="12.81"/>
         </lane>
         <lane id="e_m0_1"/>
         <lane id="e_m0_2"/>
      </edge>
   </timestep>
   <timestep time="30">
      <edge id="e_m0">
         <lane id="e_m0_0">
            <vehicle id="veh0" pos="254.79" speed="12.60"/>
         </lane>
         <lane id="e_m0_1"/>
         <lane id="e_m0_2"/>
      </edge>
   </timestep>
   <timestep time="31">
      <edge id="e_m0">
         <lane id="e_m0_0">
            <vehicle id="veh0" pos="267.18" speed="12.39"/>
         </lane>
         <lane id="e_m0_1"/>
         <lane id="e_m0_2"/>
      </edge>
   </timestep>
   <timestep time="32">
      <edge id="e_m0">
         <lane id="e_m0_0">
            <vehicle id="veh0" pos="279.36" speed="12.18"/>
         </lane>
         <lane id="e_m0_1"/>
         <lane id="e_m0_2"/>
      </edge>
   </timestep>
   <timestep time="33">
      <edge id="e_m0">
         <lane id="e_m0_0">
            <vehicle id="veh0" pos="291.33" speed="11.97"/>
         </lane>
         <lane id="e_m0_1"/>
         <lane id="e_m0_2"/>
      </edge>
   </timestep>
   <timestep time="34">
      <edge id="e_m0">
         <lane id="e_m0_0">
            <vehicle id="veh0" pos="303.08" speed="11.76"/>
         </lane>
         <lane id="e_m0_1"/>
         <lane id="e_m0_2"/>
      </edge>
   </timestep>
   <timestep time="35">
      <edge id="e_m0">
         <lane id="e_m0_0">
            <vehicle id="veh0" pos="314.63" speed="11.54"/>
         </lane>
         <lane id="e_m0_1"/>
         <lane id="e_m0_2"/>
      </edge>
   </timestep>
   <timestep time="36">
      <edge id="e_m0">
         <lane id="e_m0_0">
            <vehicle id="veh0" pos="325.96" speed="11.33"/>
         </lane>
         <lane id="e_m0_1"/>
         <lane id="e_m0_2"/>
      </edge>
   </timestep>
   <timestep time="37">
      <edge id="e_m0">
         <lane id="e_m0_0">
            <vehicle id="veh0" pos="337.08" speed="11.12"/>
         </lane>
         <lane id="e_m0_1"/>
         <lane id="e_m0_2"/>
      </edge>
   </timestep>
   <timestep time="38">
      <edge id="e_m0">
         <lane id="e_m0_0">
            <vehicle id="veh0" pos="348.00" speed="10.91"/>
         </lane>
         <lane id="e_m0_1"/>
         <lane id="e_m0_2"/>
      </edge>
   </timestep>
   <timestep time="39">
      <edge id="e_m0">
         <lane id="e_m0_0">
            <vehicle id="veh0" pos="358.70" speed="10.70"/>
         </lane>
         <lane id="e_m0_1"/>
         <lane id="e_m0_2"/>
      </edge>
   </timestep>
   <timestep time="40">
      <edge id="e_m0">
         <lane id="e_m0_0">
            <vehicle id="veh0" pos="369.18" speed="10.49"/>
         </lane>
         <lane id="e_m0_1"/>
         <lane id="e_m0_2"/>
      </edge>
   </timestep>
   <timestep time="41">
      <edge id="e_m0">
         <lane id="e_m0_0">
            <vehicle id="veh0" pos="379.46" speed="10.28"/>
         </lane>
         <lane id="e_m0_1"/>
         <lane id="e_m0_2"/>
      </edge>
   </timestep>
   <timestep time="42">
      <edge id="e_m0">
         <lane id="e_m0_0">
            <vehicle id="veh0" pos="389.53" speed="10.07"/>
         </lane>
         <lane id="e_m0_1"/>
         <lane id="e_m0_2"/>
      </edge>
   </timestep>
   <timestep time="43">
      <edge id="e_m0">
         <lane id="e_m0_0">
            <vehicle id="veh0" pos="399.39" speed="9.86"/>
         </lane>
         <lane id="e_m0_1"/>
         <lane id="e_m0_2"/>
      </edge>
   </timestep>
   <timestep time="44">
      <edge id="e_m0">
         <lane id="e_m0_0">
            <vehicle id="veh0" pos="409.03" speed="9.64"/>
         </lane>
         <lane id="e_m0_1"/>
         <lane id="e_m0_2"/>
      </edge>
   </timestep>
   <timestep time="45">
      <edge id="e_m0">
         <lane id="e_m0_0">
            <vehicle id="veh0" pos="418.46" speed="9.43"/>
         </lane>
         <lane id="e_m0_1"/>
         <lane id="e_m0_2"/>
      </edge>
   </timestep>
   <timestep time="46">
      <edge id="e_m0">
         <lane id="e_m0_0">
            <vehicle id="veh0" pos="427.69" speed="9.22"/>
         </lane>
         <lane id="e_m0_1"/>
         <lane id="e_m0_2"/>
      </edge>
   </timestep>
   <timestep time="47">
      <edge id="e_m0">
         <lane id="e_m0_0">
            <vehicle id="veh0" pos="436.70" speed="9.01"/>
         </lane>
         <lane id="e_m0_1"/>
         <lane id="e_m0_2"/>
      </edge>
   </timestep>
   <timestep time="48">
      <edge id="e_m0">
         <lane id="e_m0_0">
            <vehicle id="veh0" pos="445.50" speed="8.80"/>
         </lane>
         <lane id="e_m0_1"/>
         <lane id="e_m0_2"/>
      </edge>
   </timestep>
   <timestep time="49">
      <edge id="e_m0">
         <lane id="e_m0_0">
            <vehicle id="veh0" pos="454.09" speed="8.59"/>
         </lane>
         <lane id="e_m0_1"/>
         <lane id="e_m0_2"/>
      </edge>
   </timestep>
   <timestep time="50">
      <edge id="e_m0">
         <lane id="e_m0_0">
            <vehicle id="veh0" pos="462.46" speed="8.38"/>
         </lane>
         <lane id="e_m0_1"/>
         <lane id="e_m0_2"/>
      </edge>
   </timestep>
   <timestep time="51">
      <edge id="e_m0">
         <lane id="e_m0_0">
            <vehicle id="veh0" pos="471.05" speed="8.59"/>
         </lane>
         <lane id="e_m0_1"/>
         <lane id="e_m0_2"/>
      </edge>
   </timestep>
   <timestep time="52">
      <edge id="e_m0">
         <lane id="e_m0_0">
            <vehicle id="veh0" pos="479.64" speed="8.59"/>
         </lane>
         <lane id="e_m0_1"/>
         <lane id="e_m0_2"/>
      </edge>
   </timestep>
   <timestep time="53">
      <edge id="e_m0">
         <lane id="e_m0_0">
            <vehicle id="veh0" pos="488.23" speed="8.59"/>
         </lane>
         <lane id="e_m0_1"/>
         <lane id="e_m0_2"/>
      </edge>
   </timestep>
   <timestep time="54">
      <edge id="e_m0">
         <lane id="e_m0_0">
            <vehicle id="veh0" pos="496.82" speed="8.59"/>
         </lane>
         <lane id="e_m0_1"/>
         <lane id="e_m0_2"/>
      </edge>
   </timestep>
   <timestep time="55">
      <edge id="e_m1">
         <lane id="e_m1_0">
            <vehicle id="veh0" pos="5.41" speed="8.59"/>
         </lane>
         <lane id="e_m1_1"/>
         <lane id="e_m1_2"/>
      </edge>
   </timestep>
   <timestep time="56">
      <edge id="e_m1">
         <lane id="e_m1_0">
            <vehicle id="veh0" pos="14.00" speed="8.59"/>
         </lane>
         <lane id="e_m1_1"/>
         <lane id="e_m1_2"/>
      </edge>
   </timestep>
   <timestep time="57">
      <edge id="e_m1">
         <lane id="e_m1_0">
            <vehicle id="veh0" pos="22.59" speed="8.59"/>
         </lane>
         <lane id="e_m1_1"/>
         <lane id="e_m1_2"/>
      </edge>
   </timestep>
   <timestep time="58">
      <edge id="e_m1">
         <lane id="e_m1_0">
            <vehicle id="veh0" pos="31.18" speed="8.59"/>
         </lane>
         <lane id="e_m1_1"/>
         <lane id="e_m1_2"/>
      </edge>
   </timestep>
   <timestep time="59">
      <edge id="e_m1">
         <lane id="e_m1_0">
            <vehicle id="veh0" pos="39.76" speed="8.59"/>
         </lane>
         <lane id="e_m1_1"/>
         <lane id="e_m1_2"/>
      </edge>
   </timestep>
   <timestep time="60">
      <edge id="e_m1">
         <lane id="e_m1_0">
            <vehicle id="veh0" pos="48.35" speed="8.59"/>
         </lane>
         <lane id="e_m1_1"/>
         <lane id="e_m1_2"/>
      </edge>
   </timestep>
   <timestep time="61">
      <edge id="e_m1">
         <lane id="e_m1_0">
            <vehicle id="veh0" pos="56.94" speed="8.59"/>
         </lane>
         <lane id="e_m1_1"/>
         <lane id="e_m1_2"/>
      </edge>
   </timestep>
   <timestep time="62">
      <edge id="e_m1">
         <lane id="e_m1_0">
            <vehicle id="veh0" pos="65.53" speed="8.59"/>
         </lane>
         <lane id="e_m1_1"/>
         <lane id="e_m1_2"/>
      </edge>
   </timestep>
   <timestep time="63">
      <edge id="e_m1">
         <lane id="e_m1_0">
            <vehicle id="veh0" pos="74.12" speed="8.59"/>
         </lane>
         <lane id="e_m1_1"/>
         <lane id="e_m1_2"/>
      </edge>
   </timestep>
   <timestep time="64">
      <edge id="e_m1">
         <lane id="e_m1_0">
            <vehicle id="veh0" pos="82.71" speed="8.59"/>
         </lane>
         <lane id="e_m1_1"/>
         <lane id="e_m1_2"/>
      </edge>
   </timestep>
   <timestep time="65">
      <edge id="e_m1">
         <lane id="e_m1_0">
            <vehicle id="veh0" pos="91.30" speed="8.59"/>
         </lane>
         <lane id="e_m1_1"/>
         <lane id="e_m1_2"/>
      </edge>
   </timestep>
   <timestep time="66">
      <edge id="e_m1">
         <lane id="e_m1_0">
            <vehicle id="veh0" pos="99.89" speed="8.59"/>
         </lane>
         <lane id="e_m1_1"/>
         <lane id="e_m1_2"/>
      </edge>
   </timestep>
   <timestep time="67">
      <edge id="e_m1">
         <lane id="e_m1_0">
            <vehicle id="veh0" pos="108.48" speed="8.59"/>
         </lane>
         <lane id="e_m1_1"/>
         <lane id="e_m1_2"/>
      </edge>
   </timestep>
   <timestep time="68">
      <edge id="e_m1">
         <lane id="e_m1_0">
            <vehicle id="veh0" pos="117.07" speed="8.59"/>
         </lane>
         <lane id="e_m1_1"/>
         <lane id="e_m1_2"/>
      </edge>
   </timestep>
   <timestep time="69">
      <edge id="e_m1">
         <lane id="e_m1_0">
            <vehicle id="veh0" pos="125.66" speed="8.59"/>
         </lane>
         <lane id="e_m1_1"/>
         <lane id="e_m1_2"/>
      </edge>
   </timestep>
   <timestep time="70">
      <edge id="e_m1">
         <lane id="e_m1_0">
            <vehicle id="veh0" pos="134.24" speed="8.59"/>
         </lane>
         <lane id="e_m1_1"/>
         <lane id="e_m1_2"/>
      </edge>
   </timestep>
   <timestep time="71">
      <edge id="e_m1">
         <lane id="e_m1_0">
            <vehicle id="veh0" pos="142.83" speed="8.59"/>
         </lane>
         <lane id="e_m1_1"/>
         <lane id="e_m1_2"/>
      </edge>
   </timestep>
   <timestep time="72">
      <edge id="e_m1">
         <lane id="e_m1_0">
            <vehicle id="veh0" pos="151.42" speed="8.59"/>
         </lane>
         <lane id="e_m1_1"/>
         <lane id="e_m1_2"/>
      </edge>
   </timestep>
   <timestep time="73">
      <edge id="e_m1">
         <lane id="e_m1_0">
            <vehicle id="veh0" pos="160.52" speed="9.09"/>
         </lane>
         <lane id="e_m1_1"/>
         <lane id="e_m1_2"/>
      </edge>
   </timestep>
   <timestep time="74">
      <edge id="e_m1">
         <lane id="e_m1_0">
            <vehicle id="veh0" pos="170.24" speed="9.72"/>
         </lane>
         <lane id="e_m1_1"/>
         <lane id="e_m1_2"/>
      </edge>
   </timestep>
   <timestep time="75">
      <edge id="e_m1">
         <lane id="e_m1_0">
            <vehicle id="veh0" pos="180.58" speed="10.35"/>
         </lane>
         <lane id="e_m1_1"/>
         <lane id="e_m1_2"/>
      </edge>
   </timestep>
   <timestep time="76">
      <edge id="e_m1">
         <lane id="e_m1_0">
            <vehicle id="veh0" pos="191.59" speed="11.01"/>
         </lane>
         <lane id="e_m1_1"/>
         <lane id="e_m1_2"/>
      </edge>
   </timestep>
   <timestep time="77">
      <edge id="e_m1">
         <lane id="e_m1_0">
            <vehicle id="veh0" pos="203.25" speed="11.66"/>
         </lane>
         <lane id="e_m1_1"/>
         <lane id="e_m1_2"/>
      </edge>
   </timestep>
   <timestep time="78">
      <edge id="e_m1">
         <lane id="e_m1_0">
            <vehicle id="veh0" pos="215.34" speed="12.09"/>
         </lane>
         <lane id="e_m1_1"/>
         <lane id="e_m1_2"/>
      </edge>
   </timestep>
   <timestep time="79">
      <edge id="e_m1">
         <lane id="e_m1_0">
            <vehicle id="veh0" pos="227.98" speed="12.64"/>
         </lane>
         <lane id="e_m1_1"/>
         <lane id="e_m1_2"/>
      </edge>
   </timestep>
   <timestep time="80">
      <edge id="e_m1">
         <lane id="e_m1_0">
            <vehicle id="veh0" pos="241.17" speed="13.20"/>
         </lane>
         <lane id="e_m1_1"/>
         <lane id="e_m1_2"/>
      </edge>
   </timestep>
   <timestep time="81">
      <edge id="e_m1">
         <lane id="e_m1_0">
            <vehicle id="veh0" pos="254.95" speed="13.78"/>
         </lane>
         <lane id="e_m1_1"/>
         <lane id="e_m1_2"/>
      </edge>
   </timestep>
   <timestep time="82">
      <edge id="e_m1">
         <lane id="e_m1_0">
            <vehicle id="veh0" pos="269.16" speed="14.20"/>
         </lane>
         <lane id="e_m1_1"/>
         <lane id="e_m1_2"/>
      </edge>
   </timestep>
   <timestep time="83">
      <edge id="e_m1">
         <lane id="e_m1_0">
            <vehicle id="veh0" pos="283.87" speed="14.71"/>
         </lane>
         <lane id="e_m1_1"/>
         <lane id="e_m1_2"/>
      </edge>
   </timestep>
   <timestep time="84">
      <edge id="e_m1">
         <lane id="e_m1_0">
            <vehicle id="veh0" pos="299.02" speed="15.15"/>
         </lane>
         <lane id="e_m1_1"/>
         <lane id="e_m1_2"/>
      </edge>
   </timestep>
   <timestep time="85">
      <edge id="e_m1">
         <lane id="e_m1_0">
            <vehicle id="veh0" pos="314.67" speed="15.66"/>
         </lane>
         <lane id="e_m1_1"/>
         <lane id="e_m1_2"/>
      </edge>
   </timestep>
   <timestep time="86">
      <edge id="e_m1">
         <lane id="e_m1_0">
            <vehicle id="veh0" pos="330.79" speed="16.12"/>
         </lane>
         <lane id="e_m1_1"/>
         <lane id="e_m1_2"/>
      </edge>
   </timestep>
   <timestep time="87">
      <edge id="e_m1">
         <lane id="e_m1_0">
            <vehicle id="veh0" pos="347.27" speed="16.48"/>
         </lane>
         <lane id="e_m1_1"/>
         <lane id="e_m1_2"/>
      </edge>
   </timestep>
   <timestep time="88">
      <edge id="e_m1">
         <lane id="e_m1_0">
            <vehicle id="veh0" pos="364.19" speed="16.92"/>
         </lane>
         <lane id="e_m1_1"/>
         <lane id="e_m1_2"/>
      </edge>
   </timestep>
   <timestep time="89">
      <edge id="e_m1">
         <lane id="e_m1_0">
            <vehicle id="veh0" pos="381.59" speed="17.40"/>
         </lane>
         <lane id="e_m1_1"/>
         <lane id="e_m1_2"/>
      </edge>
   </timestep>
   <timestep time="90">
      <edge id="e_m1">
         <lane id="e_m1_0">
            <vehicle id="veh0" pos="399.48" speed="17.89"/>
         </lane>
         <lane id="e_m1_1"/>
         <lane id="e_m1_2"/>
      </edge>
   </timestep>
   <timestep time="91">
      <edge id="e_m1">
         <lane id="e_m1_0">
            <vehicle id="veh0" pos="417.68" speed="18.20"/>
         </lane>
         <lane id="e_m1_1"/>
         <lane id="e_m1_2"/>
      </edge>
   </timestep>
   <timestep time="92">
      <edge id="e_m1">
         <lane id="e_m1_0">
            <vehicle id="veh0" pos="436.47" speed="18.79"/>
         </lane>
         <lane id="e_m1_1"/>
         <lane id="e_m1_2"/>
      </edge>
   </timestep>
   <timestep time="93">
      <edge id="e_m1">
         <lane id="e_m1_0">
            <vehicle id="veh0" pos="455.75" speed="19.28"/>
         </lane>
         <lane id="e_m1_1"/>
         <lane id="e_m1_2"/>
      </edge>
   </timestep>
   <timestep time="94">
      <edge id="e_m1">
         <lane id="e_m1_0">
            <vehicle id="veh0" pos="475.58" speed="19.83"/>
         </lane>
         <lane id="e_m1_1"/>
         <lane id="e_m1_2"/>
      </edge>
   </timestep>
   <timestep time="95">
      <edge id="e_m1">
         <lane id="e_m1_0">
            <vehicle id="veh0" pos="495.74" speed="20.16"/>
         </lane>
         <lane id="e_m1_1"/>
         <lane id="e_m1_2"/>
      </edge>
   </timestep>
   <timestep time="96">
      <edge id="e_m2">
         <lane id="e_m2_0">
            <vehicle id="veh0" pos="16.29" speed="20.55"/>
         </lane>
         <lane id="e_m2_1"/>
         <lane id="e_m2_2"/>
      </edge>
   </timestep>
   <timestep time="97">
      <edge id="e_m2">
         <lane id="e_m2_0">
            <vehicle id="veh0" pos="37.15" speed="20.86"/>
         </lane>
         <lane id="e_m2_1"/>
         <lane id="e_m2_2"/>
      </edge>
   </timestep>
   <timestep time="98">
      <edge id="e_m2">
         <lane id="e_m2_0">
            <vehicle id="veh0" pos="58.43" speed="21.28"/>
         </lane>
         <lane id="e_m2_1"/>
         <lane id="e_m2_2"/>
      </edge>
   </timestep>
   <timestep time="99">
      <edge id="e_m2">
         <lane id="e_m2_0">
            <vehicle id="veh0" pos="80.16" speed="21.72"/>
         </lane>
         <lane id="e_m2_1"/>
         <lane id="e_m2_2"/>
      </edge>
   </timestep>
   <timestep time="100">
      <edge id="e_m2">
         <lane id="e_m2_0">
            <vehicle id="veh0" pos="102.24" speed="22.08"/>
         </lane>
         <lane id="e_m2_1"/>
         <lane id="e_m2_2"/>
      </edge>
   </timestep>
   <timestep time="101">
      <edge id="e_m2">
         <lane id="e_m2_0">
            <vehicle id="veh0" pos="123.96" speed="21.72"/>
         </lane>
         <lane id="e_m2_1"/>
         <lane id="e_m2_2"/>
      </edge>
   </timestep>
   <timestep time="102">
      <edge id="e_m2">
         <lane id="e_m2_0">
            <vehicle id="veh0" pos="143.51" speed="19.55"/>
         </lane>
         <lane id="e_m2_1"/>
         <lane id="e_m2_2"/>
      </edge>
   </timestep>
   <timestep time="103">
      <edge id="e_m2">
         <lane id="e_m2_0">
            <vehicle id="veh0" pos="160.89" speed="17.38"/>
         </lane>
         <lane id="e_m2_1"/>
         <lane id="e_m2_2"/>
      </edge>
   </timestep>
   <timestep time="104">
      <edge id="e_m2">
         <lane id="e_m2_0">
            <vehicle id="veh0" pos="176.09" speed="15.21"/>
         </lane>
         <lane id="e_m2_1"/>
         <lane id="e_m2_2"/>
      </edge>
   </timestep>
   <timestep time="105">
      <edge id="e_m2">
         <lane id="e_m2_0">
            <vehicle id="veh0" pos="189.13" speed="13.03"/>
         </lane>
         <lane id="e_m2_1"/>
         <lane id="e_m2_2"/>
      </edge>
   </timestep>
   <timestep time="106">
      <edge id="e_m2">
         <lane id="e_m2_0">
            <vehicle id="veh0" pos="199.99" speed="10.86"/>
         </lane>
         <lane id="e_m2_1"/>
         <lane id="e_m2_2"/>
      </edge>
   </timestep>
   <timestep time="107">
      <edge id="e_m2">
         <lane id="e_m2_0">
            <vehicle id="veh0" pos="208.68" speed="8.69"/>
         </lane>
         <lane id="e_m2_1"/>
         <lane id="e_m2_2"/>
      </edge>
   </timestep>
   <timestep time="108">
      <edge id="e_m2">
         <lane id="e_m2_0">
            <vehicle id="veh0" pos="215.20" speed="6.52"/>
         </lane>
         <lane id="e_m2_1"/>
         <lane id="e_m2_2"/>
      </edge>
   </timestep>
   <timestep time="109">
      <edge id="e_m2">
         <lane id="e_m2_0">
            <vehicle id="veh0" pos="219.54" speed="4.34"/>
         </lane>
         <lane id="e_m2_1"/>
         <lane id="e_m2_2"/>
      </edge>
   </timestep>
   <timestep time="110">
      <edge id="e_m2">
         <lane id="e_m2_0">
            <vehicle id="veh0" pos="221.71" speed="2.17"/>
         </lane>
         <lane id="e_m2_1"/>
         <lane id="e_m2_2"/>
      </edge>
   </timestep>
   <timestep time="111">
      <edge id="e_m2">
         <lane id="e_m2_0">
            <vehicle id="veh0" pos="221.71" speed="0.00"/>
         </lane>
         <lane id="e_m2_1"/>
         <lane id="e_m2_2"/>
      </edge>
   </timestep>
   <timestep time="112">
      <edge id="e_m2">
         <lane id="e_m2_0">
            <vehicle id="veh0" pos="221.71" speed="0.00"/>
         </lane>
         <lane id="e_m2_1"/>
         <lane id="e_m2_2"/>
      </edge>
   </timestep>
   <timestep time="113">
      <edge id="e_m2">
         <lane id="e_m2_0">
            <vehicle id="veh0" pos="222.40" speed="0.69"/>
         </lane>
         <lane id="e_m2_1"/>
         <lane id="e_m2_2"/>
      </edge>
   </timestep>
   <timestep time="114">
      <edge id="e_m2">
         <lane id="e_m2_0">
            <vehicle id="veh0" pos="223.60" speed="1.20"/>
         </lane>
         <lane id="e_m2_1"/>
         <lane id="e_m2_2"/>
      </edge>
   </timestep>
   <timestep time="115">
      <edge id="e_m2">
         <lane id="e_m2_0">
            <vehicle id="veh0" pos="225.54" speed="1.94"/>
         </lane>
         <lane id="e_m2_1"/>
         <lane id="e_m2_2"/>
      </edge>
   </timestep>
   <timestep time="116">
      <edge id="e_m2">
         <lane id="e_m2_0">
            <vehicle id="veh0" pos="227.99" speed="2.44"/>
         </lane>
         <lane id="e_m2_1"/>
         <lane id="e_m2_2"/>
      </edge>
   </timestep>
   <timestep time="117">
      <edge id="e_m2">
         <lane id="e_m2_0">
            <vehicle id="veh0" pos="231.15" speed="3.16"/>
         </lane>
         <lane id="e_m2_1"/>
         <lane id="e_m2_2"/>
      </edge>
   </timestep>
   <timestep time="118">
      <edge id="e_m2">
         <lane id="e_m2_0">
            <vehicle id="veh0" pos="234.74" speed="3.59"/>
         </lane>
         <lane id="e_m2_1"/>
         <lane id="e_m2_2"/>
      </edge>
   </timestep>
   <timestep time="119">
      <edge id="e_m2">
         <lane id="e_m2_0">
            <vehicle id="veh0" pos="238.95" speed="4.21"/>
         </lane>
         <lane id="e_m2_1"/>
         <lane id="e_m2_2"/>
      </edge>
   </timestep>
   <timestep time="120">
      <edge id="e_m2">
         <lane id="e_m2_0">
            <vehicle id="veh0" pos="243.74" speed="4.79"/>
         </lane>
         <lane id="e_m2_1"/>
         <lane id="e_m2_2"/>
      </edge>
   </timestep>
   <timestep time="121">
      <edge id="e_m2">
         <lane id="e_m2_0">
            <vehicle id="veh0" pos="249.25" speed="5.52"/>
         </lane>
         <lane id="e_m2_1"/>
         <lane id="e_m2_2"/>
      </edge>
   </timestep>
   <timestep time="122">
      <edge id="e_m2">
         <lane id="e_m2_0">
            <vehicle id="veh0" pos="255.36" speed="6.11"/>
         </lane>
         <lane id="e_m2_1"/>
         <lane id="e_m2_2"/>
      </edge>
   </timestep>
   <timestep time="123">
      <edge id="e_m2">
         <lane id="e_m2_0">