<?xml version="1.0" encoding="UTF-8"?>

<!-- generated on Thu Jun  8 13:12:37 2017 by SUMO Version dev-SVN-r24576
<?xml version="1.0" encoding="UTF-8"?>

<configuration xmlns:xsi="http://www.w3.org/2001/XMLSchema-instance" xsi:noNamespaceSchemaLocation="http://sumo.dlr.de/xsd/sumoConfiguration.xsd">

    <input>
        <net-file value="net2.net.xml"/>
        <route-files value="input_routes.rou.xml"/>
    </input>

    <output>
        <tripinfo-output value="tripinfos.xml"/>
    </output>

    <time>
        <begin value="25"/>
    </time>

    <report>
        <xml-validation value="never"/>
        <duration-log.disable value="true"/>
        <no-step-log value="true"/>
    </report>

</configuration>
-->

<tripinfos xmlns:xsi="http://www.w3.org/2001/XMLSchema-instance" xsi:noNamespaceSchemaLocation="http://sumo.dlr.de/xsd/tripinfo_file.xsd">
    <tripinfo id="ego" depart="25.00" departLane="SC_0" departPos="5.10" departSpeed="13.89" departDelay="0.00" arrival="93.00" arrivalLane="CN_0" arrivalPos="4.00" arrivalSpeed="10.40" duration="68.00" routeLength="106.95" waitSteps="56" timeLoss="59.94" rerouteNo="0" devices="tripinfo_ego" vType="egoType" speedFactor="1.00" vaporized=""/>
</tripinfos>
