<?xml version="1.0" encoding="UTF-8"?>

<!-- generated on 2025-09-25T13:45:42.444679+01:00 by Eclipse SUMO sumo v1_24_0+0988-90d076c371e
This data file and the accompanying materials
are made available under the terms of the Eclipse Public License v2.0
which accompanies this distribution, and is available at
http://www.eclipse.org/legal/epl-v20.html
This file may also be made available under the following Secondary
Licenses when the conditions for such availability set forth in the Eclipse
Public License 2.0 are satisfied: GNU General Public License, version 2
or later which is available at
https://www.gnu.org/licenses/old-licenses/gpl-2.0-standalone.html
SPDX-License-Identifier: EPL-2.0 OR GPL-2.0-or-later
<sumoConfiguration xmlns:xsi="http://www.w3.org/2001/XMLSchema-instance" xsi:noNamespaceSchemaLocation="http://sumo.dlr.de/xsd/sumoConfiguration.xsd">

    <input>
        <net-file value="motorway.net.xml"/>
        <route-files value="input_routes.rou.xml"/>
        <additional-files value="input_additional.add.xml"/>
    </input>

    <output>
        <write-license value="true"/>
    </output>

    <processing>
        <max-depart-delay value="1"/>
        <default.speeddev value="0"/>
    </processing>

    <report>
        <xml-validation value="never"/>
        <duration-log.statistics value="true"/>
        <no-step-log value="true"/>
    </report>

</sumoConfiguration>
-->

<meandata xmlns:xsi="http://www.w3.org/2001/XMLSchema-instance" xsi:noNamespaceSchemaLocation="http://sumo.dlr.de/xsd/meandata_file.xsd">
    <interval begin="0.00" end="1088.00" id="laneData">
        <edge id="beg">
            <lane id="beg_0" sampledSeconds="17577.85" traveltime="90.16" overlapTraveltime="90.35" density="5.39" laneDensity="5.39" occupancy="2.69" waitingTime="1.00" timeLoss="1110.77" speed="33.22" speedRelative="0.92" departed="177" arrived="172" entered="0" left="0" laneChangedFrom="255" laneChangedTo="250"/>
            <lane id="beg_1" sampledSeconds="15918.00" traveltime="94.77" overlapTraveltime="95.00" density="4.88" laneDensity="4.88" occupancy="2.44" waitingTime="5.00" timeLoss="2038.86" speed="31.59" speedRelative="0.88" departed="166" arrived="269" entered="0" left="0" laneChangedFrom="463" laneChangedTo="566"/>
            <lane id="beg_2" sampledSeconds="12084.50" traveltime="98.07" overlapTraveltime="98.25" density="3.71" laneDensity="3.71" occupancy="1.85" waitingTime="48.00" timeLoss="1091.13" speed="30.55" speedRelative="0.85" departed="144" arrived="46" entered="0" left="0" laneChangedFrom="311" laneChangedTo="213"/>
        </edge>
    </interval>
</meandata>
