<?xml version="1.0" encoding="UTF-8"?>

<!-- generated on 2024-06-27 12:14:11 by Eclipse SUMO sumo Version v1_20_0+0875-c7310f6279d
This data file and the accompanying materials
are made available under the terms of the Eclipse Public License v2.0
which accompanies this distribution, and is available at
http://www.eclipse.org/legal/epl-v20.html
This file may also be made available under the following Secondary
Licenses when the conditions for such availability set forth in the Eclipse
Public License 2.0 are satisfied: GNU General Public License, version 2
or later which is available at
https://www.gnu.org/licenses/old-licenses/gpl-2.0-standalone.html
SPDX-License-Identifier: EPL-2.0 OR GPL-2.0-or-later
<sumoConfiguration xmlns:xsi="http://www.w3.org/2001/XMLSchema-instance" xsi:noNamespaceSchemaLocation="http://sumo.dlr.de/xsd/sumoConfiguration.xsd">

    <input>
        <net-file value="net2.net.xml"/>
        <route-files value="input_routes.rou.xml"/>
        <additional-files value="input_additional.add.xml"/>
    </input>

    <output>
        <write-license value="true"/>
    </output>

    <processing>
        <collision.check-junctions value="true"/>
        <default.speeddev value="0"/>
    </processing>

    <report>
        <xml-validation value="never"/>
        <duration-log.statistics value="true"/>
        <no-step-log value="true"/>
    </report>

</sumoConfiguration>
-->

<meandata xmlns:xsi="http://www.w3.org/2001/XMLSchema-instance" xsi:noNamespaceSchemaLocation="http://sumo.dlr.de/xsd/meandata_file.xsd">
    <interval begin="0.00" end="1604.00" id="cars">
        <edge id=":C_0" sampledSeconds="254.10" traveltime="1.52" overlapTraveltime="2.35" density="17.54" laneDensity="17.54" occupancy="5.64" waitingTime="0.00" timeLoss="145.01" speed="5.96" speedRelative="0.43" departed="0" arrived="0" entered="108" left="108" laneChangedFrom="0" laneChangedTo="0"/>
        <edge id=":C_5" sampledSeconds="75.07" traveltime="3.79" overlapTraveltime="4.69" density="2.25" laneDensity="1.13" occupancy="0.45" waitingTime="0.00" timeLoss="45.36" speed="5.50" speedRelative="0.40" departed="0" arrived="0" entered="16" left="16" laneChangedFrom="0" laneChangedTo="0"/>
        <edge id=":C_8" sampledSeconds="246.52" traveltime="13.90" overlapTraveltime="14.52" density="17.02" laneDensity="17.02" occupancy="8.11" waitingTime="215.00" timeLoss="229.36" speed="0.97" speedRelative="0.07" departed="0" arrived="0" entered="17" left="17" laneChangedFrom="0" laneChangedTo="0"/>
        <edge id=":C_9" sampledSeconds="416.29" traveltime="4.64" overlapTraveltime="5.48" density="12.48" laneDensity="12.48" occupancy="4.86" waitingTime="78.00" timeLoss="275.13" speed="4.71" speedRelative="0.34" departed="0" arrived="0" entered="76" left="76" laneChangedFrom="0" laneChangedTo="0"/>
        <edge id=":C_11" sampledSeconds="1231.29" traveltime="3.54" overlapTraveltime="4.38" density="36.91" laneDensity="36.91" occupancy="14.88" waitingTime="0.00" timeLoss="709.35" speed="5.89" speedRelative="0.42" departed="0" arrived="0" entered="281" left="281" laneChangedFrom="0" laneChangedTo="0"/>
        <edge id=":C_12" sampledSeconds="94.44" traveltime="2.02" overlapTraveltime="2.42" density="3.04" laneDensity="3.04" occupancy="1.19" waitingTime="0.00" timeLoss="26.07" speed="10.06" speedRelative="0.72" departed="0" arrived="0" entered="39" left="39" laneChangedFrom="0" laneChangedTo="0"/>
        <edge id=":E_0" sampledSeconds="21.17" traveltime="0.59" overlapTraveltime="1.25" density="2.83" laneDensity="2.83" occupancy="0.68" waitingTime="0.00" timeLoss="9.33" speed="7.77" speedRelative="0.56" departed="0" arrived="0" entered="17" left="17" laneChangedFrom="0" laneChangedTo="0"/>
        <edge id=":N_0" sampledSeconds="111.75" traveltime="0.52" overlapTraveltime="1.12" density="14.92" laneDensity="14.92" occupancy="3.60" waitingTime="0.00" timeLoss="41.98" speed="8.67" speedRelative="0.62" departed="0" arrived="0" entered="108" left="108" laneChangedFrom="0" laneChangedTo="0"/>
        <edge id="CE" sampledSeconds="204.94" traveltime="11.42" overlapTraveltime="12.06" density="1.43" laneDensity="0.71" occupancy="0.34" waitingTime="5.00" timeLoss="89.16" speed="7.85" speedRelative="0.56" departed="0" arrived="0" entered="17" left="17" laneChangedFrom="17" laneChangedTo="17"/>
        <edge id="CN" sampledSeconds="4591.02" traveltime="12.46" overlapTraveltime="12.96" density="31.94" laneDensity="15.97" occupancy="7.61" waitingTime="0.00" timeLoss="2179.25" speed="7.30" speedRelative="0.53" departed="0" arrived="249" entered="357" left="108" laneChangedFrom="0" laneChangedTo="0"/>
        <edge id="CW" sampledSeconds="2147.99" traveltime="12.74" overlapTraveltime="13.25" density="14.95" laneDensity="7.47" occupancy="3.59" waitingTime="0.00" timeLoss="1044.02" speed="7.14" speedRelative="0.51" departed="0" arrived="163" entered="164" left="0" laneChangedFrom="0" laneChangedTo="0"/>
        <edge id="EC" sampledSeconds="6808.80" traveltime="399.64" overlapTraveltime="401.79" density="47.38" laneDensity="23.69" occupancy="11.82" waitingTime="6478.00" timeLoss="6693.38" speed="0.24" speedRelative="0.02" departed="0" arrived="0" entered="17" left="17" laneChangedFrom="7" laneChangedTo="7" teleported="1"/>
        <edge id="NC" sampledSeconds="1723.85" traveltime="15.12" overlapTraveltime="15.96" density="11.99" laneDensity="6.00" occupancy="2.87" waitingTime="109.00" timeLoss="988.30" speed="5.93" speedRelative="0.43" departed="0" arrived="0" entered="108" left="108" laneChangedFrom="108" laneChangedTo="108"/>
        <edge id="SC" sampledSeconds="16777.35" traveltime="41.98" overlapTraveltime="42.94" density="116.74" laneDensity="58.37" occupancy="28.79" waitingTime="9388.00" timeLoss="14116.20" speed="2.20" speedRelative="0.16" departed="413" arrived="0" entered="0" left="413" laneChangedFrom="10" laneChangedTo="10"/>
    </interval>
    <interval begin="0.00" end="1604.00" id="bikes">
        <edge id=":C_0" sampledSeconds="264.79" traveltime="1.67" overlapTraveltime="1.96" density="18.28" laneDensity="18.28" occupancy="2.48" waitingTime="0.00" timeLoss="6.48" speed="5.42" speedRelative="0.39" departed="0" arrived="0" entered="135" left="135" laneChangedFrom="0" laneChangedTo="0"/>
        <edge id=":C_5" sampledSeconds="46.53" traveltime="3.94" overlapTraveltime="4.23" density="1.39" laneDensity="0.70" occupancy="0.10" waitingTime="0.00" timeLoss="2.18" speed="5.30" speedRelative="0.38" departed="0" arrived="0" entered="11" left="11" laneChangedFrom="0" laneChangedTo="0"/>
        <edge id=":C_8" sampledSeconds="1532.49" traveltime="127.46" overlapTraveltime="133.80" density="105.81" laneDensity="105.81" occupancy="16.89" waitingTime="1500.00" timeLoss="1510.58" speed="0.08" speedRelative="0.01" departed="0" arrived="0" entered="12" left="12" laneChangedFrom="0" laneChangedTo="0"/>
        <edge id=":C_9" sampledSeconds="448.51" traveltime="6.41" overlapTraveltime="6.69" density="13.44" laneDensity="13.44" occupancy="2.05" waitingTime="165.00" timeLoss="178.37" speed="3.35" speedRelative="0.24" departed="0" arrived="0" entered="67" left="67" laneChangedFrom="0" laneChangedTo="0"/>
        <edge id=":C_10" sampledSeconds="6334.80" traveltime="275.13" overlapTraveltime="278.58" density="219.41" laneDensity="219.41" occupancy="35.05" waitingTime="6174.00" timeLoss="6254.57" speed="0.07" speedRelative="0.01" departed="0" arrived="0" entered="23" left="23" laneChangedFrom="0" laneChangedTo="0" teleported="3"/>
        <edge id=":C_11" sampledSeconds="1305.89" traveltime="3.81" overlapTraveltime="4.09" density="39.14" laneDensity="39.14" occupancy="5.80" waitingTime="0.00" timeLoss="19.69" speed="5.47" speedRelative="0.39" departed="0" arrived="0" entered="319" left="319" laneChangedFrom="0" laneChangedTo="0"/>
        <edge id=":C_18" sampledSeconds="87.29" traveltime="4.08" overlapTraveltime="4.36" density="2.83" laneDensity="2.83" occupancy="0.41" waitingTime="0.00" timeLoss="12.23" speed="4.78" speedRelative="0.34" departed="0" arrived="0" entered="20" left="20" laneChangedFrom="0" laneChangedTo="0"/>
        <edge id=":E_0" sampledSeconds="13.54" traveltime="0.84" overlapTraveltime="1.13" density="1.81" laneDensity="1.81" occupancy="0.22" waitingTime="0.00" timeLoss="0.00" speed="5.56" speedRelative="0.40" departed="0" arrived="0" entered="12" left="12" laneChangedFrom="0" laneChangedTo="0"/>
        <edge id=":N_0" sampledSeconds="144.92" traveltime="0.84" overlapTraveltime="1.13" density="19.35" laneDensity="19.35" occupancy="2.35" waitingTime="0.00" timeLoss="0.00" speed="5.56" speedRelative="0.40" departed="0" arrived="0" entered="135" left="135" laneChangedFrom="0" laneChangedTo="0"/>
        <edge id="CE" sampledSeconds="203.22" traveltime="16.65" overlapTraveltime="16.94" density="1.41" laneDensity="0.71" occupancy="0.11" waitingTime="1.00" timeLoss="6.23" speed="5.39" speedRelative="0.39" departed="0" arrived="0" entered="12" left="12" laneChangedFrom="12" laneChangedTo="12"/>
        <edge id="CN" sampledSeconds="6335.68" traveltime="16.13" overlapTraveltime="16.42" density="44.08" laneDensity="22.04" occupancy="3.47" waitingTime="0.00" timeLoss="0.03" speed="5.56" speedRelative="0.40" departed="0" arrived="251" entered="386" left="135" laneChangedFrom="170" laneChangedTo="170"/>
        <edge id="CW" sampledSeconds="2783.78" traveltime="16.13" overlapTraveltime="16.42" density="19.37" laneDensity="9.68" occupancy="1.52" waitingTime="0.00" timeLoss="0.39" speed="5.55" speedRelative="0.40" departed="0" arrived="168" entered="170" left="0" laneChangedFrom="0" laneChangedTo="2"/>
        <edge id="EC" sampledSeconds="5408.14" traveltime="450.37" overlapTraveltime="451.38" density="37.63" laneDensity="18.82" occupancy="3.01" waitingTime="5148.00" timeLoss="5211.45" speed="0.20" speedRelative="0.01" departed="0" arrived="0" entered="12" left="12" laneChangedFrom="14" laneChangedTo="14" teleported="1"/>
        <edge id="NC" sampledSeconds="2600.69" traveltime="18.95" overlapTraveltime="19.26" density="18.10" laneDensity="9.05" occupancy="1.43" waitingTime="283.00" timeLoss="384.53" speed="4.73" speedRelative="0.34" departed="0" arrived="0" entered="135" left="135" laneChangedFrom="135" laneChangedTo="135"/>
        <edge id="SC" sampledSeconds="16502.68" traveltime="39.62" overlapTraveltime="39.94" density="114.83" laneDensity="57.41" occupancy="9.15" waitingTime="8089.00" timeLoss="9720.37" speed="2.28" speedRelative="0.16" departed="421" arrived="0" entered="0" left="421" laneChangedFrom="59" laneChangedTo="59"/>
    </interval>
</meandata>
