<?xml version="1.0" encoding="UTF-8"?>

<!-- generated on 2021-08-04 16:22:29 by Eclipse SUMO sumo Version v1_9_2+0970-d742ad5
This data file and the accompanying materials
are made available under the terms of the Eclipse Public License v2.0
which accompanies this distribution, and is available at
http://www.eclipse.org/legal/epl-v20.html
SPDX-License-Identifier: EPL-2.0
<configuration xmlns:xsi="http://www.w3.org/2001/XMLSchema-instance" xsi:noNamespaceSchemaLocation="http://sumo.dlr.de/xsd/sumoConfiguration.xsd">

    <input>
        <net-file value="net.net.xml"/>
        <route-files value="input_routes.rou.xml"/>
    </input>

    <output>
        <write-license value="true"/>
        <fcd-output value="fcd.xml"/>
    </output>

    <processing>
        <default.carfollowmodel value="EIDM"/>
        <default.speeddev value="0"/>
    </processing>

    <report>
        <xml-validation value="never"/>
        <xml-validation.routes value="never"/>
        <no-step-log value="true"/>
    </report>

</configuration>
-->

<fcd-export xmlns:xsi="http://www.w3.org/2001/XMLSchema-instance" xsi:noNamespaceSchemaLocation="http://sumo.dlr.de/xsd/fcd_file.xsd">
    <timestep time="0.00">
        <vehicle id="first" x="5.10" y="0.00" angle="90.00" type="DEFAULT_VEHTYPE@first" speed="13.89" pos="5.10" lane="0_0" slope="0.00"/>
    </timestep>
    <timestep time="1.00">
        <vehicle id="first" x="18.99" y="0.00" angle="90.00" type="DEFAULT_VEHTYPE@first" speed="13.89" pos="18.99" lane="0_0" slope="0.00"/>
        <vehicle id="flow.0" x="5.10" y="0.00" angle="90.00" type="flow" speed="12.02" pos="5.10" lane="0_0" slope="0.00"/>
    </timestep>
    <timestep time="2.00">
        <vehicle id="first" x="32.95" y="0.00" angle="90.00" type="DEFAULT_VEHTYPE@first" speed="13.96" pos="32.95" lane="0_0" slope="0.00"/>
        <vehicle id="flow.0" x="15.42" y="0.00" angle="90.00" type="flow@flow.0" speed="10.32" pos="15.42" lane="0_0" slope="0.00"/>
        <vehicle id="flow.1" x="5.10" y="0.00" angle="90.00" type="flow" speed="7.15" pos="5.10" lane="0_0" slope="0.00"/>
    </timestep>
    <timestep time="3.00">
        <vehicle id="first" x="46.81" y="0.00" angle="90.00" type="DEFAULT_VEHTYPE@first" speed="13.86" pos="46.81" lane="0_0" slope="0.00"/>
        <vehicle id="flow.0" x="27.03" y="0.00" angle="90.00" type="flow@flow.0" speed="11.61" pos="27.03" lane="0_0" slope="0.00"/>
        <vehicle id="flow.1" x="10.78" y="0.00" angle="90.00" type="flow@flow.1" speed="5.68" pos="10.78" lane="0_0" slope="0.00"/>
    </timestep>
    <timestep time="4.00">
        <vehicle id="first" x="60.65" y="0.00" angle="90.00" type="DEFAULT_VEHTYPE@first" speed="13.84" pos="60.65" lane="0_0" slope="0.00"/>
        <vehicle id="flow.0" x="39.72" y="0.00" angle="90.00" type="flow@flow.0" speed="12.69" pos="39.72" lane="0_0" slope="0.00"/>
        <vehicle id="flow.1" x="17.99" y="0.00" angle="90.00" type="flow@flow.1" speed="7.21" pos="17.99" lane="0_0" slope="0.00"/>
        <vehicle id="flow.2" x="5.10" y="0.00" angle="90.00" type="flow" speed="7.28" pos="5.10" lane="0_0" slope="0.00"/>
    </timestep>
    <timestep time="5.00">
        <vehicle id="first" x="74.40" y="0.00" angle="90.00" type="DEFAULT_VEHTYPE@first" speed="13.75" pos="74.40" lane="0_0" slope="0.00"/>
        <vehicle id="flow.0" x="52.91" y="0.00" angle="90.00" type="flow@flow.0" speed="13.20" pos="52.91" lane="0_0" slope="0.00"/>
        <vehicle id="flow.1" x="27.39" y="0.00" angle="90.00" type="flow@flow.1" speed="9.40" pos="27.39" lane="0_0" slope="0.00"/>
        <vehicle id="flow.2" x="11.12" y="0.00" angle="90.00" type="flow@flow.2" speed="6.02" pos="11.12" lane="0_0" slope="0.00"/>
    </timestep>
    <timestep time="6.00">
        <vehicle id="first" x="88.31" y="0.00" angle="90.00" type="DEFAULT_VEHTYPE@first" speed="13.91" pos="88.31" lane="0_0" slope="0.00"/>
        <vehicle id="flow.0" x="66.35" y="0.00" angle="90.00" type="flow@flow.0" speed="13.43" pos="66.35" lane="0_0" slope="0.00"/>
        <vehicle id="flow.1" x="38.45" y="0.00" angle="90.00" type="flow@flow.1" speed="11.07" pos="38.45" lane="0_0" slope="0.00"/>
        <vehicle id="flow.2" x="18.87" y="0.00" angle="90.00" type="flow@flow.2" speed="7.75" pos="18.87" lane="0_0" slope="0.00"/>
        <vehicle id="flow.3" x="5.10" y="0.00" angle="90.00" type="flow" speed="8.13" pos="5.10" lane="0_0" slope="0.00"/>
    </timestep>
    <timestep time="7.00">
        <vehicle id="first" x="102.33" y="0.00" angle="90.00" type="DEFAULT_VEHTYPE@first" speed="14.02" pos="102.33" lane="0_0" slope="0.00"/>
        <vehicle id="flow.0" x="79.98" y="0.00" angle="90.00" type="flow@flow.0" speed="13.64" pos="79.98" lane="0_0" slope="0.00"/>
        <vehicle id="flow.1" x="50.78" y="0.00" angle="90.00" type="flow@flow.1" speed="12.33" pos="50.78" lane="0_0" slope="0.00"/>
        <vehicle id="flow.2" x="28.61" y="0.00" angle="90.00" type="flow@flow.2" speed="9.74" pos="28.61" lane="0_0" slope="0.00"/>
        <vehicle id="flow.3" x="12.01" y="0.00" angle="90.00" type="flow@flow.3" speed="6.91" pos="12.01" lane="0_0" slope="0.00"/>
    </timestep>
    <timestep time="8.00">
        <vehicle id="first" x="116.37" y="0.00" angle="90.00" type="DEFAULT_VEHTYPE@first" speed="14.03" pos="116.37" lane="0_0" slope="0.00"/>
        <vehicle id="flow.0" x="93.90" y="0.00" angle="90.00" type="flow@flow.0" speed="13.92" pos="93.90" lane="0_0" slope="0.00"/>
        <vehicle id="flow.1" x="63.62" y="0.00" angle="90.00" type="flow@flow.1" speed="12.84" pos="63.62" lane="0_0" slope="0.00"/>
        <vehicle id="flow.2" x="39.95" y="0.00" angle="90.00" type="flow@flow.2" speed="11.34" pos="39.95" lane="0_0" slope="0.00"/>
        <vehicle id="flow.3" x="20.65" y="0.00" angle="90.00" type="flow@flow.3" speed="8.64" pos="20.65" lane="0_0" slope="0.00"/>
        <vehicle id="flow.4" x="5.10" y="0.00" angle="90.00" type="flow" speed="9.62" pos="5.10" lane="0_0" slope="0.00"/>
    </timestep>
    <timestep time="9.00">
        <vehicle id="first" x="130.42" y="0.00" angle="90.00" type="DEFAULT_VEHTYPE@first" speed="14.06" pos="130.42" lane="0_0" slope="0.00"/>
        <vehicle id="flow.0" x="107.95" y="0.00" angle="90.00" type="flow@flow.0" speed="14.04" pos="107.95" lane="0_0" slope="0.00"/>
        <vehicle id="flow.1" x="76.67" y="0.00" angle="90.00" type="flow@flow.1" speed="13.05" pos="76.67" lane="0_0" slope="0.00"/>
        <vehicle id="flow.2" x="52.48" y="0.00" angle="90.00" type="flow@flow.2" speed="12.53" pos="52.48" lane="0_0" slope="0.00"/>
        <vehicle id="flow.3" x="30.97" y="0.00" angle="90.00" type="flow@flow.3" speed="10.32" pos="30.97" lane="0_0" slope="0.00"/>
        <vehicle id="flow.4" x="13.44" y="0.00" angle="90.00" type="flow@flow.4" speed="8.34" pos="13.44" lane="0_0" slope="0.00"/>
        <vehicle id="flow.5" x="5.10" y="0.00" angle="90.00" type="flow" speed="3.64" pos="5.10" lane="0_0" slope="0.00"/>
    </timestep>
    <timestep time="10.00">
        <vehicle id="first" x="144.47" y="0.00" angle="90.00" type="DEFAULT_VEHTYPE@first" speed="14.05" pos="144.47" lane="0_0" slope="0.00"/>
        <vehicle id="flow.0" x="121.96" y="0.00" angle="90.00" type="flow@flow.0" speed="14.02" pos="121.96" lane="0_0" slope="0.00"/>
        <vehicle id="flow.1" x="89.80" y="0.00" angle="90.00" type="flow@flow.1" speed="13.13" pos="89.80" lane="0_0" slope="0.00"/>
        <vehicle id="flow.2" x="65.86" y="0.00" angle="90.00" type="flow@flow.2" speed="13.38" pos="65.86" lane="0_0" slope="0.00"/>
        <vehicle id="flow.3" x="42.77" y="0.00" angle="90.00" type="flow@flow.3" speed="11.80" pos="42.77" lane="0_0" slope="0.00"/>
        <vehicle id="flow.4" x="23.01" y="0.00" angle="90.00" type="flow@flow.4" speed="9.57" pos="23.01" lane="0_0" slope="0.00"/>
        <vehicle id="flow.5" x="7.73" y="0.00" angle="90.00" type="flow@flow.5" speed="2.63" pos="7.73" lane="0_0" slope="0.00"/>
    </timestep>
    <timestep time="11.00">
        <vehicle id="first" x="158.54" y="0.00" angle="90.00" type="DEFAULT_VEHTYPE@first" speed="14.07" pos="158.54" lane="0_0" slope="0.00"/>
        <vehicle id="flow.0" x="135.90" y="0.00" angle="90.00" type="flow@flow.0" speed="13.94" pos="135.90" lane="0_0" slope="0.00"/>
        <vehicle id="flow.1" x="103.00" y="0.00" angle="90.00" type="flow@flow.1" speed="13.20" pos="103.00" lane="0_0" slope="0.00"/>
        <vehicle id="flow.2" x="79.61" y="0.00" angle="90.00" type="flow@flow.2" speed="13.75" pos="79.61" lane="0_0" slope="0.00"/>
        <vehicle id="flow.3" x="55.69" y="0.00" angle="90.00" type="flow@flow.3" speed="12.92" pos="55.69" lane="0_0" slope="0.00"/>
        <vehicle id="flow.4" x="34.02" y="0.00" angle="90.00" type="flow@flow.4" speed="11.01" pos="34.02" lane="0_0" slope="0.00"/>
        <vehicle id="flow.5" x="12.79" y="0.00" angle="90.00" type="flow@flow.5" speed="5.06" pos="12.79" lane="0_0" slope="0.00"/>
        <vehicle id="flow.6" x="5.10" y="0.00" angle="90.00" type="flow" speed="0.71" pos="5.10" lane="0_0" slope="0.00"/>
    </timestep>
    <timestep time="12.00">
        <vehicle id="first" x="172.60" y="0.00" angle="90.00" type="DEFAULT_VEHTYPE@first" speed="14.07" pos="172.60" lane="0_0" slope="0.00"/>
        <vehicle id="flow.0" x="149.71" y="0.00" angle="90.00" type="flow@flow.0" speed="13.81" pos="149.71" lane="0_0" slope="0.00"/>
        <vehicle id="flow.1" x="116.14" y="0.00" angle="90.00" type="flow@flow.1" speed="13.14" pos="116.14" lane="0_0" slope="0.00"/>
        <vehicle id="flow.2" x="93.40" y="0.00" angle="90.00" type="flow@flow.2" speed="13.79" pos="93.40" lane="0_0" slope="0.00"/>
        <vehicle id="flow.3" x="69.44" y="0.00" angle="90.00" type="flow@flow.3" speed="13.75" pos="69.44" lane="0_0" slope="0.00"/>
        <vehicle id="flow.4" x="46.39" y="0.00" angle="90.00" type="flow@flow.4" speed="12.37" pos="46.39" lane="0_0" slope="0.00"/>
        <vehicle id="flow.5" x="20.02" y="0.00" angle="90.00" type="flow@flow.5" speed="7.22" pos="20.02" lane="0_0" slope="0.00"/>
        <vehicle id="flow.6" x="5.10" y="0.00" angle="90.00" type="flow@flow.6" speed="0.00" pos="5.10" lane="0_0" slope="0.00"/>
    </timestep>
    <timestep time="13.00">
        <vehicle id="first" x="186.60" y="0.00" angle="90.00" type="DEFAULT_VEHTYPE@first" speed="14.00" pos="186.60" lane="0_0" slope="0.00"/>
        <vehicle id="flow.0" x="163.67" y="0.00" angle="90.00" type="flow@flow.0" speed="13.96" pos="163.67" lane="0_0" slope="0.00"/>
        <vehicle id="flow.1" x="129.30" y="0.00" angle="90.00" type="flow@flow.1" speed="13.16" pos="129.30" lane="0_0" slope="0.00"/>
        <vehicle id="flow.2" x="107.10" y="0.00" angle="90.00" type="flow@flow.2" speed="13.70" pos="107.10" lane="0_0" slope="0.00"/>
        <vehicle id="flow.3" x="83.50" y="0.00" angle="90.00" type="flow@flow.3" speed="14.06" pos="83.50" lane="0_0" slope="0.00"/>
        <vehicle id="flow.4" x="59.88" y="0.00" angle="90.00" type="flow@flow.4" speed="13.49" pos="59.88" lane="0_0" slope="0.00"/>
        <vehicle id="flow.5" x="29.22" y="0.00" angle="90.00" type="flow@flow.5" speed="9.20" pos="29.22" lane="0_0" slope="0.00"/>
        <vehicle id="flow.6" x="7.46" y="0.00" angle="90.00" type="flow@flow.6" speed="2.36" pos="7.46" lane="0_0" slope="0.00"/>
    </timestep>
    <timestep time="14.00">
        <vehicle id="first" x="200.51" y="0.00" angle="90.00" type="DEFAULT_VEHTYPE@first" speed="13.91" pos="200.51" lane="0_0" slope="0.00"/>
        <vehicle id="flow.0" x="177.71" y="0.00" angle="90.00" type="flow@flow.0" speed="14.04" pos="177.71" lane="0_0" slope="0.00"/>
        <vehicle id="flow.1" x="142.37" y="0.00" angle="90.00" type="flow@flow.1" speed="13.07" pos="142.37" lane="0_0" slope="0.00"/>
        <vehicle id="flow.2" x="120.78" y="0.00" angle="90.00" type="flow@flow.2" speed="13.68" pos="120.78" lane="0_0" slope="0.00"/>
        <vehicle id="flow.3" x="97.69" y="0.00" angle="90.00" type="flow@flow.3" speed="14.19" pos="97.69" lane="0_0" slope="0.00"/>
        <vehicle id="flow.4" x="73.93" y="0.00" angle="90.00" type="flow@flow.4" speed="14.05" pos="73.93" lane="0_0" slope="0.00"/>
        <vehicle id="flow.5" x="39.74" y="0.00" angle="90.00" type="flow@flow.5" speed="10.52" pos="39.74" lane="0_0" slope="0.00"/>
        <vehicle id="flow.6" x="12.35" y="0.00" angle="90.00" type="flow@flow.6" speed="4.89" pos="12.35" lane="0_0" slope="0.00"/>
    </timestep>
    <timestep time="15.00">
        <vehicle id="first" x="214.31" y="0.00" angle="90.00" type="DEFAULT_VEHTYPE@first" speed="13.80" pos="214.31" lane="0_0" slope="0.00"/>
        <vehicle id="flow.0" x="191.70" y="0.00" angle="90.00" type="flow@flow.0" speed="13.99" pos="191.70" lane="0_0" slope="0.00"/>
        <vehicle id="flow.1" x="155.44" y="0.00" angle="90.00" type="flow@flow.1" speed="13.07" pos="155.44" lane="0_0" slope="0.00"/>
        <vehicle id="flow.2" x="133.81" y="0.00" angle="90.00" type="flow@flow.2" speed="13.03" pos="133.81" lane="0_0" slope="0.00"/>
        <vehicle id="flow.3" x="111.84" y="0.00" angle="90.00" type="flow@flow.3" speed="14.15" pos="111.84" lane="0_0" slope="0.00"/>
        <vehicle id="flow.4" x="88.24" y="0.00" angle="90.00" type="flow@flow.4" speed="14.31" pos="88.24" lane="0_0" slope="0.00"/>
        <vehicle id="flow.5" x="50.88" y="0.00" angle="90.00" type="flow@flow.5" speed="11.14" pos="50.88" lane="0_0" slope="0.00"/>
        <vehicle id="flow.6" x="19.77" y="0.00" angle="90.00" type="flow@flow.6" speed="7.42" pos="19.77" lane="0_0" slope="0.00"/>
        <vehicle id="flow.7" x="5.10" y="0.00" angle="90.00" type="flow" speed="8.48" pos="5.10" lane="0_0" slope="0.00"/>
    </timestep>
    <timestep time="16.00">
        <vehicle id="first" x="227.98" y="0.00" angle="90.00" type="DEFAULT_VEHTYPE@first" speed="13.67" pos="227.98" lane="0_0" slope="0.00"/>
        <vehicle id="flow.0" x="205.77" y="0.00" angle="90.00" type="flow@flow.0" speed="14.07" pos="205.77" lane="0_0" slope="0.00"/>
        <vehicle id="flow.1" x="168.50" y="0.00" angle="90.00" type="flow@flow.1" speed="13.06" pos="168.50" lane="0_0" slope="0.00"/>
        <vehicle id="flow.2" x="147.13" y="0.00" angle="90.00" type="flow@flow.2" speed="13.31" pos="147.13" lane="0_0" slope="0.00"/>
        <vehicle id="flow.3" x="125.44" y="0.00" angle="90.00" type="flow@flow.3" speed="13.59" pos="125.44" lane="0_0" slope="0.00"/>
        <vehicle id="flow.4" x="102.59" y="0.00" angle="90.00" type="flow@flow.4" speed="14.36" pos="102.59" lane="0_0" slope="0.00"/>
        <vehicle id="flow.5" x="62.20" y="0.00" angle="90.00" type="flow@flow.5" speed="11.32" pos="62.20" lane="0_0" slope="0.00"/>
        <vehicle id="flow.6" x="29.50" y="0.00" angle="90.00" type="flow@flow.6" speed="9.73" pos="29.50" lane="0_0" slope="0.00"/>
        <vehicle id="flow.7" x="12.70" y="0.00" angle="90.00" type="flow@flow.7" speed="7.60" pos="12.70" lane="0_0" slope="0.00"/>
        <vehicle id="flow.8" x="5.10" y="0.00" angle="90.00" type="flow" speed="1.44" pos="5.10" lane="0_0" slope="0.00"/>
    </timestep>
    <timestep time="17.00">
        <vehicle id="first" x="241.77" y="0.00" angle="90.00" type="DEFAULT_VEHTYPE@first" speed="13.79" pos="241.77" lane="0_0" slope="0.00"/>
        <vehicle id="flow.0" x="219.54" y="0.00" angle="90.00" type="flow@flow.0" speed="13.77" pos="219.54" lane="0_0" slope="0.00"/>
        <vehicle id="flow.1" x="181.56" y="0.00" angle="90.00" type="flow@flow.1" speed="13.06" pos="181.56" lane="0_0" slope="0.00"/>
        <vehicle id="flow.2" x="160.48" y="0.00" angle="90.00" type="flow@flow.2" speed="13.36" pos="160.48" lane="0_0" slope="0.00"/>
        <vehicle id="flow.3" x="139.15" y="0.00" angle="90.00" type="flow@flow.3" speed="13.71" pos="139.15" lane="0_0" slope="0.00"/>
        <vehicle id="flow.4" x="116.80" y="0.00" angle="90.00" type="flow@flow.4" speed="14.20" pos="116.80" lane="0_0" slope="0.00"/>
        <vehicle id="flow.5" x="73.87" y="0.00" angle="90.00" type="flow@flow.5" speed="11.67" pos="73.87" lane="0_0" slope="0.00"/>
        <vehicle id="flow.6" x="40.93" y="0.00" angle="90.00" type="flow@flow.6" speed="11.43" pos="40.93" lane="0_0" slope="0.00"/>
        <vehicle id="flow.7" x="21.68" y="0.00" angle="90.00" type="flow@flow.7" speed="8.97" pos="21.68" lane="0_0" slope="0.00"/>
        <vehicle id="flow.8" x="5.87" y="0.00" angle="90.00" type="flow@flow.8" speed="0.77" pos="5.87" lane="0_0" slope="0.00"/>
    </timestep>
    <timestep time="18.00">
        <vehicle id="first" x="255.54" y="0.00" angle="90.00" type="DEFAULT_VEHTYPE@first" speed="13.77" pos="255.54" lane="0_0" slope="0.00"/>
        <vehicle id="flow.0" x="233.22" y="0.00" angle="90.00" type="flow@flow.0" speed="13.68" pos="233.22" lane="0_0" slope="0.00"/>
        <vehicle id="flow.1" x="194.60" y="0.00" angle="90.00" type="flow@flow.1" speed="13.04" pos="194.60" lane="0_0" slope="0.00"/>
        <vehicle id="flow.2" x="173.42" y="0.00" angle="90.00" type="flow@flow.2" speed="12.94" pos="173.42" lane="0_0" slope="0.00"/>
        <vehicle id="flow.3" x="152.98" y="0.00" angle="90.00" type="flow@flow.3" speed="13.83" pos="152.98" lane="0_0" slope="0.00"/>
        <vehicle id="flow.4" x="130.86" y="0.00" angle="90.00" type="flow@flow.4" speed="14.06" pos="130.86" lane="0_0" slope="0.00"/>
        <vehicle id="flow.5" x="85.57" y="0.00" angle="90.00" type="flow@flow.5" speed="11.70" pos="85.57" lane="0_0" slope="0.00"/>
        <vehicle id="flow.6" x="53.76" y="0.00" angle="90.00" type="flow@flow.6" speed="12.83" pos="53.76" lane="0_0" slope="0.00"/>
        <vehicle id="flow.7" x="32.11" y="0.00" angle="90.00" type="flow@flow.7" speed="10.43" pos="32.11" lane="0_0" slope="0.00"/>
        <vehicle id="flow.8" x="9.02" y="0.00" angle="90.00" type="flow@flow.8" speed="3.15" pos="9.02" lane="0_0" slope="0.00"/>
    </timestep>
    <timestep time="19.00">
        <vehicle id="first" x="269.36" y="0.00" angle="90.00" type="DEFAULT_VEHTYPE@first" speed="13.82" pos="269.36" lane="0_0" slope="0.00"/>
        <vehicle id="flow.0" x="246.83" y="0.00" angle="90.00" type="flow@flow.0" speed="13.62" pos="246.83" lane="0_0" slope="0.00"/>
        <vehicle id="flow.1" x="207.70" y="0.00" angle="90.00" type="flow@flow.1" speed="13.10" pos="207.70" lane="0_0" slope="0.00"/>
        <vehicle id="flow.2" x="186.37" y="0.00" angle="90.00" type="flow@flow.2" speed="12.95" pos="186.37" lane="0_0" slope="0.00"/>
        <vehicle id="flow.3" x="166.22" y="0.00" angle="90.00" type="flow@flow.3" speed="13.24" pos="166.22" lane="0_0" slope="0.00"/>
        <vehicle id="flow.4" x="144.94" y="0.00" angle="90.00" type="flow@flow.4" speed="14.08" pos="144.94" lane="0_0" slope="0.00"/>
        <vehicle id="flow.5" x="97.33" y="0.00" angle="90.00" type="flow@flow.5" speed="11.77" pos="97.33" lane="0_0" slope="0.00"/>
        <vehicle id="flow.6" x="67.58" y="0.00" angle="90.00" type="flow@flow.6" speed="13.82" pos="67.58" lane="0_0" slope="0.00"/>
        <vehicle id="flow.7" x="43.83" y="0.00" angle="90.00" type="flow@flow.7" speed="11.72" pos="43.83" lane="0_0" slope="0.00"/>
        <vehicle id="flow.8" x="14.60" y="0.00" angle="90.00" type="flow@flow.8" speed="5.58" pos="14.60" lane="0_0" slope="0.00"/>
        <vehicle id="flow.9" x="5.10" y="0.00" angle="90.00" type="flow" speed="3.74" pos="5.10" lane="0_0" slope="0.00"/>
    </timestep>
    <timestep time="20.00">
        <vehicle id="first" x="280.43" y="0.00" angle="90.00" type="DEFAULT_VEHTYPE@first" speed="11.08" pos="280.43" lane="0_0" slope="0.00"/>
        <vehicle id="flow.0" x="260.56" y="0.00" angle="90.00" type="flow@flow.0" speed="13.73" pos="260.56" lane="0_0" slope="0.00"/>
        <vehicle id="flow.1" x="220.75" y="0.00" angle="90.00" type="flow@flow.1" speed="13.05" pos="220.75" lane="0_0" slope="0.00"/>
        <vehicle id="flow.2" x="199.37" y="0.00" angle="90.00" type="flow@flow.2" speed="13.00" pos="199.37" lane="0_0" slope="0.00"/>
        <vehicle id="flow.3" x="179.73" y="0.00" angle="90.00" type="flow@flow.3" speed="13.51" pos="179.73" lane="0_0" slope="0.00"/>
        <vehicle id="flow.4" x="158.54" y="0.00" angle="90.00" type="flow@flow.4" speed="13.60" pos="158.54" lane="0_0" slope="0.00"/>
        <vehicle id="flow.5" x="109.05" y="0.00" angle="90.00" type="flow@flow.5" speed="11.72" pos="109.05" lane="0_0" slope="0.00"/>
        <vehicle id="flow.6" x="81.82" y="0.00" angle="90.00" type="flow@flow.6" speed="14.24" pos="81.82" lane="0_0" slope="0.00"/>
        <vehicle id="flow.7" x="56.19" y="0.00" angle="90.00" type="flow@flow.7" speed="12.37" pos="56.19" lane="0_0" slope="0.00"/>
        <vehicle id="flow.8" x="22.40" y="0.00" angle="90.00" type="flow@flow.8" speed="7.80" pos="22.40" lane="0_0" slope="0.00"/>
        <vehicle id="flow.9" x="8.18" y="0.00" angle="90.00" type="flow@flow.9" speed="3.08" pos="8.18" lane="0_0" slope="0.00"/>
    </timestep>
    <timestep time="21.00">
        <vehicle id="first" x="288.06" y="0.00" angle="90.00" type="DEFAULT_VEHTYPE@first" speed="7.62" pos="288.06" lane="0_0" slope="0.00"/>
        <vehicle id="flow.0" x="270.67" y="0.00" angle="90.00" type="flow@flow.0" speed="10.10" pos="270.67" lane="0_0" slope="0.00"/>
        <vehicle id="flow.1" x="233.75" y="0.00" angle="90.00" type="flow@flow.1" speed="13.00" pos="233.75" lane="0_0" slope="0.00"/>
        <vehicle id="flow.2" x="212.60" y="0.00" angle="90.00" type="flow@flow.2" speed="13.23" pos="212.60" lane="0_0" slope="0.00"/>
        <vehicle id="flow.3" x="193.09" y="0.00" angle="90.00" type="flow@flow.3" speed="13.36" pos="193.09" lane="0_0" slope="0.00"/>
        <vehicle id="flow.4" x="172.46" y="0.00" angle="90.00" type="flow@flow.4" speed="13.92" pos="172.46" lane="0_0" slope="0.00"/>
        <vehicle id="flow.5" x="120.63" y="0.00" angle="90.00" type="flow@flow.5" speed="11.58" pos="120.63" lane="0_0" slope="0.00"/>
        <vehicle id="flow.6" x="96.22" y="0.00" angle="90.00" type="flow@flow.6" speed="14.40" pos="96.22" lane="0_0" slope="0.00"/>
        <vehicle id="flow.7" x="68.52" y="0.00" angle="90.00" type="flow@flow.7" speed="12.32" pos="68.52" lane="0_0" slope="0.00"/>
        <vehicle id="flow.8" x="32.11" y="0.00" angle="90.00" type="flow@flow.8" speed="9.70" pos="32.11" lane="0_0" slope="0.00"/>
        <vehicle id="flow.9" x="13.54" y="0.00" angle="90.00" type="flow@flow.9" speed="5.36" pos="13.54" lane="0_0" slope="0.00"/>
    </timestep>
    <timestep time="22.00">
        <vehicle id="first" x="293.34" y="0.00" angle="90.00" type="DEFAULT_VEHTYPE@first" speed="5.28" pos="293.34" lane="0_0" slope="0.00"/>
        <vehicle id="flow.0" x="278.14" y="0.00" angle="90.00" type="flow@flow.0" speed="7.47" pos="278.14" lane="0_0" slope="0.00"/>
        <vehicle id="flow.1" x="246.90" y="0.00" angle="90.00" type="flow@flow.1" speed="13.15" pos="246.90" lane="0_0" slope="0.00"/>
        <vehicle id="flow.2" x="226.04" y="0.00" angle="90.00" type="flow@flow.2" speed="13.44" pos="226.04" lane="0_0" slope="0.00"/>
        <vehicle id="flow.3" x="206.69" y="0.00" angle="90.00" type="flow@flow.3" speed="13.60" pos="206.69" lane="0_0" slope="0.00"/>
        <vehicle id="flow.4" x="186.15" y="0.00" angle="90.00" type="flow@flow.4" speed="13.69" pos="186.15" lane="0_0" slope="0.00"/>
        <vehicle id="flow.5" x="132.16" y="0.00" angle="90.00" type="flow@flow.5" speed="11.52" pos="132.16" lane="0_0" slope="0.00"/>
        <vehicle id="flow.6" x="109.46" y="0.00" angle="90.00" type="flow@flow.6" speed="13.24" pos="109.46" lane="0_0" slope="0.00"/>
        <vehicle id="flow.7" x="80.80" y="0.00" angle="90.00" type="flow@flow.7" speed="12.29" pos="80.80" lane="0_0" slope="0.00"/>
        <vehicle id="flow.8" x="43.40" y="0.00" angle="90.00" type="flow@flow.8" speed="11.29" pos="43.40" lane="0_0" slope="0.00"/>
        <vehicle id="flow.9" x="21.14" y="0.00" angle="90.00" type="flow@flow.9" speed="7.59" pos="21.14" lane="0_0" slope="0.00"/>
    </timestep>
    <timestep time="23.00">
        <vehicle id="first" x="296.05" y="0.00" angle="90.00" type="DEFAULT_VEHTYPE@first" speed="2.71" pos="296.05" lane="0_0" slope="0.00"/>
        <vehicle id="flow.0" x="283.68" y="0.00" angle="90.00" type="flow@flow.0" speed="5.55" pos="283.68" lane="0_0" slope="0.00"/>
        <vehicle id="flow.1" x="259.53" y="0.00" angle="90.00" type="flow@flow.1" speed="12.63" pos="259.53" lane="0_0" slope="0.00"/>
        <vehicle id="flow.2" x="239.58" y="0.00" angle="90.00" type="flow@flow.2" speed="13.54" pos="239.58" lane="0_0" slope="0.00"/>
        <vehicle id="flow.3" x="220.11" y="0.00" angle="90.00" type="flow@flow.3" speed="13.42" pos="220.11" lane="0_0" slope="0.00"/>
        <vehicle id="flow.4" x="199.47" y="0.00" angle="90.00" type="flow@flow.4" speed="13.32" pos="199.47" lane="0_0" slope="0.00"/>
        <vehicle id="flow.5" x="143.62" y="0.00" angle="90.00" type="flow@flow.5" speed="11.46" pos="143.62" lane="0_0" slope="0.00"/>
        <vehicle id="flow.6" x="122.09" y="0.00" angle="90.00" type="flow@flow.6" speed="12.63" pos="122.09" lane="0_0" slope="0.00"/>
        <vehicle id="flow.7" x="93.06" y="0.00" angle="90.00" type="flow@flow.7" speed="12.26" pos="93.06" lane="0_0" slope="0.00"/>
        <vehicle id="flow.8" x="55.57" y="0.00" angle="90.00" type="flow@flow.8" speed="12.17" pos="55.57" lane="0_0" slope="0.00"/>
        <vehicle id="flow.9" x="30.62" y="0.00" angle="90.00" type="flow@flow.9" speed="9.48" pos="30.62" lane="0_0" slope="0.00"/>
    </timestep>
    <timestep time="24.00">
        <vehicle id="first" x="298.09" y="0.00" angle="90.00" type="DEFAULT_VEHTYPE@first" speed="2.05" pos="298.09" lane="0_0" slope="0.00"/>
        <vehicle id="flow.0" x="285.59" y="0.00" angle="90.00" type="flow@flow.0" speed="1.90" pos="285.59" lane="0_0" slope="0.00"/>
        <vehicle id="flow.1" x="268.03" y="0.00" angle="90.00" type="flow@flow.1" speed="8.50" pos="268.03" lane="0_0" slope="0.00"/>
        <vehicle id="flow.2" x="252.12" y="0.00" angle="90.00" type="flow@flow.2" speed="12.54" pos="252.12" lane="0_0" slope="0.00"/>
        <vehicle id="flow.3" x="233.59" y="0.00" angle="90.00" type="flow@flow.3" speed="13.48" pos="233.59" lane="0_0" slope="0.00"/>
        <vehicle id="flow.4" x="212.91" y="0.00" angle="90.00" type="flow@flow.4" speed="13.44" pos="212.91" lane="0_0" slope="0.00"/>
        <vehicle id="flow.5" x="154.98" y="0.00" angle="90.00" type="flow@flow.5" speed="11.36" pos="154.98" lane="0_0" slope="0.00"/>
        <vehicle id="flow.6" x="134.38" y="0.00" angle="90.00" type="flow@flow.6" speed="12.29" pos="134.38" lane="0_0" slope="0.00"/>
        <vehicle id="flow.7" x="105.29" y="0.00" angle="90.00" type="flow@flow.7" speed="12.23" pos="105.29" lane="0_0" slope="0.00"/>
        <vehicle id="flow.8" x="68.09" y="0.00" angle="90.00" type="flow@flow.8" speed="12.52" pos="68.09" lane="0_0" slope="0.00"/>
        <vehicle id="flow.9" x="41.52" y="0.00" angle="90.00" type="flow@flow.9" speed="10.91" pos="41.52" lane="0_0" slope="0.00"/>
    </timestep>
    <timestep time="25.00">
        <vehicle id="first" x="298.09" y="0.00" angle="90.00" type="DEFAULT_VEHTYPE@first" speed="0.00" pos="298.09" lane="0_0" slope="0.00"/>
        <vehicle id="flow.0" x="287.58" y="0.00" angle="90.00" type="flow@flow.0" speed="1.99" pos="287.58" lane="0_0" slope="0.00"/>
        <vehicle id="flow.1" x="272.20" y="0.00" angle="90.00" type="flow@flow.1" speed="4.17" pos="272.20" lane="0_0" slope="0.00"/>
        <vehicle id="flow.2" x="257.11" y="0.00" angle="90.00" type="flow@flow.2" speed="4.99" pos="257.11" lane="0_0" slope="0.00"/>
        <vehicle id="flow.3" x="245.98" y="0.00" angle="90.00" type="flow@flow.3" speed="12.39" pos="245.98" lane="0_0" slope="0.00"/>
        <vehicle id="flow.4" x="226.48" y="0.00" angle="90.00" type="flow@flow.4" speed="13.57" pos="226.48" lane="0_0" slope="0.00"/>
        <vehicle id="flow.5" x="166.47" y="0.00" angle="90.00" type="flow@flow.5" speed="11.49" pos="166.47" lane="0_0" slope="0.00"/>
        <vehicle id="flow.6" x="146.25" y="0.00" angle="90.00" type="flow@flow.6" speed="11.87" pos="146.25" lane="0_0" slope="0.00"/>
        <vehicle id="flow.7" x="117.47" y="0.00" angle="90.00" type="flow@flow.7" speed="12.18" pos="117.47" lane="0_0" slope="0.00"/>
        <vehicle id="flow.8" x="80.81" y="0.00" angle="90.00" type="flow@flow.8" speed="12.72" pos="80.81" lane="0_0" slope="0.00"/>
        <vehicle id="flow.9" x="53.20" y="0.00" angle="90.00" type="flow@flow.9" speed="11.68" pos="53.20" lane="0_0" slope="0.00"/>
    </timestep>
    <timestep time="26.00">
        <vehicle id="first" x="298.17" y="0.00" angle="90.00" type="DEFAULT_VEHTYPE@first" speed="0.08" pos="298.17" lane="0_0" slope="0.00"/>
        <vehicle id="flow.0" x="289.41" y="0.00" angle="90.00" type="flow@flow.0" speed="1.83" pos="289.41" lane="0_0" slope="0.00"/>
        <vehicle id="flow.1" x="277.35" y="0.00" angle="90.00" type="flow@flow.1" speed="5.15" pos="277.35" lane="0_0" slope="0.00"/>
        <vehicle id="flow.2" x="260.55" y="0.00" angle="90.00" type="flow@flow.2" speed="3.44" pos="260.55" lane="0_0" slope="0.00"/>
        <vehicle id="flow.3" x="245.98" y="0.00" angle="90.00" type="flow@flow.3" speed="0.00" pos="245.98" lane="0_0" slope="0.00"/>
        <vehicle id="flow.4" x="238.71" y="0.00" angle="90.00" type="flow@flow.4" speed="12.24" pos="238.71" lane="0_0" slope="0.00"/>
        <vehicle id="flow.5" x="177.97" y="0.00" angle="90.00" type="flow@flow.5" speed="11.50" pos="177.97" lane="0_0" slope="0.00"/>
        <vehicle id="flow.6" x="158.00" y="0.00" angle="90.00" type="flow@flow.6" speed="11.75" pos="158.00" lane="0_0" slope="0.00"/>
        <vehicle id="flow.7" x="129.66" y="0.00" angle="90.00" type="flow@flow.7" speed="12.19" pos="129.66" lane="0_0" slope="0.00"/>
        <vehicle id="flow.8" x="93.61" y="0.00" angle="90.00" type="flow@flow.8" speed="12.80" pos="93.61" lane="0_0" slope="0.00"/>