<?xml version="1.0"?>

<!-- generated on 07/05/11 11:59:52 by SUMO sumo Version dev-SVN-r10841
<?xml version="1.0" encoding="iso-8859-1"?>

<configuration xmlns:xsi="http://www.w3.org/2001/XMLSchema-instance" xsi:noNamespaceSchemaLocation="http://sumo.sf.net/xsd/sumoConfiguration.xsd">

    <input>
        <net-file value="net.net.xml"/>
        <route-files value="routes.rou.xml"/>
    </input>

    <output>
        <netstate-dump value="netstate_dump.xml"/>
    </output>

    <report>
        <no-step-log value="true"/>
    </report>

    <traci_server>
        <remote-port value="8804"/>
    </traci_server>

</configuration>
-->

<sumo-netstate>
    <timestep time="0.00">
        <edge id="e_m0">
            <lane id="e_m0_0">
                <vehicle id="veh0" pos="0.00" speed="0.00"/>
            </lane>
            <lane id="e_m0_1"/>
            <lane id="e_m0_2"/>
        </edge>
    </timestep>
    <timestep time="1.00">
        <edge id="e_m0">
            <lane id="e_m0_0">
                <vehicle id="veh0" pos="0.80" speed="0.80"/>
            </lane>
            <lane id="e_m0_1"/>
            <lane id="e_m0_2"/>
        </edge>
    </timestep>
    <timestep time="2.00">
        <edge id="e_m0">
            <lane id="e_m0_0">
                <vehicle id="veh0" pos="2.39" speed="1.59"/>
            </lane>
            <lane id="e_m0_1"/>
            <lane id="e_m0_2"/>
        </edge>
    </timestep>
    <timestep time="3.00">
        <edge id="e_m0">
            <lane id="e_m0_0">
                <vehicle id="veh0" pos="4.76" speed="2.37"/>
            </lane>
            <lane id="e_m0_1"/>
            <lane id="e_m0_2"/>
        </edge>
    </timestep>
    <timestep time="4.00">
        <edge id="e_m0">
            <lane id="e_m0_0">
                <vehicle id="veh0" pos="7.91" speed="3.15"/>
            </lane>
            <lane id="e_m0_1"/>
            <lane id="e_m0_2"/>
        </edge>
    </timestep>
    <timestep time="5.00">
        <edge id="e_m0">
            <lane id="e_m0_0">
                <vehicle id="veh0" pos="22.91" speed="15.00"/>
            </lane>
            <lane id="e_m0_1"/>
            <lane id="e_m0_2"/>
        </edge>
    </timestep>
    <timestep time="6.00">
        <edge id="e_m0">
            <lane id="e_m0_0">
                <vehicle id="veh0" pos="37.91" speed="15.00"/>
            </lane>
            <lane id="e_m0_1"/>
            <lane id="e_m0_2"/>
        </edge>
    </timestep>
    <timestep time="7.00">
        <edge id="e_m0">
            <lane id="e_m0_0">
                <vehicle id="veh0" pos="52.91" speed="15.00"/>
            </lane>
            <lane id="e_m0_1"/>
            <lane id="e_m0_2"/>
        </edge>
    </timestep>
    <timestep time="8.00">
        <edge id="e_m0">
            <lane id="e_m0_0">
                <vehicle id="veh0" pos="67.91" speed="15.00"/>
            </lane>
            <lane id="e_m0_1"/>
            <lane id="e_m0_2"/>
        </edge>
    </timestep>
    <timestep time="9.00">
        <edge id="e_m0">
            <lane id="e_m0_0">
                <vehicle id="veh0" pos="82.91" speed="15.00"/>
            </lane>
            <lane id="e_m0_1"/>
            <lane id="e_m0_2"/>
        </edge>
    </timestep>
    <timestep time="10.00">
        <edge id="e_m0">
            <lane id="e_m0_0">
                <vehicle id="veh0" pos="97.91" speed="15.00"/>
            </lane>
            <lane id="e_m0_1"/>
            <lane id="e_m0_2"/>
        </edge>
    </timestep>
    <timestep time="11.00">
        <edge id="e_m0">
            <lane id="e_m0_0">
                <vehicle id="veh0" pos="112.91" speed="15.00"/>
            </lane>
            <lane id="e_m0_1"/>
            <lane id="e_m0_2"/>
        </edge>
    </timestep>
    <timestep time="12.00">
        <edge id="e_m0">
            <lane id="e_m0_0">
                <vehicle id="veh0" pos="127.91" speed="15.00"/>
            </lane>
            <lane id="e_m0_1"/>
            <lane id="e_m0_2"/>
        </edge>
    </timestep>
    <timestep time="13.00">
        <edge id="e_m0">
            <lane id="e_m0_0">
                <vehicle id="veh0" pos="142.91" speed="15.00"/>
            </lane>
            <lane id="e_m0_1"/>
            <lane id="e_m0_2"/>
        </edge>
    </timestep>
    <timestep time="14.00">
        <edge id="e_m0">
            <lane id="e_m0_0">
                <vehicle id="veh0" pos="157.91" speed="15.00"/>
            </lane>
            <lane id="e_m0_1"/>
            <lane id="e_m0_2"/>
        </edge>
    </timestep>
    <timestep time="15.00">
        <edge id="e_m0">
            <lane id="e_m0_0">
                <vehicle id="veh0" pos="168.41" speed="10.50"/>
            </lane>
            <lane id="e_m0_1"/>
            <lane id="e_m0_2"/>
        </edge>
    </timestep>
    <timestep time="16.00">
        <edge id="e_m0">
            <lane id="e_m0_0">
                <vehicle id="veh0" pos="174.41" speed="6.00"/>
            </lane>
            <lane id="e_m0_1"/>
            <lane id="e_m0_2"/>
        </edge>
    </timestep>
    <timestep time="17.00">
        <edge id="e_m0">
            <lane id="e_m0_0">
                <vehicle id="veh0" pos="179.41" speed="5.00"/>
            </lane>
            <lane id="e_m0_1"/>
            <lane id="e_m0_2"/>
        </edge>
    </timestep>
    <timestep time="18.00">
        <edge id="e_m0">
            <lane id="e_m0_0">
                <vehicle id="veh0" pos="184.41" speed="5.00"/>
            </lane>
            <lane id="e_m0_1"/>
            <lane id="e_m0_2"/>
        </edge>
    </timestep>
    <timestep time="19.00">
        <edge id="e_m0">
            <lane id="e_m0_0">
                <vehicle id="veh0" pos="189.41" speed="5.00"/>
            </lane>
            <lane id="e_m0_1"/>
            <lane id="e_m0_2"/>
        </edge>
    </timestep>
    <timestep time="20.00">
        <edge id="e_m0">
            <lane id="e_m0_0">
                <vehicle id="veh0" pos="194.41" speed="5.00"/>
            </lane>
            <lane id="e_m0_1"/>
            <lane id="e_m0_2"/>
        </edge>
    </timestep>
    <timestep time="21.00">
        <edge id="e_m0">
            <lane id="e_m0_0">
                <vehicle id="veh0" pos="199.41" speed="5.00"/>
            </lane>
            <lane id="e_m0_1"/>
            <lane id="e_m0_2"/>
        </edge>
    </timestep>
    <timestep time="22.00">
        <edge id="e_m0">
            <lane id="e_m0_0">
                <vehicle id="veh0" pos="204.41" speed="5.00"/>
            </lane>
            <lane id="e_m0_1"/>
            <lane id="e_m0_2"/>
        </edge>
    </timestep>
    <timestep time="23.00">
        <edge id="e_m0">
            <lane id="e_m0_0">
                <vehicle id="veh0" pos="209.41" speed="5.00"/>
            </lane>
            <lane id="e_m0_1"/>
            <lane id="e_m0_2"/>
        </edge>
    </timestep>
    <timestep time="24.00">
        <edge id="e_m0">
            <lane id="e_m0_0">
                <vehicle id="veh0" pos="214.41" speed="5.00"/>
            </lane>
            <lane id="e_m0_1"/>
            <lane id="e_m0_2"/>
        </edge>
    </timestep>
    <timestep time="25.00">
        <edge id="e_m0">
            <lane id="e_m0_0">
                <vehicle id="veh0" pos="220.15" speed="5.74"/>
            </lane>
            <lane id="e_m0_1"/>
            <lane id="e_m0_2"/>
        </edge>
    </timestep>
    <timestep time="26.00">
        <edge id="e_m0">
            <lane id="e_m0_0">
                <vehicle id="veh0" pos="226.63" speed="6.48"/>
            </lane>
            <lane id="e_m0_1"/>
            <lane id="e_m0_2"/>
        </edge>
    </timestep>
    <timestep time="27.00">
        <edge id="e_m0">
            <lane id="e_m0_0">
                <vehicle id="veh0" pos="233.83" speed="7.20"/>
            </lane>
            <lane id="e_m0_1"/>
            <lane id="e_m0_2"/>
        </edge>
    </timestep>
    <timestep time="28.00">
        <edge id="e_m0">
            <lane id="e_m0_0">
                <vehicle id="veh0" pos="241.75" speed="7.92"/>
            </lane>
            <lane id="e_m0_1"/>
            <lane id="e_m0_2"/>
        </edge>
    </timestep>
    <timestep time="29.00">
        <edge id="e_m0">
            <lane id="e_m0_0">
                <vehicle id="veh0" pos="250.38" speed="8.63"/>
            </lane>
            <lane id="e_m0_1"/>
            <lane id="e_m0_2"/>
        </edge>
    </timestep>
    <timestep time="30.00">
        <edge id="e_m0">
            <lane id="e_m0_0">
                <vehicle id="veh0" pos="259.72" speed="9.33"/>
            </lane>
            <lane id="e_m0_1"/>
            <lane id="e_m0_2"/>
        </edge>
    </timestep>
    <timestep time="31.00">
        <edge id="e_m0">
            <lane id="e_m0_0">
                <vehicle id="veh0" pos="269.74" speed="10.03"/>
            </lane>
            <lane id="e_m0_1"/>
            <lane id="e_m0_2"/>
        </edge>
    </timestep>
    <timestep time="32.00">
        <edge id="e_m0">
            <lane id="e_m0_0">
                <vehicle id="veh0" pos="280.45" speed="10.71"/>
            </lane>
            <lane id="e_m0_1"/>
            <lane id="e_m0_2"/>
        </edge>
    </timestep>
    <timestep time="33.00">
        <edge id="e_m0">
            <lane id="e_m0_0">
                <vehicle id="veh0" pos="291.84" speed="11.39"/>
            </lane>
            <lane id="e_m0_1"/>
            <lane id="e_m0_2"/>
        </edge>
    </timestep>
    <timestep time="34.00">
        <edge id="e_m0">
            <lane id="e_m0_0">
                <vehicle id="veh0" pos="303.90" speed="12.06"/>
            </lane>
            <lane id="e_m0_1"/>
            <lane id="e_m0_2"/>
        </edge>
    </timestep>
    <timestep time="35.00">
        <edge id="e_m0">
            <lane id="e_m0_0">
                <vehicle id="veh0" pos="316.62" speed="12.72"/>
            </lane>
            <lane id="e_m0_1"/>
            <lane id="e_m0_2"/>
        </edge>
    </timestep>
</sumo-netstate>
