<?xml version="1.0" encoding="UTF-8"?>

<!-- generated on Wed Mar 11 22:22:41 2020 by Eclipse SUMO Version v1_5_0+0662-a598ecae47
This data file and the accompanying materials
are made available under the terms of the Eclipse Public License v2.0
which accompanies this distribution, and is available at
http://www.eclipse.org/legal/epl-v20.html
SPDX-License-Identifier: EPL-2.0
<configuration xmlns:xsi="http://www.w3.org/2001/XMLSchema-instance" xsi:noNamespaceSchemaLocation="http://sumo.dlr.de/xsd/sumoConfiguration.xsd">

    <input>
        <net-file value="net.net.xml"/>
        <additional-files value="input_additional.add.xml,input_additional2.add.xml"/>
    </input>

    <output>
        <write-license value="true"/>
        <vehroute-output value="vehroutes.xml"/>
        <vehroute-output.write-unfinished value="true"/>
        <stop-output value="stopinfos.xml"/>
    </output>

    <time>
        <end value="1000"/>
    </time>

    <processing>
        <default.speeddev value="0"/>
    </processing>

    <report>
        <xml-validation value="never"/>
        <duration-log.disable value="true"/>
        <no-step-log value="true"/>
    </report>

</configuration>
-->

<stops xmlns:xsi="http://www.w3.org/2001/XMLSchema-instance" xsi:noNamespaceSchemaLocation="http://sumo.dlr.de/xsd/stopinfo_file.xsd">
    <stopinfo id="veh0" type="DEFAULT_VEHTYPE" lane="1fi_0" pos="6.00" parking="0" started="3.00" ended="61.00" delay="0.00" initialPersons="0" loadedPersons="0" unloadedPersons="0" initialContainers="0" loadedContainers="0" unloadedContainers="0"/>
    <stopinfo id="veh0" type="DEFAULT_VEHTYPE" lane="1si_0" pos="4.00" parking="0" started="86.00" ended="121.00" delay="0.00" initialPersons="0" loadedPersons="0" unloadedPersons="0" initialContainers="0" loadedContainers="0" unloadedContainers="0"/>
    <stopinfo id="veh0" type="DEFAULT_VEHTYPE" lane="1fi_0" pos="6.00" parking="0" started="188.00" ended="261.00" delay="0.00" initialPersons="0" loadedPersons="0" unloadedPersons="0" initialContainers="0" loadedContainers="0" unloadedContainers="0"/>
    <stopinfo id="veh0" type="DEFAULT_VEHTYPE" lane="1si_0" pos="4.00" parking="0" started="286.00" ended="321.00" delay="0.00" initialPersons="0" loadedPersons="0" unloadedPersons="0" initialContainers="0" loadedContainers="0" unloadedContainers="0"/>
    <stopinfo id="veh0" type="DEFAULT_VEHTYPE" lane="1fi_0" pos="6.00" parking="0" started="388.00" ended="461.00" delay="0.00" initialPersons="0" loadedPersons="0" unloadedPersons="0" initialContainers="0" loadedContainers="0" unloadedContainers="0"/>
    <stopinfo id="veh0" type="DEFAULT_VEHTYPE" lane="1si_0" pos="4.00" parking="0" started="486.00" ended="521.00" delay="0.00" initialPersons="0" loadedPersons="0" unloadedPersons="0" initialContainers="0" loadedContainers="0" unloadedContainers="0"/>
    <stopinfo id="veh0" type="DEFAULT_VEHTYPE" lane="1fi_0" pos="6.00" parking="0" started="633.00" ended="661.00" delay="0.00" initialPersons="0" loadedPersons="0" unloadedPersons="0" initialContainers="0" loadedContainers="0" unloadedContainers="0"/>
    <stopinfo id="veh0" type="DEFAULT_VEHTYPE" lane="1si_0" pos="4.00" parking="0" started="686.00" ended="721.00" delay="0.00" initialPersons="0" loadedPersons="0" unloadedPersons="0" initialContainers="0" loadedContainers="0" unloadedContainers="0"/>
    <stopinfo id="veh0" type="DEFAULT_VEHTYPE" lane="1fi_0" pos="6.00" parking="0" started="813.00" ended="861.00" delay="0.00" initialPersons="0" loadedPersons="0" unloadedPersons="0" initialContainers="0" loadedContainers="0" unloadedContainers="0"/>
    <stopinfo id="veh0" type="DEFAULT_VEHTYPE" lane="1si_0" pos="4.00" parking="0" started="886.00" ended="921.00" delay="0.00" initialPersons="0" loadedPersons="0" unloadedPersons="0" initialContainers="0" loadedContainers="0" unloadedContainers="0"/>
</stops>
