<?xml version="1.0" encoding="UTF-8"?>

<!-- generated on Fri Feb 14 21:57:42 2020 by Eclipse SUMO Version v1_5_0+0064-8279e94a94
This data file and the accompanying materials
are made available under the terms of the Eclipse Public License v2.0
which accompanies this distribution, and is available at
http://www.eclipse.org/legal/epl-v20.html
SPDX-License-Identifier: EPL-2.0
<configuration xmlns:xsi="http://www.w3.org/2001/XMLSchema-instance" xsi:noNamespaceSchemaLocation="http://sumo.dlr.de/xsd/sumoConfiguration.xsd">

    <input>
        <net-file value="net.net.xml"/>
        <additional-files value="input_additional.add.xml,input_additional2.add.xml"/>
    </input>

    <output>
        <write-license value="true"/>
        <vehroute-output value="vehroutes.xml"/>
        <vehroute-output.write-unfinished value="true"/>
        <stop-output value="stopinfos.xml"/>
    </output>

    <time>
        <end value="1000"/>
    </time>

    <processing>
        <default.speeddev value="0"/>
    </processing>

    <report>
        <xml-validation value="never"/>
        <duration-log.disable value="true"/>
        <no-step-log value="true"/>
    </report>

</configuration>
-->

<stops xmlns:xsi="http://www.w3.org/2001/XMLSchema-instance" xsi:noNamespaceSchemaLocation="http://sumo.dlr.de/xsd/stopinfo_file.xsd">
    <stopinfo id="veh0" type="DEFAULT_VEHTYPE" lane="1fi_0" pos="6.00" parking="0" started="3.00" ended="62.00" delay="1.00" initialPersons="0" loadedPersons="0" unloadedPersons="0" initialContainers="0" loadedContainers="0" unloadedContainers="0"/>
    <stopinfo id="veh0" type="DEFAULT_VEHTYPE" lane="1si_0" pos="4.00" parking="0" started="87.00" ended="122.00" delay="1.00" initialPersons="0" loadedPersons="0" unloadedPersons="0" initialContainers="0" loadedContainers="0" unloadedContainers="0"/>
    <stopinfo id="veh0" type="DEFAULT_VEHTYPE" lane="1fi_0" pos="6.00" parking="0" started="189.00" ended="262.00" delay="1.00" initialPersons="0" loadedPersons="0" unloadedPersons="0" initialContainers="0" loadedContainers="0" unloadedContainers="0"/>
    <stopinfo id="veh0" type="DEFAULT_VEHTYPE" lane="1si_0" pos="4.00" parking="0" started="287.00" ended="322.00" delay="1.00" initialPersons="0" loadedPersons="0" unloadedPersons="0" initialContainers="0" loadedContainers="0" unloadedContainers="0"/>
    <stopinfo id="veh0" type="DEFAULT_VEHTYPE" lane="1fi_0" pos="6.00" parking="0" started="389.00" ended="462.00" delay="1.00" initialPersons="0" loadedPersons="0" unloadedPersons="0" initialContainers="0" loadedContainers="0" unloadedContainers="0"/>
    <stopinfo id="veh0" type="DEFAULT_VEHTYPE" lane="1si_0" pos="4.00" parking="0" started="487.00" ended="522.00" delay="1.00" initialPersons="0" loadedPersons="0" unloadedPersons="0" initialContainers="0" loadedContainers="0" unloadedContainers="0"/>
    <stopinfo id="veh0" type="DEFAULT_VEHTYPE" lane="1fi_0" pos="6.00" parking="0" started="633.00" ended="662.00" delay="1.00" initialPersons="0" loadedPersons="0" unloadedPersons="0" initialContainers="0" loadedContainers="0" unloadedContainers="0"/>
    <stopinfo id="veh0" type="DEFAULT_VEHTYPE" lane="1si_0" pos="4.00" parking="0" started="687.00" ended="722.00" delay="1.00" initialPersons="0" loadedPersons="0" unloadedPersons="0" initialContainers="0" loadedContainers="0" unloadedContainers="0"/>
    <stopinfo id="veh0" type="DEFAULT_VEHTYPE" lane="1fi_0" pos="6.00" parking="0" started="813.00" ended="862.00" delay="1.00" initialPersons="0" loadedPersons="0" unloadedPersons="0" initialContainers="0" loadedContainers="0" unloadedContainers="0"/>
    <stopinfo id="veh0" type="DEFAULT_VEHTYPE" lane="1si_0" pos="4.00" parking="0" started="887.00" ended="922.00" delay="1.00" initialPersons="0" loadedPersons="0" unloadedPersons="0" initialContainers="0" loadedContainers="0" unloadedContainers="0"/>
</stops>
