<?xml version="1.0" encoding="UTF-8"?>

<!-- generated on Wed Feb 19 22:17:35 2020 by Eclipse SUMO Version v1_5_0+0174-0b4d252505
This data file and the accompanying materials
are made available under the terms of the Eclipse Public License v2.0
which accompanies this distribution, and is available at
http://www.eclipse.org/legal/epl-v20.html
SPDX-License-Identifier: EPL-2.0
<configuration xmlns:xsi="http://www.w3.org/2001/XMLSchema-instance" xsi:noNamespaceSchemaLocation="http://sumo.dlr.de/xsd/sumoConfiguration.xsd">

    <input>
        <net-file value="net.net.xml"/>
        <additional-files value="input_additional.add.xml,input_additional2.add.xml"/>
    </input>

    <output>
        <write-license value="true"/>
        <vehroute-output value="vehroutes.xml"/>
        <vehroute-output.write-unfinished value="true"/>
        <stop-output value="stopinfos.xml"/>
    </output>

    <time>
        <end value="1000"/>
    </time>

    <processing>
        <default.speeddev value="0"/>
        <pedestrian.model value="nonInteracting"/>
    </processing>

    <report>
        <xml-validation value="never"/>
        <duration-log.disable value="true"/>
        <no-step-log value="true"/>
    </report>

    <mesoscopic>
        <mesosim value="true"/>
    </mesoscopic>

</configuration>
-->

<routes xmlns:xsi="http://www.w3.org/2001/XMLSchema-instance" xsi:noNamespaceSchemaLocation="http://sumo.dlr.de/xsd/routes_file.xsd">
    <vehicle id="veh0" depart="1.00">
        <routeDistribution>
            <route replacedOnEdge="1o" reason="rerouter" replacedAtTime="139.00" probability="0" edges="1fi 1si 1o 1fi 1si 1o 1fi 1si 1o"/>
            <route replacedOnEdge="1o" reason="rerouter" replacedAtTime="222.00" probability="0" edges="1fi 1si 1o 1fi 1si 1o 1fi 1si 1o"/>
            <route replacedOnEdge="1o" reason="rerouter" replacedAtTime="305.00" probability="0" edges="1fi 1si 1o 1fi 1si 1o 1fi 1si 1o"/>
            <route replacedOnEdge="1o" reason="rerouter" replacedAtTime="389.00" probability="0" edges="1fi 1si 1o 1fi 1si 1o 1fi 1si 1o"/>
            <route replacedOnEdge="1o" reason="rerouter" replacedAtTime="472.00" probability="0" edges="1fi 1si 1o 1fi 1si 1o 1fi 1si 1o"/>
            <route replacedOnEdge="1o" reason="rerouter" replacedAtTime="556.00" probability="0" edges="1fi 1si 1o 1fi 1si 1o 1fi 1si 1o"/>
            <route replacedOnEdge="1o" reason="rerouter" replacedAtTime="639.00" probability="0" edges="1fi 1si 1o 1fi 1si 1o 1fi 1si 1o"/>
            <route replacedOnEdge="1o" reason="rerouter" replacedAtTime="723.00" probability="0" edges="1fi 1si 1o 1fi 1si 1o 1fi 1si 1o"/>
            <route replacedOnEdge="1o" reason="rerouter" replacedAtTime="806.00" probability="0" edges="1fi 1si 1o 1fi 1si 1o 1fi 1si 1o"/>
            <route replacedOnEdge="1o" reason="rerouter" replacedAtTime="889.00" probability="0" edges="1fi 1si 1o 1fi 1si 1o 1fi 1si 1o"/>
            <route replacedOnEdge="1o" reason="rerouter" replacedAtTime="973.00" probability="0" edges="1fi 1si 1o 1fi 1si 1o 1fi 1si 1o"/>
            <route edges="1fi 1si 1o 1fi 1si 1o 1fi 1si 1o"/>
        </routeDistribution>
        <stop lane="1fi_0" endPos="6.00" until="61.00"/>
        <stop lane="1si_0" endPos="4.00" until="121.00"/>
    </vehicle>

</routes>
