<?xml version="1.0" encoding="UTF-8"?>

<!-- generated on 10/10/18 14:03:36 by Eclipse SUMO Version v1_0_1+0209-42a0b935e0
This data file and the accompanying materials
are made available under the terms of the Eclipse Public License v2.0
which accompanies this distribution, and is available at
http://www.eclipse.org/legal/epl-v20.html
SPDX-License-Identifier: EPL-2.0
<configuration xmlns:xsi="http://www.w3.org/2001/XMLSchema-instance" xsi:noNamespaceSchemaLocation="http://sumo.dlr.de/xsd/sumoConfiguration.xsd">

    <input>
        <net-file value="net.net.xml"/>
        <route-files value="input_routes.rou.xml"/>
        <additional-files value="input_additional.add.xml"/>
    </input>

    <output>
        <write-license value="true"/>
        <vehroute-output value="vehroutes.xml"/>
        <vehroute-output.route-length value="true"/>
        <vehroute-output.skip-ptlines value="true"/>
    </output>

    <processing>
        <default.speeddev value="0"/>
    </processing>

    <report>
        <xml-validation value="never"/>
        <duration-log.disable value="true"/>
        <no-step-log value="true"/>
    </report>

</configuration>
-->

<routes xmlns:xsi="http://www.w3.org/2001/XMLSchema-instance" xsi:noNamespaceSchemaLocation="http://sumo.dlr.de/xsd/routes_file.xsd">
    <person id="p0" depart="0.00" arrival="661.00">
        <walk edges="beg" busStop="beg_0" routeLength="250.00"/> <!-- blubber&#45;&#45;zisch -->
        <ride from="beg" to="end" busStop="end_0" lines="bus" intended="bus.1" depart="310.00" routeLength="2512.30"/>
        <walk edges="end" routeLength="249.97"/>
    </person>

    <person id="p1" depart="0.00" arrival="998.00">
        <walk edges="end middle beg" routeLength="1250.00"/>
    </person>

</routes>
