<?xml version="1.0" encoding="UTF-8"?>

<!-- generated on Thu Aug 31 21:33:54 2017 by SUMO Version dev-SVN-r24506
<?xml version="1.0" encoding="UTF-8"?>

<configuration xmlns:xsi="http://www.w3.org/2001/XMLSchema-instance" xsi:noNamespaceSchemaLocation="http://sumo.dlr.de/xsd/sumoConfiguration.xsd">

    <input>
        <net-file value="net3.net.xml"/>
        <route-files value="input_routes.rou.xml"/>
        <additional-files value="input_additional2.add.xml"/>
    </input>

    <output>
        <tripinfo-output value="tripinfos.xml"/>
    </output>

    <processing>
        <collision.check-junctions value="true"/>
        <pedestrian.model value="striping"/>
        <pedestrian.striping.dawdling value="0"/>
    </processing>

    <report>
        <xml-validation value="never"/>
        <no-step-log value="true"/>
    </report>

</configuration>
-->

<tripinfos xmlns:xsi="http://www.w3.org/2001/XMLSchema-instance" xsi:noNamespaceSchemaLocation="http://sumo.dlr.de/xsd/tripinfo_file.xsd">
    <tripinfo id="EW.1" depart="2.00" departLane="EC_4" departPos="5.10" departSpeed="0.00" departDelay="0.00" arrival="27.00" arrivalLane="CW_4" arrivalPos="86.15" arrivalSpeed="13.89" duration="25.00" routeLength="194.90" waitSteps="4" timeLoss="10.36" rerouteNo="0" devices="tripinfo_EW.1" vType="car" speedFactor="1.00" vaporized=""/>
    <tripinfo id="EW.0" depart="1.00" departLane="EC_3" departPos="5.10" departSpeed="0.00" departDelay="0.00" arrival="28.00" arrivalLane="CW_3" arrivalPos="86.15" arrivalSpeed="13.89" duration="27.00" routeLength="194.90" waitSteps="6" timeLoss="12.36" rerouteNo="0" devices="tripinfo_EW.0" vType="car" speedFactor="1.00" vaporized=""/>
    <tripinfo id="EW.3" depart="10.00" departLane="EC_4" departPos="5.10" departSpeed="0.00" departDelay="0.00" arrival="28.00" arrivalLane="CW_4" arrivalPos="86.15" arrivalSpeed="13.89" duration="18.00" routeLength="194.90" waitSteps="0" timeLoss="3.93" rerouteNo="0" devices="tripinfo_EW.3" vType="car" speedFactor="1.00" vaporized=""/>
    <tripinfo id="EW.2" depart="9.00" departLane="EC_3" departPos="5.10" departSpeed="0.00" departDelay="0.00" arrival="29.00" arrivalLane="CW_3" arrivalPos="86.15" arrivalSpeed="13.89" duration="20.00" routeLength="194.90" waitSteps="0" timeLoss="5.90" rerouteNo="0" devices="tripinfo_EW.2" vType="car" speedFactor="1.00" vaporized=""/>
    <tripinfo id="EW.5" depart="13.00" departLane="EC_4" departPos="5.10" departSpeed="0.00" departDelay="0.00" arrival="30.00" arrivalLane="CW_4" arrivalPos="86.15" arrivalSpeed="13.89" duration="17.00" routeLength="194.90" waitSteps="0" timeLoss="2.65" rerouteNo="0" devices="tripinfo_EW.5" vType="car" speedFactor="1.00" vaporized=""/>
    <tripinfo id="EW.4" depart="11.00" departLane="EC_3" departPos="5.10" departSpeed="0.00" departDelay="0.00" arrival="31.00" arrivalLane="CW_3" arrivalPos="86.15" arrivalSpeed="13.89" duration="20.00" routeLength="194.90" waitSteps="0" timeLoss="5.44" rerouteNo="0" devices="tripinfo_EW.4" vType="car" speedFactor="1.00" vaporized=""/>
    <personinfo id="p0" depart="0.00">
        <walk arrival="84.00" arrivalPos="86.90"/>
    </personinfo>
</tripinfos>
