<?xml version="1.0" encoding="UTF-8"?>

<!-- generated on 2022-12-11 20:57:34 by Eclipse SUMO sumo Version v1_15_0+0944-c751163
This data file and the accompanying materials
are made available under the terms of the Eclipse Public License v2.0
which accompanies this distribution, and is available at
http://www.eclipse.org/legal/epl-v20.html
This file may also be made available under the following Secondary
Licenses when the conditions for such availability set forth in the Eclipse
Public License 2.0 are satisfied: GNU General Public License, version 2
or later which is available at
https://www.gnu.org/licenses/old-licenses/gpl-2.0-standalone.html
SPDX-License-Identifier: EPL-2.0 OR GPL-2.0-or-later
<configuration xmlns:xsi="http://www.w3.org/2001/XMLSchema-instance" xsi:noNamespaceSchemaLocation="http://sumo.dlr.de/xsd/sumoConfiguration.xsd">

    <input>
        <net-file value="net.net.xml"/>
        <route-files value="input_routes.rou.xml"/>
    </input>

    <output>
        <write-license value="true"/>
        <fcd-output value="fcd.xml"/>
    </output>

    <time>
        <end value="20"/>
    </time>

    <processing>
        <lateral-resolution value="0.8"/>
        <default.speeddev value="0"/>
    </processing>

    <report>
        <xml-validation value="never"/>
        <no-step-log value="true"/>
    </report>

</configuration>
-->

<fcd-export xmlns:xsi="http://www.w3.org/2001/XMLSchema-instance" xsi:noNamespaceSchemaLocation="http://sumo.dlr.de/xsd/fcd_file.xsd">
    <timestep time="0.00">
        <vehicle id="ego" x="98.75" y="1.65" angle="90.00" type="tEgo" speed="0.00" pos="100.78" lane="beg_1" slope="0.00"/>
        <vehicle id="neigh" x="98.75" y="-1.65" angle="90.00" type="tWide" speed="0.00" pos="100.78" lane="beg_0" slope="0.00"/>
    </timestep>
    <timestep time="1.00">
        <vehicle id="ego" x="101.30" y="0.95" angle="98.04" type="tEgo" speed="2.60" pos="103.38" lane="beg_1" slope="0.00"/>
        <vehicle id="neigh" x="101.30" y="-1.65" angle="90.00" type="tWide" speed="2.60" pos="103.38" lane="beg_0" slope="0.00"/>
    </timestep>
    <timestep time="2.00">
        <vehicle id="ego" x="105.61" y="0.95" angle="90.97" type="tEgo" speed="4.40" pos="107.78" lane="beg_1" slope="0.00"/>
        <vehicle id="neigh" x="101.39" y="-1.65" angle="90.00" type="tWide" speed="0.10" pos="103.48" lane="beg_0" slope="0.00"/>
    </timestep>
    <timestep time="3.00">
        <vehicle id="ego" x="105.61" y="0.95" angle="90.97" type="tEgo" speed="0.00" pos="107.78" lane="beg_1" slope="0.00"/>
        <vehicle id="neigh" x="101.39" y="-1.65" angle="90.00" type="tWide" speed="0.00" pos="103.48" lane="beg_0" slope="0.00"/>
    </timestep>
    <timestep time="4.00">
        <vehicle id="ego" x="105.61" y="0.95" angle="90.97" type="tEgo" speed="0.00" pos="107.78" lane="beg_1" slope="0.00"/>
        <vehicle id="neigh" x="101.39" y="-1.65" angle="90.00" type="tWide" speed="0.00" pos="103.48" lane="beg_0" slope="0.00"/>
    </timestep>
    <timestep time="5.00">
        <vehicle id="ego" x="105.61" y="0.95" angle="90.97" type="tEgo" speed="0.00" pos="107.78" lane="beg_1" slope="0.00"/>
        <vehicle id="neigh" x="101.39" y="-1.65" angle="90.00" type="tWide" speed="0.00" pos="103.48" lane="beg_0" slope="0.00"/>
    </timestep>
    <timestep time="6.00">
        <vehicle id="ego" x="105.61" y="0.95" angle="90.97" type="tEgo" speed="0.00" pos="107.78" lane="beg_1" slope="0.00"/>
        <vehicle id="neigh" x="101.39" y="-1.65" angle="90.00" type="tWide" speed="0.00" pos="103.48" lane="beg_0" slope="0.00"/>
    </timestep>
    <timestep time="7.00">
        <vehicle id="ego" x="105.61" y="0.95" angle="90.97" type="tEgo" speed="0.00" pos="107.78" lane="beg_1" slope="0.00"/>
        <vehicle id="neigh" x="101.39" y="-1.65" angle="90.00" type="tWide" speed="0.00" pos="103.48" lane="beg_0" slope="0.00"/>
    </timestep>
    <timestep time="8.00">
        <vehicle id="ego" x="105.61" y="0.95" angle="90.97" type="tEgo" speed="0.00" pos="107.78" lane="beg_1" slope="0.00"/>
        <vehicle id="neigh" x="101.39" y="-1.65" angle="90.00" type="tWide" speed="0.00" pos="103.48" lane="beg_0" slope="0.00"/>
    </timestep>
    <timestep time="9.00">
        <vehicle id="ego" x="105.61" y="0.95" angle="90.97" type="tEgo" speed="0.00" pos="107.78" lane="beg_1" slope="0.00"/>
        <vehicle id="neigh" x="101.39" y="-1.65" angle="90.00" type="tWide" speed="0.00" pos="103.48" lane="beg_0" slope="0.00"/>
    </timestep>
    <timestep time="10.00">
        <vehicle id="ego" x="105.61" y="0.95" angle="90.97" type="tEgo" speed="0.00" pos="107.78" lane="beg_1" slope="0.00"/>
        <vehicle id="neigh" x="101.39" y="-1.65" angle="90.00" type="tWide" speed="0.00" pos="103.48" lane="beg_0" slope="0.00"/>
    </timestep>
    <timestep time="11.00">
        <vehicle id="ego" x="105.61" y="0.95" angle="90.97" type="tEgo" speed="0.00" pos="107.78" lane="beg_1" slope="0.00"/>
        <vehicle id="neigh" x="101.39" y="-1.65" angle="90.00" type="tWide" speed="0.00" pos="103.48" lane="beg_0" slope="0.00"/>
    </timestep>
    <timestep time="12.00">
        <vehicle id="ego" x="105.61" y="0.95" angle="90.97" type="tEgo" speed="0.00" pos="107.78" lane="beg_1" slope="0.00"/>
        <vehicle id="neigh" x="101.39" y="-1.65" angle="90.00" type="tWide" speed="0.00" pos="103.48" lane="beg_0" slope="0.00"/>
    </timestep>
    <timestep time="13.00">
        <vehicle id="ego" x="105.61" y="0.95" angle="90.97" type="tEgo" speed="0.00" pos="107.78" lane="beg_1" slope="0.00"/>
        <vehicle id="neigh" x="101.39" y="-1.65" angle="90.00" type="tWide" speed="0.00" pos="103.48" lane="beg_0" slope="0.00"/>
    </timestep>
    <timestep time="14.00">
        <vehicle id="ego" x="105.61" y="0.95" angle="90.97" type="tEgo" speed="0.00" pos="107.78" lane="beg_1" slope="0.00"/>
        <vehicle id="neigh" x="101.39" y="-1.65" angle="90.00" type="tWide" speed="0.00" pos="103.48" lane="beg_0" slope="0.00"/>
    </timestep>
    <timestep time="15.00">
        <vehicle id="ego" x="105.61" y="0.95" angle="90.97" type="tEgo" speed="0.00" pos="107.78" lane="beg_1" slope="0.00"/>
        <vehicle id="neigh" x="101.39" y="-1.65" angle="90.00" type="tWide" speed="0.00" pos="103.48" lane="beg_0" slope="0.00"/>
    </timestep>
    <timestep time="16.00">
        <vehicle id="ego" x="105.61" y="0.95" angle="90.97" type="tEgo" speed="0.00" pos="107.78" lane="beg_1" slope="0.00"/>
        <vehicle id="neigh" x="101.39" y="-1.65" angle="90.00" type="tWide" speed="0.00" pos="103.48" lane="beg_0" slope="0.00"/>
    </timestep>
    <timestep time="17.00">
        <vehicle id="ego" x="105.61" y="0.95" angle="90.97" type="tEgo" speed="0.00" pos="107.78" lane="beg_1" slope="0.00"/>
        <vehicle id="neigh" x="101.39" y="-1.65" angle="90.00" type="tWide" speed="0.00" pos="103.48" lane="beg_0" slope="0.00"/>
    </timestep>
    <timestep time="18.00">
        <vehicle id="ego" x="105.61" y="0.95" angle="90.97" type="tEgo" speed="0.00" pos="107.78" lane="beg_1" slope="0.00"/>
        <vehicle id="neigh" x="101.39" y="-1.65" angle="90.00" type="tWide" speed="0.00" pos="103.48" lane="beg_0" slope="0.00"/>
    </timestep>
    <timestep time="19.00">
        <vehicle id="ego" x="105.61" y="0.95" angle="90.97" type="tEgo" speed="0.00" pos="107.78" lane="beg_1" slope="0.00"/>
        <vehicle id="neigh" x="101.39" y="-1.65" angle="90.00" type="tWide" speed="0.00" pos="103.48" lane="beg_0" slope="0.00"/>
    </timestep>
</fcd-export>
