<?xml version="1.0" encoding="UTF-8"?>

<!-- generated on Thu Nov 16 01:41:43 2017 by SUMO Version v0_31_0+1155-9022244
<?xml version="1.0" encoding="UTF-8"?>

<configuration xmlns:xsi="http://www.w3.org/2001/XMLSchema-instance" xsi:noNamespaceSchemaLocation="http://sumo.dlr.de/xsd/sumoConfiguration.xsd">

    <input>
        <net-file value="net.net.xml"/>
        <route-files value="input_routes.rou.xml"/>
    </input>

    <output>
        <fcd-output value="fcd.xml"/>
    </output>

    <time>
        <end value="20"/>
    </time>

    <processing>
        <lateral-resolution value="0.8"/>
    </processing>

    <report>
        <xml-validation value="never"/>
        <no-step-log value="true"/>
    </report>

</configuration>
-->

<fcd-export xmlns:xsi="http://www.w3.org/2001/XMLSchema-instance" xsi:noNamespaceSchemaLocation="http://sumo.dlr.de/xsd/fcd_file.xsd">
    <timestep time="0.00">
        <vehicle id="ego" x="98.75" y="1.65" angle="90.00" type="tEgo" speed="0.00" pos="100.78" lane="beg_1" slope="0.00"/>
        <vehicle id="neigh" x="98.75" y="-1.65" angle="90.00" type="tWide" speed="0.00" pos="100.78" lane="beg_0" slope="0.00"/>
    </timestep>
    <timestep time="1.00">
        <vehicle id="ego" x="101.30" y="1.55" angle="90.74" type="tEgo" speed="2.60" pos="103.38" lane="beg_1" slope="0.00"/>
        <vehicle id="neigh" x="101.30" y="-1.65" angle="90.00" type="tWide" speed="2.60" pos="103.38" lane="beg_0" slope="0.00"/>
    </timestep>
    <timestep time="2.00">
        <vehicle id="ego" x="105.61" y="1.55" angle="90.00" type="tEgo" speed="4.40" pos="107.78" lane="beg_1" slope="0.00"/>
        <vehicle id="neigh" x="101.39" y="-1.65" angle="90.00" type="tWide" speed="0.10" pos="103.48" lane="beg_0" slope="0.00"/>
    </timestep>
    <timestep time="3.00">
        <vehicle id="ego" x="105.61" y="1.55" angle="90.00" type="tEgo" speed="0.00" pos="107.78" lane="beg_1" slope="0.00"/>
        <vehicle id="neigh" x="104.04" y="-1.65" angle="90.00" type="tWide" speed="2.70" pos="106.17" lane="beg_0" slope="0.00"/>
    </timestep>
    <timestep time="4.00">
        <vehicle id="ego" x="105.61" y="1.55" angle="90.00" type="tEgo" speed="0.00" pos="107.78" lane="beg_1" slope="0.00"/>
        <vehicle id="neigh" x="106.59" y="-1.65" angle="90.00" type="tWide" speed="2.61" pos="108.78" lane="beg_0" slope="0.00"/>
    </timestep>
    <timestep time="5.00">
        <vehicle id="ego" x="105.61" y="1.55" angle="90.00" type="tEgo" speed="0.00" pos="107.78" lane="beg_1" slope="0.00"/>
        <vehicle id="neigh" x="106.59" y="-1.65" angle="90.00" type="tWide" speed="0.00" pos="108.78" lane="beg_0" slope="0.00"/>
    </timestep>
    <timestep time="6.00">
        <vehicle id="ego" x="105.61" y="1.55" angle="90.00" type="tEgo" speed="0.00" pos="107.78" lane="beg_1" slope="0.00"/>
        <vehicle id="neigh" x="106.59" y="-1.65" angle="90.00" type="tWide" speed="0.00" pos="108.78" lane="beg_0" slope="0.00"/>
    </timestep>
    <timestep time="7.00">
        <vehicle id="ego" x="105.61" y="1.55" angle="90.00" type="tEgo" speed="0.00" pos="107.78" lane="beg_1" slope="0.00"/>
        <vehicle id="neigh" x="106.59" y="-1.65" angle="90.00" type="tWide" speed="0.00" pos="108.78" lane="beg_0" slope="0.00"/>
    </timestep>
    <timestep time="8.00">
        <vehicle id="ego" x="105.61" y="1.55" angle="90.00" type="tEgo" speed="0.00" pos="107.78" lane="beg_1" slope="0.00"/>
        <vehicle id="neigh" x="106.59" y="-1.65" angle="90.00" type="tWide" speed="0.00" pos="108.78" lane="beg_0" slope="0.00"/>
    </timestep>
    <timestep time="9.00">
        <vehicle id="ego" x="105.61" y="1.55" angle="90.00" type="tEgo" speed="0.00" pos="107.78" lane="beg_1" slope="0.00"/>
        <vehicle id="neigh" x="106.59" y="-1.65" angle="90.00" type="tWide" speed="0.00" pos="108.78" lane="beg_0" slope="0.00"/>
    </timestep>
    <timestep time="10.00">
        <vehicle id="ego" x="105.61" y="1.55" angle="90.00" type="tEgo" speed="0.00" pos="107.78" lane="beg_1" slope="0.00"/>
        <vehicle id="neigh" x="106.59" y="-1.65" angle="90.00" type="tWide" speed="0.00" pos="108.78" lane="beg_0" slope="0.00"/>
    </timestep>
    <timestep time="11.00">
        <vehicle id="ego" x="105.61" y="1.55" angle="90.00" type="tEgo" speed="0.00" pos="107.78" lane="beg_1" slope="0.00"/>
        <vehicle id="neigh" x="106.59" y="-1.65" angle="90.00" type="tWide" speed="0.00" pos="108.78" lane="beg_0" slope="0.00"/>
    </timestep>
    <timestep time="12.00">
        <vehicle id="ego" x="105.61" y="1.55" angle="90.00" type="tEgo" speed="0.00" pos="107.78" lane="beg_1" slope="0.00"/>
        <vehicle id="neigh" x="106.59" y="-1.65" angle="90.00" type="tWide" speed="0.00" pos="108.78" lane="beg_0" slope="0.00"/>
    </timestep>
    <timestep time="13.00">
        <vehicle id="ego" x="105.61" y="1.55" angle="90.00" type="tEgo" speed="0.00" pos="107.78" lane="beg_1" slope="0.00"/>
        <vehicle id="neigh" x="106.59" y="-1.65" angle="90.00" type="tWide" speed="0.00" pos="108.78" lane="beg_0" slope="0.00"/>
    </timestep>
    <timestep time="14.00">
        <vehicle id="ego" x="105.61" y="1.55" angle="90.00" type="tEgo" speed="0.00" pos="107.78" lane="beg_1" slope="0.00"/>
        <vehicle id="neigh" x="106.59" y="-1.65" angle="90.00" type="tWide" speed="0.00" pos="108.78" lane="beg_0" slope="0.00"/>
    </timestep>
    <timestep time="15.00">
        <vehicle id="ego" x="105.61" y="1.55" angle="90.00" type="tEgo" speed="0.00" pos="107.78" lane="beg_1" slope="0.00"/>
        <vehicle id="neigh" x="106.59" y="-1.65" angle="90.00" type="tWide" speed="0.00" pos="108.78" lane="beg_0" slope="0.00"/>
    </timestep>
    <timestep time="16.00">
        <vehicle id="ego" x="105.61" y="1.55" angle="90.00" type="tEgo" speed="0.00" pos="107.78" lane="beg_1" slope="0.00"/>
        <vehicle id="neigh" x="106.59" y="-1.65" angle="90.00" type="tWide" speed="0.00" pos="108.78" lane="beg_0" slope="0.00"/>
    </timestep>
    <timestep time="17.00">
        <vehicle id="ego" x="105.61" y="1.55" angle="90.00" type="tEgo" speed="0.00" pos="107.78" lane="beg_1" slope="0.00"/>
        <vehicle id="neigh" x="106.59" y="-1.65" angle="90.00" type="tWide" speed="0.00" pos="108.78" lane="beg_0" slope="0.00"/>
    </timestep>
    <timestep time="18.00">
        <vehicle id="ego" x="105.61" y="1.55" angle="90.00" type="tEgo" speed="0.00" pos="107.78" lane="beg_1" slope="0.00"/>
        <vehicle id="neigh" x="106.59" y="-1.65" angle="90.00" type="tWide" speed="0.00" pos="108.78" lane="beg_0" slope="0.00"/>
    </timestep>
    <timestep time="19.00">
        <vehicle id="ego" x="105.61" y="1.55" angle="90.00" type="tEgo" speed="0.00" pos="107.78" lane="beg_1" slope="0.00"/>
        <vehicle id="neigh" x="106.59" y="-1.65" angle="90.00" type="tWide" speed="0.00" pos="108.78" lane="beg_0" slope="0.00"/>
    </timestep>
</fcd-export>
