<?xml version="1.0" encoding="UTF-8"?>

<!-- generated on 03/05/14 13:15:07 by SUMO sumo Version dev-SVN-r15814
<?xml version="1.0" encoding="UTF-8"?>

<configuration xmlns:xsi="http://www.w3.org/2001/XMLSchema-instance" xsi:noNamespaceSchemaLocation="http://sumo-sim.org/xsd/sumoConfiguration.xsd">

    <input>
        <net-file value="three_split.net.xml"/>
        <additional-files value="input_routes.rou.xml"/>
    </input>

    <output>
        <summary-output value="summary.xml"/>
    </output>

    <time>
        <begin value="50"/>
        <end value="100"/>
    </time>

    <report>
        <xml-validation value="never"/>
        <no-duration-log value="true"/>
        <no-step-log value="true"/>
    </report>

</configuration>
-->

<summary xmlns:xsi="http://www.w3.org/2001/XMLSchema-instance" xsi:noNamespaceSchemaLocation="http://sumo-sim.org/xsd/summary_file.xsd">
    <step time="50.00" loaded="0" inserted="0" running="0" waiting="0" ended="0" meanWaitingTime="-1.00" meanTravelTime="-1.00"/>
    <step time="51.00" loaded="0" inserted="0" running="0" waiting="0" ended="0" meanWaitingTime="-1.00" meanTravelTime="-1.00"/>
    <step time="52.00" loaded="0" inserted="0" running="0" waiting="0" ended="0" meanWaitingTime="-1.00" meanTravelTime="-1.00"/>
    <step time="53.00" loaded="0" inserted="0" running="0" waiting="0" ended="0" meanWaitingTime="-1.00" meanTravelTime="-1.00"/>
    <step time="54.00" loaded="0" inserted="0" running="0" waiting="0" ended="0" meanWaitingTime="-1.00" meanTravelTime="-1.00"/>
    <step time="55.00" loaded="0" inserted="0" running="0" waiting="0" ended="0" meanWaitingTime="-1.00" meanTravelTime="-1.00"/>
    <step time="56.00" loaded="0" inserted="0" running="0" waiting="0" ended="0" meanWaitingTime="-1.00" meanTravelTime="-1.00"/>
    <step time="57.00" loaded="0" inserted="0" running="0" waiting="0" ended="0" meanWaitingTime="-1.00" meanTravelTime="-1.00"/>
    <step time="58.00" loaded="0" inserted="0" running="0" waiting="0" ended="0" meanWaitingTime="-1.00" meanTravelTime="-1.00"/>
    <step time="59.00" loaded="0" inserted="0" running="0" waiting="0" ended="0" meanWaitingTime="-1.00" meanTravelTime="-1.00"/>
    <step time="60.00" loaded="1" inserted="1" running="1" waiting="0" ended="0" meanWaitingTime="0.00" meanTravelTime="-1.00"/>
    <step time="61.00" loaded="1" inserted="1" running="1" waiting="0" ended="0" meanWaitingTime="0.00" meanTravelTime="-1.00"/>
    <step time="62.00" loaded="1" inserted="1" running="1" waiting="0" ended="0" meanWaitingTime="0.00" meanTravelTime="-1.00"/>
    <step time="63.00" loaded="1" inserted="1" running="1" waiting="0" ended="0" meanWaitingTime="0.00" meanTravelTime="-1.00"/>
    <step time="64.00" loaded="1" inserted="1" running="1" waiting="0" ended="0" meanWaitingTime="0.00" meanTravelTime="-1.00"/>
    <step time="65.00" loaded="1" inserted="1" running="1" waiting="0" ended="0" meanWaitingTime="0.00" meanTravelTime="-1.00"/>
    <step time="66.00" loaded="1" inserted="1" running="1" waiting="0" ended="0" meanWaitingTime="0.00" meanTravelTime="-1.00"/>
    <step time="67.00" loaded="1" inserted="1" running="1" waiting="0" ended="0" meanWaitingTime="0.00" meanTravelTime="-1.00"/>
    <step time="68.00" loaded="1" inserted="1" running="1" waiting="0" ended="0" meanWaitingTime="0.00" meanTravelTime="-1.00"/>
    <step time="69.00" loaded="1" inserted="1" running="1" waiting="0" ended="0" meanWaitingTime="0.00" meanTravelTime="-1.00"/>
    <step time="70.00" loaded="1" inserted="1" running="1" waiting="0" ended="0" meanWaitingTime="0.00" meanTravelTime="-1.00"/>
    <step time="71.00" loaded="1" inserted="1" running="1" waiting="0" ended="0" meanWaitingTime="0.00" meanTravelTime="-1.00"/>
    <step time="72.00" loaded="1" inserted="1" running="1" waiting="0" ended="0" meanWaitingTime="0.00" meanTravelTime="-1.00"/>
    <step time="73.00" loaded="1" inserted="1" running="1" waiting="0" ended="0" meanWaitingTime="0.00" meanTravelTime="-1.00"/>
    <step time="74.00" loaded="1" inserted="1" running="1" waiting="0" ended="0" meanWaitingTime="0.00" meanTravelTime="-1.00"/>
    <step time="75.00" loaded="1" inserted="1" running="1" waiting="0" ended="0" meanWaitingTime="0.00" meanTravelTime="-1.00"/>
    <step time="76.00" loaded="1" inserted="1" running="1" waiting="0" ended="0" meanWaitingTime="0.00" meanTravelTime="-1.00"/>
    <step time="77.00" loaded="1" inserted="1" running="1" waiting="0" ended="0" meanWaitingTime="0.00" meanTravelTime="-1.00"/>
    <step time="78.00" loaded="1" inserted="1" running="1" waiting="0" ended="0" meanWaitingTime="0.00" meanTravelTime="-1.00"/>
    <step time="79.00" loaded="1" inserted="1" running="1" waiting="0" ended="0" meanWaitingTime="0.00" meanTravelTime="-1.00"/>
    <step time="80.00" loaded="2" inserted="2" running="2" waiting="0" ended="0" meanWaitingTime="0.00" meanTravelTime="-1.00"/>
    <step time="81.00" loaded="2" inserted="2" running="2" waiting="0" ended="0" meanWaitingTime="0.00" meanTravelTime="-1.00"/>
    <step time="82.00" loaded="2" inserted="2" running="2" waiting="0" ended="0" meanWaitingTime="0.00" meanTravelTime="-1.00"/>
    <step time="83.00" loaded="2" inserted="2" running="2" waiting="0" ended="0" meanWaitingTime="0.00" meanTravelTime="-1.00"/>
    <step time="84.00" loaded="2" inserted="2" running="2" waiting="0" ended="0" meanWaitingTime="0.00" meanTravelTime="-1.00"/>
    <step time="85.00" loaded="2" inserted="2" running="2" waiting="0" ended="0" meanWaitingTime="0.00" meanTravelTime="-1.00"/>
    <step time="86.00" loaded="2" inserted="2" running="2" waiting="0" ended="0" meanWaitingTime="0.00" meanTravelTime="-1.00"/>
    <step time="87.00" loaded="2" inserted="2" running="2" waiting="0" ended="0" meanWaitingTime="0.00" meanTravelTime="-1.00"/>
    <step time="88.00" loaded="2" inserted="2" running="2" waiting="0" ended="0" meanWaitingTime="0.00" meanTravelTime="-1.00"/>
    <step time="89.00" loaded="2" inserted="2" running="2" waiting="0" ended="0" meanWaitingTime="0.00" meanTravelTime="-1.00"/>
    <step time="90.00" loaded="2" inserted="2" running="2" waiting="0" ended="0" meanWaitingTime="0.00" meanTravelTime="-1.00"/>
    <step time="91.00" loaded="2" inserted="2" running="2" waiting="0" ended="0" meanWaitingTime="0.00" meanTravelTime="-1.00"/>
    <step time="92.00" loaded="2" inserted="2" running="2" waiting="0" ended="0" meanWaitingTime="0.00" meanTravelTime="-1.00"/>
    <step time="93.00" loaded="2" inserted="2" running="2" waiting="0" ended="0" meanWaitingTime="0.00" meanTravelTime="-1.00"/>
    <step time="94.00" loaded="2" inserted="2" running="2" waiting="0" ended="0" meanWaitingTime="0.00" meanTravelTime="-1.00"/>
    <step time="95.00" loaded="2" inserted="2" running="2" waiting="0" ended="0" meanWaitingTime="0.00" meanTravelTime="-1.00"/>
    <step time="96.00" loaded="2" inserted="2" running="2" waiting="0" ended="0" meanWaitingTime="0.00" meanTravelTime="-1.00"/>
    <step time="97.00" loaded="2" inserted="2" running="2" waiting="0" ended="0" meanWaitingTime="0.00" meanTravelTime="-1.00"/>
    <step time="98.00" loaded="2" inserted="2" running="2" waiting="0" ended="0" meanWaitingTime="0.00" meanTravelTime="-1.00"/>
    <step time="99.00" loaded="2" inserted="2" running="2" waiting="0" ended="0" meanWaitingTime="0.00" meanTravelTime="-1.00"/>
</summary>
