<?xml version="1.0" encoding="UTF-8"?>

<!-- generated on 2025-01-02 15:48:04 by Eclipse SUMO sumo Version v1_21_0+1635-bee1c8eab2a
<sumoConfiguration xmlns:xsi="http://www.w3.org/2001/XMLSchema-instance" xsi:noNamespaceSchemaLocation="http://sumo.dlr.de/xsd/sumoConfiguration.xsd">

    <input>
        <net-file value="input_net.net.xml"/>
        <load-state value="state.sbx"/>
    </input>

    <output>
        <vehroute-output value="vehroutes.xml"/>
    </output>

    <processing>
        <ignore-route-errors value="true"/>
    </processing>

    <report>
        <duration-log.disable value="true"/>
        <no-step-log value="true"/>
    </report>

    <mesoscopic>
        <mesosim value="true"/>
    </mesoscopic>

</sumoConfiguration>
-->

<routes xmlns:xsi="http://www.w3.org/2001/XMLSchema-instance" xsi:noNamespaceSchemaLocation="http://sumo.dlr.de/xsd/routes_file.xsd">
    <vehicle id="0" depart="0.00" departPos="0.00" departSpeed="10.00" speedFactor="1.0600" arrival="411.00">
        <route edges="4/1to3/1 2/1to1/1 1/1to0/1"/>
    </vehicle>

    <vehicle id="1" depart="5.00" departPos="0.00" departSpeed="10.00" speedFactor="1.0600" arrival="714.00">
        <route edges="4/1to3/1 2/1to1/1 1/1to0/1"/>
    </vehicle>

</routes>
