<?xml version="1.0" encoding="UTF-8"?>

<!-- generated on Thu Apr 22 09:11:22 2021 by Eclipse SUMO sumo Version v1_9_0+0152-2e5ad4f
This data file and the accompanying materials
are made available under the terms of the Eclipse Public License v2.0
which accompanies this distribution, and is available at
http://www.eclipse.org/legal/epl-v20.html
SPDX-License-Identifier: EPL-2.0
<configuration xmlns:xsi="http://www.w3.org/2001/XMLSchema-instance" xsi:noNamespaceSchemaLocation="http://sumo.dlr.de/xsd/sumoConfiguration.xsd">

    <input>
        <net-file value="net2.net.xml"/>
        <route-files value="input_routes.rou.xml"/>
    </input>

    <output>
        <write-license value="true"/>
        <fcd-output value="fcd.xml"/>
        <tripinfo-output value="tripinfos.xml"/>
    </output>

    <time>
        <begin value="60"/>
    </time>

    <processing>
        <default.speeddev value="0"/>
    </processing>

    <report>
        <xml-validation value="never"/>
        <xml-validation.routes value="never"/>
        <duration-log.disable value="true"/>
        <no-step-log value="true"/>
    </report>

    <glosa_device>
        <device.glosa.probability value="1"/>
    </glosa_device>

</configuration>
-->

<tripinfos xmlns:xsi="http://www.w3.org/2001/XMLSchema-instance" xsi:noNamespaceSchemaLocation="http://sumo.dlr.de/xsd/tripinfo_file.xsd">
    <tripinfo id="veh0" depart="60.00" departLane="WC_0" departPos="5.10" departSpeed="13.89" departDelay="0.00" arrival="87.00" arrivalLane="CE_0" arrivalPos="89.60" arrivalSpeed="13.89" duration="27.00" routeLength="394.90" waitingTime="0.00" waitingCount="0" stopTime="0.00" timeLoss="-0.15" rerouteNo="0" devices="tripinfo_veh0 routing_veh0 fcd_veh0 glosa_veh0" vType="custom" speedFactor="1.00" vaporized=""/>
</tripinfos>
