<?xml version="1.0" encoding="UTF-8"?>

<!-- generated on 2022-09-15 11:35:34 by Eclipse SUMO sumo Version v1_14_1+1012-4d8821c
This data file and the accompanying materials
are made available under the terms of the Eclipse Public License v2.0
which accompanies this distribution, and is available at
http://www.eclipse.org/legal/epl-v20.html
This file may also be made available under the following Secondary
Licenses when the conditions for such availability set forth in the Eclipse
Public License 2.0 are satisfied: GNU General Public License, version 2
or later which is available at
https://www.gnu.org/licenses/old-licenses/gpl-2.0-standalone.html
SPDX-License-Identifier: EPL-2.0 OR GPL-2.0-or-later
<configuration xmlns:xsi="http://www.w3.org/2001/XMLSchema-instance" xsi:noNamespaceSchemaLocation="http://sumo.dlr.de/xsd/sumoConfiguration.xsd">

    <input>
        <net-file value="net.net.xml"/>
        <route-files value="input_routes.rou.xml"/>
    </input>

    <output>
        <write-license value="true"/>
        <fcd-output value="fcd.xml"/>
    </output>

    <time>
        <step-length value="0.1"/>
    </time>

    <processing>
        <lateral-resolution value="0.3"/>
        <collision.action value="warn"/>
        <default.speeddev value="0"/>
    </processing>

    <report>
        <xml-validation value="never"/>
        <no-step-log value="true"/>
    </report>

</configuration>
-->

<fcd-export xmlns:xsi="http://www.w3.org/2001/XMLSchema-instance" xsi:noNamespaceSchemaLocation="http://sumo.dlr.de/xsd/fcd_file.xsd">
    <timestep time="0.00">
        <vehicle id="bike133" x="1586.99" y="1982.72" angle="165.79" type="bike_bicycle" speed="4.85" pos="50.77" lane="a_0" slope="0.00"/>
        <person id="ped13" x="1588.53" y="1975.36" angle="345.79" speed="0.00" pos="28.53" edge="-a" slope="0.00"/>
    </timestep>
    <timestep time="0.10">
        <vehicle id="bike133" x="1587.09" y="1982.27" angle="166.71" type="bike_bicycle" speed="4.61" pos="51.23" lane="a_0" slope="0.00"/>
        <person id="ped13" x="1588.47" y="1975.35" angle="255.88" speed="0.00" pos="28.53" edge="-a" slope="0.00"/>
    </timestep>
    <timestep time="0.20">
        <vehicle id="bike133" x="1587.18" y="1981.84" angle="167.70" type="bike_bicycle" speed="4.39" pos="51.67" lane="a_0" slope="0.00"/>
        <person id="ped13" x="1588.40" y="1975.33" angle="255.88" speed="0.00" pos="28.53" edge="-a" slope="0.00"/>
    </timestep>
    <timestep time="0.30">
        <vehicle id="bike133" x="1587.25" y="1981.43" angle="168.77" type="bike_bicycle" speed="4.17" pos="52.09" lane="a_0" slope="0.00"/>
        <person id="ped13" x="1588.34" y="1975.32" angle="255.88" speed="0.00" pos="28.53" edge="-a" slope="0.00"/>
    </timestep>
    <timestep time="0.40">
        <vehicle id="bike133" x="1587.31" y="1981.03" angle="169.90" type="bike_bicycle" speed="3.97" pos="52.48" lane="a_0" slope="0.00"/>
        <person id="ped13" x="1588.28" y="1975.30" angle="255.88" speed="0.00" pos="28.53" edge="-a" slope="0.00"/>
    </timestep>
    <timestep time="0.50">
        <vehicle id="bike133" x="1587.35" y="1980.66" angle="171.12" type="bike_bicycle" speed="3.76" pos="52.86" lane="a_0" slope="0.00"/>
        <person id="ped13" x="1588.22" y="1975.29" angle="255.88" speed="0.00" pos="28.53" edge="-a" slope="0.00"/>
    </timestep>
    <timestep time="0.60">
        <vehicle id="bike133" x="1587.38" y="1980.30" angle="172.42" type="bike_bicycle" speed="3.56" pos="53.22" lane="a_0" slope="0.00"/>
        <person id="ped13" x="1588.16" y="1975.27" angle="255.88" speed="0.00" pos="28.53" edge="-a" slope="0.00"/>
    </timestep>
    <timestep time="0.70">
        <vehicle id="bike133" x="1587.40" y="1979.95" angle="173.83" type="bike_bicycle" speed="3.36" pos="53.55" lane="a_0" slope="0.00"/>
        <person id="ped13" x="1588.08" y="1975.36" angle="320.63" speed="1.02" pos="28.63" edge="-a" slope="0.00"/>
    </timestep>
    <timestep time="0.80">
        <vehicle id="bike133" x="1587.40" y="1979.63" angle="175.38" type="bike_bicycle" speed="3.13" pos="53.87" lane="a_0" slope="0.00"/>
        <person id="ped13" x="1588.01" y="1975.46" angle="322.97" speed="1.13" pos="28.75" edge="-a" slope="0.00"/>
    </timestep>
    <timestep time="0.90">
        <vehicle id="bike133" x="1587.38" y="1979.33" angle="177.04" type="bike_bicycle" speed="2.92" pos="54.16" lane="a_0" slope="0.00"/>
        <person id="ped13" x="1588.13" y="1975.48" angle="75.74" speed="0.00" pos="28.75" edge="-a" slope="0.00"/>
    </timestep>
    <timestep time="1.00">
        <vehicle id="bike133" x="1587.36" y="1979.04" angle="177.56" type="bike_bicycle" speed="2.72" pos="54.43" lane="a_0" slope="0.00"/>
        <person id="ped13" x="1588.24" y="1975.53" angle="70.03" speed="0.12" pos="28.76" edge="-a" slope="0.00"/>
    </timestep>
    <timestep time="1.10">
        <vehicle id="bike133" x="1587.34" y="1978.78" angle="176.78" type="bike_bicycle" speed="2.52" pos="54.68" lane="a_0" slope="0.00"/>
        <person id="ped13" x="1588.29" y="1975.57" angle="50.89" speed="0.30" pos="28.79" edge="-a" slope="0.00"/>
    </timestep>
    <timestep time="1.20">
        <vehicle id="bike133" x="1587.32" y="1978.53" angle="177.30" type="bike_bicycle" speed="2.33" pos="54.92" lane="a_0" slope="0.00"/>
        <person id="ped13" x="1588.35" y="1975.60" angle="63.64" speed="0.14" pos="28.80" edge="-a" slope="0.00"/>
    </timestep>
    <timestep time="1.30">
        <vehicle id="bike133" x="1587.31" y="1978.31" angle="176.39" type="bike_bicycle" speed="2.14" pos="55.13" lane="a_0" slope="0.00"/>
        <person id="ped13" x="1588.41" y="1975.63" angle="59.49" speed="0.19" pos="28.82" edge="-a" slope="0.00"/>
    </timestep>
    <timestep time="1.40">
        <vehicle id="bike133" x="1587.30" y="1978.10" angle="175.35" type="bike_bicycle" speed="1.96" pos="55.33" lane="a_0" slope="0.00"/>
        <person id="ped13" x="1588.47" y="1975.67" angle="59.21" speed="0.19" pos="28.84" edge="-a" slope="0.00"/>
    </timestep>
    <timestep time="1.50">
        <vehicle id="bike133" x="1587.30" y="1977.89" angle="173.53" type="bike_bicycle" speed="2.08" pos="55.53" lane="a_0" slope="0.00"/>
        <person id="ped13" x="1588.53" y="1975.70" angle="61.48" speed="0.16" pos="28.85" edge="-a" slope="0.00"/>
    </timestep>
    <timestep time="1.60">
        <vehicle id="bike133" x="1587.32" y="1977.66" angle="171.80" type="bike_bicycle" speed="2.20" pos="55.75" lane="a_0" slope="0.00"/>
        <person id="ped13" x="1588.58" y="1975.74" angle="55.60" speed="0.24" pos="28.88" edge="-a" slope="0.00"/>
    </timestep>
    <timestep time="1.70">
        <vehicle id="bike133" x="1587.34" y="1977.43" angle="170.17" type="bike_bicycle" speed="2.31" pos="55.99" lane="a_0" slope="0.00"/>
        <person id="ped13" x="1588.64" y="1975.78" angle="51.85" speed="0.28" pos="28.91" edge="-a" slope="0.00"/>
    </timestep>
    <timestep time="1.80">
        <vehicle id="bike133" x="1587.38" y="1977.19" angle="168.63" type="bike_bicycle" speed="2.43" pos="56.23" lane="a_0" slope="0.00"/>
        <person id="ped13" x="1588.70" y="1975.80" angle="67.84" speed="0.09" pos="28.92" edge="-a" slope="0.00"/>
    </timestep>
    <timestep time="1.90">
        <vehicle id="bike133" x="1587.44" y="1976.94" angle="167.17" type="bike_bicycle" speed="2.55" pos="56.48" lane="a_0" slope="0.00"/>
        <person id="ped13" x="1588.75" y="1975.84" angle="56.69" speed="0.22" pos="28.94" edge="-a" slope="0.00"/>
    </timestep>
    <timestep time="2.00">
        <vehicle id="bike133" x="1587.50" y="1976.68" angle="165.79" type="bike_bicycle" speed="2.66" pos="56.75" lane="a_0" slope="0.00"/>
        <person id="ped13" x="1588.77" y="1975.95" angle="10.65" speed="1.03" pos="29.04" edge="-a" slope="0.00"/>
    </timestep>
    <timestep time="2.10">
        <vehicle id="bike133" x="1587.57" y="1976.41" angle="166.38" type="bike_bicycle" speed="2.78" pos="57.03" lane="a_0" slope="0.00"/>
        <person id="ped13" x="1588.79" y="1976.08" angle="7.78" speed="1.18" pos="29.16" edge="-a" slope="0.00"/>
    </timestep>
    <timestep time="2.20">
        <vehicle id="bike133" x="1587.64" y="1976.13" angle="165.79" type="bike_bicycle" speed="2.89" pos="57.32" lane="a_0" slope="0.00"/>
        <person id="ped13" x="1588.81" y="1976.20" angle="9.82" speed="1.07" pos="29.27" edge="-a" slope="0.00"/>
    </timestep>
    <timestep time="2.30">
        <vehicle id="bike133" x="1587.71" y="1975.84" angle="165.79" type="bike_bicycle" speed="3.00" pos="57.62" lane="a_0" slope="0.00"/>
        <person id="ped13" x="1588.83" y="1976.32" angle="8.87" speed="1.12" pos="29.38" edge="-a" slope="0.00"/>
    </timestep>
    <timestep time="2.40">
        <vehicle id="bike133" x="1587.79" y="1975.54" angle="165.79" type="bike_bicycle" speed="3.11" pos="57.93" lane="a_0" slope="0.00"/>
        <person id="ped13" x="1588.85" y="1976.43" angle="10.40" speed="1.04" pos="29.48" edge="-a" slope="0.00"/>
    </timestep>
    <timestep time="2.50">
        <vehicle id="bike133" x="1587.87" y="1975.23" angle="165.79" type="bike_bicycle" speed="3.22" pos="58.25" lane="a_0" slope="0.00"/>
        <person id="ped13" x="1588.85" y="1976.53" angle="0.75" speed="0.97" pos="29.58" edge="-a" slope="0.00"/>
    </timestep>
    <timestep time="2.60">
        <vehicle id="bike133" x="1587.95" y="1974.91" angle="165.79" type="bike_bicycle" speed="3.33" pos="58.58" lane="a_0" slope="0.00"/>
        <person id="ped13" x="1588.83" y="1976.63" angle="345.79" speed="1.00" pos="29.68" edge="-a" slope="0.00"/>
    </timestep>
    <timestep time="2.70">
        <vehicle id="bike133" x="1588.03" y="1974.57" angle="165.79" type="bike_bicycle" speed="3.43" pos="58.92" lane="a_0" slope="0.00"/>
        <person id="ped13" x="1588.80" y="1976.72" angle="345.79" speed="0.98" pos="29.78" edge="-a" slope="0.00"/>
    </timestep>
    <timestep time="2.80">
        <vehicle id="bike133" x="1588.12" y="1974.23" angle="165.79" type="bike_bicycle" speed="3.54" pos="59.28" lane="a_0" slope="0.00"/>
        <person id="ped13" x="1588.78" y="1976.83" angle="345.79" speed="1.10" pos="29.89" edge="-a" slope="0.00"/>
    </timestep>
    <timestep time="2.90">
        <vehicle id="bike133" x="1588.21" y="1973.88" angle="165.79" type="bike_bicycle" speed="3.64" pos="59.64" lane="a_0" slope="0.00"/>
        <person id="ped13" x="1588.75" y="1976.93" angle="345.79" speed="1.06" pos="29.99" edge="-a" slope="0.00"/>
    </timestep>
    <timestep time="3.00">
        <vehicle id="bike133" x="1588.30" y="1973.52" angle="165.79" type="bike_bicycle" speed="3.74" pos="60.01" lane="a_0" slope="0.00"/>
        <person id="ped13" x="1588.72" y="1977.04" angle="345.79" speed="1.14" pos="30.11" edge="-a" slope="0.00"/>
    </timestep>
    <timestep time="3.10">
        <vehicle id="bike133" x="1588.39" y="1973.15" angle="165.79" type="bike_bicycle" speed="3.83" pos="60.40" lane="a_0" slope="0.00"/>
        <person id="ped13" x="1588.69" y="1977.16" angle="345.79" speed="1.19" pos="30.23" edge="-a" slope="0.00"/>
    </timestep>
    <timestep time="3.20">
        <vehicle id="bike133" x="1588.49" y="1972.77" angle="165.79" type="bike_bicycle" speed="3.93" pos="60.79" lane="a_0" slope="0.00"/>
        <person id="ped13" x="1588.67" y="1977.26" angle="345.79" speed="1.12" pos="30.34" edge="-a" slope="0.00"/>
    </timestep>
    <timestep time="3.30">
        <vehicle id="bike133" x="1588.59" y="1972.38" angle="165.79" type="bike_bicycle" speed="4.02" pos="61.19" lane="a_0" slope="0.00"/>
        <person id="ped13" x="1588.64" y="1977.36" angle="345.79" speed="1.01" pos="30.44" edge="-a" slope="0.00"/>
    </timestep>
    <timestep time="3.40">
        <vehicle id="bike133" x="1588.69" y="1971.98" angle="165.79" type="bike_bicycle" speed="4.11" pos="61.60" lane="a_0" slope="0.00"/>
        <person id="ped13" x="1588.61" y="1977.47" angle="345.79" speed="1.16" pos="30.56" edge="-a" slope="0.00"/>
    </timestep>
    <timestep time="3.50">
        <vehicle id="bike133" x="1588.79" y="1971.57" angle="165.79" type="bike_bicycle" speed="4.20" pos="62.02" lane="a_0" slope="0.00"/>
        <person id="ped13" x="1588.59" y="1977.57" angle="345.79" speed="0.97" pos="30.65" edge="-a" slope="0.00"/>
    </timestep>
    <timestep time="3.60">
        <vehicle id="bike133" x="1588.90" y="1971.16" angle="165.79" type="bike_bicycle" speed="4.28" pos="62.45" lane="a_0" slope="0.00"/>
        <person id="ped13" x="1588.56" y="1977.68" angle="345.79" speed="1.19" pos="30.77" edge="-a" slope="0.00"/>
    </timestep>
    <timestep time="3.70">
        <vehicle id="bike133" x="1589.00" y="1970.73" angle="165.79" type="bike_bicycle" speed="4.36" pos="62.89" lane="a_0" slope="0.00"/>
        <person id="ped13" x="1588.53" y="1977.78" angle="345.79" speed="1.03" pos="30.87" edge="-a" slope="0.00"/>
    </timestep>
    <timestep time="3.80">
        <vehicle id="bike133" x="1589.11" y="1970.30" angle="165.79" type="bike_bicycle" speed="4.43" pos="63.33" lane="a_0" slope="0.00"/>
        <person id="ped13" x="1588.51" y="1977.89" angle="345.79" speed="1.11" pos="30.99" edge="-a" slope="0.00"/>
    </timestep>
    <timestep time="3.90">
        <vehicle id="bike133" x="1589.22" y="1969.87" angle="165.79" type="bike_bicycle" speed="4.51" pos="63.78" lane="a_0" slope="0.00"/>
        <person id="ped13" x="1588.48" y="1978.00" angle="345.79" speed="1.16" pos="31.10" edge="-a" slope="0.00"/>
    </timestep>
    <timestep time="4.00">
        <vehicle id="bike133" x="1589.34" y="1969.42" angle="165.79" type="bike_bicycle" speed="4.58" pos="64.24" lane="a_0" slope="0.00"/>
        <person id="ped13" x="1588.45" y="1978.12" angle="345.79" speed="1.16" pos="31.22" edge="-a" slope="0.00"/>
    </timestep>
    <timestep time="4.10">
        <vehicle id="bike133" x="1589.45" y="1968.97" angle="165.79" type="bike_bicycle" speed="4.64" pos="64.70" lane="a_0" slope="0.00"/>
        <person id="ped13" x="1588.42" y="1978.22" angle="345.79" speed="1.10" pos="31.33" edge="-a" slope="0.00"/>
    </timestep>
    <timestep time="4.20">
        <vehicle id="bike133" x="1589.57" y="1968.52" angle="165.79" type="bike_bicycle" speed="4.70" pos="65.17" lane="a_0" slope="0.00"/>
        <person id="ped13" x="1588.40" y="1978.32" angle="345.79" speed="0.96" pos="31.42" edge="-a" slope="0.00"/>
    </timestep>
    <timestep time="4.30">
        <vehicle id="bike133" x="1589.68" y="1968.06" angle="165.79" type="bike_bicycle" speed="4.76" pos="65.65" lane="a_0" slope="0.00"/>
        <person id="ped13" x="1588.37" y="1978.43" angle="345.79" speed="1.13" pos="31.54" edge="-a" slope="0.00"/>
    </timestep>
    <timestep time="4.40">
        <vehicle id="bike133" x="1589.80" y="1967.59" angle="165.79" type="bike_bicycle" speed="4.81" pos="66.13" lane="a_0" slope="0.00"/>
        <person id="ped13" x="1588.34" y="1978.54" angle="345.79" speed="1.14" pos="31.65" edge="-a" slope="0.00"/>
    </timestep>
    <timestep time="4.50">
        <vehicle id="bike133" x="1589.92" y="1967.12" angle="165.79" type="bike_bicycle" speed="4.86" pos="66.62" lane="a_0" slope="0.00"/>
        <person id="ped13" x="1588.32" y="1978.65" angle="345.79" speed="1.15" pos="31.77" edge="-a" slope="0.00"/>
    </timestep>
    <timestep time="4.60">
        <vehicle id="bike133" x="1590.04" y="1966.64" angle="165.79" type="bike_bicycle" speed="4.91" pos="67.11" lane="a_0" slope="0.00"/>
        <person id="ped13" x="1588.29" y="1978.75" angle="345.79" speed="1.06" pos="31.87" edge="-a" slope="0.00"/>
    </timestep>
    <timestep time="4.70">
        <vehicle id="bike133" x="1590.16" y="1966.16" angle="165.79" type="bike_bicycle" speed="4.95" pos="67.60" lane="a_0" slope="0.00"/>
        <person id="ped13" x="1588.26" y="1978.86" angle="345.79" speed="1.14" pos="31.99" edge="-a" slope="0.00"/>
    </timestep>
    <timestep time="4.80">
        <vehicle id="bike133" x="1590.28" y="1965.68" angle="165.79" type="bike_bicycle" speed="4.98" pos="68.10" lane="a_0" slope="0.00"/>
        <person id="ped13" x="1588.24" y="1978.96" angle="345.79" speed="1.00" pos="32.09" edge="-a" slope="0.00"/>
    </timestep>
    <timestep time="4.90">
        <vehicle id="bike133" x="1590.41" y="1965.19" angle="165.79" type="bike_bicycle" speed="5.01" pos="68.60" lane="a_0" slope="0.00"/>
        <person id="ped13" x="1588.21" y="1979.07" angle="345.79" speed="1.17" pos="32.20" edge="-a" slope="0.00"/>
    </timestep>
    <timestep time="5.00">
        <vehicle id="bike133" x="1590.53" y="1964.70" angle="165.79" type="bike_bicycle" speed="5.04" pos="69.11" lane="a_0" slope="0.00"/>
        <person id="ped13" x="1588.18" y="1979.17" angle="345.79" speed="1.03" pos="32.31" edge="-a" slope="0.00"/>
    </timestep>
    <timestep time="5.10">
        <vehicle id="bike133" x="1590.66" y="1964.21" angle="165.79" type="bike_bicycle" speed="5.06" pos="69.61" lane="a_0" slope="0.00"/>
        <person id="ped13" x="1588.16" y="1979.27" angle="345.79" speed="1.02" pos="32.41" edge="-a" slope="0.00"/>
    </timestep>
    <timestep time="5.20">
        <vehicle id="bike133" x="1590.78" y="1963.72" angle="165.79" type="bike_bicycle" speed="5.08" pos="70.12" lane="a_0" slope="0.00"/>
        <person id="ped13" x="1588.13" y="1979.37" angle="345.79" speed="1.05" pos="32.51" edge="-a" slope="0.00"/>
    </timestep>
    <timestep time="5.30">
        <vehicle id="bike133" x="1590.91" y="1963.23" angle="165.79" type="bike_bicycle" speed="5.09" pos="70.63" lane="a_0" slope="0.00"/>
        <person id="ped13" x="1588.11" y="1979.47" angle="345.79" speed="1.03" pos="32.62" edge="-a" slope="0.00"/>
    </timestep>
    <timestep time="5.40">
        <vehicle id="bike133" x="1591.03" y="1962.73" angle="165.79" type="bike_bicycle" speed="5.10" pos="71.14" lane="a_0" slope="0.00"/>
        <person id="ped13" x="1588.08" y="1979.57" angle="345.79" speed="0.97" pos="32.71" edge="-a" slope="0.00"/>
    </timestep>
    <timestep time="5.50">
        <vehicle id="bike133" x="1591.16" y="1962.24" angle="165.79" type="bike_bicycle" speed="5.10" pos="71.65" lane="a_0" slope="0.00"/>
        <person id="ped13" x="1588.06" y="1979.66" angle="345.79" speed="0.96" pos="32.81" edge="-a" slope="0.00"/>
    </timestep>
    <timestep time="5.60">
        <vehicle id="bike133" x="1591.28" y="1961.75" angle="165.79" type="bike_bicycle" speed="5.10" pos="72.16" lane="a_0" slope="0.00"/>
        <person id="ped13" x="1588.03" y="1979.77" angle="345.79" speed="1.12" pos="32.92" edge="-a" slope="0.00"/>
    </timestep>
    <timestep time="5.70">
        <vehicle id="bike133" x="1591.41" y="1961.25" angle="165.79" type="bike_bicycle" speed="5.09" pos="72.67" lane="a_0" slope="0.00"/>
        <person id="ped13" x="1588.01" y="1979.87" angle="345.79" speed="1.08" pos="33.03" edge="-a" slope="0.00"/>
    </timestep>
    <timestep time="5.80">
        <vehicle id="bike133" x="1591.53" y="1960.76" angle="165.79" type="bike_bicycle" speed="5.08" pos="73.18" lane="a_0" slope="0.00"/>
        <person id="ped13" x="1587.98" y="1979.98" angle="345.79" speed="1.06" pos="33.14" edge="-a" slope="0.00"/>
    </timestep>
    <timestep time="5.90">
        <vehicle id="bike133" x="1591.65" y="1960.27" angle="165.79" type="bike_bicycle" speed="5.06" pos="73.68" lane="a_0" slope="0.00"/>
        <person id="ped13" x="1587.95" y="1980.09" angle="345.79" speed="1.15" pos="33.25" edge="-a" slope="0.00"/>
    </timestep>
    <timestep time="6.00">
        <vehicle id="bike133" x="1591.78" y="1959.78" angle="165.79" type="bike_bicycle" speed="5.03" pos="74.19" lane="a_0" slope="0.00"/>
        <person id="ped13" x="1587.93" y="1980.18" angle="345.79" speed="0.97" pos="33.35" edge="-a" slope="0.00"/>
    </timestep>
    <timestep time="6.10">
        <vehicle id="bike133" x="1591.90" y="1959.30" angle="165.79" type="bike_bicycle" speed="5.00" pos="74.69" lane="a_0" slope="0.00"/>
        <person id="ped13" x="1587.90" y="1980.29" angle="345.79" speed="1.15" pos="33.46" edge="-a" slope="0.00"/>
    </timestep>
    <timestep time="6.20">
        <vehicle id="bike133" x="1592.02" y="1958.81" angle="165.79" type="bike_bicycle" speed="4.97" pos="75.18" lane="a_0" slope="0.00"/>
        <person id="ped13" x="1587.87" y="1980.39" angle="345.79" speed="1.04" pos="33.57" edge="-a" slope="0.00"/>
    </timestep>
    <timestep time="6.30">
        <vehicle id="bike133" x="1592.14" y="1958.34" angle="165.79" type="bike_bicycle" speed="4.93" pos="75.68" lane="a_0" slope="0.00"/>
        <person id="ped13" x="1587.84" y="1980.51" angle="345.79" speed="1.16" pos="33.68" edge="-a" slope="0.00"/>
    </timestep>
    <timestep time="6.40">
        <vehicle id="bike133" x="1592.26" y="1957.86" angle="165.79" type="bike_bicycle" speed="4.88" pos="76.16" lane="a_0" slope="0.00"/>
        <person id="ped13" x="1587.82" y="1980.62" angle="345.79" speed="1.19" pos="33.80" edge="-a" slope="0.00"/>
    </timestep>
    <timestep time="6.50">
        <vehicle id="bike133" x="1592.38" y="1957.40" angle="165.79" type="bike_bicycle" speed="4.83" pos="76.65" lane="a_0" slope="0.00"/>
        <person id="ped13" x="1587.79" y="1980.73" angle="345.79" speed="1.13" pos="33.91" edge="-a" slope="0.00"/>
    </timestep>
    <timestep time="6.60">
        <vehicle id="bike133" x="1592.50" y="1956.93" angle="165.79" type="bike_bicycle" speed="4.77" pos="77.12" lane="a_0" slope="0.00"/>
        <person id="ped13" x="1587.76" y="1980.83" angle="345.79" speed="1.06" pos="34.02" edge="-a" slope="0.00"/>
    </timestep>
    <timestep time="6.70">
        <vehicle id="bike133" x="1592.61" y="1956.48" angle="165.79" type="bike_bicycle" speed="4.70" pos="77.59" lane="a_0" slope="0.00"/>
        <person id="ped13" x="1587.74" y="1980.93" angle="345.79" speed="0.97" pos="34.12" edge="-a" slope="0.00"/>
    </timestep>
    <timestep time="6.80">
        <vehicle id="bike133" x="1592.73" y="1956.03" angle="165.79" type="bike_bicycle" speed="4.63" pos="78.06" lane="a_0" slope="0.00"/>
        <person id="ped13" x="1587.71" y="1981.04" angle="345.79" speed="1.18" pos="34.24" edge="-a" slope="0.00"/>
    </timestep>
    <timestep time="6.90">
        <vehicle id="bike133" x="1592.84" y="1955.59" angle="165.79" type="bike_bicycle" speed="4.55" pos="78.51" lane="a_0" slope="0.00"/>
        <person id="ped13" x="1587.68" y="1981.15" angle="345.79" speed="1.15" pos="34.35" edge="-a" slope="0.00"/>
    </timestep>
    <timestep time="7.00">
        <vehicle id="bike133" x="1592.95" y="1955.16" angle="165.79" type="bike_bicycle" speed="4.46" pos="78.96" lane="a_0" slope="0.00"/>
        <person id="ped13" x="1587.66" y="1981.25" angle="345.79" speed="0.96" pos="34.45" edge="-a" slope="0.00"/>
    </timestep>
    <timestep time="7.10">
        <vehicle id="bike133" x="1593.06" y="1954.73" angle="165.79" type="bike_bicycle" speed="4.36" pos="79.39" lane="a_0" slope="0.00"/>
        <person id="ped13" x="1587.63" y="1981.35" angle="345.79" speed="1.12" pos="34.56" edge="-a" slope="0.00"/>
    </timestep>
    <timestep time="7.20">
        <vehicle id="bike133" x="1593.16" y="1954.32" angle="165.79" type="bike_bicycle" speed="4.26" pos="79.82" lane="a_0" slope="0.00"/>
        <person id="ped13" x="1587.60" y="1981.46" angle="345.79" speed="1.11" pos="34.67" edge="-a" slope="0.00"/>
    </timestep>
    <timestep time="7.30">
        <vehicle id="bike133" x="1593.26" y="1953.92" angle="165.79" type="bike_bicycle" speed="4.15" pos="80.23" lane="a_0" slope="0.00"/>
        <person id="ped13" x="1587.57" y="1981.58" angle="345.79" speed="1.17" pos="34.79" edge="-a" slope="0.00"/>
    </timestep>
    <timestep time="7.40">
        <vehicle id="bike133" x="1593.36" y="1953.53" angle="165.79" type="bike_bicycle" speed="4.03" pos="80.64" lane="a_0" slope="0.00"/>
        <person id="ped13" x="1587.55" y="1981.68" angle="345.79" speed="1.06" pos="34.89" edge="-a" slope="0.00"/>
    </timestep>
    <timestep time="7.50">
        <vehicle id="bike133" x="1593.46" y="1953.15" angle="165.79" type="bike_bicycle" speed="3.91" pos="81.03" lane="a_0" slope="0.00"/>
        <person id="ped13" x="1587.52" y="1981.79" angle="345.79" speed="1.14" pos="35.01" edge="-a" slope="0.00"/>
    </timestep>
    <timestep time="7.60">
        <vehicle id="bike133" x="1593.55" y="1952.78" angle="165.79" type="bike_bicycle" speed="3.78" pos="81.41" lane="a_0" slope="0.00"/>
        <person id="ped13" x="1587.49" y="1981.90" angle="345.79" speed="1.15" pos="35.12" edge="-a" slope="0.00"/>
    </timestep>
    <timestep time="7.70">
        <vehicle id="bike133" x="1593.64" y="1952.43" angle="165.79" type="bike_bicycle" speed="3.64" pos="81.77" lane="a_0" slope="0.00"/>
        <person id="ped13" x="1587.46" y="1982.02" angle="345.79" speed="1.18" pos="35.24" edge="-a" slope="0.00"/>
    </timestep>
    <timestep time="7.80">
        <vehicle id="bike133" x="1593.73" y="1952.09" angle="165.79" type="bike_bicycle" speed="3.50" pos="82.12" lane="a_0" slope="0.00"/>
        <person id="ped13" x="1587.43" y="1982.13" angle="345.79" speed="1.17" pos="35.36" edge="-a" slope="0.00"/>
    </timestep>
    <timestep time="7.90">
        <vehicle id="bike133" x="1593.81" y="1951.77" angle="165.79" type="bike_bicycle" speed="3.35" pos="82.45" lane="a_0" slope="0.00"/>
        <person id="ped13" x="1587.41" y="1982.23" angle="345.79" speed="1.02" pos="35.46" edge="-a" slope="0.00"/>
    </timestep>
    <timestep time="8.00">
        <vehicle id="bike133" x="1593.89" y="1951.43" angle="165.79" type="bike_bicycle" speed="3.46" pos="82.80" lane="a_0" slope="0.00"/>
        <person id="ped13" x="1587.38" y="1982.34" angle="345.79" speed="1.11" pos="35.57" edge="-a" slope="0.00"/>
    </timestep>
    <timestep time="8.10">
        <vehicle id="bike133" x="1593.98" y="1951.08" angle="165.79" type="bike_bicycle" speed="3.57" pos="83.16" lane="a_0" slope="0.00"/>
        <person id="ped13" x="1587.35" y="1982.45" angle="345.79" speed="1.12" pos="35.68" edge="-a" slope="0.00"/>
    </timestep>
    <timestep time="8.20">
        <vehicle id="bike133" x="1594.07" y="1950.73" angle="165.79" type="bike_bicycle" speed="3.68" pos="83.53" lane="a_0" slope="0.00"/>
        <person id="ped13" x="1587.33" y="1982.56" angle="345.79" speed="1.14" pos="35.80" edge="-a" slope="0.00"/>
    </timestep>
    <timestep time="8.30">
        <vehicle id="bike133" x="1594.16" y="1950.36" angle="165.79" type="bike_bicycle" speed="3.79" pos="83.91" lane="a_0" slope="0.00"/>
        <person id="ped13" x="1587.30" y="1982.66" angle="345.79" speed="1.03" pos="35.90" edge="-a" slope="0.00"/>
    </timestep>
    <timestep time="8.40">
        <vehicle id="bike133" x="1594.26" y="1949.98" angle="165.79" type="bike_bicycle" speed="3.89" pos="84.30" lane="a_0" slope="0.00"/>
        <person id="ped13" x="1587.27" y="1982.76" angle="345.79" speed="1.09" pos="36.01" edge="-a" slope="0.00"/>
    </timestep>
    <timestep time="8.50">
        <vehicle id="bike133" x="1594.36" y="1949.59" angle="165.79" type="bike_bicycle" speed="4.00" pos="84.69" lane="a_0" slope="0.00"/>
        <person id="ped13" x="1587.25" y="1982.86" angle="345.79" speed="1.05" pos="36.12" edge="-a" slope="0.00"/>
    </timestep>
    <timestep time="8.60">
        <vehicle id="bike133" x="1594.46" y="1949.20" angle="165.79" type="bike_bicycle" speed="4.10" pos="85.10" lane="a_0" slope="0.00"/>
        <person id="ped13" x="1587.22" y="1982.97" angle="345.79" speed="1.10" pos="36.23" edge="-a" slope="0.00"/>
    </timestep>
    <timestep time="8.70">
        <vehicle id="bike133" x="1594.56" y="1948.79" angle="165.79" type="bike_bicycle" speed="4.20" pos="85.53" lane="a_0" slope="0.00"/>
        <person id="ped13" x="1587.19" y="1983.07" angle="345.79" speed="1.07" pos="36.33" edge="-a" slope="0.00"/>
    </timestep>
    <timestep time="8.80">
        <vehicle id="bike133" x="1594.67" y="1948.37" angle="165.79" type="bike_bicycle" speed="4.30" pos="85.95" lane="a_0" slope="0.00"/>
        <person id="ped13" x="1587.17" y="1983.17" angle="345.79" speed="1.00" pos="36.43" edge="-a" slope="0.00"/>
    </timestep>
    <timestep time="8.90">
        <vehicle id="bike133" x="1594.77" y="1947.95" angle="165.79" type="bike_bicycle" speed="4.40" pos="86.39" lane="a_0" slope="0.00"/>
        <person id="ped13" x="1587.14" y="1983.27" angle="345.79" speed="1.05" pos="36.54" edge="-a" slope="0.00"/>
    </timestep>
    <timestep time="9.00">
        <vehicle id="bike133" x="1594.87" y="1947.57" angle="165.81" type="bike_bicycle" speed="4.49" pos="0.03" lane=":29870528_13_0" slope="0.00"/>
        <person id="ped13" x="1587.12" y="1983.38" angle="345.79" speed="1.09" pos="36.65" edge="-a" slope="0.00"/>
    </timestep>
    <timestep time="9.10">
        <vehicle id="bike133" x="1594.95" y="1947.11" angle="167.19" type="bike_bicycle" speed="4.58" pos="0.49" lane=":29870528_13_0" slope="0.00"/>
        <person id="ped13" x="1587.09" y="1983.49" angle="345.79" speed="1.11" pos="36.76" edge="-a" slope="0.00"/>
    </timestep>
    <timestep time="9.20">
        <vehicle id="bike133" x="1595.02" y="1946.65" angle="168.59" type="bike_bicycle" speed="4.67" pos="0.96" lane=":29870528_13_0" slope="0.00"/>
        <person id="ped13" x="1587.07" y="1983.58" angle="345.79" speed="0.96" pos="36.85" edge="-a" slope="0.00"/>
    </timestep>
    <timestep time="9.30">
        <vehicle id="bike133" x="1595.10" y="1946.18" angle="170.02" type="bike_bicycle" speed="4.76" pos="1.43" lane=":29870528_13_0" slope="0.00"/>
        <person id="ped13" x="1587.04" y="1983.70" angle="345.79" speed="1.19" pos="36.97" edge="-a" slope="0.00"/>
    </timestep>
    <timestep time="9.40">
        <vehicle id="bike133" x="1595.18" y="1945.71" angle="170.44" type="bike_bicycle" speed="4.84" pos="1.92" lane=":29870528_13_0" slope="0.00"/>
        <person id="ped13" x="1587.01" y="1983.80" angle="345.79" speed="1.12" pos="37.08" edge="-a" slope="0.00"/>
    </timestep>