<?xml version="1.0" encoding="UTF-8"?>

<!-- generated on Mon Dec 21 11:44:04 2020 by Eclipse SUMO sumo Version v1_8_0+0308-181629d
This data file and the accompanying materials
are made available under the terms of the Eclipse Public License v2.0
which accompanies this distribution, and is available at
http://www.eclipse.org/legal/epl-v20.html
SPDX-License-Identifier: EPL-2.0
<configuration xmlns:xsi="http://www.w3.org/2001/XMLSchema-instance" xsi:noNamespaceSchemaLocation="http://sumo.dlr.de/xsd/sumoConfiguration.xsd">

    <input>
        <net-file value="net.net.xml"/>
        <route-files value="input_routes.rou.xml"/>
        <additional-files value="input_additional.add.xml"/>
    </input>

    <output>
        <write-license value="true"/>
        <vehroute-output value="vehroutes.xml"/>
    </output>

    <time>
        <end value="200"/>
    </time>

    <processing>
        <collision.action value="warn"/>
        <collision.stoptime value="10"/>
        <default.speeddev value="0"/>
        <default.emergencydecel value="decel"/>
    </processing>

    <report>
        <verbose value="true"/>
        <xml-validation value="never"/>
        <xml-validation.routes value="never"/>
        <no-step-log value="true"/>
    </report>

</configuration>
-->

<routes xmlns:xsi="http://www.w3.org/2001/XMLSchema-instance" xsi:noNamespaceSchemaLocation="http://sumo.dlr.de/xsd/routes_file.xsd">
    <vehicle id="horizontal.0" type="SUMO_DEFAULT_TYPE" depart="0.00" arrival="90.00">
        <route edges="1si 2o"/>
        <stop lane="2o_0" startPos="19.83" endPos="19.83" duration="10.00"/>
    </vehicle>

    <vehicle id="always_right.0" type="SUMO_DEFAULT_TYPE" depart="0.00" arrival="94.00">
        <route edges="3si 2o"/>
        <stop lane="2o_0" startPos="17.58" endPos="17.58" duration="10.00"/>
    </vehicle>

    <vehicle id="horizontal.1" type="SUMO_DEFAULT_TYPE" depart="4.00" arrival="96.00">
        <route edges="1si 2o"/>
        <stop lane="2o_0" startPos="14.83" endPos="14.83" duration="10.00"/>
    </vehicle>

    <vehicle id="always_right.1" type="SUMO_DEFAULT_TYPE" depart="4.00" arrival="100.00">
        <route edges="3si 2o"/>
        <stop lane="2o_0" startPos="12.58" endPos="12.58" duration="10.00"/>
    </vehicle>

    <vehicle id="horizontal.2" type="SUMO_DEFAULT_TYPE" depart="8.00" arrival="115.00">
        <route edges="1si 2o"/>
        <stop lane="2o_0" startPos="9.83" endPos="9.83" duration="10.00"/>
        <stop lane="2o_0" startPos="14.63" endPos="14.63" duration="10.00"/>
    </vehicle>

    <vehicle id="always_right.2" type="SUMO_DEFAULT_TYPE" depart="8.00" arrival="116.00">
        <route edges="3si 2o"/>
        <stop lane="2o_0" startPos="7.58" endPos="7.58" duration="10.00"/>
        <stop lane="2o_0" startPos="9.83" endPos="9.83" duration="10.00"/>
    </vehicle>

    <vehicle id="horizontal.3" type="SUMO_DEFAULT_TYPE" depart="12.00" arrival="120.00">
        <route edges="1si 2o"/>
        <stop lane="2o_0" startPos="4.83" endPos="4.83" duration="10.00"/>
        <stop lane="2o_0" startPos="4.83" endPos="4.83" duration="10.00"/>
    </vehicle>

    <vehicle id="always_right.3" type="SUMO_DEFAULT_TYPE" depart="12.00" arrival="123.00">
        <route edges="3si 2o"/>
        <stop lane="2o_0" startPos="2.58" endPos="2.58" duration="10.00"/>
        <stop lane="2o_0" startPos="2.58" endPos="2.58" duration="10.00"/>
    </vehicle>

    <vehicle id="horizontal.4" type="SUMO_DEFAULT_TYPE" depart="16.00" arrival="138.00">
        <route edges="1si 2o"/>
        <stop lane="2o_0" startPos="2.38" endPos="2.38" duration="10.00"/>
    </vehicle>

    <vehicle id="always_right.4" type="SUMO_DEFAULT_TYPE" depart="16.00" arrival="141.00">
        <route edges="3si 2o"/>
        <stop lane="2o_0" startPos="0.13" endPos="0.13" duration="10.00"/>
    </vehicle>

    <vehicle id="horizontal.5" type="SUMO_DEFAULT_TYPE" depart="20.00" arrival="157.00">
        <route edges="1si 2o"/>
        <stop lane="2o_0" startPos="3.12" endPos="3.12" duration="10.00"/>
    </vehicle>

    <vehicle id="always_right.5" type="SUMO_DEFAULT_TYPE" depart="20.00" arrival="160.00">
        <route edges="3si 2o"/>
        <stop lane="2o_0" startPos="0.88" endPos="0.88" duration="10.00"/>
    </vehicle>

</routes>
