<?xml version="1.0" encoding="UTF-8"?>

<!-- generated on 2021-10-22 11:09:10 by Eclipse SUMO sumo Version v1_10_0+1606-76f2853
This data file and the accompanying materials
are made available under the terms of the Eclipse Public License v2.0
which accompanies this distribution, and is available at
http://www.eclipse.org/legal/epl-v20.html
SPDX-License-Identifier: EPL-2.0
<configuration xmlns:xsi="http://www.w3.org/2001/XMLSchema-instance" xsi:noNamespaceSchemaLocation="http://sumo.dlr.de/xsd/sumoConfiguration.xsd">

    <input>
        <net-file value="net.net.xml"/>
        <route-files value="input_routes.rou.xml"/>
    </input>

    <output>
        <write-license value="true"/>
        <fcd-output value="fcd.xml"/>
        <tripinfo-output value="tripinfos.xml"/>
        <vehroute-output value="vehroutes.xml"/>
    </output>

    <processing>
        <lanechange.duration value="3"/>
        <default.speeddev value="0"/>
    </processing>

    <report>
        <xml-validation value="never"/>
        <xml-validation.routes value="never"/>
        <no-step-log value="true"/>
    </report>

</configuration>
-->

<tripinfos xmlns:xsi="http://www.w3.org/2001/XMLSchema-instance" xsi:noNamespaceSchemaLocation="http://sumo.dlr.de/xsd/tripinfo_file.xsd">
    <tripinfo id="oncoming1" depart="0.00" departLane="-a_0" departPos="0.00" departSpeed="13.89" departDelay="0.00" arrival="15.00" arrivalLane="-a_0" arrivalPos="200.00" arrivalSpeed="13.89" duration="15.00" routeLength="200.00" waitingTime="0.00" waitingCount="0" stopTime="0.00" timeLoss="0.00" rerouteNo="0" devices="vehroute_oncoming1 tripinfo_oncoming1 fcd_oncoming1" vType="DEFAULT_VEHTYPE" speedFactor="1.00" vaporized=""/>
    <tripinfo id="oncoming2" depart="2.00" departLane="-a_0" departPos="0.00" departSpeed="13.89" departDelay="0.00" arrival="17.00" arrivalLane="-a_0" arrivalPos="200.00" arrivalSpeed="13.89" duration="15.00" routeLength="200.00" waitingTime="0.00" waitingCount="0" stopTime="0.00" timeLoss="0.00" rerouteNo="0" devices="vehroute_oncoming2 tripinfo_oncoming2 fcd_oncoming2" vType="DEFAULT_VEHTYPE" speedFactor="1.00" vaporized=""/>
    <tripinfo id="oncoming3" depart="12.00" departLane="-a_0" departPos="0.00" departSpeed="13.89" departDelay="0.00" arrival="27.00" arrivalLane="-a_0" arrivalPos="200.00" arrivalSpeed="13.89" duration="15.00" routeLength="200.00" waitingTime="0.00" waitingCount="0" stopTime="0.00" timeLoss="0.00" rerouteNo="0" devices="vehroute_oncoming3 tripinfo_oncoming3 fcd_oncoming3" vType="DEFAULT_VEHTYPE" speedFactor="1.00" vaporized=""/>
    <tripinfo id="ego" depart="0.00" departLane="a_0" departPos="0.00" departSpeed="0.00" departDelay="0.00" arrival="34.00" arrivalLane="a_0" arrivalPos="200.00" arrivalSpeed="13.89" duration="34.00" routeLength="200.00" waitingTime="4.00" waitingCount="1" stopTime="10.00" timeLoss="9.43" rerouteNo="0" devices="vehroute_ego tripinfo_ego fcd_ego" vType="DEFAULT_VEHTYPE" speedFactor="1.00" vaporized=""/>
</tripinfos>
