<?xml version="1.0" encoding="UTF-8"?>

<!-- generated on 2023-01-12 15:06:47 by Eclipse SUMO sumo Version v1_15_0+1597-82f8b5667eb
<configuration xmlns:xsi="http://www.w3.org/2001/XMLSchema-instance" xsi:noNamespaceSchemaLocation="http://sumo.dlr.de/xsd/sumoConfiguration.xsd">

    <input>
        <net-file value="000/../input_net.net.xml"/>
        <route-files value="000/input_trips_000.rou.xml"/>
        <additional-files value="000/../edgedata.add.xml"/>
    </input>

    <output>
        <output-prefix value="000/"/>
        <summary-output value="000/../summary_000.xml"/>
        <tripinfo-output value="000/../tripinfo_000.xml"/>
        <statistic-output value="000/../stats.xml"/>
    </output>

    <time>
        <begin value="0"/>
    </time>

    <processing>
        <route-steps value="200"/>
        <no-internal-links value="False"/>
        <time-to-teleport value="300"/>
        <time-to-teleport.highways value="0"/>
        <eager-insert value="False"/>
    </processing>

    <report>
        <verbose value="true"/>
        <no-warnings value="False"/>
        <log value="000/../iteration_000.sumo.log"/>
        <no-step-log value="true"/>
    </report>

    <random_number>
        <random value="False"/>
    </random_number>

</configuration>
-->

<statistics xmlns:xsi="http://www.w3.org/2001/XMLSchema-instance" xsi:noNamespaceSchemaLocation="http://sumo.dlr.de/xsd/statistic_file.xsd">
    <vehicles loaded="10" inserted="10" running="0" waiting="0"/>
    <teleports total="0" jam="0" yield="0" wrongLane="0"/>
    <safety collisions="0" emergencyStops="0"/>
    <persons loaded="0" running="0" jammed="0"/>
    <personTeleports total="0" abortWait="0" wrongDest="0"/>
    <vehicleTripStatistics count="10" routeLength="2494.90" speed="18.00" duration="139.40" waitingTime="0.00" timeLoss="8.16" departDelay="0.00" departDelayWaiting="-1.00" totalTravelTime="1394.00" totalDepartDelay="0.00"/>
    <pedestrianStatistics number="0" routeLength="0.00" duration="0.00" timeLoss="0.00"/>
    <rideStatistics number="0"/>
    <transportStatistics number="0"/>
</statistics>
