<?xml version="1.0" encoding="UTF-8"?>

<!-- generated on Thu Jun 21 08:18:41 2018 by Eclipse SUMO Version bb06134
<configuration xmlns:xsi="http://www.w3.org/2001/XMLSchema-instance" xsi:noNamespaceSchemaLocation="http://sumo.dlr.de/xsd/sumoConfiguration.xsd">

    <input>
        <net-file value="input_net.net.xml"/>
        <route-files value="input_routes.rou.xml"/>
    </input>

    <output>
        <vehroute-output value="vehroutes.xml"/>
    </output>

    <processing>
        <time-to-teleport value="-1"/>
    </processing>

    <report>
        <duration-log.disable value="true"/>
        <no-step-log value="true"/>
    </report>

    <traci_server>
        <remote-port value="54159"/>
    </traci_server>

    <gui_only>
        <quit-on-end value="true"/>
        <start value="true"/>
    </gui_only>

</configuration>
-->

<routes xmlns:xsi="http://www.w3.org/2001/XMLSchema-instance" xsi:noNamespaceSchemaLocation="http://sumo.dlr.de/xsd/routes_file.xsd">
    <vehicle id="ego" depart="0.00" arrival="419.00">
        <routeDistribution>
            <route replacedOnEdge="beg" reason="traci:rerouteTraveltime" replacedAtTime="1.00" probability="0" edges="beg middle2 end"/>
            <route edges="beg middle3 end"/>
        </routeDistribution>
    </vehicle>

</routes>
