<?xml version="1.0" encoding="UTF-8"?>

<!-- generated on Thu Jun 12 12:24:24 2014 by SUMO sumo Version dev-SVN-r16586
<?xml version="1.0" encoding="UTF-8"?>

<configuration xmlns:xsi="http://www.w3.org/2001/XMLSchema-instance" xsi:noNamespaceSchemaLocation="http://sumo-sim.org/xsd/sumoConfiguration.xsd">

    <input>
        <net-file value="net.net.xml"/>
        <route-files value="input_routes.rou.xml"/>
        <additional-files value="input_additional.add.xml"/>
    </input>

    <time>
        <begin value="0"/>
        <end value="10000"/>
    </time>

    <report>
        <xml-validation value="never"/>
        <no-duration-log value="true"/>
        <no-step-log value="true"/>
    </report>

</configuration>
-->

<meandata xmlns:xsi="http://www.w3.org/2001/XMLSchema-instance" xsi:noNamespaceSchemaLocation="http://sumo-sim.org/xsd/meandata_file.xsd">
    <interval begin="0.00" end="60.00" id="dump_60">
        <edge id="1/1to2/1" sampledSeconds="486.34" traveltime="58.59" density="8.27" occupancy="4.14" waitingTime="1.00" speed="16.73" departed="16" arrived="0" entered="0" left="2" laneChangedFrom="0" laneChangedTo="0"/>
        <edge id="2/1to3/1" sampledSeconds="7.86" traveltime="50.00" density="0.13" occupancy="0.07" waitingTime="0.00" speed="19.60" departed="0" arrived="0" entered="2" left="0" laneChangedFrom="0" laneChangedTo="0"/>
    </interval>
    <interval begin="60.00" end="120.00" id="dump_60">
        <edge id="1/1to2/1" sampledSeconds="822.40" traveltime="54.83" density="13.99" occupancy="6.99" waitingTime="0.00" speed="17.87" departed="15" arrived="0" entered="0" left="15" laneChangedFrom="0" laneChangedTo="0"/>
        <edge id="2/1to3/1" sampledSeconds="534.69" traveltime="50.00" density="9.09" occupancy="4.55" waitingTime="0.00" speed="19.60" departed="0" arrived="0" entered="15" left="5" laneChangedFrom="0" laneChangedTo="0"/>
        <edge id="3/1to4/1" sampledSeconds="39.92" traveltime="50.00" density="0.68" occupancy="0.34" waitingTime="0.00" speed="19.60" departed="0" arrived="0" entered="5" left="0" laneChangedFrom="0" laneChangedTo="0"/>
    </interval>
    <interval begin="120.00" end="180.00" id="dump_60">
        <edge id="1/1to2/1" sampledSeconds="822.40" traveltime="54.83" density="13.99" occupancy="6.99" waitingTime="0.00" speed="17.87" departed="15" arrived="0" entered="0" left="15" laneChangedFrom="0" laneChangedTo="0"/>
        <edge id="2/1to3/1" sampledSeconds="753.78" traveltime="50.00" density="12.82" occupancy="6.41" waitingTime="0.00" speed="19.60" departed="0" arrived="0" entered="15" left="15" laneChangedFrom="0" laneChangedTo="0"/>
        <edge id="3/1to4/1" sampledSeconds="625.43" traveltime="50.00" density="10.64" occupancy="5.32" waitingTime="0.00" speed="19.60" departed="0" arrived="0" entered="15" left="7" laneChangedFrom="0" laneChangedTo="0"/>
        <edge id="4/1to5/1" sampledSeconds="97.11" traveltime="50.00" density="1.65" occupancy="0.83" waitingTime="0.00" speed="19.60" departed="0" arrived="0" entered="7" left="0" laneChangedFrom="0" laneChangedTo="0"/>
    </interval>
    <interval begin="180.00" end="240.00" id="dump_60">
        <edge id="1/1to2/1" sampledSeconds="822.40" traveltime="54.83" density="13.99" occupancy="6.99" waitingTime="0.00" speed="17.87" departed="15" arrived="0" entered="0" left="15" laneChangedFrom="0" laneChangedTo="0"/>
        <edge id="2/1to3/1" sampledSeconds="753.78" traveltime="50.00" density="12.82" occupancy="6.41" waitingTime="0.00" speed="19.60" departed="0" arrived="0" entered="15" left="15" laneChangedFrom="0" laneChangedTo="0"/>
        <edge id="3/1to4/1" sampledSeconds="753.78" traveltime="50.00" density="12.82" occupancy="6.41" waitingTime="0.00" speed="19.60" departed="0" arrived="0" entered="15" left="15" laneChangedFrom="0" laneChangedTo="0"/>
        <edge id="4/1to5/1" sampledSeconds="692.78" traveltime="50.00" density="11.78" occupancy="5.89" waitingTime="0.00" speed="19.60" departed="0" arrived="0" entered="15" left="9" laneChangedFrom="0" laneChangedTo="0"/>
        <edge id="5/1to6/1" sampledSeconds="177.68" traveltime="50.00" density="3.02" occupancy="1.51" waitingTime="0.00" speed="19.60" departed="0" arrived="0" entered="9" left="0" laneChangedFrom="0" laneChangedTo="0"/>
    </interval>
    <interval begin="240.00" end="300.00" id="dump_60">
        <edge id="1/1to2/1" sampledSeconds="822.40" traveltime="54.83" density="13.99" occupancy="6.99" waitingTime="0.00" speed="17.87" departed="15" arrived="0" entered="0" left="15" laneChangedFrom="0" laneChangedTo="0"/>
        <edge id="2/1to3/1" sampledSeconds="753.78" traveltime="50.00" density="12.82" occupancy="6.41" waitingTime="0.00" speed="19.60" departed="0" arrived="0" entered="15" left="15" laneChangedFrom="0" laneChangedTo="0"/>
        <edge id="3/1to4/1" sampledSeconds="753.78" traveltime="50.00" density="12.82" occupancy="6.41" waitingTime="0.00" speed="19.60" departed="0" arrived="0" entered="15" left="15" laneChangedFrom="0" laneChangedTo="0"/>
        <edge id="4/1to5/1" sampledSeconds="753.78" traveltime="50.00" density="12.82" occupancy="6.41" waitingTime="0.00" speed="19.60" departed="0" arrived="0" entered="15" left="15" laneChangedFrom="0" laneChangedTo="0"/>
        <edge id="5/1to6/1" sampledSeconds="735.17" traveltime="50.00" density="12.50" occupancy="6.25" waitingTime="0.00" speed="19.60" departed="0" arrived="0" entered="15" left="12" laneChangedFrom="0" laneChangedTo="0"/>
        <edge id="6/1to7/1" sampledSeconds="283.32" traveltime="50.00" density="4.82" occupancy="2.41" waitingTime="0.00" speed="19.60" departed="0" arrived="0" entered="12" left="0" laneChangedFrom="0" laneChangedTo="0"/>
    </interval>
    <interval begin="300.00" end="360.00" id="dump_60">
        <edge id="1/1to2/1" sampledSeconds="822.40" traveltime="54.83" density="13.99" occupancy="6.99" waitingTime="0.00" speed="17.87" departed="15" arrived="0" entered="0" left="15" laneChangedFrom="0" laneChangedTo="0"/>
        <edge id="2/1to3/1" sampledSeconds="753.78" traveltime="50.00" density="12.82" occupancy="6.41" waitingTime="0.00" speed="19.60" departed="0" arrived="0" entered="15" left="15" laneChangedFrom="0" laneChangedTo="0"/>
        <edge id="3/1to4/1" sampledSeconds="753.78" traveltime="50.00" density="12.82" occupancy="6.41" waitingTime="0.00" speed="19.60" departed="0" arrived="0" entered="15" left="15" laneChangedFrom="0" laneChangedTo="0"/>
        <edge id="4/1to5/1" sampledSeconds="753.78" traveltime="50.00" density="12.82" occupancy="6.41" waitingTime="0.00" speed="19.60" departed="0" arrived="0" entered="15" left="15" laneChangedFrom="0" laneChangedTo="0"/>
        <edge id="5/1to6/1" sampledSeconds="753.78" traveltime="50.00" density="12.82" occupancy="6.41" waitingTime="0.00" speed="19.60" departed="0" arrived="0" entered="15" left="15" laneChangedFrom="0" laneChangedTo="0"/>
        <edge id="6/1to7/1" sampledSeconds="753.89" traveltime="50.00" density="12.82" occupancy="6.41" waitingTime="0.00" speed="19.60" departed="0" arrived="0" entered="15" left="14" laneChangedFrom="0" laneChangedTo="0"/>
        <edge id="7/1to8/1" sampledSeconds="406.70" traveltime="50.00" density="6.92" occupancy="3.46" waitingTime="0.00" speed="19.60" departed="0" arrived="0" entered="14" left="2" laneChangedFrom="0" laneChangedTo="0"/>
        <edge id="8/1to9/1" sampledSeconds="6.04" traveltime="50.00" density="0.10" occupancy="0.05" waitingTime="0.00" speed="19.60" departed="0" arrived="0" entered="2" left="0" laneChangedFrom="0" laneChangedTo="0"/>
    </interval>
    <interval begin="360.00" end="420.00" id="dump_60">
        <edge id="1/1to2/1" sampledSeconds="822.40" traveltime="54.83" density="13.99" occupancy="6.99" waitingTime="0.00" speed="17.87" departed="15" arrived="0" entered="0" left="15" laneChangedFrom="0" laneChangedTo="0"/>
        <edge id="2/1to3/1" sampledSeconds="753.78" traveltime="50.00" density="12.82" occupancy="6.41" waitingTime="0.00" speed="19.60" departed="0" arrived="0" entered="15" left="15" laneChangedFrom="0" laneChangedTo="0"/>
        <edge id="3/1to4/1" sampledSeconds="753.78" traveltime="50.00" density="12.82" occupancy="6.41" waitingTime="0.00" speed="19.60" departed="0" arrived="0" entered="15" left="15" laneChangedFrom="0" laneChangedTo="0"/>
        <edge id="4/1to5/1" sampledSeconds="753.78" traveltime="50.00" density="12.82" occupancy="6.41" waitingTime="0.00" speed="19.60" departed="0" arrived="0" entered="15" left="15" laneChangedFrom="0" laneChangedTo="0"/>
        <edge id="5/1to6/1" sampledSeconds="753.78" traveltime="50.00" density="12.82" occupancy="6.41" waitingTime="0.00" speed="19.60" departed="0" arrived="0" entered="15" left="15" laneChangedFrom="0" laneChangedTo="0"/>
        <edge id="6/1to7/1" sampledSeconds="753.78" traveltime="50.00" density="12.82" occupancy="6.41" waitingTime="0.00" speed="19.60" departed="0" arrived="0" entered="15" left="15" laneChangedFrom="0" laneChangedTo="0"/>
        <edge id="7/1to8/1" sampledSeconds="753.78" traveltime="50.00" density="12.82" occupancy="6.41" waitingTime="0.00" speed="19.60" departed="0" arrived="0" entered="15" left="15" laneChangedFrom="0" laneChangedTo="0"/>
        <edge id="8/1to9/1" sampledSeconds="524.71" traveltime="50.00" density="8.92" occupancy="4.46" waitingTime="0.00" speed="19.60" departed="0" arrived="0" entered="15" left="4" laneChangedFrom="0" laneChangedTo="0"/>
        <edge id="9/1to10/1" sampledSeconds="36.16" traveltime="50.00" density="0.62" occupancy="0.31" waitingTime="0.00" speed="19.60" departed="0" arrived="0" entered="4" left="0" laneChangedFrom="0" laneChangedTo="0"/>
    </interval>
    <interval begin="420.00" end="480.00" id="dump_60">
        <edge id="1/1to2/1" sampledSeconds="822.40" traveltime="54.83" density="13.99" occupancy="6.99" waitingTime="0.00" speed="17.87" departed="15" arrived="0" entered="0" left="15" laneChangedFrom="0" laneChangedTo="0"/>
        <edge id="10/1to1/1" sampledSeconds="90.74" traveltime="50.00" density="1.54" occupancy="0.77" waitingTime="0.00" speed="19.60" departed="0" arrived="0" entered="7" left="0" laneChangedFrom="0" laneChangedTo="0"/>
        <edge id="2/1to3/1" sampledSeconds="753.78" traveltime="50.00" density="12.82" occupancy="6.41" waitingTime="0.00" speed="19.60" departed="0" arrived="0" entered="15" left="15" laneChangedFrom="0" laneChangedTo="0"/>
        <edge id="3/1to4/1" sampledSeconds="753.78" traveltime="50.00" density="12.82" occupancy="6.41" waitingTime="0.00" speed="19.60" departed="0" arrived="0" entered="15" left="15" laneChangedFrom="0" laneChangedTo="0"/>
        <edge id="4/1to5/1" sampledSeconds="753.78" traveltime="50.00" density="12.82" occupancy="6.41" waitingTime="0.00" speed="19.60" departed="0" arrived="0" entered="15" left="15" laneChangedFrom="0" laneChangedTo="0"/>
        <edge id="5/1to6/1" sampledSeconds="753.78" traveltime="50.00" density="12.82" occupancy="6.41" waitingTime="0.00" speed="19.60" departed="0" arrived="0" entered="15" left="15" laneChangedFrom="0" laneChangedTo="0"/>
        <edge id="6/1to7/1" sampledSeconds="753.78" traveltime="50.00" density="12.82" occupancy="6.41" waitingTime="0.00" speed="19.60" departed="0" arrived="0" entered="15" left="15" laneChangedFrom="0" laneChangedTo="0"/>
        <edge id="7/1to8/1" sampledSeconds="753.78" traveltime="50.00" density="12.82" occupancy="6.41" waitingTime="0.00" speed="19.60" departed="0" arrived="0" entered="15" left="15" laneChangedFrom="0" laneChangedTo="0"/>
        <edge id="8/1to9/1" sampledSeconds="753.78" traveltime="50.00" density="12.82" occupancy="6.41" waitingTime="0.00" speed="19.60" departed="0" arrived="0" entered="15" left="15" laneChangedFrom="0" laneChangedTo="0"/>
        <edge id="9/1to10/1" sampledSeconds="618.16" traveltime="50.00" density="10.51" occupancy="5.26" waitingTime="0.00" speed="19.60" departed="0" arrived="0" entered="15" left="7" laneChangedFrom="0" laneChangedTo="0"/>
    </interval>
    <interval begin="480.00" end="540.00" id="dump_60">
        <edge id="1/1to2/1" sampledSeconds="818.86" traveltime="54.51" density="13.93" occupancy="6.96" waitingTime="1.00" speed="17.98" departed="13" arrived="0" entered="2" left="15" laneChangedFrom="0" laneChangedTo="0"/>
        <edge id="10/1to1/1" sampledSeconds="826.38" traveltime="62.81" density="14.05" occupancy="7.03" waitingTime="24.00" speed="15.60" departed="0" arrived="0" entered="15" left="2" laneChangedFrom="0" laneChangedTo="0"/>
        <edge id="2/1to3/1" sampledSeconds="753.78" traveltime="50.00" density="12.82" occupancy="6.41" waitingTime="0.00" speed="19.60" departed="0" arrived="0" entered="15" left="15" laneChangedFrom="0" laneChangedTo="0"/>
        <edge id="3/1to4/1" sampledSeconds="753.78" traveltime="50.00" density="12.82" occupancy="6.41" waitingTime="0.00" speed="19.60" departed="0" arrived="0" entered="15" left="15" laneChangedFrom="0" laneChangedTo="0"/>
        <edge id="4/1to5/1" sampledSeconds="753.78" traveltime="50.00" density="12.82" occupancy="6.41" waitingTime="0.00" speed="19.60" departed="0" arrived="0" entered="15" left="15" laneChangedFrom="0" laneChangedTo="0"/>
        <edge id="5/1to6/1" sampledSeconds="753.78" traveltime="50.00" density="12.82" occupancy="6.41" waitingTime="0.00" speed="19.60" departed="0" arrived="0" entered="15" left="15" laneChangedFrom="0" laneChangedTo="0"/>
        <edge id="6/1to7/1" sampledSeconds="753.78" traveltime="50.00" density="12.82" occupancy="6.41" waitingTime="0.00" speed="19.60" departed="0" arrived="0" entered="15" left="15" laneChangedFrom="0" laneChangedTo="0"/>
        <edge id="7/1to8/1" sampledSeconds="753.78" traveltime="50.00" density="12.82" occupancy="6.41" waitingTime="0.00" speed="19.60" departed="0" arrived="0" entered="15" left="15" laneChangedFrom="0" laneChangedTo="0"/>
        <edge id="8/1to9/1" sampledSeconds="753.78" traveltime="50.00" density="12.82" occupancy="6.41" waitingTime="0.00" speed="19.60" departed="0" arrived="0" entered="15" left="15" laneChangedFrom="0" laneChangedTo="0"/>
        <edge id="9/1to10/1" sampledSeconds="753.78" traveltime="50.00" density="12.82" occupancy="6.41" waitingTime="0.00" speed="19.60" departed="0" arrived="0" entered="15" left="15" laneChangedFrom="0" laneChangedTo="0"/>
    </interval>
    <interval begin="540.00" end="600.00" id="dump_60">
        <edge id="1/1to2/1" sampledSeconds="811.87" traveltime="53.70" density="13.81" occupancy="6.90" waitingTime="5.00" speed="18.25" departed="8" arrived="0" entered="7" left="15" laneChangedFrom="0" laneChangedTo="0"/>
        <edge id="10/1to1/1" sampledSeconds="1456.57" traveltime="115.67" density="24.77" occupancy="12.39" waitingTime="177.00" speed="8.47" departed="0" arrived="0" entered="15" left="7" laneChangedFrom="0" laneChangedTo="0"/>
        <edge id="2/1to3/1" sampledSeconds="754.50" traveltime="50.00" density="12.83" occupancy="6.42" waitingTime="0.00" speed="19.60" departed="0" arrived="0" entered="15" left="15" laneChangedFrom="0" laneChangedTo="0"/>
        <edge id="3/1to4/1" sampledSeconds="753.78" traveltime="50.00" density="12.82" occupancy="6.41" waitingTime="0.00" speed="19.60" departed="0" arrived="0" entered="15" left="15" laneChangedFrom="0" laneChangedTo="0"/>
        <edge id="4/1to5/1" sampledSeconds="753.78" traveltime="50.00" density="12.82" occupancy="6.41" waitingTime="0.00" speed="19.60" departed="0" arrived="0" entered="15" left="15" laneChangedFrom="0" laneChangedTo="0"/>
        <edge id="5/1to6/1" sampledSeconds="753.78" traveltime="50.00" density="12.82" occupancy="6.41" waitingTime="0.00" speed="19.60" departed="0" arrived="0" entered="15" left="15" laneChangedFrom="0" laneChangedTo="0"/>
        <edge id="6/1to7/1" sampledSeconds="753.78" traveltime="50.00" density="12.82" occupancy="6.41" waitingTime="0.00" speed="19.60" departed="0" arrived="0" entered="15" left="15" laneChangedFrom="0" laneChangedTo="0"/>
        <edge id="7/1to8/1" sampledSeconds="753.78" traveltime="50.00" density="12.82" occupancy="6.41" waitingTime="0.00" speed="19.60" departed="0" arrived="0" entered="15" left="15" laneChangedFrom="0" laneChangedTo="0"/>
        <edge id="8/1to9/1" sampledSeconds="753.78" traveltime="50.00" density="12.82" occupancy="6.41" waitingTime="0.00" speed="19.60" departed="0" arrived="0" entered="15" left="15" laneChangedFrom="0" laneChangedTo="0"/>
        <edge id="9/1to10/1" sampledSeconds="753.78" traveltime="50.00" density="12.82" occupancy="6.41" waitingTime="0.00" speed="19.60" departed="0" arrived="0" entered="15" left="15" laneChangedFrom="0" laneChangedTo="0"/>
    </interval>
    <interval begin="600.00" end="660.00" id="dump_60">
        <edge id="1/1to2/1" sampledSeconds="849.14" traveltime="53.76" density="14.44" occupancy="7.22" waitingTime="1.00" speed="18.23" departed="10" arrived="0" entered="5" left="16" laneChangedFrom="0" laneChangedTo="0"/>
        <edge id="10/1to1/1" sampledSeconds="1956.08" traveltime="175.86" density="33.27" occupancy="16.63" waitingTime="234.00" speed="5.57" departed="0" arrived="0" entered="15" left="6" laneChangedFrom="0" laneChangedTo="0"/>
        <edge id="2/1to3/1" sampledSeconds="762.26" traveltime="50.00" density="12.96" occupancy="6.48" waitingTime="0.00" speed="19.60" departed="0" arrived="0" entered="16" left="15" laneChangedFrom="0" laneChangedTo="0"/>
        <edge id="3/1to4/1" sampledSeconds="754.56" traveltime="50.00" density="12.83" occupancy="6.42" waitingTime="0.00" speed="19.60" departed="0" arrived="0" entered="15" left="15" laneChangedFrom="0" laneChangedTo="0"/>
        <edge id="4/1to5/1" sampledSeconds="753.78" traveltime="50.00" density="12.82" occupancy="6.41" waitingTime="0.00" speed="19.60" departed="0" arrived="0" entered="15" left="15" laneChangedFrom="0" laneChangedTo="0"/>
        <edge id="5/1to6/1" sampledSeconds="753.78" traveltime="50.00" density="12.82" occupancy="6.41" waitingTime="0.00" speed="19.60" departed="0" arrived="0" entered="15" left="15" laneChangedFrom="0" laneChangedTo="0"/>
        <edge id="6/1to7/1" sampledSeconds="753.78" traveltime="50.00" density="12.82" occupancy="6.41" waitingTime="0.00" speed="19.60" departed="0" arrived="0" entered="15" left="15" laneChangedFrom="0" laneChangedTo="0"/>
        <edge id="7/1to8/1" sampledSeconds="753.78" traveltime="50.00" density="12.82" occupancy="6.41" waitingTime="0.00" speed="19.60" departed="0" arrived="0" entered="15" left="15" laneChangedFrom="0" laneChangedTo="0"/>
        <edge id="8/1to9/1" sampledSeconds="753.78" traveltime="50.00" density="12.82" occupancy="6.41" waitingTime="0.00" speed="19.60" departed="0" arrived="0" entered="15" left="15" laneChangedFrom="0" laneChangedTo="0"/>
        <edge id="9/1to10/1" sampledSeconds="753.78" traveltime="50.00" density="12.82" occupancy="6.41" waitingTime="0.00" speed="19.60" departed="0" arrived="0" entered="15" left="15" laneChangedFrom="0" laneChangedTo="0"/>
    </interval>
    <interval begin="660.00" end="720.00" id="dump_60">
        <edge id="1/1to2/1" sampledSeconds="840.25" traveltime="53.58" density="14.29" occupancy="7.15" waitingTime="1.00" speed="18.29" departed="9" arrived="0" entered="7" left="15" laneChangedFrom="0" laneChangedTo="0"/>
        <edge id="10/1to1/1" sampledSeconds="2469.79" traveltime="262.10" density="42.01" occupancy="21.00" waitingTime="404.00" speed="3.74" departed="0" arrived="0" entered="15" left="6" laneChangedFrom="0" laneChangedTo="0"/>
        <edge id="2/1to3/1" sampledSeconds="793.77" traveltime="50.00" density="13.50" occupancy="6.75" waitingTime="0.00" speed="19.60" departed="0" arrived="0" entered="15" left="15" laneChangedFrom="0" laneChangedTo="0"/>
        <edge id="3/1to4/1" sampledSeconds="768.97" traveltime="50.00" density="13.08" occupancy="6.54" waitingTime="0.00" speed="19.60" departed="0" arrived="0" entered="15" left="15" laneChangedFrom="0" laneChangedTo="0"/>
        <edge id="4/1to5/1" sampledSeconds="754.21" traveltime="50.00" density="12.83" occupancy="6.41" waitingTime="0.00" speed="19.60" departed="0" arrived="0" entered="15" left="16" laneChangedFrom="0" laneChangedTo="0"/>
        <edge id="5/1to6/1" sampledSeconds="754.10" traveltime="50.00" density="12.83" occupancy="6.41" waitingTime="0.00" speed="19.60" departed="0" arrived="0" entered="16" left="15" laneChangedFrom="0" laneChangedTo="0"/>
        <edge id="6/1to7/1" sampledSeconds="753.78" traveltime="50.00" density="12.82" occupancy="6.41" waitingTime="0.00" speed="19.60" departed="0" arrived="0" entered="15" left="15" laneChangedFrom="0" laneChangedTo="0"/>
        <edge id="7/1to8/1" sampledSeconds="753.78" traveltime="50.00" density="12.82" occupancy="6.41" waitingTime="0.00" speed="19.60" departed="0" arrived="0" entered="15" left="15" laneChangedFrom="0" laneChangedTo="0"/>
        <edge id="8/1to9/1" sampledSeconds="753.78" traveltime="50.00" density="12.82" occupancy="6.41" waitingTime="0.00" speed="19.60" departed="0" arrived="0" entered="15" left="15" laneChangedFrom="0" laneChangedTo="0"/>
        <edge id="9/1to10/1" sampledSeconds="753.78" traveltime="50.00" density="12.82" occupancy="6.41" waitingTime="0.00" speed="19.60" departed="0" arrived="0" entered="15" left="15" laneChangedFrom="0" laneChangedTo="0"/>
    </interval>
    <interval begin="720.00" end="780.00" id="dump_60">
        <edge id="1/1to2/1" sampledSeconds="887.54" traveltime="53.88" density="15.10" occupancy="7.55" waitingTime="1.00" speed="18.19" departed="3" arrived="0" entered="16" left="16" laneChangedFrom="0" laneChangedTo="0"/>
        <edge id="10/1to1/1" sampledSeconds="2817.37" traveltime="306.17" density="47.92" occupancy="23.96" waitingTime="440.00" speed="3.20" departed="0" arrived="0" entered="15" left="16" laneChangedFrom="0" laneChangedTo="0"/>
        <edge id="2/1to3/1" sampledSeconds="781.73" traveltime="50.00" density="13.30" occupancy="6.65" waitingTime="0.00" speed="19.60" departed="0" arrived="0" entered="16" left="16" laneChangedFrom="0" laneChangedTo="0"/>
        <edge id="3/1to4/1" sampledSeconds="795.16" traveltime="50.00" density="13.52" occupancy="6.76" waitingTime="0.00" speed="19.60" departed="0" arrived="0" entered="16" left="16" laneChangedFrom="0" laneChangedTo="0"/>
        <edge id="4/1to5/1" sampledSeconds="776.23" traveltime="50.00" density="13.20" occupancy="6.60" waitingTime="0.00" speed="19.60" departed="0" arrived="0" entered="16" left="14" laneChangedFrom="0" laneChangedTo="0"/>
        <edge id="5/1to6/1" sampledSeconds="753.66" traveltime="50.00" density="12.82" occupancy="6.41" waitingTime="0.00" speed="19.60" departed="0" arrived="0" entered="14" left="15" laneChangedFrom="0" laneChangedTo="0"/>
        <edge id="6/1to7/1" sampledSeconds="754.28" traveltime="50.00" density="12.83" occupancy="6.41" waitingTime="0.00" speed="19.60" departed="0" arrived="0" entered="15" left="15" laneChangedFrom="0" laneChangedTo="0"/>
        <edge id="7/1to8/1" sampledSeconds="753.78" traveltime="50.00" density="12.82" occupancy="6.41" waitingTime="0.00" speed="19.60" departed="0" arrived="0" entered="15" left="15" laneChangedFrom="0" laneChangedTo="0"/>
        <edge id="8/1to9/1" sampledSeconds="753.78" traveltime="50.00" density="12.82" occupancy="6.41" waitingTime="0.00" speed="19.60" departed="0" arrived="0" entered="15" left="15" laneChangedFrom="0" laneChangedTo="0"/>
        <edge id="9/1to10/1" sampledSeconds="755.25" traveltime="50.10" density="12.85" occupancy="6.42" waitingTime="0.00" speed="19.56" departed="0" arrived="0" entered="15" left="15" laneChangedFrom="0" laneChangedTo="0"/>
    </interval>
    <interval begin="780.00" end="840.00" id="dump_60">
        <edge id="1/1to2/1" sampledSeconds="1211.52" traveltime="51.75" density="20.61" occupancy="10.30" waitingTime="0.00" speed="18.94" departed="0" arrived="0" entered="24" left="19" laneChangedFrom="0" laneChangedTo="0"/>
        <edge id="10/1to1/1" sampledSeconds="2228.09" traveltime="151.26" density="37.90" occupancy="18.95" waitingTime="156.00" speed="6.48" departed="0" arrived="0" entered="8" left="24" laneChangedFrom="0" laneChangedTo="0"/>
        <edge id="2/1to3/1" sampledSeconds="855.84" traveltime="50.00" density="14.56" occupancy="7.28" waitingTime="0.00" speed="19.60" departed="0" arrived="0" entered="19" left="15" laneChangedFrom="0" laneChangedTo="0"/>
        <edge id="3/1to4/1" sampledSeconds="777.06" traveltime="50.00" density="13.22" occupancy="6.61" waitingTime="0.00" speed="19.60" departed="0" arrived="0" entered="15" left="16" laneChangedFrom="0" laneChangedTo="0"/>
        <edge id="4/1to5/1" sampledSeconds="794.82" traveltime="50.00" density="13.52" occupancy="6.76" waitingTime="0.00" speed="19.60" departed="0" arrived="0" entered="15" left="16" laneChangedFrom="0" laneChangedTo="0"/>
        <edge id="5/1to6/1" sampledSeconds="783.32" traveltime="50.00" density="13.32" occupancy="6.66" waitingTime="0.00" speed="19.60" departed="0" arrived="0" entered="16" left="15" laneChangedFrom="0" laneChangedTo="0"/>
        <edge id="6/1to7/1" sampledSeconds="754.15" traveltime="50.00" density="12.83" occupancy="6.41" waitingTime="0.00" speed="19.60" departed="0" arrived="0" entered="15" left="15" laneChangedFrom="0" laneChangedTo="0"/>
        <edge id="7/1to8/1" sampledSeconds="754.48" traveltime="50.00" density="12.83" occupancy="6.42" waitingTime="0.00" speed="19.60" departed="0" arrived="0" entered="15" left="15" laneChangedFrom="0" laneChangedTo="0"/>
        <edge id="8/1to9/1" sampledSeconds="753.78" traveltime="50.00" density="12.82" occupancy="6.41" waitingTime="0.00" speed="19.60" departed="0" arrived="0" entered="15" left="15" laneChangedFrom="0" laneChangedTo="0"/>
        <edge id="9/1to10/1" sampledSeconds="947.64" traveltime="65.50" density="16.12" occupancy="8.06" waitingTime="15.00" speed="14.96" departed="0" arrived="0" entered="15" left="8" laneChangedFrom="0" laneChangedTo="0"/>
    </interval>
    <interval begin="840.00" end="900.00" id="dump_60">
        <edge id="1/1to2/1" sampledSeconds="1102.06" traveltime="50.00" density="18.74" occupancy="9.37" waitingTime="0.00" speed="19.60" departed="0" arrived="0" entered="20" left="25" laneChangedFrom="0" laneChangedTo="0"/>
        <edge id="10/1to1/1" sampledSeconds="1478.43" traveltime="73.15" density="25.14" occupancy="12.57" waitingTime="5.00" speed="13.40" departed="0" arrived="0" entered="14" left="20" laneChangedFrom="0" laneChangedTo="0"/>
        <edge id="2/1to3/1" sampledSeconds="1221.17" traveltime="50.00" density="20.77" occupancy="10.38" waitingTime="0.00" speed="19.60" departed="0" arrived="0" entered="25" left="22" laneChangedFrom="0" laneChangedTo="0"/>
        <edge id="3/1to4/1" sampledSeconds="906.03" traveltime="50.00" density="15.41" occupancy="7.70" waitingTime="0.00" speed="19.60" departed="0" arrived="0" entered="22" left="15" laneChangedFrom="0" laneChangedTo="0"/>
        <edge id="4/1to5/1" sampledSeconds="772.84" traveltime="50.00" density="13.14" occupancy="6.57" waitingTime="0.00" speed="19.60" departed="0" arrived="0" entered="16" left="16" laneChangedFrom="0" laneChangedTo="0"/>
        <edge id="5/1to6/1" sampledSeconds="794.42" traveltime="50.00" density="13.51" occupancy="6.76" waitingTime="0.00" speed="19.60" departed="0" arrived="0" entered="16" left="16" laneChangedFrom="0" laneChangedTo="0"/>
        <edge id="6/1to7/1" sampledSeconds="788.19" traveltime="50.00" density="13.41" occupancy="6.70" waitingTime="0.00" speed="19.60" departed="0" arrived="0" entered="16" left="16" laneChangedFrom="0" laneChangedTo="0"/>
        <edge id="7/1to8/1" sampledSeconds="757.82" traveltime="50.00" density="12.89" occupancy="6.44" waitingTime="0.00" speed="19.60" departed="0" arrived="0" entered="16" left="15" laneChangedFrom="0" laneChangedTo="0"/>
        <edge id="8/1to9/1" sampledSeconds="754.50" traveltime="50.00" density="12.83" occupancy="6.42" waitingTime="0.00" speed="19.60" departed="0" arrived="0" entered="15" left="15" laneChangedFrom="0" laneChangedTo="0"/>
        <edge id="9/1to10/1" sampledSeconds="1285.09" traveltime="90.77" density="21.86" occupancy="10.93" waitingTime="20.00" speed="10.80" departed="0" arrived="0" entered="15" left="14" laneChangedFrom="0" laneChangedTo="0"/>
    </interval>
    <interval begin="900.00" end="960.00" id="dump_60">
        <edge id="1/1to2/1" sampledSeconds="1166.46" traveltime="50.00" density="19.84" occupancy="9.92" waitingTime="0.00" speed="19.60" departed="0" arrived="0" entered="26" left="21" laneChangedFrom="0" laneChangedTo="0"/>
        <edge id="10/1to1/1" sampledSeconds="1213.36" traveltime="50.92" density="20.64" occupancy="10.32" waitingTime="0.00" speed="19.25" departed="0" arrived="0" entered="20" left="26" laneChangedFrom="0" laneChangedTo="0"/>
        <edge id="2/1to3/1" sampledSeconds="1067.00" traveltime="50.00" density="18.15" occupancy="9.07" waitingTime="0.00" speed="19.60" departed="0" arrived="0" entered="21" left="24" laneChangedFrom="0" laneChangedTo="0"/>
        <edge id="3/1to4/1" sampledSeconds="1237.25" traveltime="50.00" density="21.04" occupancy="10.52" waitingTime="0.00" speed="19.60" departed="0" arrived="0" entered="23" left="23" laneChangedFrom="0" laneChangedTo="0"/>
        <edge id="4/1to5/1" sampledSeconds="971.31" traveltime="50.00" density="16.52" occupancy="8.26" waitingTime="0.00" speed="19.60" departed="0" arrived="0" entered="23" left="16" laneChangedFrom="0" laneChangedTo="0"/>
        <edge id="5/1to6/1" sampledSeconds="776.84" traveltime="50.00" density="13.21" occupancy="6.61" waitingTime="0.00" speed="19.60" departed="0" arrived="0" entered="16" left="15" laneChangedFrom="0" laneChangedTo="0"/>
        <edge id="6/1to7/1" sampledSeconds="791.12" traveltime="50.00" density="13.46" occupancy="6.73" waitingTime="0.00" speed="19.60" departed="0" arrived="0" entered="15" left="16" laneChangedFrom="0" laneChangedTo="0"/>