<?xml version="1.0" encoding="UTF-8"?>

<!-- generated on Thu Jan  5 15:50:43 2017 by SUMO Version dev-SVN-r22466
<?xml version="1.0" encoding="UTF-8"?>

<configuration xmlns:xsi="http://www.w3.org/2001/XMLSchema-instance" xsi:noNamespaceSchemaLocation="http://sumo.dlr.de/xsd/sumoConfiguration.xsd">

    <input>
        <net-file value="net.net.xml"/>
        <route-files value="input_routes.rou.xml"/>
        <additional-files value="input_additional.add.xml"/>
    </input>

    <time>
        <begin value="0"/>
        <end value="1000"/>
    </time>

    <report>
        <xml-validation value="never"/>
        <duration-log.disable value="true"/>
        <no-step-log value="true"/>
    </report>

    <mesoscopic>
        <mesosim value="true"/>
    </mesoscopic>

</configuration>
-->

<meandata xmlns:xsi="http://www.w3.org/2001/XMLSchema-instance" xsi:noNamespaceSchemaLocation="http://sumo.dlr.de/xsd/meandata_file.xsd">
    <interval begin="0.00" end="900.00" id="dump_900">
        <edge id="1fi" sampledSeconds="5640.56" traveltime="22.57" overlapTraveltime="23.02" density="25.22" occupancy="12.61" waitingTime="0.00" speed="11.01" departed="80" arrived="45" entered="174" left="201" laneChangedFrom="0" laneChangedTo="0"/>
        <edge id="1o" sampledSeconds="7943.71" traveltime="43.98" overlapTraveltime="44.43" density="18.06" occupancy="9.03" waitingTime="0.00" speed="11.11" departed="0" arrived="0" entered="187" left="174" laneChangedFrom="0" laneChangedTo="0"/>
        <edge id="1si" sampledSeconds="3487.71" traveltime="17.58" overlapTraveltime="17.95" density="16.34" occupancy="2.72" waitingTime="0.00" speed="13.49" departed="0" arrived="0" entered="201" left="195" laneChangedFrom="0" laneChangedTo="0"/>
        <edge id="2fi" sampledSeconds="6181.66" traveltime="22.47" overlapTraveltime="22.92" density="27.64" occupancy="13.82" waitingTime="0.00" speed="11.06" departed="80" arrived="61" entered="200" left="209" laneChangedFrom="0" laneChangedTo="0"/>
        <edge id="2o" sampledSeconds="9054.49" traveltime="43.98" overlapTraveltime="44.43" density="20.59" occupancy="10.29" waitingTime="0.00" speed="11.11" departed="0" arrived="0" entered="212" left="200" laneChangedFrom="0" laneChangedTo="0"/>
        <edge id="2si" sampledSeconds="3561.48" traveltime="17.23" overlapTraveltime="17.60" density="16.69" occupancy="2.78" waitingTime="0.00" speed="13.76" departed="0" arrived="0" entered="209" left="204" laneChangedFrom="0" laneChangedTo="0"/>
        <edge id="3fi" sampledSeconds="7628.29" traveltime="23.81" overlapTraveltime="24.29" density="34.11" occupancy="17.05" waitingTime="0.00" speed="10.44" departed="160" arrived="106" entered="166" left="209" laneChangedFrom="0" laneChangedTo="0"/>
        <edge id="3o" sampledSeconds="7581.80" traveltime="43.98" overlapTraveltime="44.43" density="17.24" occupancy="8.62" waitingTime="0.00" speed="11.11" departed="0" arrived="0" entered="179" left="166" laneChangedFrom="0" laneChangedTo="0"/>
        <edge id="3si" sampledSeconds="3546.25" traveltime="17.19" overlapTraveltime="17.55" density="16.62" occupancy="2.77" waitingTime="0.00" speed="13.79" departed="0" arrived="0" entered="209" left="203" laneChangedFrom="0" laneChangedTo="0"/>
        <edge id="4fi" sampledSeconds="4564.08" traveltime="22.36" overlapTraveltime="22.81" density="20.41" occupancy="10.20" waitingTime="0.00" speed="11.11" departed="0" arrived="0" entered="208" left="200" laneChangedFrom="0" laneChangedTo="0"/>
        <edge id="4o" sampledSeconds="9417.45" traveltime="43.98" overlapTraveltime="44.43" density="21.41" occupancy="10.71" waitingTime="0.00" speed="11.11" departed="0" arrived="0" entered="220" left="208" laneChangedFrom="0" laneChangedTo="0"/>
        <edge id="4si" sampledSeconds="3380.18" traveltime="17.07" overlapTraveltime="17.43" density="15.84" occupancy="2.64" waitingTime="0.00" speed="13.89" departed="0" arrived="0" entered="200" left="196" laneChangedFrom="0" laneChangedTo="0"/>
    </interval>
    <interval begin="0.00" end="900.00" id="dump_900">
        <edge id="1fi" sampledSeconds="5640.56" traveltime="22.57" overlapTraveltime="23.02" density="25.22" occupancy="12.61" waitingTime="0.00" speed="11.01" departed="80" arrived="45" entered="174" left="201" laneChangedFrom="0" laneChangedTo="0"/>
        <edge id="1o" sampledSeconds="7943.71" traveltime="43.98" overlapTraveltime="44.43" density="18.06" occupancy="9.03" waitingTime="0.00" speed="11.11" departed="0" arrived="0" entered="187" left="174" laneChangedFrom="0" laneChangedTo="0"/>
        <edge id="1si" sampledSeconds="3487.71" traveltime="17.58" overlapTraveltime="17.95" density="16.34" occupancy="2.72" waitingTime="0.00" speed="13.49" departed="0" arrived="0" entered="201" left="195" laneChangedFrom="0" laneChangedTo="0"/>
        <edge id="2fi" sampledSeconds="6181.66" traveltime="22.47" overlapTraveltime="22.92" density="27.64" occupancy="13.82" waitingTime="0.00" speed="11.06" departed="80" arrived="61" entered="200" left="209" laneChangedFrom="0" laneChangedTo="0"/>
        <edge id="2o" sampledSeconds="9054.49" traveltime="43.98" overlapTraveltime="44.43" density="20.59" occupancy="10.29" waitingTime="0.00" speed="11.11" departed="0" arrived="0" entered="212" left="200" laneChangedFrom="0" laneChangedTo="0"/>
        <edge id="2si" sampledSeconds="3561.48" traveltime="17.23" overlapTraveltime="17.60" density="16.69" occupancy="2.78" waitingTime="0.00" speed="13.76" departed="0" arrived="0" entered="209" left="204" laneChangedFrom="0" laneChangedTo="0"/>
        <edge id="3fi" sampledSeconds="7628.29" traveltime="23.81" overlapTraveltime="24.29" density="34.11" occupancy="17.05" waitingTime="0.00" speed="10.44" departed="160" arrived="106" entered="166" left="209" laneChangedFrom="0" laneChangedTo="0"/>
        <edge id="3o" sampledSeconds="7581.80" traveltime="43.98" overlapTraveltime="44.43" density="17.24" occupancy="8.62" waitingTime="0.00" speed="11.11" departed="0" arrived="0" entered="179" left="166" laneChangedFrom="0" laneChangedTo="0"/>
        <edge id="3si" sampledSeconds="3546.25" traveltime="17.19" overlapTraveltime="17.55" density="16.62" occupancy="2.77" waitingTime="0.00" speed="13.79" departed="0" arrived="0" entered="209" left="203" laneChangedFrom="0" laneChangedTo="0"/>
        <edge id="4fi" sampledSeconds="4564.08" traveltime="22.36" overlapTraveltime="22.81" density="20.41" occupancy="10.20" waitingTime="0.00" speed="11.11" departed="0" arrived="0" entered="208" left="200" laneChangedFrom="0" laneChangedTo="0"/>
        <edge id="4o" sampledSeconds="9417.45" traveltime="43.98" overlapTraveltime="44.43" density="21.41" occupancy="10.71" waitingTime="0.00" speed="11.11" departed="0" arrived="0" entered="220" left="208" laneChangedFrom="0" laneChangedTo="0"/>
        <edge id="4si" sampledSeconds="3380.18" traveltime="17.07" overlapTraveltime="17.43" density="15.84" occupancy="2.64" waitingTime="0.00" speed="13.89" departed="0" arrived="0" entered="200" left="196" laneChangedFrom="0" laneChangedTo="0"/>
    </interval>
    <interval begin="900.00" end="1000.00" id="dump_900">
        <edge id="1fi" sampledSeconds="914.26" traveltime="22.73" overlapTraveltime="23.19" density="36.79" occupancy="18.40" waitingTime="0.00" speed="10.93" departed="10" arrived="9" entered="30" left="30" laneChangedFrom="0" laneChangedTo="0"/>
        <edge id="1o" sampledSeconds="1329.32" traveltime="43.98" overlapTraveltime="44.43" density="27.20" occupancy="13.60" waitingTime="0.00" speed="11.11" departed="0" arrived="0" entered="30" left="30" laneChangedFrom="0" laneChangedTo="0"/>
        <edge id="1si" sampledSeconds="531.60" traveltime="17.53" overlapTraveltime="17.90" density="22.42" occupancy="3.74" waitingTime="0.00" speed="13.53" departed="0" arrived="0" entered="30" left="30" laneChangedFrom="0" laneChangedTo="0"/>
        <edge id="2fi" sampledSeconds="909.04" traveltime="22.52" overlapTraveltime="22.97" density="36.58" occupancy="18.29" waitingTime="0.00" speed="11.03" departed="10" arrived="10" entered="30" left="30" laneChangedFrom="0" laneChangedTo="0"/>
        <edge id="2o" sampledSeconds="1331.85" traveltime="44.03" overlapTraveltime="44.48" density="27.26" occupancy="13.63" waitingTime="0.00" speed="11.10" departed="0" arrived="0" entered="30" left="30" laneChangedFrom="0" laneChangedTo="0"/>
        <edge id="2si" sampledSeconds="525.14" traveltime="17.27" overlapTraveltime="17.64" density="22.14" occupancy="3.69" waitingTime="0.00" speed="13.73" departed="0" arrived="0" entered="30" left="30" laneChangedFrom="0" laneChangedTo="0"/>
        <edge id="3fi" sampledSeconds="1201.34" traveltime="23.96" overlapTraveltime="24.44" density="48.34" occupancy="24.17" waitingTime="0.00" speed="10.37" departed="20" arrived="19" entered="29" left="30" laneChangedFrom="0" laneChangedTo="0"/>
        <edge id="3o" sampledSeconds="1329.00" traveltime="44.04" overlapTraveltime="44.49" density="27.20" occupancy="13.60" waitingTime="0.00" speed="11.10" departed="0" arrived="0" entered="30" left="29" laneChangedFrom="0" laneChangedTo="0"/>
        <edge id="3si" sampledSeconds="521.32" traveltime="17.09" overlapTraveltime="17.45" density="21.98" occupancy="3.66" waitingTime="0.00" speed="13.88" departed="0" arrived="0" entered="30" left="30" laneChangedFrom="0" laneChangedTo="0"/>
        <edge id="4fi" sampledSeconds="681.65" traveltime="22.37" overlapTraveltime="22.82" density="27.43" occupancy="13.72" waitingTime="0.00" speed="11.11" departed="0" arrived="0" entered="30" left="31" laneChangedFrom="0" laneChangedTo="0"/>
        <edge id="4o" sampledSeconds="1331.88" traveltime="44.03" overlapTraveltime="44.48" density="27.26" occupancy="13.63" waitingTime="0.00" speed="11.10" departed="0" arrived="0" entered="30" left="30" laneChangedFrom="0" laneChangedTo="0"/>
        <edge id="4si" sampledSeconds="520.63" traveltime="17.07" overlapTraveltime="17.43" density="21.95" occupancy="3.66" waitingTime="0.00" speed="13.89" departed="0" arrived="0" entered="31" left="30" laneChangedFrom="0" laneChangedTo="0"/>
    </interval>
</meandata>
