<?xml version="1.0" encoding="UTF-8"?>

<!-- generated on Wed Jun 12 12:00:28 2013 by SUMO sumo Version dev-SVN-r14126
<?xml version="1.0" encoding="UTF-8"?>

<configuration xmlns:xsi="http://www.w3.org/2001/XMLSchema-instance" xsi:noNamespaceSchemaLocation="http://sumo.sf.net/xsd/sumoConfiguration.xsd">

    <input>
        <net-file value="net.net.xml"/>
        <route-files value="input_routes.rou.xml"/>
        <additional-files value="input_additional.add.xml"/>
    </input>

    <time>
        <begin value="0"/>
        <end value="1000"/>
    </time>

    <report>
        <no-duration-log value="true"/>
        <no-step-log value="true"/>
    </report>

</configuration>
-->

<meandata xmlns:xsi="http://www.w3.org/2001/XMLSchema-instance" xsi:noNamespaceSchemaLocation="http://sumo.sf.net/xsd/meandata_file.xsd">
    <interval begin="0.00" end="900.00" id="dump_900">
        <edge id="1fi" sampledSeconds="5344.52" traveltime="27.65" density="23.90" occupancy="7.17" waitingTime="0.00" speed="8.99" departed="79" arrived="12" entered="118" left="175" laneChangedFrom="0" laneChangedTo="0"/>
        <edge id="1o" sampledSeconds="5937.95" traveltime="47.87" density="13.50" occupancy="4.05" waitingTime="0.00" speed="10.21" departed="0" arrived="0" entered="128" left="118" laneChangedFrom="0" laneChangedTo="0"/>
        <edge id="1si" sampledSeconds="17522.21" traveltime="111.02" density="82.10" occupancy="8.21" waitingTime="9814.00" speed="2.14" departed="0" arrived="0" entered="174" left="136" laneChangedFrom="0" laneChangedTo="0"/>
        <edge id="2fi" sampledSeconds="6040.87" traveltime="27.99" density="27.01" occupancy="8.10" waitingTime="1.00" speed="8.88" departed="80" arrived="54" entered="139" left="158" laneChangedFrom="0" laneChangedTo="0"/>
        <edge id="2o" sampledSeconds="7030.35" traveltime="48.37" density="15.99" occupancy="4.80" waitingTime="0.00" speed="10.10" departed="0" arrived="0" entered="149" left="139" laneChangedFrom="0" laneChangedTo="0"/>
        <edge id="2si" sampledSeconds="8129.81" traveltime="52.22" density="38.09" occupancy="3.81" waitingTime="3539.00" speed="4.54" departed="0" arrived="0" entered="158" left="150" laneChangedFrom="0" laneChangedTo="0"/>
        <edge id="3fi" sampledSeconds="6328.86" traveltime="29.01" density="28.30" occupancy="8.49" waitingTime="5.00" speed="8.57" departed="127" arrived="73" entered="95" left="142" laneChangedFrom="0" laneChangedTo="0"/>
        <edge id="3o" sampledSeconds="4860.61" traveltime="47.97" density="11.05" occupancy="3.32" waitingTime="0.00" speed="10.19" departed="0" arrived="0" entered="108" left="95" laneChangedFrom="0" laneChangedTo="0"/>
        <edge id="3si" sampledSeconds="6738.12" traveltime="47.26" density="31.57" occupancy="3.16" waitingTime="2905.00" speed="5.02" departed="0" arrived="0" entered="142" left="127" laneChangedFrom="0" laneChangedTo="0"/>
        <edge id="4fi" sampledSeconds="3152.09" traveltime="22.77" density="14.09" occupancy="4.23" waitingTime="0.00" speed="10.91" departed="0" arrived="0" entered="137" left="136" laneChangedFrom="0" laneChangedTo="0"/>
        <edge id="4o" sampledSeconds="6642.15" traveltime="46.85" density="15.10" occupancy="4.53" waitingTime="0.00" speed="10.43" departed="0" arrived="0" entered="147" left="137" laneChangedFrom="0" laneChangedTo="0"/>
        <edge id="4si" sampledSeconds="5902.73" traveltime="43.97" density="27.66" occupancy="2.77" waitingTime="2373.00" speed="5.39" departed="0" arrived="0" entered="136" left="119" laneChangedFrom="0" laneChangedTo="0"/>
    </interval>
    <interval begin="0.00" end="900.00" id="dump_900">
        <edge id="1fi">
            <lane id="1fi_0" sampledSeconds="5344.52" traveltime="27.65" density="23.90" occupancy="7.17" waitingTime="0.00" speed="8.99" departed="79" arrived="12" entered="118" left="175" laneChangedFrom="0" laneChangedTo="0"/>
        </edge>
        <edge id="1o">
            <lane id="1o_0" sampledSeconds="5937.95" traveltime="47.87" density="13.50" occupancy="4.05" waitingTime="0.00" speed="10.21" departed="0" arrived="0" entered="128" left="118" laneChangedFrom="0" laneChangedTo="0"/>
        </edge>
        <edge id="1si">
            <lane id="1si_0" sampledSeconds="1829.38" traveltime="55.96" density="8.57" occupancy="2.57" waitingTime="818.00" speed="4.24" departed="0" arrived="0" entered="34" left="32" laneChangedFrom="0" laneChangedTo="0"/>
            <lane id="1si_1" sampledSeconds="1199.17" traveltime="18.80" density="5.62" occupancy="1.69" waitingTime="52.00" speed="12.62" departed="0" arrived="0" entered="63" left="63" laneChangedFrom="0" laneChangedTo="0"/>
            <lane id="1si_2" sampledSeconds="14493.66" traveltime="236.27" density="67.91" occupancy="20.37" waitingTime="8944.00" speed="1.00" departed="0" arrived="0" entered="77" left="41" laneChangedFrom="0" laneChangedTo="0"/>
        </edge>
        <edge id="2fi">
            <lane id="2fi_0" sampledSeconds="6040.87" traveltime="27.99" density="27.01" occupancy="8.10" waitingTime="1.00" speed="8.88" departed="80" arrived="54" entered="139" left="158" laneChangedFrom="0" laneChangedTo="0"/>
        </edge>
        <edge id="2o">
            <lane id="2o_0" sampledSeconds="7030.35" traveltime="48.37" density="15.99" occupancy="4.80" waitingTime="0.00" speed="10.10" departed="0" arrived="0" entered="149" left="139" laneChangedFrom="0" laneChangedTo="0"/>
        </edge>
        <edge id="2si">
            <lane id="2si_0" sampledSeconds="2917.44" traveltime="55.77" density="13.67" occupancy="4.10" waitingTime="1322.00" speed="4.25" departed="0" arrived="0" entered="55" left="51" laneChangedFrom="0" laneChangedTo="0"/>
            <lane id="2si_1" sampledSeconds="3896.85" traveltime="50.59" density="18.26" occupancy="5.48" waitingTime="1754.00" speed="4.69" departed="0" arrived="0" entered="77" left="73" laneChangedFrom="0" laneChangedTo="0"/>
            <lane id="2si_2" sampledSeconds="1315.52" traveltime="49.96" density="6.16" occupancy="1.85" waitingTime="463.00" speed="4.75" departed="0" arrived="0" entered="26" left="26" laneChangedFrom="0" laneChangedTo="0"/>
        </edge>
        <edge id="3fi">
            <lane id="3fi_0" sampledSeconds="6328.86" traveltime="29.01" density="28.30" occupancy="8.49" waitingTime="5.00" speed="8.57" departed="127" arrived="73" entered="95" left="142" laneChangedFrom="0" laneChangedTo="0"/>
        </edge>
        <edge id="3o">
            <lane id="3o_0" sampledSeconds="4860.61" traveltime="47.97" density="11.05" occupancy="3.32" waitingTime="0.00" speed="10.19" departed="0" arrived="0" entered="108" left="95" laneChangedFrom="0" laneChangedTo="0"/>
        </edge>
        <edge id="3si">
            <lane id="3si_0" sampledSeconds="2904.23" traveltime="47.97" density="13.61" occupancy="4.08" waitingTime="1286.00" speed="4.94" departed="0" arrived="0" entered="60" left="56" laneChangedFrom="0" laneChangedTo="0"/>
            <lane id="3si_1" sampledSeconds="2989.23" traveltime="49.46" density="14.01" occupancy="4.20" waitingTime="1378.00" speed="4.80" departed="0" arrived="0" entered="60" left="55" laneChangedFrom="0" laneChangedTo="0"/>
            <lane id="3si_2" sampledSeconds="844.67" traveltime="39.13" density="3.96" occupancy="1.19" waitingTime="241.00" speed="6.06" departed="0" arrived="0" entered="22" left="16" laneChangedFrom="0" laneChangedTo="0"/>
        </edge>
        <edge id="4fi">
            <lane id="4fi_0" sampledSeconds="3152.09" traveltime="22.77" density="14.09" occupancy="4.23" waitingTime="0.00" speed="10.91" departed="0" arrived="0" entered="137" left="136" laneChangedFrom="0" laneChangedTo="0"/>
        </edge>
        <edge id="4o">
            <lane id="4o_0" sampledSeconds="6642.15" traveltime="46.85" density="15.10" occupancy="4.53" waitingTime="0.00" speed="10.43" departed="0" arrived="0" entered="147" left="137" laneChangedFrom="0" laneChangedTo="0"/>
        </edge>
        <edge id="4si">
            <lane id="4si_0" sampledSeconds="2781.91" traveltime="60.49" density="13.03" occupancy="3.91" waitingTime="1437.00" speed="3.92" departed="0" arrived="0" entered="46" left="39" laneChangedFrom="0" laneChangedTo="0"/>
            <lane id="4si_1" sampledSeconds="932.09" traveltime="17.84" density="4.37" occupancy="1.31" waitingTime="0.00" speed="13.29" departed="0" arrived="0" entered="54" left="50" laneChangedFrom="0" laneChangedTo="0"/>
            <lane id="4si_2" sampledSeconds="2188.73" traveltime="60.78" density="10.25" occupancy="3.08" waitingTime="936.00" speed="3.90" departed="0" arrived="0" entered="36" left="30" laneChangedFrom="0" laneChangedTo="0"/>
        </edge>
    </interval>
    <interval begin="900.00" end="1000.00" id="dump_900">
        <edge id="1fi" sampledSeconds="910.81" traveltime="27.98" density="36.65" occupancy="11.00" waitingTime="0.00" speed="8.88" departed="10" arrived="4" entered="23" left="30" laneChangedFrom="0" laneChangedTo="0"/>
        <edge id="1o" sampledSeconds="1221.00" traveltime="48.80" density="24.99" occupancy="7.50" waitingTime="0.00" speed="10.01" departed="0" arrived="0" entered="24" left="23" laneChangedFrom="0" laneChangedTo="0"/>
        <edge id="1si" sampledSeconds="4466.75" traveltime="165.43" density="188.35" occupancy="18.84" waitingTime="2355.00" speed="1.43" departed="0" arrived="0" entered="31" left="23" laneChangedFrom="0" laneChangedTo="0"/>
        <edge id="2fi" sampledSeconds="834.58" traveltime="28.43" density="33.58" occupancy="10.08" waitingTime="0.00" speed="8.74" departed="10" arrived="9" entered="19" left="19" laneChangedFrom="0" laneChangedTo="0"/>
        <edge id="2o" sampledSeconds="998.23" traveltime="48.19" density="20.43" occupancy="6.13" waitingTime="0.00" speed="10.14" departed="0" arrived="0" entered="21" left="19" laneChangedFrom="0" laneChangedTo="0"/>
        <edge id="2si" sampledSeconds="1027.29" traveltime="48.90" density="43.32" occupancy="4.33" waitingTime="429.00" speed="4.85" departed="0" arrived="0" entered="19" left="18" laneChangedFrom="0" laneChangedTo="0"/>
        <edge id="3fi" sampledSeconds="878.45" traveltime="28.54" density="35.35" occupancy="10.61" waitingTime="1.00" speed="8.71" departed="12" arrived="13" entered="18" left="17" laneChangedFrom="0" laneChangedTo="0"/>
        <edge id="3o" sampledSeconds="947.69" traveltime="48.75" density="19.39" occupancy="5.82" waitingTime="0.00" speed="10.02" departed="0" arrived="0" entered="17" left="18" laneChangedFrom="0" laneChangedTo="0"/>
        <edge id="3si" sampledSeconds="888.70" traveltime="53.71" density="37.47" occupancy="3.75" waitingTime="349.00" speed="4.42" departed="0" arrived="0" entered="17" left="26" laneChangedFrom="0" laneChangedTo="0"/>
        <edge id="4fi" sampledSeconds="374.40" traveltime="22.77" density="15.07" occupancy="4.52" waitingTime="0.00" speed="10.91" departed="0" arrived="0" entered="17" left="17" laneChangedFrom="0" laneChangedTo="0"/>
        <edge id="4o" sampledSeconds="879.01" traveltime="46.92" density="17.99" occupancy="5.40" waitingTime="0.00" speed="10.42" departed="0" arrived="0" entered="18" left="17" laneChangedFrom="0" laneChangedTo="0"/>
        <edge id="4si" sampledSeconds="1076.72" traveltime="58.55" density="45.40" occupancy="4.54" waitingTime="509.00" speed="4.05" departed="0" arrived="0" entered="17" left="22" laneChangedFrom="0" laneChangedTo="0"/>
    </interval>
</meandata>
