<?xml version="1.0" encoding="UTF-8"?>

<!-- generated on Thu Jan  5 15:09:57 2017 by SUMO Version dev-SVN-r22466
<?xml version="1.0" encoding="UTF-8"?>

<configuration xmlns:xsi="http://www.w3.org/2001/XMLSchema-instance" xsi:noNamespaceSchemaLocation="http://sumo.dlr.de/xsd/sumoConfiguration.xsd">

    <input>
        <net-file value="net.net.xml"/>
        <route-files value="input_routes.rou.xml"/>
        <additional-files value="input_additional.add.xml"/>
    </input>

    <time>
        <begin value="0"/>
        <end value="1000"/>
    </time>

    <report>
        <xml-validation value="never"/>
        <duration-log.disable value="true"/>
        <no-step-log value="true"/>
    </report>

    <mesoscopic>
        <mesosim value="true"/>
    </mesoscopic>

</configuration>
-->

<meandata xmlns:xsi="http://www.w3.org/2001/XMLSchema-instance" xsi:noNamespaceSchemaLocation="http://sumo.dlr.de/xsd/meandata_file.xsd">
    <interval begin="0.00" end="300.00" id="dump_300">
        <edge id="1fi" sampledSeconds="675.39" traveltime="22.37" overlapTraveltime="22.82" density="9.06" occupancy="4.53" waitingTime="0.00" speed="11.11" departed="20" arrived="0" entered="12" left="28" laneChangedFrom="0" laneChangedTo="0"/>
        <edge id="1o" sampledSeconds="626.01" traveltime="43.98" overlapTraveltime="44.43" density="4.27" occupancy="2.14" waitingTime="0.00" speed="11.11" departed="0" arrived="0" entered="16" left="12" laneChangedFrom="0" laneChangedTo="0"/>
        <edge id="1si" sampledSeconds="463.87" traveltime="17.62" overlapTraveltime="17.99" density="6.52" occupancy="1.09" waitingTime="0.00" speed="13.46" departed="0" arrived="0" entered="28" left="24" laneChangedFrom="0" laneChangedTo="0"/>
        <edge id="2fi" sampledSeconds="788.14" traveltime="22.40" overlapTraveltime="22.85" density="10.57" occupancy="5.29" waitingTime="0.00" speed="11.09" departed="20" arrived="1" entered="20" left="29" laneChangedFrom="0" laneChangedTo="0"/>
        <edge id="2o" sampledSeconds="1139.81" traveltime="43.98" overlapTraveltime="44.43" density="7.78" occupancy="3.89" waitingTime="0.00" speed="11.11" departed="0" arrived="0" entered="32" left="20" laneChangedFrom="0" laneChangedTo="0"/>
        <edge id="2si" sampledSeconds="460.33" traveltime="17.13" overlapTraveltime="17.49" density="6.47" occupancy="1.08" waitingTime="0.00" speed="13.84" departed="0" arrived="0" entered="29" left="24" laneChangedFrom="0" laneChangedTo="0"/>
        <edge id="3fi" sampledSeconds="947.97" traveltime="23.31" overlapTraveltime="23.78" density="12.72" occupancy="6.36" waitingTime="0.00" speed="10.66" departed="40" arrived="1" entered="4" left="36" laneChangedFrom="0" laneChangedTo="0"/>
        <edge id="3o" sampledSeconds="253.28" traveltime="43.98" overlapTraveltime="44.43" density="1.73" occupancy="0.86" waitingTime="0.00" speed="11.11" departed="0" arrived="0" entered="8" left="4" laneChangedFrom="0" laneChangedTo="0"/>
        <edge id="3si" sampledSeconds="588.35" traveltime="17.07" overlapTraveltime="17.43" density="8.27" occupancy="1.38" waitingTime="0.00" speed="13.89" departed="0" arrived="0" entered="36" left="32" laneChangedFrom="0" laneChangedTo="0"/>
        <edge id="4fi" sampledSeconds="544.31" traveltime="22.36" overlapTraveltime="22.81" density="7.30" occupancy="3.65" waitingTime="0.00" speed="11.11" departed="0" arrived="0" entered="28" left="21" laneChangedFrom="0" laneChangedTo="0"/>
        <edge id="4o" sampledSeconds="1504.54" traveltime="43.98" overlapTraveltime="44.43" density="10.26" occupancy="5.13" waitingTime="0.00" speed="11.11" departed="0" arrived="0" entered="40" left="28" laneChangedFrom="0" laneChangedTo="0"/>
        <edge id="4si" sampledSeconds="312.02" traveltime="17.07" overlapTraveltime="17.43" density="4.39" occupancy="0.73" waitingTime="0.00" speed="13.89" departed="0" arrived="0" entered="21" left="16" laneChangedFrom="0" laneChangedTo="0"/>
    </interval>
    <interval begin="0.00" end="300.00" id="dump_300">
        <edge id="1fi" sampledSeconds="675.39" traveltime="22.37" overlapTraveltime="22.82" density="9.06" occupancy="4.53" waitingTime="0.00" speed="11.11" departed="20" arrived="0" entered="12" left="28" laneChangedFrom="0" laneChangedTo="0"/>
        <edge id="1o" sampledSeconds="626.01" traveltime="43.98" overlapTraveltime="44.43" density="4.27" occupancy="2.14" waitingTime="0.00" speed="11.11" departed="0" arrived="0" entered="16" left="12" laneChangedFrom="0" laneChangedTo="0"/>
        <edge id="1si" sampledSeconds="463.87" traveltime="17.62" overlapTraveltime="17.99" density="6.52" occupancy="1.09" waitingTime="0.00" speed="13.46" departed="0" arrived="0" entered="28" left="24" laneChangedFrom="0" laneChangedTo="0"/>
        <edge id="2fi" sampledSeconds="788.14" traveltime="22.40" overlapTraveltime="22.85" density="10.57" occupancy="5.29" waitingTime="0.00" speed="11.09" departed="20" arrived="1" entered="20" left="29" laneChangedFrom="0" laneChangedTo="0"/>
        <edge id="2o" sampledSeconds="1139.81" traveltime="43.98" overlapTraveltime="44.43" density="7.78" occupancy="3.89" waitingTime="0.00" speed="11.11" departed="0" arrived="0" entered="32" left="20" laneChangedFrom="0" laneChangedTo="0"/>
        <edge id="2si" sampledSeconds="460.33" traveltime="17.13" overlapTraveltime="17.49" density="6.47" occupancy="1.08" waitingTime="0.00" speed="13.84" departed="0" arrived="0" entered="29" left="24" laneChangedFrom="0" laneChangedTo="0"/>
        <edge id="3fi" sampledSeconds="947.97" traveltime="23.31" overlapTraveltime="23.78" density="12.72" occupancy="6.36" waitingTime="0.00" speed="10.66" departed="40" arrived="1" entered="4" left="36" laneChangedFrom="0" laneChangedTo="0"/>
        <edge id="3o" sampledSeconds="253.28" traveltime="43.98" overlapTraveltime="44.43" density="1.73" occupancy="0.86" waitingTime="0.00" speed="11.11" departed="0" arrived="0" entered="8" left="4" laneChangedFrom="0" laneChangedTo="0"/>
        <edge id="3si" sampledSeconds="588.35" traveltime="17.07" overlapTraveltime="17.43" density="8.27" occupancy="1.38" waitingTime="0.00" speed="13.89" departed="0" arrived="0" entered="36" left="32" laneChangedFrom="0" laneChangedTo="0"/>
        <edge id="4fi" sampledSeconds="544.31" traveltime="22.36" overlapTraveltime="22.81" density="7.30" occupancy="3.65" waitingTime="0.00" speed="11.11" departed="0" arrived="0" entered="28" left="21" laneChangedFrom="0" laneChangedTo="0"/>
        <edge id="4o" sampledSeconds="1504.54" traveltime="43.98" overlapTraveltime="44.43" density="10.26" occupancy="5.13" waitingTime="0.00" speed="11.11" departed="0" arrived="0" entered="40" left="28" laneChangedFrom="0" laneChangedTo="0"/>
        <edge id="4si" sampledSeconds="312.02" traveltime="17.07" overlapTraveltime="17.43" density="4.39" occupancy="0.73" waitingTime="0.00" speed="13.89" departed="0" arrived="0" entered="21" left="16" laneChangedFrom="0" laneChangedTo="0"/>
    </interval>
    <interval begin="900.00" end="1000.00" id="dump_300">
        <edge id="1fi" sampledSeconds="914.46" traveltime="22.70" overlapTraveltime="23.16" density="36.80" occupancy="18.40" waitingTime="0.00" speed="10.95" departed="10" arrived="10" entered="30" left="30" laneChangedFrom="0" laneChangedTo="0"/>
        <edge id="1o" sampledSeconds="1329.13" traveltime="43.98" overlapTraveltime="44.43" density="27.20" occupancy="13.60" waitingTime="0.00" speed="11.11" departed="0" arrived="0" entered="30" left="30" laneChangedFrom="0" laneChangedTo="0"/>
        <edge id="1si" sampledSeconds="532.01" traveltime="17.47" overlapTraveltime="17.84" density="22.43" occupancy="3.74" waitingTime="0.00" speed="13.57" departed="0" arrived="0" entered="30" left="30" laneChangedFrom="0" laneChangedTo="0"/>
        <edge id="2fi" sampledSeconds="909.04" traveltime="22.52" overlapTraveltime="22.97" density="36.58" occupancy="18.29" waitingTime="0.00" speed="11.03" departed="10" arrived="10" entered="30" left="30" laneChangedFrom="0" laneChangedTo="0"/>
        <edge id="2o" sampledSeconds="1330.64" traveltime="44.03" overlapTraveltime="44.48" density="27.23" occupancy="13.62" waitingTime="0.00" speed="11.10" departed="0" arrived="0" entered="30" left="30" laneChangedFrom="0" laneChangedTo="0"/>
        <edge id="2si" sampledSeconds="526.72" traveltime="17.32" overlapTraveltime="17.68" density="22.21" occupancy="3.70" waitingTime="0.00" speed="13.69" departed="0" arrived="0" entered="30" left="30" laneChangedFrom="0" laneChangedTo="0"/>
        <edge id="3fi" sampledSeconds="1202.14" traveltime="23.98" overlapTraveltime="24.46" density="48.38" occupancy="24.19" waitingTime="0.00" speed="10.36" departed="20" arrived="19" entered="29" left="30" laneChangedFrom="0" laneChangedTo="0"/>
        <edge id="3o" sampledSeconds="1328.61" traveltime="44.04" overlapTraveltime="44.49" density="27.19" occupancy="13.59" waitingTime="0.00" speed="11.10" departed="0" arrived="0" entered="30" left="29" laneChangedFrom="0" laneChangedTo="0"/>
        <edge id="3si" sampledSeconds="517.19" traveltime="17.08" overlapTraveltime="17.44" density="21.81" occupancy="3.63" waitingTime="0.00" speed="13.89" departed="0" arrived="0" entered="30" left="30" laneChangedFrom="0" laneChangedTo="0"/>
        <edge id="4fi" sampledSeconds="680.84" traveltime="22.37" overlapTraveltime="22.82" density="27.40" occupancy="13.70" waitingTime="0.00" speed="11.11" departed="0" arrived="0" entered="30" left="30" laneChangedFrom="0" laneChangedTo="0"/>
        <edge id="4o" sampledSeconds="1331.88" traveltime="44.03" overlapTraveltime="44.48" density="27.26" occupancy="13.63" waitingTime="0.00" speed="11.10" departed="0" arrived="0" entered="30" left="30" laneChangedFrom="0" laneChangedTo="0"/>
        <edge id="4si" sampledSeconds="521.82" traveltime="17.13" overlapTraveltime="17.49" density="22.00" occupancy="3.67" waitingTime="0.00" speed="13.84" departed="0" arrived="0" entered="30" left="30" laneChangedFrom="0" laneChangedTo="0"/>
    </interval>
</meandata>
