<?xml version="1.0" encoding="UTF-8"?>

<!-- generated on Tue Dec  3 16:33:32 2013 by SUMO sumo Version dev-SVN-r15233
<?xml version="1.0" encoding="UTF-8"?>

<configuration xmlns:xsi="http://www.w3.org/2001/XMLSchema-instance" xsi:noNamespaceSchemaLocation="http://sumo-sim.org/xsd/sumoConfiguration.xsd">

    <input>
        <net-file value="net.net.xml"/>
        <route-files value="input_routes.rou.xml"/>
        <additional-files value="input_additional.add.xml"/>
    </input>

    <time>
        <begin value="0"/>
        <end value="1000"/>
    </time>

    <report>
        <no-duration-log value="true"/>
        <no-step-log value="true"/>
    </report>

</configuration>
-->

<meandata xmlns:xsi="http://www.w3.org/2001/XMLSchema-instance" xsi:noNamespaceSchemaLocation="http://sumo-sim.org/xsd/meandata_file.xsd">
    <interval begin="0.00" end="900.00" id="dump_900">
        <edge id="1fi" sampledSeconds="5056.28" traveltime="24.64" density="22.61" occupancy="11.30" waitingTime="0.00" speed="10.09" departed="78" arrived="17" entered="130" left="181" laneChangedFrom="0" laneChangedTo="0"/>
        <edge id="1o" sampledSeconds="6365.86" traveltime="47.05" density="14.47" occupancy="7.24" waitingTime="0.00" speed="10.39" departed="0" arrived="0" entered="136" left="130" laneChangedFrom="0" laneChangedTo="0"/>
        <edge id="1si" sampledSeconds="11578.56" traveltime="66.53" density="54.25" occupancy="9.04" waitingTime="5793.00" speed="3.56" departed="0" arrived="0" entered="181" left="157" laneChangedFrom="0" laneChangedTo="0"/>
        <edge id="2fi" sampledSeconds="5953.08" traveltime="24.54" density="26.62" occupancy="13.31" waitingTime="0.00" speed="10.13" departed="80" arrived="56" entered="165" left="179" laneChangedFrom="0" laneChangedTo="0"/>
        <edge id="2o" sampledSeconds="8079.27" traveltime="47.01" density="18.37" occupancy="9.19" waitingTime="0.00" speed="10.39" departed="0" arrived="0" entered="173" left="165" laneChangedFrom="0" laneChangedTo="0"/>
        <edge id="2si" sampledSeconds="8835.40" traveltime="49.54" density="41.40" occupancy="6.90" waitingTime="4301.00" speed="4.79" departed="0" arrived="0" entered="179" left="166" laneChangedFrom="0" laneChangedTo="0"/>
        <edge id="3fi" sampledSeconds="6252.25" traveltime="25.09" density="27.96" occupancy="13.98" waitingTime="1.00" speed="9.91" departed="143" arrived="79" entered="109" left="165" laneChangedFrom="0" laneChangedTo="0"/>
        <edge id="3o" sampledSeconds="5553.29" traveltime="46.94" density="12.63" occupancy="6.31" waitingTime="0.00" speed="10.41" departed="0" arrived="0" entered="126" left="109" laneChangedFrom="0" laneChangedTo="0"/>
        <edge id="3si" sampledSeconds="7873.85" traveltime="47.50" density="36.89" occupancy="6.15" waitingTime="3940.00" speed="4.99" departed="0" arrived="0" entered="164" left="148" laneChangedFrom="0" laneChangedTo="0"/>
        <edge id="4fi" sampledSeconds="4002.31" traveltime="23.84" density="17.90" occupancy="8.95" waitingTime="0.00" speed="10.43" departed="0" arrived="0" entered="165" left="164" laneChangedFrom="0" laneChangedTo="0"/>
        <edge id="4o" sampledSeconds="8169.95" traveltime="47.05" density="18.58" occupancy="9.29" waitingTime="0.00" speed="10.39" departed="0" arrived="0" entered="180" left="165" laneChangedFrom="0" laneChangedTo="0"/>
        <edge id="4si" sampledSeconds="7523.64" traveltime="46.15" density="35.25" occupancy="5.88" waitingTime="3410.00" speed="5.14" departed="0" arrived="0" entered="164" left="144" laneChangedFrom="0" laneChangedTo="0"/>
    </interval>
    <interval begin="0.00" end="900.00" id="dump_900">
        <edge id="1fi">
            <lane id="1fi_0" sampledSeconds="5056.28" traveltime="24.64" density="22.61" occupancy="11.30" waitingTime="0.00" speed="10.09" departed="78" arrived="17" entered="130" left="181" laneChangedFrom="0" laneChangedTo="0"/>
        </edge>
        <edge id="1o">
            <lane id="1o_0" sampledSeconds="6365.86" traveltime="47.05" density="14.47" occupancy="7.24" waitingTime="0.00" speed="10.39" departed="0" arrived="0" entered="136" left="130" laneChangedFrom="0" laneChangedTo="0"/>
        </edge>
        <edge id="1si">
            <lane id="1si_0" sampledSeconds="2052.85" traveltime="57.13" density="9.62" occupancy="4.81" waitingTime="1135.00" speed="4.15" departed="0" arrived="0" entered="40" left="32" laneChangedFrom="0" laneChangedTo="0"/>
            <lane id="1si_1" sampledSeconds="1337.53" traveltime="20.16" density="6.27" occupancy="3.13" waitingTime="120.00" speed="11.76" departed="0" arrived="0" entered="65" left="64" laneChangedFrom="0" laneChangedTo="0"/>
            <lane id="1si_2" sampledSeconds="8188.18" traveltime="114.09" density="38.36" occupancy="19.18" waitingTime="4538.00" speed="2.08" departed="0" arrived="0" entered="76" left="61" laneChangedFrom="0" laneChangedTo="0"/>
        </edge>
        <edge id="2fi">
            <lane id="2fi_0" sampledSeconds="5953.08" traveltime="24.54" density="26.62" occupancy="13.31" waitingTime="0.00" speed="10.13" departed="80" arrived="56" entered="165" left="179" laneChangedFrom="0" laneChangedTo="0"/>
        </edge>
        <edge id="2o">
            <lane id="2o_0" sampledSeconds="8079.27" traveltime="47.01" density="18.37" occupancy="9.19" waitingTime="0.00" speed="10.39" departed="0" arrived="0" entered="173" left="165" laneChangedFrom="0" laneChangedTo="0"/>
        </edge>
        <edge id="2si">
            <lane id="2si_0" sampledSeconds="3521.56" traveltime="57.90" density="16.50" occupancy="8.25" waitingTime="1996.00" speed="4.10" departed="0" arrived="0" entered="61" left="57" laneChangedFrom="0" laneChangedTo="0"/>
            <lane id="2si_1" sampledSeconds="2923.92" traveltime="38.19" density="13.70" occupancy="6.85" waitingTime="1235.00" speed="6.21" departed="0" arrived="0" entered="76" left="71" laneChangedFrom="0" laneChangedTo="0"/>
            <lane id="2si_2" sampledSeconds="2389.91" traveltime="58.34" density="11.20" occupancy="5.60" waitingTime="1070.00" speed="4.06" departed="0" arrived="0" entered="42" left="38" laneChangedFrom="0" laneChangedTo="0"/>
        </edge>
        <edge id="3fi">
            <lane id="3fi_0" sampledSeconds="6252.25" traveltime="25.09" density="27.96" occupancy="13.98" waitingTime="1.00" speed="9.91" departed="143" arrived="79" entered="109" left="165" laneChangedFrom="0" laneChangedTo="0"/>
        </edge>
        <edge id="3o">
            <lane id="3o_0" sampledSeconds="5553.29" traveltime="46.94" density="12.63" occupancy="6.31" waitingTime="0.00" speed="10.41" departed="0" arrived="0" entered="126" left="109" laneChangedFrom="0" laneChangedTo="0"/>
        </edge>
        <edge id="3si">
            <lane id="3si_0" sampledSeconds="3223.89" traveltime="46.81" density="15.10" occupancy="7.55" waitingTime="1645.00" speed="5.07" departed="0" arrived="0" entered="68" left="63" laneChangedFrom="0" laneChangedTo="0"/>
            <lane id="3si_1" sampledSeconds="3181.38" traveltime="46.83" density="14.91" occupancy="7.45" waitingTime="1642.00" speed="5.06" departed="0" arrived="0" entered="67" left="62" laneChangedFrom="0" laneChangedTo="0"/>
            <lane id="3si_2" sampledSeconds="1468.57" traveltime="50.73" density="6.88" occupancy="3.44" waitingTime="653.00" speed="4.67" departed="0" arrived="0" entered="29" left="23" laneChangedFrom="0" laneChangedTo="0"/>
        </edge>
        <edge id="4fi">
            <lane id="4fi_0" sampledSeconds="4002.31" traveltime="23.84" density="17.90" occupancy="8.95" waitingTime="0.00" speed="10.43" departed="0" arrived="0" entered="165" left="164" laneChangedFrom="0" laneChangedTo="0"/>
        </edge>
        <edge id="4o">
            <lane id="4o_0" sampledSeconds="8169.95" traveltime="47.05" density="18.58" occupancy="9.29" waitingTime="0.00" speed="10.39" departed="0" arrived="0" entered="180" left="165" laneChangedFrom="0" laneChangedTo="0"/>
        </edge>
        <edge id="4si">
            <lane id="4si_0" sampledSeconds="3030.96" traveltime="60.72" density="14.20" occupancy="7.10" waitingTime="1776.00" speed="3.91" departed="0" arrived="0" entered="50" left="42" laneChangedFrom="0" laneChangedTo="0"/>
            <lane id="4si_1" sampledSeconds="1144.44" traveltime="19.12" density="5.36" occupancy="2.68" waitingTime="56.00" speed="12.41" departed="0" arrived="0" entered="61" left="56" laneChangedFrom="0" laneChangedTo="0"/>
            <lane id="4si_2" sampledSeconds="3348.25" traveltime="62.90" density="15.69" occupancy="7.84" waitingTime="1578.00" speed="3.77" departed="0" arrived="0" entered="53" left="46" laneChangedFrom="0" laneChangedTo="0"/>
        </edge>
    </interval>
    <interval begin="900.00" end="1000.00" id="dump_900">
        <edge id="1fi" sampledSeconds="846.27" traveltime="24.64" density="34.05" occupancy="17.03" waitingTime="0.00" speed="10.08" departed="12" arrived="9" entered="22" left="26" laneChangedFrom="0" laneChangedTo="0"/>
        <edge id="1o" sampledSeconds="1240.29" traveltime="47.07" density="25.38" occupancy="12.69" waitingTime="0.00" speed="10.38" departed="0" arrived="0" entered="30" left="22" laneChangedFrom="0" laneChangedTo="0"/>
        <edge id="1si" sampledSeconds="2716.10" traveltime="93.42" density="114.53" occupancy="19.09" waitingTime="1580.00" speed="2.54" departed="0" arrived="0" entered="26" left="24" laneChangedFrom="0" laneChangedTo="0"/>
        <edge id="2fi" sampledSeconds="817.38" traveltime="24.49" density="32.89" occupancy="16.45" waitingTime="0.00" speed="10.15" departed="9" arrived="8" entered="24" left="25" laneChangedFrom="0" laneChangedTo="0"/>
        <edge id="2o" sampledSeconds="1096.72" traveltime="47.10" density="22.44" occupancy="11.22" waitingTime="0.00" speed="10.37" departed="0" arrived="0" entered="25" left="24" laneChangedFrom="0" laneChangedTo="0"/>
        <edge id="2si" sampledSeconds="1628.79" traveltime="62.23" density="68.68" occupancy="11.45" waitingTime="917.00" speed="3.81" departed="0" arrived="0" entered="25" left="24" laneChangedFrom="0" laneChangedTo="0"/>
        <edge id="3fi" sampledSeconds="951.06" traveltime="24.47" density="38.27" occupancy="19.14" waitingTime="0.00" speed="10.15" departed="13" arrived="14" entered="26" left="24" laneChangedFrom="0" laneChangedTo="0"/>
        <edge id="3o" sampledSeconds="1243.39" traveltime="47.06" density="25.45" occupancy="12.72" waitingTime="0.00" speed="10.38" departed="0" arrived="0" entered="24" left="26" laneChangedFrom="0" laneChangedTo="0"/>
        <edge id="3si" sampledSeconds="1123.40" traveltime="48.37" density="47.37" occupancy="7.90" waitingTime="497.00" speed="4.90" departed="0" arrived="0" entered="25" left="29" laneChangedFrom="0" laneChangedTo="0"/>
        <edge id="4fi" sampledSeconds="551.39" traveltime="23.84" density="22.19" occupancy="11.09" waitingTime="0.00" speed="10.42" departed="0" arrived="0" entered="24" left="23" laneChangedFrom="0" laneChangedTo="0"/>
        <edge id="4o" sampledSeconds="1131.00" traveltime="46.89" density="23.15" occupancy="11.57" waitingTime="0.00" speed="10.42" departed="0" arrived="0" entered="23" left="25" laneChangedFrom="0" laneChangedTo="0"/>
        <edge id="4si" sampledSeconds="1178.28" traveltime="46.99" density="49.69" occupancy="8.28" waitingTime="493.00" speed="5.05" departed="0" arrived="0" entered="23" left="29" laneChangedFrom="0" laneChangedTo="0"/>
    </interval>
</meandata>
