<?xml version="1.0" encoding="UTF-8"?>

<!-- generated on Thu Sep 29 14:14:55 2016 by SUMO Version dev-SVN-r21578
<?xml version="1.0" encoding="UTF-8"?>

<configuration xmlns:xsi="http://www.w3.org/2001/XMLSchema-instance" xsi:noNamespaceSchemaLocation="http://sumo.dlr.de/xsd/sumoConfiguration.xsd">

    <input>
        <net-file value="net.net.xml"/>
        <route-files value="input_routes.rou.xml"/>
        <additional-files value="input_additional.add.xml"/>
    </input>

    <time>
        <begin value="0"/>
        <end value="1000"/>
    </time>

    <report>
        <xml-validation value="never"/>
        <duration-log.disable value="true"/>
        <no-step-log value="true"/>
    </report>

</configuration>
-->

<meandata xmlns:xsi="http://www.w3.org/2001/XMLSchema-instance" xsi:noNamespaceSchemaLocation="http://sumo.dlr.de/xsd/meandata_file.xsd">
    <interval begin="0.00" end="300.00" id="dump_300">
        <edge id="1fi" sampledSeconds="676.57" traveltime="25.53" overlapTraveltime="26.02" density="9.08" occupancy="4.54" waitingTime="0.00" speed="9.74" departed="20" arrived="0" entered="11" left="21" laneChangedFrom="0" laneChangedTo="0"/>
        <edge id="1o" sampledSeconds="567.55" traveltime="47.12" overlapTraveltime="47.64" density="3.87" occupancy="1.94" waitingTime="0.00" speed="10.36" departed="0" arrived="0" entered="12" left="11" laneChangedFrom="0" laneChangedTo="0"/>
        <edge id="1si" sampledSeconds="755.29" traveltime="36.81" overlapTraveltime="38.61" density="10.62" occupancy="1.77" waitingTime="267.00" speed="6.27" departed="0" arrived="0" entered="21" left="14" laneChangedFrom="0" laneChangedTo="0"/>
        <edge id="2fi" sampledSeconds="683.33" traveltime="25.52" overlapTraveltime="25.98" density="9.17" occupancy="4.58" waitingTime="0.00" speed="9.76" departed="20" arrived="0" entered="9" left="25" laneChangedFrom="0" laneChangedTo="0"/>
        <edge id="2o" sampledSeconds="592.27" traveltime="47.18" overlapTraveltime="47.72" density="4.04" occupancy="2.02" waitingTime="0.00" speed="10.35" departed="0" arrived="0" entered="19" left="9" laneChangedFrom="0" laneChangedTo="0"/>
        <edge id="2si" sampledSeconds="833.41" traveltime="35.93" overlapTraveltime="36.61" density="11.71" occupancy="1.95" waitingTime="342.00" speed="6.61" departed="0" arrived="0" entered="25" left="12" laneChangedFrom="0" laneChangedTo="0"/>
        <edge id="3fi" sampledSeconds="986.71" traveltime="26.22" overlapTraveltime="26.69" density="13.24" occupancy="6.62" waitingTime="0.00" speed="9.50" departed="40" arrived="0" entered="0" left="36" laneChangedFrom="0" laneChangedTo="0"/>
        <edge id="3o" sampledSeconds="108.48" traveltime="47.13" overlapTraveltime="47.62" density="0.74" occupancy="0.37" waitingTime="0.00" speed="10.37" departed="0" arrived="0" entered="6" left="0" laneChangedFrom="0" laneChangedTo="0"/>
        <edge id="3si" sampledSeconds="1258.04" traveltime="37.01" overlapTraveltime="37.68" density="17.68" occupancy="2.95" waitingTime="505.00" speed="6.43" departed="0" arrived="0" entered="35" left="32" laneChangedFrom="0" laneChangedTo="0"/>
        <edge id="4fi" sampledSeconds="276.56" traveltime="23.74" overlapTraveltime="24.20" density="3.71" occupancy="1.85" waitingTime="0.00" speed="10.47" departed="0" arrived="0" entered="13" left="11" laneChangedFrom="0" laneChangedTo="0"/>
        <edge id="4o" sampledSeconds="985.96" traveltime="46.93" overlapTraveltime="47.42" density="6.73" occupancy="3.36" waitingTime="0.00" speed="10.41" departed="0" arrived="0" entered="28" left="14" laneChangedFrom="0" laneChangedTo="0"/>
        <edge id="4si" sampledSeconds="354.90" traveltime="30.03" overlapTraveltime="32.47" density="4.99" occupancy="0.83" waitingTime="110.00" speed="7.46" departed="0" arrived="0" entered="11" left="10" laneChangedFrom="0" laneChangedTo="0"/>
    </interval>
    <interval begin="0.00" end="300.00" id="dump_300">
        <edge id="1fi">
            <lane id="1fi_0" sampledSeconds="676.57" traveltime="25.53" overlapTraveltime="26.02" density="9.08" occupancy="4.54" waitingTime="0.00" speed="9.74" departed="20" arrived="0" entered="11" left="21" laneChangedFrom="0" laneChangedTo="0"/>
        </edge>
        <edge id="1o">
            <lane id="1o_0" sampledSeconds="567.55" traveltime="47.12" overlapTraveltime="47.64" density="3.87" occupancy="1.94" waitingTime="0.00" speed="10.36" departed="0" arrived="0" entered="12" left="11" laneChangedFrom="0" laneChangedTo="0"/>
        </edge>
        <edge id="1si">
            <lane id="1si_0" sampledSeconds="0.00" departed="0" arrived="0" entered="0" left="0" laneChangedFrom="0" laneChangedTo="0"/>
            <lane id="1si_1" sampledSeconds="98.17" traveltime="32.49" overlapTraveltime="32.99" density="1.38" occupancy="0.69" waitingTime="41.00" speed="7.34" departed="0" arrived="0" entered="3" left="2" laneChangedFrom="0" laneChangedTo="0"/>
            <lane id="1si_2" sampledSeconds="657.12" traveltime="37.59" overlapTraveltime="39.62" density="9.24" occupancy="4.62" waitingTime="226.00" speed="6.11" departed="0" arrived="0" entered="18" left="12" laneChangedFrom="0" laneChangedTo="0"/>
        </edge>
        <edge id="2fi">
            <lane id="2fi_0" sampledSeconds="683.33" traveltime="25.52" overlapTraveltime="25.98" density="9.17" occupancy="4.58" waitingTime="0.00" speed="9.76" departed="20" arrived="0" entered="9" left="25" laneChangedFrom="0" laneChangedTo="0"/>
        </edge>
        <edge id="2o">
            <lane id="2o_0" sampledSeconds="592.27" traveltime="47.18" overlapTraveltime="47.72" density="4.04" occupancy="2.02" waitingTime="0.00" speed="10.35" departed="0" arrived="0" entered="19" left="9" laneChangedFrom="0" laneChangedTo="0"/>
        </edge>
        <edge id="2si">
            <lane id="2si_0" sampledSeconds="258.84" traveltime="41.05" overlapTraveltime="41.91" density="3.64" occupancy="1.82" waitingTime="123.00" speed="5.78" departed="0" arrived="0" entered="7" left="0" laneChangedFrom="0" laneChangedTo="0"/>
            <lane id="2si_1" sampledSeconds="574.57" traveltime="34.00" overlapTraveltime="34.64" density="8.08" occupancy="4.04" waitingTime="219.00" speed="6.99" departed="0" arrived="0" entered="18" left="12" laneChangedFrom="0" laneChangedTo="0"/>
            <lane id="2si_2" sampledSeconds="0.00" departed="0" arrived="0" entered="0" left="0" laneChangedFrom="0" laneChangedTo="0"/>
        </edge>
        <edge id="3fi">
            <lane id="3fi_0" sampledSeconds="986.71" traveltime="26.22" overlapTraveltime="26.69" density="13.24" occupancy="6.62" waitingTime="0.00" speed="9.50" departed="40" arrived="0" entered="0" left="36" laneChangedFrom="0" laneChangedTo="0"/>
        </edge>
        <edge id="3o">
            <lane id="3o_0" sampledSeconds="108.48" traveltime="47.13" overlapTraveltime="47.62" density="0.74" occupancy="0.37" waitingTime="0.00" speed="10.37" departed="0" arrived="0" entered="6" left="0" laneChangedFrom="0" laneChangedTo="0"/>
        </edge>
        <edge id="3si">
            <lane id="3si_0" sampledSeconds="651.52" traveltime="37.93" overlapTraveltime="38.61" density="9.16" occupancy="4.58" waitingTime="267.00" speed="6.27" departed="0" arrived="0" entered="18" left="16" laneChangedFrom="0" laneChangedTo="0"/>
            <lane id="3si_1" sampledSeconds="606.52" traveltime="36.07" overlapTraveltime="36.72" density="8.53" occupancy="4.26" waitingTime="238.00" speed="6.59" departed="0" arrived="0" entered="17" left="16" laneChangedFrom="0" laneChangedTo="0"/>
            <lane id="3si_2" sampledSeconds="0.00" departed="0" arrived="0" entered="0" left="0" laneChangedFrom="0" laneChangedTo="0"/>
        </edge>
        <edge id="4fi">
            <lane id="4fi_0" sampledSeconds="276.56" traveltime="23.74" overlapTraveltime="24.20" density="3.71" occupancy="1.85" waitingTime="0.00" speed="10.47" departed="0" arrived="0" entered="13" left="11" laneChangedFrom="0" laneChangedTo="0"/>
        </edge>
        <edge id="4o">
            <lane id="4o_0" sampledSeconds="985.96" traveltime="46.93" overlapTraveltime="47.42" density="6.73" occupancy="3.36" waitingTime="0.00" speed="10.41" departed="0" arrived="0" entered="28" left="14" laneChangedFrom="0" laneChangedTo="0"/>
        </edge>
        <edge id="4si">
            <lane id="4si_0" sampledSeconds="0.00" departed="0" arrived="0" entered="0" left="0" laneChangedFrom="0" laneChangedTo="0"/>
            <lane id="4si_1" sampledSeconds="129.29" traveltime="18.05" overlapTraveltime="18.47" density="1.82" occupancy="0.91" waitingTime="0.00" speed="13.11" departed="0" arrived="0" entered="7" left="7" laneChangedFrom="0" laneChangedTo="0"/>
            <lane id="4si_2" sampledSeconds="225.61" traveltime="51.16" overlapTraveltime="57.42" density="3.17" occupancy="1.59" waitingTime="110.00" speed="4.22" departed="0" arrived="0" entered="4" left="3" laneChangedFrom="0" laneChangedTo="0"/>
        </edge>
    </interval>
    <interval begin="900.00" end="1000.00" id="dump_300">
        <edge id="1fi" sampledSeconds="920.11" traveltime="24.64" overlapTraveltime="25.11" density="37.03" occupancy="18.51" waitingTime="0.00" speed="10.10" departed="11" arrived="7" entered="26" left="30" laneChangedFrom="0" laneChangedTo="0"/>
        <edge id="1o" sampledSeconds="1277.54" traveltime="47.25" overlapTraveltime="47.76" density="26.14" occupancy="13.07" waitingTime="0.00" speed="10.34" departed="0" arrived="0" entered="29" left="26" laneChangedFrom="0" laneChangedTo="0"/>
        <edge id="1si" sampledSeconds="3228.33" traveltime="104.94" overlapTraveltime="106.60" density="136.13" occupancy="22.69" waitingTime="1590.00" speed="2.27" departed="0" arrived="0" entered="31" left="24" laneChangedFrom="0" laneChangedTo="0"/>
        <edge id="2fi" sampledSeconds="785.63" traveltime="24.54" overlapTraveltime="25.01" density="31.61" occupancy="15.81" waitingTime="0.00" speed="10.14" departed="10" arrived="9" entered="23" left="24" laneChangedFrom="0" laneChangedTo="0"/>
        <edge id="2o" sampledSeconds="1096.19" traveltime="46.88" overlapTraveltime="47.39" density="22.43" occupancy="11.22" waitingTime="0.00" speed="10.42" departed="0" arrived="0" entered="24" left="23" laneChangedFrom="0" laneChangedTo="0"/>
        <edge id="2si" sampledSeconds="1175.30" traveltime="47.14" overlapTraveltime="48.79" density="49.56" occupancy="8.26" waitingTime="585.00" speed="4.96" departed="0" arrived="0" entered="23" left="21" laneChangedFrom="0" laneChangedTo="0"/>
        <edge id="3fi" sampledSeconds="990.35" traveltime="24.95" overlapTraveltime="25.42" density="39.85" occupancy="19.93" waitingTime="0.00" speed="9.97" departed="17" arrived="15" entered="23" left="24" laneChangedFrom="0" laneChangedTo="0"/>
        <edge id="3o" sampledSeconds="1164.50" traveltime="47.34" overlapTraveltime="47.90" density="23.83" occupancy="11.92" waitingTime="0.00" speed="10.31" departed="0" arrived="0" entered="23" left="23" laneChangedFrom="0" laneChangedTo="0"/>
        <edge id="3si" sampledSeconds="1194.32" traveltime="48.36" overlapTraveltime="50.08" density="50.36" occupancy="8.39" waitingTime="534.00" speed="4.84" departed="0" arrived="0" entered="25" left="31" laneChangedFrom="0" laneChangedTo="0"/>
        <edge id="4fi" sampledSeconds="511.98" traveltime="23.79" overlapTraveltime="24.25" density="20.60" occupancy="10.30" waitingTime="0.00" speed="10.45" departed="0" arrived="0" entered="23" left="21" laneChangedFrom="0" laneChangedTo="0"/>
        <edge id="4o" sampledSeconds="1068.18" traveltime="46.93" overlapTraveltime="47.41" density="21.86" occupancy="10.93" waitingTime="0.00" speed="10.41" departed="0" arrived="0" entered="23" left="23" laneChangedFrom="0" laneChangedTo="0"/>
        <edge id="4si" sampledSeconds="1352.59" traveltime="55.15" overlapTraveltime="56.96" density="57.04" occupancy="9.51" waitingTime="660.00" speed="4.25" departed="0" arrived="0" entered="21" left="31" laneChangedFrom="0" laneChangedTo="0"/>
    </interval>
</meandata>
