<?xml version="1.0" encoding="UTF-8"?>

<!-- generated on Wed Sep  4 15:30:39 2013 by SUMO sumo Version dev-SVN-r14576
<?xml version="1.0" encoding="UTF-8"?>

<configuration xmlns:xsi="http://www.w3.org/2001/XMLSchema-instance" xsi:noNamespaceSchemaLocation="http://sumo-sim.org/xsd/sumoConfiguration.xsd">

    <input>
        <net-file value="net.net.xml"/>
        <route-files value="input_routes.rou.xml"/>
        <additional-files value="input_additional.add.xml"/>
    </input>

    <time>
        <begin value="0"/>
        <end value="1000"/>
    </time>

    <report>
        <no-duration-log value="true"/>
        <no-step-log value="true"/>
    </report>

</configuration>
-->

<meandata xmlns:xsi="http://www.w3.org/2001/XMLSchema-instance" xsi:noNamespaceSchemaLocation="http://sumo-sim.org/xsd/meandata_file.xsd">
    <interval begin="0.00" end="300.00" id="dump_300">
        <edge id="1fi" sampledSeconds="705.25" traveltime="27.42" density="9.46" occupancy="2.84" waitingTime="0.00" speed="9.06" departed="20" arrived="0" entered="11" left="20" laneChangedFrom="0" laneChangedTo="0"/>
        <edge id="1o" sampledSeconds="493.87" traveltime="44.62" density="3.37" occupancy="1.01" waitingTime="0.00" speed="10.95" departed="0" arrived="0" entered="11" left="11" laneChangedFrom="0" laneChangedTo="0"/>
        <edge id="1si" sampledSeconds="913.57" traveltime="50.59" density="12.84" occupancy="1.28" waitingTime="446.00" speed="4.69" departed="0" arrived="0" entered="20" left="10" laneChangedFrom="0" laneChangedTo="0"/>
        <edge id="2fi" sampledSeconds="725.54" traveltime="27.49" density="9.73" occupancy="2.92" waitingTime="0.00" speed="9.04" departed="20" arrived="0" entered="9" left="25" laneChangedFrom="0" laneChangedTo="0"/>
        <edge id="2o" sampledSeconds="544.92" traveltime="45.64" density="3.72" occupancy="1.12" waitingTime="0.00" speed="10.71" departed="0" arrived="0" entered="18" left="9" laneChangedFrom="0" laneChangedTo="0"/>
        <edge id="2si" sampledSeconds="913.97" traveltime="39.85" density="12.85" occupancy="1.28" waitingTime="409.00" speed="5.95" departed="0" arrived="0" entered="25" left="11" laneChangedFrom="0" laneChangedTo="0"/>
        <edge id="3fi" sampledSeconds="1081.20" traveltime="29.26" density="14.50" occupancy="4.35" waitingTime="0.00" speed="8.49" departed="40" arrived="0" entered="0" left="35" laneChangedFrom="0" laneChangedTo="0"/>
        <edge id="3o" sampledSeconds="116.12" traveltime="43.98" density="0.79" occupancy="0.24" waitingTime="0.00" speed="11.11" departed="0" arrived="0" entered="7" left="0" laneChangedFrom="0" laneChangedTo="0"/>
        <edge id="3si" sampledSeconds="1196.97" traveltime="36.03" density="16.82" occupancy="1.68" waitingTime="431.00" speed="6.58" departed="0" arrived="0" entered="34" left="31" laneChangedFrom="0" laneChangedTo="0"/>
        <edge id="4fi" sampledSeconds="226.30" traveltime="22.36" density="3.04" occupancy="0.91" waitingTime="0.00" speed="11.11" departed="0" arrived="0" entered="10" left="10" laneChangedFrom="0" laneChangedTo="0"/>
        <edge id="4o" sampledSeconds="752.71" traveltime="45.14" density="5.13" occupancy="1.54" waitingTime="0.00" speed="10.82" departed="0" arrived="0" entered="23" left="10" laneChangedFrom="0" laneChangedTo="0"/>
        <edge id="4si" sampledSeconds="308.78" traveltime="30.61" density="4.34" occupancy="0.43" waitingTime="111.00" speed="7.75" departed="0" arrived="0" entered="10" left="9" laneChangedFrom="0" laneChangedTo="0"/>
    </interval>
    <interval begin="0.00" end="300.00" id="dump_300">
        <edge id="1fi">
            <lane id="1fi_0" sampledSeconds="705.25" traveltime="27.42" density="9.46" occupancy="2.84" waitingTime="0.00" speed="9.06" departed="20" arrived="0" entered="11" left="20" laneChangedFrom="0" laneChangedTo="0"/>
        </edge>
        <edge id="1o">
            <lane id="1o_0" sampledSeconds="493.87" traveltime="44.62" density="3.37" occupancy="1.01" waitingTime="0.00" speed="10.95" departed="0" arrived="0" entered="11" left="11" laneChangedFrom="0" laneChangedTo="0"/>
        </edge>
        <edge id="1si">
            <lane id="1si_0" sampledSeconds="0.00" departed="0" arrived="0" entered="0" left="0" laneChangedFrom="0" laneChangedTo="0"/>
            <lane id="1si_1" sampledSeconds="35.29" traveltime="17.42" density="0.50" occupancy="0.15" waitingTime="0.00" speed="13.61" departed="0" arrived="0" entered="2" left="2" laneChangedFrom="0" laneChangedTo="0"/>
            <lane id="1si_2" sampledSeconds="878.28" traveltime="54.78" density="12.34" occupancy="3.70" waitingTime="446.00" speed="4.33" departed="0" arrived="0" entered="18" left="8" laneChangedFrom="0" laneChangedTo="0"/>
        </edge>
        <edge id="2fi">
            <lane id="2fi_0" sampledSeconds="725.54" traveltime="27.49" density="9.73" occupancy="2.92" waitingTime="0.00" speed="9.04" departed="20" arrived="0" entered="9" left="25" laneChangedFrom="0" laneChangedTo="0"/>
        </edge>
        <edge id="2o">
            <lane id="2o_0" sampledSeconds="544.92" traveltime="45.64" density="3.72" occupancy="1.12" waitingTime="0.00" speed="10.71" departed="0" arrived="0" entered="18" left="9" laneChangedFrom="0" laneChangedTo="0"/>
        </edge>
        <edge id="2si">
            <lane id="2si_0" sampledSeconds="260.81" traveltime="40.14" density="3.67" occupancy="1.10" waitingTime="126.00" speed="5.91" departed="0" arrived="0" entered="7" left="0" laneChangedFrom="0" laneChangedTo="0"/>
            <lane id="2si_1" sampledSeconds="653.16" traveltime="39.73" density="9.18" occupancy="2.75" waitingTime="283.00" speed="5.97" departed="0" arrived="0" entered="18" left="11" laneChangedFrom="0" laneChangedTo="0"/>
            <lane id="2si_2" sampledSeconds="0.00" departed="0" arrived="0" entered="0" left="0" laneChangedFrom="0" laneChangedTo="0"/>
        </edge>
        <edge id="3fi">
            <lane id="3fi_0" sampledSeconds="1081.20" traveltime="29.26" density="14.50" occupancy="4.35" waitingTime="0.00" speed="8.49" departed="40" arrived="0" entered="0" left="35" laneChangedFrom="0" laneChangedTo="0"/>
        </edge>
        <edge id="3o">
            <lane id="3o_0" sampledSeconds="116.12" traveltime="43.98" density="0.79" occupancy="0.24" waitingTime="0.00" speed="11.11" departed="0" arrived="0" entered="7" left="0" laneChangedFrom="0" laneChangedTo="0"/>
        </edge>
        <edge id="3si">
            <lane id="3si_0" sampledSeconds="624.52" traveltime="37.25" density="8.78" occupancy="2.63" waitingTime="235.00" speed="6.37" departed="0" arrived="0" entered="17" left="16" laneChangedFrom="0" laneChangedTo="0"/>
            <lane id="3si_1" sampledSeconds="572.45" traveltime="34.79" density="8.05" occupancy="2.41" waitingTime="196.00" speed="6.82" departed="0" arrived="0" entered="17" left="15" laneChangedFrom="0" laneChangedTo="0"/>
            <lane id="3si_2" sampledSeconds="0.00" departed="0" arrived="0" entered="0" left="0" laneChangedFrom="0" laneChangedTo="0"/>
        </edge>
        <edge id="4fi">
            <lane id="4fi_0" sampledSeconds="226.30" traveltime="22.36" density="3.04" occupancy="0.91" waitingTime="0.00" speed="11.11" departed="0" arrived="0" entered="10" left="10" laneChangedFrom="0" laneChangedTo="0"/>
        </edge>
        <edge id="4o">
            <lane id="4o_0" sampledSeconds="752.71" traveltime="45.14" density="5.13" occupancy="1.54" waitingTime="0.00" speed="10.82" departed="0" arrived="0" entered="23" left="10" laneChangedFrom="0" laneChangedTo="0"/>
        </edge>
        <edge id="4si">
            <lane id="4si_0" sampledSeconds="0.00" departed="0" arrived="0" entered="0" left="0" laneChangedFrom="0" laneChangedTo="0"/>
            <lane id="4si_1" sampledSeconds="123.28" traveltime="17.39" density="1.73" occupancy="0.52" waitingTime="0.00" speed="13.64" departed="0" arrived="0" entered="7" left="7" laneChangedFrom="0" laneChangedTo="0"/>
            <lane id="4si_2" sampledSeconds="185.50" traveltime="61.85" density="2.61" occupancy="0.78" waitingTime="111.00" speed="3.83" departed="0" arrived="0" entered="3" left="2" laneChangedFrom="0" laneChangedTo="0"/>
        </edge>
    </interval>
    <interval begin="900.00" end="1000.00" id="dump_300">
        <edge id="1fi" sampledSeconds="884.83" traveltime="25.43" density="35.61" occupancy="10.68" waitingTime="0.00" speed="9.77" departed="10" arrived="4" entered="22" left="28" laneChangedFrom="0" laneChangedTo="0"/>
        <edge id="1o" sampledSeconds="1008.15" traveltime="45.44" density="20.63" occupancy="6.19" waitingTime="0.00" speed="10.75" departed="0" arrived="0" entered="22" left="23" laneChangedFrom="0" laneChangedTo="0"/>
        <edge id="1si" sampledSeconds="5068.70" traveltime="183.73" density="213.73" occupancy="21.37" waitingTime="3197.00" speed="1.29" departed="0" arrived="0" entered="28" left="23" laneChangedFrom="0" laneChangedTo="0"/>
        <edge id="2fi" sampledSeconds="774.60" traveltime="25.64" density="31.17" occupancy="9.35" waitingTime="0.00" speed="9.69" departed="10" arrived="8" entered="21" left="22" laneChangedFrom="0" laneChangedTo="0"/>
        <edge id="2o" sampledSeconds="953.23" traveltime="46.59" density="19.51" occupancy="5.85" waitingTime="0.00" speed="10.49" departed="0" arrived="0" entered="22" left="21" laneChangedFrom="0" laneChangedTo="0"/>
        <edge id="2si" sampledSeconds="1077.39" traveltime="49.16" density="45.43" occupancy="4.54" waitingTime="520.00" speed="4.82" departed="0" arrived="0" entered="22" left="18" laneChangedFrom="0" laneChangedTo="0"/>
        <edge id="3fi" sampledSeconds="859.42" traveltime="25.89" density="34.58" occupancy="10.38" waitingTime="0.00" speed="9.60" departed="14" arrived="15" entered="20" left="18" laneChangedFrom="0" laneChangedTo="0"/>
        <edge id="3o" sampledSeconds="957.12" traveltime="45.38" density="19.59" occupancy="5.88" waitingTime="0.00" speed="10.77" departed="0" arrived="0" entered="22" left="20" laneChangedFrom="0" laneChangedTo="0"/>
        <edge id="3si" sampledSeconds="848.45" traveltime="46.12" density="35.78" occupancy="3.58" waitingTime="351.00" speed="5.14" departed="0" arrived="0" entered="18" left="25" laneChangedFrom="0" laneChangedTo="0"/>
        <edge id="4fi" sampledSeconds="414.42" traveltime="22.36" density="16.68" occupancy="5.00" waitingTime="0.00" speed="11.11" departed="0" arrived="0" entered="20" left="19" laneChangedFrom="0" laneChangedTo="0"/>
        <edge id="4o" sampledSeconds="921.97" traveltime="45.21" density="18.87" occupancy="5.66" waitingTime="0.00" speed="10.81" departed="0" arrived="0" entered="20" left="20" laneChangedFrom="0" laneChangedTo="0"/>
        <edge id="4si" sampledSeconds="1213.38" traveltime="59.47" density="51.17" occupancy="5.12" waitingTime="647.00" speed="3.99" departed="0" arrived="0" entered="18" left="26" laneChangedFrom="0" laneChangedTo="0"/>
    </interval>
</meandata>
