<?xml version="1.0" encoding="UTF-8"?>

<!-- generated on Wed Jun  5 12:32:14 2013 by SUMO sumo Version dev-SVN-rUNKNOWN
<?xml version="1.0" encoding="UTF-8"?>

<configuration xmlns:xsi="http://www.w3.org/2001/XMLSchema-instance" xsi:noNamespaceSchemaLocation="http://sumo.sf.net/xsd/sumoConfiguration.xsd">

    <input>
        <net-file value="net.net.xml"/>
        <route-files value="input_routes.rou.xml"/>
        <additional-files value="input_additional.add.xml"/>
    </input>

    <time>
        <begin value="0"/>
        <end value="1000"/>
    </time>

    <report>
        <no-duration-log value="true"/>
        <no-step-log value="true"/>
    </report>

</configuration>
-->

<meandata xmlns:xsi="http://www.w3.org/2001/XMLSchema-instance" xsi:noNamespaceSchemaLocation="http://sumo.sf.net/xsd/meandata_file.xsd">
    <interval begin="0.00" end="900.00" id="dump_900">
        <edge id="1fi" sampledSeconds="5338.81" traveltime="27.67" density="23.87" occupancy="7.16" waitingTime="1.00" speed="8.98" departed="79" arrived="12" entered="118" left="176" laneChangedFrom="0" laneChangedTo="0"/>
        <edge id="1o" sampledSeconds="5893.44" traveltime="47.61" density="13.40" occupancy="4.02" waitingTime="0.00" speed="10.26" departed="0" arrived="0" entered="127" left="118" laneChangedFrom="0" laneChangedTo="0"/>
        <edge id="1si" sampledSeconds="17506.55" traveltime="110.81" density="82.02" occupancy="8.20" waitingTime="9838.00" speed="2.14" departed="0" arrived="0" entered="175" left="135" laneChangedFrom="0" laneChangedTo="0"/>
        <edge id="2fi" sampledSeconds="6014.63" traveltime="27.87" density="26.89" occupancy="8.07" waitingTime="2.00" speed="8.91" departed="80" arrived="54" entered="139" left="158" laneChangedFrom="0" laneChangedTo="0"/>
        <edge id="2o" sampledSeconds="7015.49" traveltime="48.04" density="15.95" occupancy="4.79" waitingTime="0.00" speed="10.17" departed="0" arrived="0" entered="149" left="139" laneChangedFrom="0" laneChangedTo="0"/>
        <edge id="2si" sampledSeconds="8113.09" traveltime="52.13" density="38.01" occupancy="3.80" waitingTime="3531.00" speed="4.55" departed="0" arrived="0" entered="158" left="149" laneChangedFrom="0" laneChangedTo="0"/>
        <edge id="3fi" sampledSeconds="6313.13" traveltime="29.14" density="28.23" occupancy="8.47" waitingTime="6.00" speed="8.53" departed="125" arrived="71" entered="95" left="142" laneChangedFrom="0" laneChangedTo="0"/>
        <edge id="3o" sampledSeconds="4896.89" traveltime="48.23" density="11.13" occupancy="3.34" waitingTime="0.00" speed="10.13" departed="0" arrived="0" entered="108" left="95" laneChangedFrom="0" laneChangedTo="0"/>
        <edge id="3si" sampledSeconds="6710.71" traveltime="47.22" density="31.44" occupancy="3.14" waitingTime="2899.00" speed="5.02" departed="0" arrived="0" entered="142" left="127" laneChangedFrom="0" laneChangedTo="0"/>
        <edge id="4fi" sampledSeconds="3151.46" traveltime="22.77" density="14.09" occupancy="4.23" waitingTime="0.00" speed="10.91" departed="0" arrived="0" entered="137" left="136" laneChangedFrom="0" laneChangedTo="0"/>
        <edge id="4o" sampledSeconds="6625.13" traveltime="46.83" density="15.06" occupancy="4.52" waitingTime="0.00" speed="10.43" departed="0" arrived="0" entered="145" left="137" laneChangedFrom="0" laneChangedTo="0"/>
        <edge id="4si" sampledSeconds="5914.83" traveltime="44.05" density="27.71" occupancy="2.77" waitingTime="2378.00" speed="5.38" departed="0" arrived="0" entered="136" left="119" laneChangedFrom="0" laneChangedTo="0"/>
    </interval>
    <interval begin="0.00" end="900.00" id="dump_900">
        <edge id="1fi">
            <lane id="1fi_0" sampledSeconds="5338.81" traveltime="27.67" density="23.87" occupancy="7.16" waitingTime="1.00" speed="8.98" departed="79" arrived="12" entered="118" left="176" laneChangedFrom="0" laneChangedTo="0"/>
        </edge>
        <edge id="1o">
            <lane id="1o_0" sampledSeconds="5893.44" traveltime="47.61" density="13.40" occupancy="4.02" waitingTime="0.00" speed="10.26" departed="0" arrived="0" entered="127" left="118" laneChangedFrom="0" laneChangedTo="0"/>
        </edge>
        <edge id="1si">
            <lane id="1si_0" sampledSeconds="1836.18" traveltime="55.27" density="8.60" occupancy="2.58" waitingTime="828.00" speed="4.29" departed="0" arrived="0" entered="36" left="32" laneChangedFrom="0" laneChangedTo="0"/>
            <lane id="1si_1" sampledSeconds="1199.35" traveltime="18.80" density="5.62" occupancy="1.69" waitingTime="52.00" speed="12.61" departed="0" arrived="0" entered="63" left="63" laneChangedFrom="0" laneChangedTo="0"/>
            <lane id="1si_2" sampledSeconds="14471.02" traveltime="237.32" density="67.80" occupancy="20.34" waitingTime="8958.00" speed="1.00" departed="0" arrived="0" entered="76" left="40" laneChangedFrom="0" laneChangedTo="0"/>
        </edge>
        <edge id="2fi">
            <lane id="2fi_0" sampledSeconds="6014.63" traveltime="27.87" density="26.89" occupancy="8.07" waitingTime="2.00" speed="8.91" departed="80" arrived="54" entered="139" left="158" laneChangedFrom="0" laneChangedTo="0"/>
        </edge>
        <edge id="2o">
            <lane id="2o_0" sampledSeconds="7015.49" traveltime="48.04" density="15.95" occupancy="4.79" waitingTime="0.00" speed="10.17" departed="0" arrived="0" entered="149" left="139" laneChangedFrom="0" laneChangedTo="0"/>
        </edge>
        <edge id="2si">
            <lane id="2si_0" sampledSeconds="2915.24" traveltime="55.82" density="13.66" occupancy="4.10" waitingTime="1319.00" speed="4.25" departed="0" arrived="0" entered="55" left="51" laneChangedFrom="0" laneChangedTo="0"/>
            <lane id="2si_1" sampledSeconds="3898.60" traveltime="50.59" density="18.27" occupancy="5.48" waitingTime="1767.00" speed="4.69" departed="0" arrived="0" entered="77" left="72" laneChangedFrom="0" laneChangedTo="0"/>
            <lane id="2si_2" sampledSeconds="1299.25" traveltime="49.35" density="6.09" occupancy="1.83" waitingTime="445.00" speed="4.81" departed="0" arrived="0" entered="26" left="26" laneChangedFrom="0" laneChangedTo="0"/>
        </edge>
        <edge id="3fi">
            <lane id="3fi_0" sampledSeconds="6313.13" traveltime="29.14" density="28.23" occupancy="8.47" waitingTime="6.00" speed="8.53" departed="125" arrived="71" entered="95" left="142" laneChangedFrom="0" laneChangedTo="0"/>
        </edge>
        <edge id="3o">
            <lane id="3o_0" sampledSeconds="4896.89" traveltime="48.23" density="11.13" occupancy="3.34" waitingTime="0.00" speed="10.13" departed="0" arrived="0" entered="108" left="95" laneChangedFrom="0" laneChangedTo="0"/>
        </edge>
        <edge id="3si">
            <lane id="3si_0" sampledSeconds="2898.96" traveltime="47.88" density="13.58" occupancy="4.07" waitingTime="1283.00" speed="4.95" departed="0" arrived="0" entered="60" left="56" laneChangedFrom="0" laneChangedTo="0"/>
            <lane id="3si_1" sampledSeconds="2965.49" traveltime="49.55" density="13.89" occupancy="4.17" waitingTime="1370.00" speed="4.79" departed="0" arrived="0" entered="60" left="55" laneChangedFrom="0" laneChangedTo="0"/>
            <lane id="3si_2" sampledSeconds="846.26" traveltime="38.97" density="3.96" occupancy="1.19" waitingTime="246.00" speed="6.09" departed="0" arrived="0" entered="22" left="16" laneChangedFrom="0" laneChangedTo="0"/>
        </edge>
        <edge id="4fi">
            <lane id="4fi_0" sampledSeconds="3151.46" traveltime="22.77" density="14.09" occupancy="4.23" waitingTime="0.00" speed="10.91" departed="0" arrived="0" entered="137" left="136" laneChangedFrom="0" laneChangedTo="0"/>
        </edge>
        <edge id="4o">
            <lane id="4o_0" sampledSeconds="6625.13" traveltime="46.83" density="15.06" occupancy="4.52" waitingTime="0.00" speed="10.43" departed="0" arrived="0" entered="145" left="137" laneChangedFrom="0" laneChangedTo="0"/>
        </edge>
        <edge id="4si">
            <lane id="4si_0" sampledSeconds="2780.62" traveltime="60.46" density="13.03" occupancy="3.91" waitingTime="1436.00" speed="3.92" departed="0" arrived="0" entered="46" left="39" laneChangedFrom="0" laneChangedTo="0"/>
            <lane id="4si_1" sampledSeconds="932.45" traveltime="17.84" density="4.37" occupancy="1.31" waitingTime="0.00" speed="13.30" departed="0" arrived="0" entered="54" left="50" laneChangedFrom="0" laneChangedTo="0"/>
            <lane id="4si_2" sampledSeconds="2201.76" traveltime="61.14" density="10.32" occupancy="3.09" waitingTime="942.00" speed="3.88" departed="0" arrived="0" entered="36" left="30" laneChangedFrom="0" laneChangedTo="0"/>
        </edge>
    </interval>
    <interval begin="900.00" end="1000.00" id="dump_900">
        <edge id="1fi" sampledSeconds="910.46" traveltime="27.76" density="36.64" occupancy="10.99" waitingTime="0.00" speed="8.95" departed="10" arrived="4" entered="22" left="28" laneChangedFrom="0" laneChangedTo="0"/>
        <edge id="1o" sampledSeconds="1197.24" traveltime="48.36" density="24.50" occupancy="7.35" waitingTime="0.00" speed="10.10" departed="0" arrived="0" entered="25" left="22" laneChangedFrom="0" laneChangedTo="0"/>
        <edge id="1si" sampledSeconds="4622.01" traveltime="192.76" density="194.90" occupancy="19.49" waitingTime="2643.00" speed="1.23" departed="0" arrived="0" entered="29" left="19" laneChangedFrom="0" laneChangedTo="0"/>
        <edge id="2fi" sampledSeconds="813.83" traveltime="27.04" density="32.75" occupancy="9.82" waitingTime="0.00" speed="9.19" departed="10" arrived="9" entered="20" left="19" laneChangedFrom="0" laneChangedTo="0"/>
        <edge id="2o" sampledSeconds="942.69" traveltime="46.66" density="19.29" occupancy="5.79" waitingTime="0.00" speed="10.47" departed="0" arrived="0" entered="21" left="20" laneChangedFrom="0" laneChangedTo="0"/>
        <edge id="2si" sampledSeconds="1113.69" traveltime="51.93" density="46.96" occupancy="4.70" waitingTime="508.00" speed="4.57" departed="0" arrived="0" entered="19" left="19" laneChangedFrom="0" laneChangedTo="0"/>
        <edge id="3fi" sampledSeconds="891.47" traveltime="28.50" density="35.87" occupancy="10.76" waitingTime="1.00" speed="8.72" departed="13" arrived="15" entered="18" left="16" laneChangedFrom="0" laneChangedTo="0"/>
        <edge id="3o" sampledSeconds="919.62" traveltime="47.76" density="18.82" occupancy="5.65" waitingTime="0.00" speed="10.23" departed="0" arrived="0" entered="17" left="18" laneChangedFrom="0" laneChangedTo="0"/>
        <edge id="3si" sampledSeconds="921.12" traveltime="55.79" density="38.84" occupancy="3.88" waitingTime="378.00" speed="4.25" departed="0" arrived="0" entered="16" left="24" laneChangedFrom="0" laneChangedTo="0"/>
        <edge id="4fi" sampledSeconds="328.79" traveltime="22.80" density="13.23" occupancy="3.97" waitingTime="0.00" speed="10.90" departed="0" arrived="0" entered="15" left="15" laneChangedFrom="0" laneChangedTo="0"/>
        <edge id="4o" sampledSeconds="742.97" traveltime="47.19" density="15.20" occupancy="4.56" waitingTime="0.00" speed="10.36" departed="0" arrived="0" entered="15" left="15" laneChangedFrom="0" laneChangedTo="0"/>
        <edge id="4si" sampledSeconds="882.61" traveltime="50.54" density="37.22" occupancy="3.72" waitingTime="326.00" speed="4.69" departed="0" arrived="0" entered="15" left="23" laneChangedFrom="0" laneChangedTo="0"/>
    </interval>
</meandata>
