<?xml version="1.0" encoding="UTF-8"?>

<!-- generated on 07/08/14 18:36:51 by SUMO sumo Version dev-SVN-r16735
<?xml version="1.0" encoding="UTF-8"?>

<configuration xmlns:xsi="http://www.w3.org/2001/XMLSchema-instance" xsi:noNamespaceSchemaLocation="http://sumo-sim.org/xsd/sumoConfiguration.xsd">

    <input>
        <net-file value="net.net.xml"/>
        <route-files value="input_routes.rou.xml"/>
        <additional-files value="input_additional.add.xml"/>
    </input>

    <time>
        <begin value="0"/>
        <end value="1000"/>
    </time>

    <report>
        <xml-validation value="never"/>
        <no-duration-log value="true"/>
        <no-step-log value="true"/>
    </report>

</configuration>
-->

<meandata xmlns:xsi="http://www.w3.org/2001/XMLSchema-instance" xsi:noNamespaceSchemaLocation="http://sumo-sim.org/xsd/meandata_file.xsd">
    <interval begin="0.00" end="300.00" id="dump_300">
        <edge id="1fi" sampledSeconds="675.22" traveltime="25.47" density="9.06" occupancy="4.53" waitingTime="0.00" speed="9.76" departed="20" arrived="0" entered="11" left="21" laneChangedFrom="0" laneChangedTo="0"/>
        <edge id="1o" sampledSeconds="567.86" traveltime="47.19" density="3.87" occupancy="1.94" waitingTime="0.00" speed="10.35" departed="0" arrived="0" entered="12" left="11" laneChangedFrom="0" laneChangedTo="0"/>
        <edge id="1si" sampledSeconds="704.33" traveltime="35.10" density="9.90" occupancy="1.65" waitingTime="237.00" speed="6.76" departed="0" arrived="0" entered="21" left="15" laneChangedFrom="0" laneChangedTo="0"/>
        <edge id="2fi" sampledSeconds="682.39" traveltime="25.40" density="9.15" occupancy="4.58" waitingTime="0.00" speed="9.78" departed="20" arrived="0" entered="9" left="25" laneChangedFrom="0" laneChangedTo="0"/>
        <edge id="2o" sampledSeconds="598.87" traveltime="47.10" density="4.09" occupancy="2.04" waitingTime="0.00" speed="10.38" departed="0" arrived="0" entered="19" left="9" laneChangedFrom="0" laneChangedTo="0"/>
        <edge id="2si" sampledSeconds="826.26" traveltime="35.56" density="11.61" occupancy="1.94" waitingTime="329.00" speed="6.67" departed="0" arrived="0" entered="25" left="12" laneChangedFrom="0" laneChangedTo="0"/>
        <edge id="3fi" sampledSeconds="985.17" traveltime="26.12" density="13.21" occupancy="6.61" waitingTime="0.00" speed="9.51" departed="40" arrived="0" entered="0" left="36" laneChangedFrom="0" laneChangedTo="0"/>
        <edge id="3o" sampledSeconds="107.02" traveltime="47.13" density="0.73" occupancy="0.37" waitingTime="0.00" speed="10.37" departed="0" arrived="0" entered="6" left="0" laneChangedFrom="0" laneChangedTo="0"/>
        <edge id="3si" sampledSeconds="1258.08" traveltime="36.87" density="17.68" occupancy="2.95" waitingTime="511.00" speed="6.43" departed="0" arrived="0" entered="35" left="32" laneChangedFrom="0" laneChangedTo="0"/>
        <edge id="4fi" sampledSeconds="279.61" traveltime="23.76" density="3.75" occupancy="1.88" waitingTime="0.00" speed="10.46" departed="0" arrived="0" entered="14" left="11" laneChangedFrom="0" laneChangedTo="0"/>
        <edge id="4o" sampledSeconds="1036.79" traveltime="46.93" density="7.07" occupancy="3.54" waitingTime="0.00" speed="10.41" departed="0" arrived="0" entered="28" left="14" laneChangedFrom="0" laneChangedTo="0"/>
        <edge id="4si" sampledSeconds="354.03" traveltime="31.72" density="4.98" occupancy="0.83" waitingTime="112.00" speed="7.48" departed="0" arrived="0" entered="11" left="10" laneChangedFrom="0" laneChangedTo="0"/>
    </interval>
    <interval begin="0.00" end="300.00" id="dump_300">
        <edge id="1fi">
            <lane id="1fi_0" sampledSeconds="675.22" traveltime="25.47" density="9.06" occupancy="4.53" waitingTime="0.00" speed="9.76" departed="20" arrived="0" entered="11" left="21" laneChangedFrom="0" laneChangedTo="0"/>
        </edge>
        <edge id="1o">
            <lane id="1o_0" sampledSeconds="567.86" traveltime="47.19" density="3.87" occupancy="1.94" waitingTime="0.00" speed="10.35" departed="0" arrived="0" entered="12" left="11" laneChangedFrom="0" laneChangedTo="0"/>
        </edge>
        <edge id="1si">
            <lane id="1si_0" sampledSeconds="0.00" departed="0" arrived="0" entered="0" left="0" laneChangedFrom="0" laneChangedTo="0"/>
            <lane id="1si_1" sampledSeconds="98.15" traveltime="32.31" density="1.38" occupancy="0.69" waitingTime="40.00" speed="7.34" departed="0" arrived="0" entered="3" left="2" laneChangedFrom="0" laneChangedTo="0"/>
            <lane id="1si_2" sampledSeconds="606.18" traveltime="35.60" density="8.52" occupancy="4.26" waitingTime="197.00" speed="6.66" departed="0" arrived="0" entered="18" left="13" laneChangedFrom="0" laneChangedTo="0"/>
        </edge>
        <edge id="2fi">
            <lane id="2fi_0" sampledSeconds="682.39" traveltime="25.40" density="9.15" occupancy="4.58" waitingTime="0.00" speed="9.78" departed="20" arrived="0" entered="9" left="25" laneChangedFrom="0" laneChangedTo="0"/>
        </edge>
        <edge id="2o">
            <lane id="2o_0" sampledSeconds="598.87" traveltime="47.10" density="4.09" occupancy="2.04" waitingTime="0.00" speed="10.38" departed="0" arrived="0" entered="19" left="9" laneChangedFrom="0" laneChangedTo="0"/>
        </edge>
        <edge id="2si">
            <lane id="2si_0" sampledSeconds="261.90" traveltime="41.53" density="3.68" occupancy="1.84" waitingTime="121.00" speed="5.71" departed="0" arrived="0" entered="7" left="0" laneChangedFrom="0" laneChangedTo="0"/>
            <lane id="2si_1" sampledSeconds="564.36" traveltime="33.34" density="7.93" occupancy="3.97" waitingTime="208.00" speed="7.11" departed="0" arrived="0" entered="18" left="12" laneChangedFrom="0" laneChangedTo="0"/>
            <lane id="2si_2" sampledSeconds="0.00" departed="0" arrived="0" entered="0" left="0" laneChangedFrom="0" laneChangedTo="0"/>
        </edge>
        <edge id="3fi">
            <lane id="3fi_0" sampledSeconds="985.17" traveltime="26.12" density="13.21" occupancy="6.61" waitingTime="0.00" speed="9.51" departed="40" arrived="0" entered="0" left="36" laneChangedFrom="0" laneChangedTo="0"/>
        </edge>
        <edge id="3o">
            <lane id="3o_0" sampledSeconds="107.02" traveltime="47.13" density="0.73" occupancy="0.37" waitingTime="0.00" speed="10.37" departed="0" arrived="0" entered="6" left="0" laneChangedFrom="0" laneChangedTo="0"/>
        </edge>
        <edge id="3si">
            <lane id="3si_0" sampledSeconds="648.02" traveltime="37.59" density="9.11" occupancy="4.55" waitingTime="271.00" speed="6.31" departed="0" arrived="0" entered="18" left="16" laneChangedFrom="0" laneChangedTo="0"/>
            <lane id="3si_1" sampledSeconds="610.06" traveltime="36.13" density="8.57" occupancy="4.29" waitingTime="240.00" speed="6.56" departed="0" arrived="0" entered="17" left="16" laneChangedFrom="0" laneChangedTo="0"/>
            <lane id="3si_2" sampledSeconds="0.00" departed="0" arrived="0" entered="0" left="0" laneChangedFrom="0" laneChangedTo="0"/>
        </edge>
        <edge id="4fi">
            <lane id="4fi_0" sampledSeconds="279.61" traveltime="23.76" density="3.75" occupancy="1.88" waitingTime="0.00" speed="10.46" departed="0" arrived="0" entered="14" left="11" laneChangedFrom="0" laneChangedTo="0"/>
        </edge>
        <edge id="4o">
            <lane id="4o_0" sampledSeconds="1036.79" traveltime="46.93" density="7.07" occupancy="3.54" waitingTime="0.00" speed="10.41" departed="0" arrived="0" entered="28" left="14" laneChangedFrom="0" laneChangedTo="0"/>
        </edge>
        <edge id="4si">
            <lane id="4si_0" sampledSeconds="0.00" departed="0" arrived="0" entered="0" left="0" laneChangedFrom="0" laneChangedTo="0"/>
            <lane id="4si_1" sampledSeconds="129.04" traveltime="18.05" density="1.81" occupancy="0.91" waitingTime="0.00" speed="13.14" departed="0" arrived="0" entered="7" left="7" laneChangedFrom="0" laneChangedTo="0"/>
            <lane id="4si_2" sampledSeconds="224.99" traveltime="56.06" density="3.16" occupancy="1.58" waitingTime="112.00" speed="4.23" departed="0" arrived="0" entered="4" left="3" laneChangedFrom="0" laneChangedTo="0"/>
        </edge>
    </interval>
    <interval begin="900.00" end="1000.00" id="dump_300">
        <edge id="1fi" sampledSeconds="990.56" traveltime="24.45" density="39.86" occupancy="19.93" waitingTime="0.00" speed="10.16" departed="11" arrived="10" entered="28" left="30" laneChangedFrom="0" laneChangedTo="0"/>
        <edge id="1o" sampledSeconds="1333.07" traveltime="47.01" density="27.28" occupancy="13.64" waitingTime="0.00" speed="10.39" departed="0" arrived="0" entered="30" left="28" laneChangedFrom="0" laneChangedTo="0"/>
        <edge id="1si" sampledSeconds="2208.97" traveltime="65.62" density="93.15" occupancy="15.52" waitingTime="1074.00" speed="3.61" departed="0" arrived="0" entered="31" left="27" laneChangedFrom="0" laneChangedTo="0"/>
        <edge id="2fi" sampledSeconds="875.24" traveltime="24.53" density="35.22" occupancy="17.61" waitingTime="0.00" speed="10.13" departed="11" arrived="6" entered="24" left="28" laneChangedFrom="0" laneChangedTo="0"/>
        <edge id="2o" sampledSeconds="1283.89" traveltime="47.03" density="26.27" occupancy="13.14" waitingTime="0.00" speed="10.39" departed="0" arrived="0" entered="28" left="24" laneChangedFrom="0" laneChangedTo="0"/>
        <edge id="2si" sampledSeconds="1411.69" traveltime="50.61" density="59.53" occupancy="9.92" waitingTime="715.00" speed="4.69" departed="0" arrived="0" entered="28" left="25" laneChangedFrom="0" laneChangedTo="0"/>
        <edge id="3fi" sampledSeconds="971.01" traveltime="24.76" density="39.07" occupancy="19.54" waitingTime="0.00" speed="10.04" departed="13" arrived="14" entered="26" left="25" laneChangedFrom="0" laneChangedTo="0"/>
        <edge id="3o" sampledSeconds="1270.79" traveltime="47.25" density="26.01" occupancy="13.00" waitingTime="0.00" speed="10.34" departed="0" arrived="0" entered="25" left="26" laneChangedFrom="0" laneChangedTo="0"/>
        <edge id="3si" sampledSeconds="1133.75" traveltime="50.60" density="47.81" occupancy="7.97" waitingTime="516.00" speed="4.69" departed="0" arrived="0" entered="24" left="27" laneChangedFrom="0" laneChangedTo="0"/>
        <edge id="4fi" sampledSeconds="419.42" traveltime="23.87" density="16.88" occupancy="8.44" waitingTime="0.00" speed="10.41" departed="0" arrived="0" entered="19" left="17" laneChangedFrom="0" laneChangedTo="0"/>
        <edge id="4o" sampledSeconds="955.05" traveltime="47.06" density="19.54" occupancy="9.77" waitingTime="0.00" speed="10.38" departed="0" arrived="0" entered="20" left="20" laneChangedFrom="0" laneChangedTo="0"/>
        <edge id="4si" sampledSeconds="1086.71" traveltime="51.16" density="45.82" occupancy="7.64" waitingTime="449.00" speed="4.64" departed="0" arrived="0" entered="17" left="30" laneChangedFrom="0" laneChangedTo="0"/>
    </interval>
</meandata>
