<?xml version="1.0" encoding="UTF-8"?>

<!-- generated on 2024-09-26 10:41:14 by Eclipse SUMO sumo Version v1_14_1+14996-47cf6512255
This data file and the accompanying materials
are made available under the terms of the Eclipse Public License v2.0
which accompanies this distribution, and is available at
http://www.eclipse.org/legal/epl-v20.html
This file may also be made available under the following Secondary
Licenses when the conditions for such availability set forth in the Eclipse
Public License 2.0 are satisfied: GNU General Public License, version 2
or later which is available at
https://www.gnu.org/licenses/old-licenses/gpl-2.0-standalone.html
SPDX-License-Identifier: EPL-2.0 OR GPL-2.0-or-later
<sumoConfiguration xmlns:xsi="http://www.w3.org/2001/XMLSchema-instance" xsi:noNamespaceSchemaLocation="http://sumo.dlr.de/xsd/sumoConfiguration.xsd">

    <input>
        <net-file value="net.net.xml"/>
        <route-files value="input_routes.rou.xml"/>
        <additional-files value="input_additional.add.xml"/>
    </input>

    <output>
        <write-license value="true"/>
        <battery-output value="battery.xml"/>
        <battery-output.precision value="4"/>
        <chargingstations-output value="chargingstations.xml"/>
        <tripinfo-output value="tripinfos.xml"/>
    </output>

    <processing>
        <default.speeddev value="0"/>
    </processing>

    <report>
        <xml-validation value="never"/>
        <duration-log.disable value="true"/>
        <no-step-log value="true"/>
    </report>

    <battery>
        <device.stationfinder.probability value="1"/>
        <device.stationfinder.emptyThreshold value="0"/>
    </battery>

</sumoConfiguration>
-->

<tripinfos xmlns:xsi="http://www.w3.org/2001/XMLSchema-instance" xsi:noNamespaceSchemaLocation="http://sumo.dlr.de/xsd/tripinfo_file.xsd">
    <tripinfo id="veh0" depart="0.00" departLane="D2_0" departPos="12.10" departSpeed="0.00" departDelay="0.00" arrival="407.00" arrivalLane="D7_0" arrivalPos="500.00" arrivalSpeed="13.89" duration="407.00" routeLength="3988.70" waitingTime="0.00" waitingCount="0" stopTime="105.00" timeLoss="14.68" rerouteNo="1" devices="tripinfo_veh0 stationfinder_veh0 battery_veh0" vType="ElectricVehicle1" speedFactor="1.00" vaporized="">
        <battery depleted="0"/>
    </tripinfo>
</tripinfos>
