<?xml version="1.0" encoding="UTF-8"?>

<!-- generated on 2026-01-22T16:24:59.951106+01:00 by Eclipse SUMO sumo v1_25_0+1143-5cfd67bbee0
This data file and the accompanying materials
are made available under the terms of the Eclipse Public License v2.0
which accompanies this distribution, and is available at
http://www.eclipse.org/legal/epl-v20.html
This file may also be made available under the following Secondary
Licenses when the conditions for such availability set forth in the Eclipse
Public License 2.0 are satisfied: GNU General Public License, version 2
or later which is available at
https://www.gnu.org/licenses/old-licenses/gpl-2.0-standalone.html
SPDX-License-Identifier: EPL-2.0 OR GPL-2.0-or-later
<sumoConfiguration xmlns:xsi="http://www.w3.org/2001/XMLSchema-instance" xsi:noNamespaceSchemaLocation="http://sumo.dlr.de/xsd/sumoConfiguration.xsd">

    <input>
        <net-file value="net.net.xml"/>
        <route-files value="input_routes.rou.xml"/>
        <additional-files value="input_additional.add.xml"/>
    </input>

    <output>
        <write-license value="true"/>
        <tripinfo-output value="tripinfos.xml"/>
    </output>

    <time>
        <end value="1000"/>
    </time>

    <processing>
        <railsignal-moving-block value="true"/>
        <default.speeddev value="0"/>
    </processing>

    <report>
        <xml-validation value="never"/>
        <duration-log.disable value="true"/>
        <no-step-log value="true"/>
    </report>

</sumoConfiguration>
-->

<tripinfos xmlns:xsi="http://www.w3.org/2001/XMLSchema-instance" xsi:noNamespaceSchemaLocation="http://sumo.dlr.de/xsd/tripinfo_file.xsd">
    <tripinfo id="v0" depart="0.00" departLane="gneE0_0" departPos="50.00" departSpeed="0.00" departDelay="0.00" arrival="150.00" arrivalLane="gneE2_0" arrivalPos="278.05" arrivalSpeed="13.89" duration="150.00" routeLength="834.99" waitingTime="0.00" waitingCount="0" stopTime="30.00" timeLoss="0.00" rerouteNo="0" devices="tripinfo_v0" vType="railShort" speedFactor="1.00" vaporized=""/>
    <tripinfo id="v1" depart="5.00" departLane="gneE0_0" departPos="0.00" departSpeed="0.00" departDelay="0.00" arrival="159.00" arrivalLane="gneE2_0" arrivalPos="278.05" arrivalSpeed="13.89" duration="154.00" routeLength="884.99" waitingTime="0.00" waitingCount="0" stopTime="30.00" timeLoss="0.31" rerouteNo="0" devices="tripinfo_v1" vType="railShort" speedFactor="1.00" vaporized=""/>
</tripinfos>
