<?xml version="1.0" encoding="UTF-8"?>

<!-- generated on 05/02/13 15:11:37 by SUMO sumo Version 0.17.0
<?xml version="1.0" encoding="UTF-8"?>

<configuration xmlns:xsi="http://www.w3.org/2001/XMLSchema-instance" xsi:noNamespaceSchemaLocation="http://sumo-sim.org/xsd/sumoConfiguration.xsd">

    <input>
        <net-file value="net.net.xml"/>
        <route-files value="input_routes.rou.xml"/>
        <additional-files value="input_additional.add.xml,input_additional2.add.xml"/>
    </input>

    <time>
        <begin value="0"/>
        <end value="1000"/>
    </time>

    <report>
        <no-duration-log value="true"/>
        <no-step-log value="true"/>
    </report>

    <mesoscopic>
        <mesosim value="true"/>
    </mesoscopic>

</configuration>
-->

<meandata xmlns:xsi="http://www.w3.org/2001/XMLSchema-instance" xsi:noNamespaceSchemaLocation="http://sumo-sim.org/xsd/meandata_file.xsd">
    <interval begin="0.00" end="25.00" id="dump_25">
        <edge id="beg" sampledSeconds="35.93" traveltime="17.93" density="2.88" occupancy="0.86" waitingTime="0.00" speed="27.81" departed="3" arrived="0" entered="0" left="1" laneChangedFrom="0" laneChangedTo="0"/>
        <edge id="middle" sampledSeconds="6.07" traveltime="71.25" density="0.25" occupancy="0.07" waitingTime="0.00" speed="13.90" departed="0" arrived="0" entered="1" left="0" laneChangedFrom="0" laneChangedTo="0"/>
    </interval>
    <interval begin="25.00" end="50.00" id="dump_25">
        <edge id="beg" sampledSeconds="44.79" traveltime="17.93" density="3.59" occupancy="1.08" waitingTime="0.00" speed="27.81" departed="2" arrived="0" entered="0" left="3" laneChangedFrom="0" laneChangedTo="0"/>
        <edge id="middle" sampledSeconds="58.21" traveltime="71.25" density="2.35" occupancy="0.71" waitingTime="0.00" speed="13.90" departed="0" arrived="0" entered="3" left="0" laneChangedFrom="0" laneChangedTo="0"/>
    </interval>
    <interval begin="50.00" end="75.00" id="dump_25">
        <edge id="beg" sampledSeconds="44.86" traveltime="17.93" density="3.60" occupancy="1.08" waitingTime="0.00" speed="27.81" departed="3" arrived="0" entered="0" left="2" laneChangedFrom="0" laneChangedTo="0"/>
        <edge id="middle" sampledSeconds="122.14" traveltime="313.09" density="4.93" occupancy="1.48" waitingTime="0.00" speed="3.16" departed="0" arrived="0" entered="2" left="0" laneChangedFrom="0" laneChangedTo="0"/>
    </interval>
    <interval begin="75.00" end="100.00" id="dump_25">
        <edge id="beg" sampledSeconds="44.79" traveltime="17.93" density="3.59" occupancy="1.08" waitingTime="0.00" speed="27.81" departed="2" arrived="0" entered="0" left="3" laneChangedFrom="0" laneChangedTo="0"/>
        <edge id="middle" sampledSeconds="183.21" traveltime="353.74" density="7.40" occupancy="2.22" waitingTime="0.00" speed="2.80" departed="0" arrived="0" entered="3" left="0" laneChangedFrom="0" laneChangedTo="0"/>
    </interval>
    <interval begin="100.00" end="125.00" id="dump_25">
        <edge id="beg" sampledSeconds="44.86" traveltime="17.93" density="3.60" occupancy="1.08" waitingTime="0.00" speed="27.81" departed="3" arrived="0" entered="0" left="2" laneChangedFrom="0" laneChangedTo="0"/>
        <edge id="middle" sampledSeconds="247.14" traveltime="353.74" density="9.98" occupancy="2.99" waitingTime="0.00" speed="2.80" departed="0" arrived="0" entered="2" left="0" laneChangedFrom="0" laneChangedTo="0"/>
    </interval>
    <interval begin="125.00" end="150.00" id="dump_25">
        <edge id="beg" sampledSeconds="44.79" traveltime="17.93" density="3.59" occupancy="1.08" waitingTime="0.00" speed="27.81" departed="2" arrived="0" entered="0" left="3" laneChangedFrom="0" laneChangedTo="0"/>
        <edge id="middle" sampledSeconds="308.21" traveltime="353.74" density="12.45" occupancy="3.73" waitingTime="0.00" speed="2.80" departed="0" arrived="0" entered="3" left="0" laneChangedFrom="0" laneChangedTo="0"/>
    </interval>
    <interval begin="150.00" end="175.00" id="dump_25">
        <edge id="beg" sampledSeconds="44.86" traveltime="17.93" density="3.60" occupancy="1.08" waitingTime="0.00" speed="27.81" departed="3" arrived="0" entered="0" left="2" laneChangedFrom="0" laneChangedTo="0"/>
        <edge id="end" sampledSeconds="83.26" traveltime="17.93" density="6.68" occupancy="2.00" waitingTime="0.00" speed="27.81" departed="0" arrived="0" entered="10" left="1" laneChangedFrom="0" laneChangedTo="0"/>
        <edge id="middle" sampledSeconds="288.41" traveltime="25.76" density="11.65" occupancy="3.49" waitingTime="0.00" speed="38.45" departed="0" arrived="0" entered="2" left="10" laneChangedFrom="0" laneChangedTo="0"/>
        <edge id="rend" sampledSeconds="0.47" traveltime="17.98" density="0.04" occupancy="0.01" waitingTime="0.00" speed="27.80" departed="0" arrived="0" entered="1" left="0" laneChangedFrom="0" laneChangedTo="0"/>
    </interval>
    <interval begin="175.00" end="200.00" id="dump_25">
        <edge id="beg" sampledSeconds="44.79" traveltime="17.93" density="3.59" occupancy="1.08" waitingTime="0.00" speed="27.81" departed="2" arrived="0" entered="0" left="3" laneChangedFrom="0" laneChangedTo="0"/>
        <edge id="end" sampledSeconds="195.89" traveltime="17.93" density="15.72" occupancy="4.72" waitingTime="0.00" speed="27.81" departed="0" arrived="0" entered="7" left="14" laneChangedFrom="0" laneChangedTo="0"/>
        <edge id="middle" sampledSeconds="63.18" traveltime="20.97" density="2.55" occupancy="0.77" waitingTime="0.00" speed="47.23" departed="0" arrived="0" entered="3" left="7" laneChangedFrom="0" laneChangedTo="0"/>
        <edge id="rend" sampledSeconds="160.73" traveltime="17.98" density="12.86" occupancy="3.86" waitingTime="0.00" speed="27.80" departed="0" arrived="3" entered="14" left="0" laneChangedFrom="0" laneChangedTo="0"/>
    </interval>
    <interval begin="200.00" end="225.00" id="dump_25">
        <edge id="beg" sampledSeconds="44.86" traveltime="17.93" density="3.60" occupancy="1.08" waitingTime="0.00" speed="27.81" departed="3" arrived="0" entered="0" left="2" laneChangedFrom="0" laneChangedTo="0"/>
        <edge id="end" sampledSeconds="45.86" traveltime="17.93" density="3.68" occupancy="1.10" waitingTime="0.00" speed="27.81" departed="0" arrived="0" entered="2" left="2" laneChangedFrom="0" laneChangedTo="0"/>
        <edge id="middle" sampledSeconds="51.94" traveltime="20.97" density="2.10" occupancy="0.63" waitingTime="0.00" speed="47.23" departed="0" arrived="0" entered="2" left="2" laneChangedFrom="0" laneChangedTo="0"/>
        <edge id="rend" sampledSeconds="132.92" traveltime="17.98" density="10.63" occupancy="3.19" waitingTime="0.00" speed="27.80" departed="0" arrived="12" entered="2" left="0" laneChangedFrom="0" laneChangedTo="0"/>
    </interval>
    <interval begin="225.00" end="250.00" id="dump_25">
        <edge id="beg" sampledSeconds="44.79" traveltime="17.93" density="3.59" occupancy="1.08" waitingTime="0.00" speed="27.81" departed="2" arrived="0" entered="0" left="3" laneChangedFrom="0" laneChangedTo="0"/>
        <edge id="end" sampledSeconds="43.79" traveltime="17.93" density="3.51" occupancy="1.05" waitingTime="0.00" speed="27.81" departed="0" arrived="0" entered="3" left="3" laneChangedFrom="0" laneChangedTo="0"/>
        <edge id="middle" sampledSeconds="52.91" traveltime="20.97" density="2.14" occupancy="0.64" waitingTime="0.00" speed="47.23" departed="0" arrived="0" entered="3" left="3" laneChangedFrom="0" laneChangedTo="0"/>
        <edge id="rend" sampledSeconds="43.96" traveltime="17.99" density="3.52" occupancy="1.05" waitingTime="0.00" speed="27.80" departed="0" arrived="3" entered="3" left="0" laneChangedFrom="0" laneChangedTo="0"/>
    </interval>
    <interval begin="250.00" end="275.00" id="dump_25">
        <edge id="beg" sampledSeconds="44.86" traveltime="17.93" density="3.60" occupancy="1.08" waitingTime="0.00" speed="27.81" departed="3" arrived="0" entered="0" left="2" laneChangedFrom="0" laneChangedTo="0"/>
        <edge id="end" sampledSeconds="45.86" traveltime="17.93" density="3.68" occupancy="1.10" waitingTime="0.00" speed="27.81" departed="0" arrived="0" entered="2" left="2" laneChangedFrom="0" laneChangedTo="0"/>
        <edge id="middle" sampledSeconds="51.94" traveltime="20.97" density="2.10" occupancy="0.63" waitingTime="0.00" speed="47.23" departed="0" arrived="0" entered="2" left="2" laneChangedFrom="0" laneChangedTo="0"/>
        <edge id="rend" sampledSeconds="45.97" traveltime="17.99" density="3.68" occupancy="1.10" waitingTime="0.00" speed="27.80" departed="0" arrived="2" entered="2" left="0" laneChangedFrom="0" laneChangedTo="0"/>
    </interval>
    <interval begin="275.00" end="300.00" id="dump_25">
        <edge id="beg" sampledSeconds="44.79" traveltime="17.93" density="3.59" occupancy="1.08" waitingTime="0.00" speed="27.81" departed="2" arrived="0" entered="0" left="3" laneChangedFrom="0" laneChangedTo="0"/>
        <edge id="end" sampledSeconds="43.79" traveltime="17.93" density="3.51" occupancy="1.05" waitingTime="0.00" speed="27.81" departed="0" arrived="0" entered="3" left="3" laneChangedFrom="0" laneChangedTo="0"/>
        <edge id="middle" sampledSeconds="52.91" traveltime="20.97" density="2.14" occupancy="0.64" waitingTime="0.00" speed="47.23" departed="0" arrived="0" entered="3" left="3" laneChangedFrom="0" laneChangedTo="0"/>
        <edge id="rend" sampledSeconds="43.96" traveltime="17.99" density="3.52" occupancy="1.05" waitingTime="0.00" speed="27.80" departed="0" arrived="3" entered="3" left="0" laneChangedFrom="0" laneChangedTo="0"/>
    </interval>
    <interval begin="300.00" end="325.00" id="dump_25">
        <edge id="beg" sampledSeconds="8.93" traveltime="17.93" density="0.72" occupancy="0.21" waitingTime="0.00" speed="27.81" departed="0" arrived="0" entered="0" left="1" laneChangedFrom="0" laneChangedTo="0"/>
        <edge id="end" sampledSeconds="45.86" traveltime="17.93" density="3.68" occupancy="1.10" waitingTime="0.00" speed="27.81" departed="0" arrived="0" entered="2" left="2" laneChangedFrom="0" laneChangedTo="0"/>
        <edge id="middle" sampledSeconds="45.87" traveltime="20.97" density="1.85" occupancy="0.56" waitingTime="0.00" speed="47.23" departed="0" arrived="0" entered="1" left="2" laneChangedFrom="0" laneChangedTo="0"/>
        <edge id="rend" sampledSeconds="45.97" traveltime="17.99" density="3.68" occupancy="1.10" waitingTime="0.00" speed="27.80" departed="0" arrived="2" entered="2" left="0" laneChangedFrom="0" laneChangedTo="0"/>
    </interval>
    <interval begin="325.00" end="350.00" id="dump_25">
        <edge id="end" sampledSeconds="33.59" traveltime="17.93" density="2.70" occupancy="0.81" waitingTime="0.00" speed="27.81" departed="0" arrived="0" entered="1" left="3" laneChangedFrom="0" laneChangedTo="0"/>
        <edge id="middle" sampledSeconds="4.90" traveltime="20.97" density="0.20" occupancy="0.06" waitingTime="0.00" speed="47.23" departed="0" arrived="0" entered="0" left="1" laneChangedFrom="0" laneChangedTo="0"/>
        <edge id="rend" sampledSeconds="43.96" traveltime="17.99" density="3.52" occupancy="1.05" waitingTime="0.00" speed="27.80" departed="0" arrived="3" entered="3" left="0" laneChangedFrom="0" laneChangedTo="0"/>
    </interval>
    <interval begin="350.00" end="375.00" id="dump_25">
        <edge id="rend" sampledSeconds="21.63" traveltime="17.99" density="1.73" occupancy="0.52" waitingTime="0.00" speed="27.80" departed="0" arrived="2" entered="0" left="0" laneChangedFrom="0" laneChangedTo="0"/>
    </interval>
    <interval begin="375.00" end="400.00" id="dump_25"/>
    <interval begin="400.00" end="425.00" id="dump_25"/>
    <interval begin="425.00" end="450.00" id="dump_25"/>
    <interval begin="450.00" end="475.00" id="dump_25"/>
    <interval begin="475.00" end="500.00" id="dump_25"/>
    <interval begin="500.00" end="525.00" id="dump_25"/>
    <interval begin="525.00" end="550.00" id="dump_25"/>
    <interval begin="550.00" end="575.00" id="dump_25"/>
    <interval begin="575.00" end="600.00" id="dump_25"/>
    <interval begin="600.00" end="625.00" id="dump_25"/>
    <interval begin="625.00" end="650.00" id="dump_25"/>
    <interval begin="650.00" end="675.00" id="dump_25"/>
    <interval begin="675.00" end="700.00" id="dump_25"/>
    <interval begin="700.00" end="725.00" id="dump_25"/>
    <interval begin="725.00" end="750.00" id="dump_25"/>
    <interval begin="750.00" end="775.00" id="dump_25"/>
    <interval begin="775.00" end="800.00" id="dump_25"/>
    <interval begin="800.00" end="825.00" id="dump_25"/>
    <interval begin="825.00" end="850.00" id="dump_25"/>
    <interval begin="850.00" end="875.00" id="dump_25"/>
    <interval begin="875.00" end="900.00" id="dump_25"/>
    <interval begin="900.00" end="925.00" id="dump_25"/>
    <interval begin="925.00" end="950.00" id="dump_25"/>
    <interval begin="950.00" end="975.00" id="dump_25"/>
    <interval begin="975.00" end="1000.00" id="dump_25"/>
</meandata>
