<?xml version="1.0" encoding="UTF-8"?>

<!-- generated on 05/02/13 14:15:23 by SUMO sumo Version 0.17.0
<?xml version="1.0" encoding="UTF-8"?>

<configuration xmlns:xsi="http://www.w3.org/2001/XMLSchema-instance" xsi:noNamespaceSchemaLocation="http://sumo-sim.org/xsd/sumoConfiguration.xsd">

    <input>
        <net-file value="net.net.xml"/>
        <route-files value="input_routes.rou.xml"/>
        <additional-files value="input_additional.add.xml,input_additional2.add.xml"/>
    </input>

    <time>
        <begin value="0"/>
        <end value="1000"/>
    </time>

    <report>
        <no-duration-log value="true"/>
        <no-step-log value="true"/>
    </report>

</configuration>
-->

<meandata xmlns:xsi="http://www.w3.org/2001/XMLSchema-instance" xsi:noNamespaceSchemaLocation="http://sumo-sim.org/xsd/meandata_file.xsd">
    <interval begin="0.00" end="25.00" id="dump_25">
        <edge id="beg" sampledSeconds="42.00" traveltime="29.32" density="3.37" occupancy="1.01" waitingTime="0.00" speed="17.00" departed="3" arrived="0" entered="0" left="0" laneChangedFrom="0" laneChangedTo="0"/>
    </interval>
    <interval begin="25.00" end="50.00" id="dump_25">
        <edge id="beg" sampledSeconds="61.50" traveltime="24.62" density="4.93" occupancy="1.48" waitingTime="0.00" speed="20.25" departed="2" arrived="0" entered="0" left="3" laneChangedFrom="0" laneChangedTo="0"/>
        <edge id="middle" sampledSeconds="40.90" traveltime="75.02" density="1.65" occupancy="0.50" waitingTime="0.00" speed="13.20" departed="0" arrived="0" entered="3" left="0" laneChangedFrom="0" laneChangedTo="0"/>
    </interval>
    <interval begin="50.00" end="75.00" id="dump_25">
        <edge id="beg" sampledSeconds="67.56" traveltime="27.45" density="5.42" occupancy="1.63" waitingTime="0.00" speed="18.16" departed="3" arrived="0" entered="0" left="2" laneChangedFrom="0" laneChangedTo="0"/>
        <edge id="middle" sampledSeconds="97.27" traveltime="404.08" density="3.93" occupancy="1.18" waitingTime="0.00" speed="2.45" departed="0" arrived="0" entered="2" left="0" laneChangedFrom="0" laneChangedTo="0"/>
    </interval>
    <interval begin="75.00" end="100.00" id="dump_25">
        <edge id="beg" sampledSeconds="68.35" traveltime="27.18" density="5.48" occupancy="1.65" waitingTime="0.00" speed="18.34" departed="2" arrived="0" entered="0" left="3" laneChangedFrom="0" laneChangedTo="0"/>
        <edge id="middle" sampledSeconds="156.93" traveltime="460.29" density="6.34" occupancy="1.90" waitingTime="0.00" speed="2.15" departed="0" arrived="0" entered="3" left="0" laneChangedFrom="0" laneChangedTo="0"/>
    </interval>
    <interval begin="100.00" end="125.00" id="dump_25">
        <edge id="beg" sampledSeconds="68.55" traveltime="26.88" density="5.50" occupancy="1.65" waitingTime="0.00" speed="18.55" departed="3" arrived="0" entered="0" left="2" laneChangedFrom="0" laneChangedTo="0"/>
        <edge id="middle" sampledSeconds="221.74" traveltime="465.03" density="8.95" occupancy="2.69" waitingTime="0.00" speed="2.13" departed="0" arrived="0" entered="2" left="0" laneChangedFrom="0" laneChangedTo="0"/>
    </interval>
    <interval begin="125.00" end="150.00" id="dump_25">
        <edge id="beg" sampledSeconds="67.83" traveltime="27.48" density="5.44" occupancy="1.63" waitingTime="0.00" speed="18.14" departed="2" arrived="0" entered="0" left="3" laneChangedFrom="0" laneChangedTo="0"/>
        <edge id="middle" sampledSeconds="283.20" traveltime="459.16" density="11.44" occupancy="3.43" waitingTime="0.00" speed="2.16" departed="0" arrived="0" entered="3" left="0" laneChangedFrom="0" laneChangedTo="0"/>
    </interval>
    <interval begin="150.00" end="175.00" id="dump_25">
        <edge id="beg" sampledSeconds="64.63" traveltime="24.82" density="5.19" occupancy="1.56" waitingTime="0.00" speed="20.09" departed="3" arrived="0" entered="0" left="2" laneChangedFrom="0" laneChangedTo="0"/>
        <edge id="middle" sampledSeconds="352.05" traveltime="47.13" density="14.22" occupancy="4.27" waitingTime="0.00" speed="21.02" departed="0" arrived="0" entered="2" left="0" laneChangedFrom="0" laneChangedTo="0"/>
    </interval>
    <interval begin="175.00" end="200.00" id="dump_25">
        <edge id="beg" sampledSeconds="60.81" traveltime="25.63" density="4.88" occupancy="1.46" waitingTime="0.00" speed="19.45" departed="2" arrived="0" entered="0" left="3" laneChangedFrom="0" laneChangedTo="0"/>
        <edge id="end" sampledSeconds="96.71" traveltime="24.63" density="7.76" occupancy="2.33" waitingTime="0.00" speed="20.24" departed="0" arrived="0" entered="9" left="1" laneChangedFrom="0" laneChangedTo="0"/>
        <edge id="middle" sampledSeconds="314.37" traveltime="47.95" density="12.70" occupancy="3.81" waitingTime="0.00" speed="20.66" departed="0" arrived="0" entered="3" left="9" laneChangedFrom="0" laneChangedTo="0"/>
        <edge id="rend" sampledSeconds="1.84" traveltime="18.73" density="0.15" occupancy="0.04" waitingTime="0.00" speed="26.69" departed="0" arrived="0" entered="1" left="0" laneChangedFrom="0" laneChangedTo="0"/>
    </interval>
    <interval begin="200.00" end="225.00" id="dump_25">
        <edge id="beg" sampledSeconds="65.47" traveltime="24.96" density="5.25" occupancy="1.58" waitingTime="0.00" speed="19.97" departed="3" arrived="0" entered="0" left="2" laneChangedFrom="0" laneChangedTo="0"/>
        <edge id="end" sampledSeconds="200.55" traveltime="21.84" density="16.09" occupancy="4.83" waitingTime="0.00" speed="22.83" departed="0" arrived="0" entered="8" left="8" laneChangedFrom="0" laneChangedTo="0"/>
        <edge id="middle" sampledSeconds="148.14" traveltime="55.40" density="5.98" occupancy="1.79" waitingTime="0.00" speed="17.88" departed="0" arrived="0" entered="2" left="8" laneChangedFrom="0" laneChangedTo="0"/>
        <edge id="rend" sampledSeconds="110.98" traveltime="18.41" density="8.88" occupancy="2.66" waitingTime="0.00" speed="27.16" departed="0" arrived="3" entered="8" left="0" laneChangedFrom="0" laneChangedTo="0"/>
    </interval>
    <interval begin="225.00" end="250.00" id="dump_25">
        <edge id="beg" sampledSeconds="61.50" traveltime="24.52" density="4.93" occupancy="1.48" waitingTime="0.00" speed="20.34" departed="2" arrived="0" entered="0" left="3" laneChangedFrom="0" laneChangedTo="0"/>
        <edge id="end" sampledSeconds="108.95" traveltime="20.14" density="8.74" occupancy="2.62" waitingTime="0.00" speed="24.76" departed="0" arrived="0" entered="3" left="9" laneChangedFrom="0" laneChangedTo="0"/>
        <edge id="middle" sampledSeconds="81.70" traveltime="31.70" density="3.30" occupancy="0.99" waitingTime="0.00" speed="31.25" departed="0" arrived="0" entered="3" left="3" laneChangedFrom="0" laneChangedTo="0"/>
        <edge id="rend" sampledSeconds="166.13" traveltime="18.40" density="13.29" occupancy="3.99" waitingTime="0.00" speed="27.17" departed="0" arrived="9" entered="9" left="0" laneChangedFrom="0" laneChangedTo="0"/>
    </interval>
    <interval begin="250.00" end="275.00" id="dump_25">
        <edge id="beg" sampledSeconds="63.59" traveltime="25.45" density="5.10" occupancy="1.53" waitingTime="0.00" speed="19.59" departed="3" arrived="0" entered="0" left="2" laneChangedFrom="0" laneChangedTo="0"/>
        <edge id="end" sampledSeconds="54.84" traveltime="21.88" density="4.40" occupancy="1.32" waitingTime="0.00" speed="22.78" departed="0" arrived="0" entered="2" left="2" laneChangedFrom="0" laneChangedTo="0"/>
        <edge id="middle" sampledSeconds="79.49" traveltime="31.25" density="3.21" occupancy="0.96" waitingTime="0.00" speed="31.70" departed="0" arrived="0" entered="2" left="2" laneChangedFrom="0" laneChangedTo="0"/>
        <edge id="rend" sampledSeconds="72.41" traveltime="18.34" density="5.79" occupancy="1.74" waitingTime="0.00" speed="27.27" departed="0" arrived="6" entered="2" left="0" laneChangedFrom="0" laneChangedTo="0"/>
    </interval>
    <interval begin="275.00" end="300.00" id="dump_25">
        <edge id="beg" sampledSeconds="62.48" traveltime="25.14" density="5.01" occupancy="1.50" waitingTime="0.00" speed="19.83" departed="2" arrived="0" entered="0" left="3" laneChangedFrom="0" laneChangedTo="0"/>
        <edge id="end" sampledSeconds="53.87" traveltime="22.11" density="4.32" occupancy="1.30" waitingTime="0.00" speed="22.55" departed="0" arrived="0" entered="3" left="2" laneChangedFrom="0" laneChangedTo="0"/>
        <edge id="middle" sampledSeconds="80.70" traveltime="32.87" density="3.26" occupancy="0.98" waitingTime="0.00" speed="30.13" departed="0" arrived="0" entered="3" left="3" laneChangedFrom="0" laneChangedTo="0"/>
        <edge id="rend" sampledSeconds="46.91" traveltime="18.42" density="3.75" occupancy="1.13" waitingTime="0.00" speed="27.14" departed="0" arrived="3" entered="2" left="0" laneChangedFrom="0" laneChangedTo="0"/>
    </interval>
    <interval begin="300.00" end="325.00" id="dump_25">
        <edge id="beg" sampledSeconds="22.49" traveltime="19.33" density="1.80" occupancy="0.54" waitingTime="0.00" speed="25.79" departed="0" arrived="0" entered="0" left="2" laneChangedFrom="0" laneChangedTo="0"/>
        <edge id="end" sampledSeconds="55.86" traveltime="21.19" density="4.48" occupancy="1.34" waitingTime="0.00" speed="23.53" departed="0" arrived="0" entered="2" left="3" laneChangedFrom="0" laneChangedTo="0"/>
        <edge id="middle" sampledSeconds="78.55" traveltime="31.49" density="3.17" occupancy="0.95" waitingTime="0.00" speed="31.45" departed="0" arrived="0" entered="2" left="2" laneChangedFrom="0" laneChangedTo="0"/>
        <edge id="rend" sampledSeconds="46.80" traveltime="18.48" density="3.74" occupancy="1.12" waitingTime="0.00" speed="27.06" departed="0" arrived="2" entered="3" left="0" laneChangedFrom="0" laneChangedTo="0"/>
    </interval>
    <interval begin="325.00" end="350.00" id="dump_25">
        <edge id="end" sampledSeconds="51.92" traveltime="21.67" density="4.17" occupancy="1.25" waitingTime="0.00" speed="23.01" departed="0" arrived="0" entered="3" left="2" laneChangedFrom="0" laneChangedTo="0"/>
        <edge id="middle" sampledSeconds="41.85" traveltime="38.06" density="1.69" occupancy="0.51" waitingTime="0.00" speed="26.03" departed="0" arrived="0" entered="0" left="3" laneChangedFrom="0" laneChangedTo="0"/>
        <edge id="rend" sampledSeconds="45.66" traveltime="18.39" density="3.65" occupancy="1.10" waitingTime="0.00" speed="27.18" departed="0" arrived="3" entered="2" left="0" laneChangedFrom="0" laneChangedTo="0"/>
    </interval>
    <interval begin="350.00" end="375.00" id="dump_25">
        <edge id="end" sampledSeconds="33.47" traveltime="19.85" density="2.69" occupancy="0.81" waitingTime="0.00" speed="25.12" departed="0" arrived="0" entered="0" left="3" laneChangedFrom="0" laneChangedTo="0"/>
        <edge id="rend" sampledSeconds="46.03" traveltime="18.40" density="3.68" occupancy="1.10" waitingTime="0.00" speed="27.17" departed="0" arrived="2" entered="3" left="0" laneChangedFrom="0" laneChangedTo="0"/>
    </interval>
    <interval begin="375.00" end="400.00" id="dump_25">
        <edge id="rend" sampledSeconds="18.63" traveltime="18.43" density="1.49" occupancy="0.45" waitingTime="0.00" speed="27.13" departed="0" arrived="2" entered="0" left="0" laneChangedFrom="0" laneChangedTo="0"/>
    </interval>
    <interval begin="400.00" end="425.00" id="dump_25"/>
    <interval begin="425.00" end="450.00" id="dump_25"/>
    <interval begin="450.00" end="475.00" id="dump_25"/>
    <interval begin="475.00" end="500.00" id="dump_25"/>
    <interval begin="500.00" end="525.00" id="dump_25"/>
    <interval begin="525.00" end="550.00" id="dump_25"/>
    <interval begin="550.00" end="575.00" id="dump_25"/>
    <interval begin="575.00" end="600.00" id="dump_25"/>
    <interval begin="600.00" end="625.00" id="dump_25"/>
    <interval begin="625.00" end="650.00" id="dump_25"/>
    <interval begin="650.00" end="675.00" id="dump_25"/>
    <interval begin="675.00" end="700.00" id="dump_25"/>
    <interval begin="700.00" end="725.00" id="dump_25"/>
    <interval begin="725.00" end="750.00" id="dump_25"/>
    <interval begin="750.00" end="775.00" id="dump_25"/>
    <interval begin="775.00" end="800.00" id="dump_25"/>
    <interval begin="800.00" end="825.00" id="dump_25"/>
    <interval begin="825.00" end="850.00" id="dump_25"/>
    <interval begin="850.00" end="875.00" id="dump_25"/>
    <interval begin="875.00" end="900.00" id="dump_25"/>
    <interval begin="900.00" end="925.00" id="dump_25"/>
    <interval begin="925.00" end="950.00" id="dump_25"/>
    <interval begin="950.00" end="975.00" id="dump_25"/>
    <interval begin="975.00" end="1000.00" id="dump_25"/>
</meandata>
