<?xml version="1.0" encoding="UTF-8"?>

<!-- generated on 2022-03-09 16:48:56 by Eclipse SUMO sumo Version v1_12_0+1250-91870d6
This data file and the accompanying materials
are made available under the terms of the Eclipse Public License v2.0
which accompanies this distribution, and is available at
http://www.eclipse.org/legal/epl-v20.html
This file may also be made available under the following Secondary
Licenses when the conditions for such availability set forth in the Eclipse
Public License 2.0 are satisfied: GNU General Public License, version 2
or later which is available at
https://www.gnu.org/licenses/old-licenses/gpl-2.0-standalone.html
SPDX-License-Identifier: EPL-2.0 OR GPL-2.0-or-later
<configuration xmlns:xsi="http://www.w3.org/2001/XMLSchema-instance" xsi:noNamespaceSchemaLocation="http://sumo.dlr.de/xsd/sumoConfiguration.xsd">

    <input>
        <net-file value="net.net.xml"/>
        <route-files value="input_trips.trips.xml"/>
        <junction-taz value="true"/>
    </input>

    <output>
        <write-license value="true"/>
        <vehroute-output value="vehroutes.xml"/>
    </output>

    <time>
        <begin value="0"/>
    </time>

    <processing>
        <default.speeddev value="0"/>
    </processing>

    <routing>
        <weights.random-factor value="2"/>
        <device.rerouting.adaptation-interval value="0"/>
        <device.rerouting.threads value="2"/>
    </routing>

    <report>
        <xml-validation value="never"/>
        <xml-validation.routes value="never"/>
        <duration-log.disable value="true"/>
        <no-step-log value="true"/>
    </report>

</configuration>
-->

<routes xmlns:xsi="http://www.w3.org/2001/XMLSchema-instance" xsi:noNamespaceSchemaLocation="http://sumo.dlr.de/xsd/routes_file.xsd">
    <vehicle id="0.1" depart="2.00" arrival="49.00">
        <route edges="A0A1 A1B1 B1B2 B2B3 B3C3 C3D3"/>
    </vehicle>

    <vehicle id="0.2" depart="4.00" arrival="53.00">
        <route edges="A0B0 B0C0 C0C1 C1D1 D1D2 D2D3"/>
    </vehicle>

    <vehicle id="0.3" depart="6.00" arrival="57.00">
        <route edges="A0B0 B0B1 B1B2 B2C2 C2C3 C3D3"/>
    </vehicle>

    <vehicle id="0.7" depart="14.00" arrival="60.00">
        <route edges="A0A1 A1A2 A2A3 A3B3 B3C3 C3D3"/>
    </vehicle>

    <vehicle id="0.6" depart="12.00" arrival="61.00">
        <route edges="A0B0 B0C0 C0C1 C1D1 D1D2 D2D3"/>
    </vehicle>

    <vehicle id="0.0" depart="0.00" arrival="62.00">
        <route edges="A0A1 A1A2 A2B2 B2C2 C2C3 C3D3"/>
    </vehicle>

    <vehicle id="0.4" depart="9.00" arrival="64.00">
        <route edges="A0B0 B0B1 B1C1 C1D1 D1D2 D2D3"/>
    </vehicle>

    <vehicle id="0.5" depart="10.00" arrival="67.00">
        <route edges="A0A1 A1B1 B1B2 B2C2 C2D2 D2D3"/>
    </vehicle>

    <vehicle id="0.8" depart="16.00" arrival="68.00">
        <route edges="A0A1 A1A2 A2B2 B2C2 C2C3 C3D3"/>
    </vehicle>

    <vehicle id="0.9" depart="19.00" arrival="69.00">
        <route edges="A0A1 A1B1 B1C1 C1C2 C2D2 D2D3"/>
    </vehicle>

</routes>
