<?xml version="1.0"?>

<!-- generated on 08/13/12 13:21:42 by SUMO sumo Version dev-SVN-rUNKNOWN
<?xml version="1.0" encoding="UTF-8"?>

<configuration xmlns:xsi="http://www.w3.org/2001/XMLSchema-instance" xsi:noNamespaceSchemaLocation="http://sumo.sf.net/xsd/sumoConfiguration.xsd">

    <input>
        <net-file value="net.net.xml"/>
        <route-files value="input_routes.rou.xml"/>
    </input>

    <output>
        <tripinfo-output value="tripinfos.xml"/>
    </output>

    <time>
        <begin value="0"/>
        <end value="1000"/>
    </time>

    <report>
        <no-duration-log value="true"/>
        <no-step-log value="true"/>
    </report>

</configuration>
-->

<tripinfos>
    <tripinfo id="horizontal.0" depart="100.00" departLane="2fi_0" departPos="3.10" departSpeed="0.00" departDelay="0.00" arrival="313.00" arrivalLane="2fi_0" arrivalPos="249.91" arrivalSpeed="11.08" duration="213.00" routeLength="2195.41" waitSteps="0" rerouteNo="0" devices="tripinfo_horizontal.0" vType="SUMO_DEFAULT_TYPE" vaporized=""/>
    <tripinfo id="horizontal.1" depart="110.00" departLane="2fi_0" departPos="3.10" departSpeed="0.00" departDelay="0.00" arrival="324.00" arrivalLane="2fi_0" arrivalPos="256.91" arrivalSpeed="10.78" duration="214.00" routeLength="2202.41" waitSteps="0" rerouteNo="0" devices="tripinfo_horizontal.1" vType="SUMO_DEFAULT_TYPE" vaporized=""/>
    <tripinfo id="vertical.0" depart="104.00" departLane="3fi_0" departPos="3.10" departSpeed="0.00" departDelay="4.00" arrival="354.00" arrivalLane="3fi_0" arrivalPos="256.54" arrivalSpeed="10.75" duration="250.00" routeLength="2202.04" waitSteps="22" rerouteNo="0" devices="tripinfo_vertical.0" vType="SUMO_DEFAULT_TYPE" vaporized=""/>
    <tripinfo id="vertical.1" depart="114.00" departLane="3fi_0" departPos="3.10" departSpeed="0.00" departDelay="4.00" arrival="356.00" arrivalLane="3fi_0" arrivalPos="257.36" arrivalSpeed="11.05" duration="242.00" routeLength="2202.86" waitSteps="13" rerouteNo="0" devices="tripinfo_vertical.1" vType="SUMO_DEFAULT_TYPE" vaporized=""/>
    <tripinfo id="vertical.2" depart="125.00" departLane="3fi_0" departPos="3.10" departSpeed="0.00" departDelay="5.00" arrival="358.00" arrivalLane="3fi_0" arrivalPos="257.43" arrivalSpeed="10.97" duration="233.00" routeLength="2202.93" waitSteps="5" rerouteNo="0" devices="tripinfo_vertical.2" vType="SUMO_DEFAULT_TYPE" vaporized=""/>
    <tripinfo id="vertical.3" depart="134.00" departLane="3fi_0" departPos="3.10" departSpeed="0.00" departDelay="4.00" arrival="360.00" arrivalLane="3fi_0" arrivalPos="256.58" arrivalSpeed="10.89" duration="226.00" routeLength="2202.08" waitSteps="0" rerouteNo="0" devices="tripinfo_vertical.3" vType="SUMO_DEFAULT_TYPE" vaporized=""/>
    <tripinfo id="vertical.4" depart="144.00" departLane="3fi_0" departPos="3.10" departSpeed="0.00" departDelay="4.00" arrival="362.00" arrivalLane="3fi_0" arrivalPos="256.63" arrivalSpeed="10.71" duration="218.00" routeLength="2202.13" waitSteps="0" rerouteNo="0" devices="tripinfo_vertical.4" vType="SUMO_DEFAULT_TYPE" vaporized=""/>
    <tripinfo id="vertical.5" depart="154.00" departLane="3fi_0" departPos="3.10" departSpeed="0.00" departDelay="4.00" arrival="364.00" arrivalLane="3fi_0" arrivalPos="257.54" arrivalSpeed="11.05" duration="210.00" routeLength="2203.04" waitSteps="1" rerouteNo="0" devices="tripinfo_vertical.5" vType="SUMO_DEFAULT_TYPE" vaporized=""/>
    <tripinfo id="horizontal.2" depart="120.00" departLane="2fi_0" departPos="3.10" departSpeed="0.00" departDelay="0.00" arrival="402.00" arrivalLane="2fi_0" arrivalPos="255.86" arrivalSpeed="10.89" duration="282.00" routeLength="2201.36" waitSteps="53" rerouteNo="0" devices="tripinfo_horizontal.2" vType="SUMO_DEFAULT_TYPE" vaporized=""/>
    <tripinfo id="horizontal.3" depart="130.00" departLane="2fi_0" departPos="3.10" departSpeed="0.00" departDelay="0.00" arrival="404.00" arrivalLane="2fi_0" arrivalPos="255.62" arrivalSpeed="10.90" duration="274.00" routeLength="2201.12" waitSteps="42" rerouteNo="0" devices="tripinfo_horizontal.3" vType="SUMO_DEFAULT_TYPE" vaporized=""/>
    <tripinfo id="horizontal.4" depart="140.00" departLane="2fi_0" departPos="3.10" departSpeed="0.00" departDelay="0.00" arrival="406.00" arrivalLane="2fi_0" arrivalPos="255.99" arrivalSpeed="10.97" duration="266.00" routeLength="2201.49" waitSteps="34" rerouteNo="0" devices="tripinfo_horizontal.4" vType="SUMO_DEFAULT_TYPE" vaporized=""/>
    <tripinfo id="horizontal.5" depart="150.00" departLane="2fi_0" departPos="3.10" departSpeed="0.00" departDelay="0.00" arrival="408.00" arrivalLane="2fi_0" arrivalPos="255.84" arrivalSpeed="10.87" duration="258.00" routeLength="2201.34" waitSteps="26" rerouteNo="0" devices="tripinfo_horizontal.5" vType="SUMO_DEFAULT_TYPE" vaporized=""/>
    <tripinfo id="horizontal.6" depart="160.00" departLane="2fi_0" departPos="3.10" departSpeed="0.00" departDelay="0.00" arrival="410.00" arrivalLane="2fi_0" arrivalPos="255.90" arrivalSpeed="10.86" duration="250.00" routeLength="2201.40" waitSteps="17" rerouteNo="0" devices="tripinfo_horizontal.6" vType="SUMO_DEFAULT_TYPE" vaporized=""/>
    <tripinfo id="horizontal.7" depart="170.00" departLane="2fi_0" departPos="3.10" departSpeed="0.00" departDelay="0.00" arrival="412.00" arrivalLane="2fi_0" arrivalPos="255.84" arrivalSpeed="10.89" duration="242.00" routeLength="2201.34" waitSteps="7" rerouteNo="0" devices="tripinfo_horizontal.7" vType="SUMO_DEFAULT_TYPE" vaporized=""/>
    <tripinfo id="horizontal.8" depart="180.00" departLane="2fi_0" departPos="3.10" departSpeed="0.00" departDelay="0.00" arrival="414.00" arrivalLane="2fi_0" arrivalPos="255.88" arrivalSpeed="10.82" duration="234.00" routeLength="2201.38" waitSteps="0" rerouteNo="0" devices="tripinfo_horizontal.8" vType="SUMO_DEFAULT_TYPE" vaporized=""/>
    <tripinfo id="horizontal.9" depart="190.00" departLane="2fi_0" departPos="3.10" departSpeed="0.00" departDelay="0.00" arrival="416.00" arrivalLane="2fi_0" arrivalPos="255.89" arrivalSpeed="10.96" duration="226.00" routeLength="2201.39" waitSteps="0" rerouteNo="0" devices="tripinfo_horizontal.9" vType="SUMO_DEFAULT_TYPE" vaporized=""/>
    <tripinfo id="horizontal.10" depart="200.00" departLane="2fi_0" departPos="3.10" departSpeed="0.00" departDelay="0.00" arrival="418.00" arrivalLane="2fi_0" arrivalPos="256.32" arrivalSpeed="11.09" duration="218.00" routeLength="2201.82" waitSteps="0" rerouteNo="0" devices="tripinfo_horizontal.10" vType="SUMO_DEFAULT_TYPE" vaporized=""/>
    <tripinfo id="vertical.6" depart="164.00" departLane="3fi_0" departPos="3.10" departSpeed="0.00" departDelay="4.00" arrival="446.00" arrivalLane="3fi_0" arrivalPos="252.71" arrivalSpeed="11.07" duration="282.00" routeLength="2198.21" waitSteps="51" rerouteNo="0" devices="tripinfo_vertical.6" vType="SUMO_DEFAULT_TYPE" vaporized=""/>
    <tripinfo id="vertical.7" depart="175.00" departLane="3fi_0" departPos="3.10" departSpeed="0.00" departDelay="5.00" arrival="448.00" arrivalLane="3fi_0" arrivalPos="252.56" arrivalSpeed="10.88" duration="273.00" routeLength="2198.06" waitSteps="43" rerouteNo="0" devices="tripinfo_vertical.7" vType="SUMO_DEFAULT_TYPE" vaporized=""/>
    <tripinfo id="vertical.8" depart="184.00" departLane="3fi_0" departPos="3.10" departSpeed="0.00" departDelay="4.00" arrival="450.00" arrivalLane="3fi_0" arrivalPos="252.71" arrivalSpeed="11.04" duration="266.00" routeLength="2198.21" waitSteps="36" rerouteNo="0" devices="tripinfo_vertical.8" vType="SUMO_DEFAULT_TYPE" vaporized=""/>
    <tripinfo id="vertical.9" depart="194.00" departLane="3fi_0" departPos="3.10" departSpeed="0.00" departDelay="4.00" arrival="452.00" arrivalLane="3fi_0" arrivalPos="252.87" arrivalSpeed="10.94" duration="258.00" routeLength="2198.37" waitSteps="27" rerouteNo="0" devices="tripinfo_vertical.9" vType="SUMO_DEFAULT_TYPE" vaporized=""/>
    <tripinfo id="vertical.10" depart="204.00" departLane="3fi_0" departPos="3.10" departSpeed="0.00" departDelay="4.00" arrival="454.00" arrivalLane="3fi_0" arrivalPos="252.27" arrivalSpeed="10.89" duration="250.00" routeLength="2197.77" waitSteps="19" rerouteNo="0" devices="tripinfo_vertical.10" vType="SUMO_DEFAULT_TYPE" vaporized=""/>
    <tripinfo id="vertical.11" depart="214.00" departLane="3fi_0" departPos="3.10" departSpeed="0.00" departDelay="4.00" arrival="456.00" arrivalLane="3fi_0" arrivalPos="251.46" arrivalSpeed="10.81" duration="242.00" routeLength="2196.96" waitSteps="9" rerouteNo="0" devices="tripinfo_vertical.11" vType="SUMO_DEFAULT_TYPE" vaporized=""/>
    <tripinfo id="vertical.12" depart="224.00" departLane="3fi_0" departPos="3.10" departSpeed="0.00" departDelay="4.00" arrival="458.00" arrivalLane="3fi_0" arrivalPos="251.49" arrivalSpeed="10.72" duration="234.00" routeLength="2196.99" waitSteps="0" rerouteNo="0" devices="tripinfo_vertical.12" vType="SUMO_DEFAULT_TYPE" vaporized=""/>
    <tripinfo id="vertical.13" depart="234.00" departLane="3fi_0" departPos="3.10" departSpeed="0.00" departDelay="4.00" arrival="460.00" arrivalLane="3fi_0" arrivalPos="250.88" arrivalSpeed="10.82" duration="226.00" routeLength="2196.38" waitSteps="0" rerouteNo="0" devices="tripinfo_vertical.13" vType="SUMO_DEFAULT_TYPE" vaporized=""/>
    <tripinfo id="vertical.14" depart="244.00" departLane="3fi_0" departPos="3.10" departSpeed="0.00" departDelay="4.00" arrival="462.00" arrivalLane="3fi_0" arrivalPos="251.42" arrivalSpeed="11.06" duration="218.00" routeLength="2196.92" waitSteps="0" rerouteNo="0" devices="tripinfo_vertical.14" vType="SUMO_DEFAULT_TYPE" vaporized=""/>
    <tripinfo id="horizontal.11" depart="210.00" departLane="2fi_0" departPos="3.10" departSpeed="0.00" departDelay="0.00" arrival="490.00" arrivalLane="2fi_0" arrivalPos="253.35" arrivalSpeed="10.72" duration="280.00" routeLength="2198.85" waitSteps="51" rerouteNo="0" devices="tripinfo_horizontal.11" vType="SUMO_DEFAULT_TYPE" vaporized=""/>
    <tripinfo id="horizontal.12" depart="220.00" departLane="2fi_0" departPos="3.10" departSpeed="0.00" departDelay="0.00" arrival="492.00" arrivalLane="2fi_0" arrivalPos="253.59" arrivalSpeed="10.97" duration="272.00" routeLength="2199.09" waitSteps="43" rerouteNo="0" devices="tripinfo_horizontal.12" vType="SUMO_DEFAULT_TYPE" vaporized=""/>
    <tripinfo id="horizontal.13" depart="230.00" departLane="2fi_0" departPos="3.10" departSpeed="0.00" departDelay="0.00" arrival="494.00" arrivalLane="2fi_0" arrivalPos="253.99" arrivalSpeed="11.03" duration="264.00" routeLength="2199.49" waitSteps="34" rerouteNo="0" devices="tripinfo_horizontal.13" vType="SUMO_DEFAULT_TYPE" vaporized=""/>
    <tripinfo id="horizontal.14" depart="250.00" departLane="2fi_0" departPos="3.10" departSpeed="0.00" departDelay="10.00" arrival="496.00" arrivalLane="2fi_0" arrivalPos="254.17" arrivalSpeed="10.86" duration="246.00" routeLength="2199.67" waitSteps="15" rerouteNo="0" devices="tripinfo_horizontal.14" vType="SUMO_DEFAULT_TYPE" vaporized=""/>
    <tripinfo id="horizontal.15" depart="258.00" departLane="2fi_0" departPos="3.10" departSpeed="0.00" departDelay="8.00" arrival="498.00" arrivalLane="2fi_0" arrivalPos="254.40" arrivalSpeed="10.78" duration="240.00" routeLength="2199.90" waitSteps="9" rerouteNo="0" devices="tripinfo_horizontal.15" vType="SUMO_DEFAULT_TYPE" vaporized=""/>
    <tripinfo id="horizontal.16" depart="262.00" departLane="2fi_0" departPos="3.10" departSpeed="0.00" departDelay="2.00" arrival="500.00" arrivalLane="2fi_0" arrivalPos="254.84" arrivalSpeed="11.09" duration="238.00" routeLength="2200.34" waitSteps="6" rerouteNo="0" devices="tripinfo_horizontal.16" vType="SUMO_DEFAULT_TYPE" vaporized=""/>
    <tripinfo id="horizontal.17" depart="270.00" departLane="2fi_0" departPos="3.10" departSpeed="0.00" departDelay="0.00" arrival="502.00" arrivalLane="2fi_0" arrivalPos="255.23" arrivalSpeed="10.96" duration="232.00" routeLength="2200.73" waitSteps="0" rerouteNo="0" devices="tripinfo_horizontal.17" vType="SUMO_DEFAULT_TYPE" vaporized=""/>
    <tripinfo id="horizontal.18" depart="280.00" departLane="2fi_0" departPos="3.10" departSpeed="0.00" departDelay="0.00" arrival="504.00" arrivalLane="2fi_0" arrivalPos="255.66" arrivalSpeed="11.05" duration="224.00" routeLength="2201.16" waitSteps="0" rerouteNo="0" devices="tripinfo_horizontal.18" vType="SUMO_DEFAULT_TYPE" vaporized=""/>
    <tripinfo id="horizontal.19" depart="290.00" departLane="2fi_0" departPos="3.10" departSpeed="0.00" departDelay="0.00" arrival="506.00" arrivalLane="2fi_0" arrivalPos="256.20" arrivalSpeed="11.02" duration="216.00" routeLength="2201.70" waitSteps="0" rerouteNo="0" devices="tripinfo_horizontal.19" vType="SUMO_DEFAULT_TYPE" vaporized=""/>
    <tripinfo id="vertical.15" depart="255.00" departLane="3fi_0" departPos="3.10" departSpeed="0.00" departDelay="5.00" arrival="535.00" arrivalLane="3fi_0" arrivalPos="255.48" arrivalSpeed="11.06" duration="280.00" routeLength="2200.98" waitSteps="50" rerouteNo="0" devices="tripinfo_vertical.15" vType="SUMO_DEFAULT_TYPE" vaporized=""/>
    <tripinfo id="vertical.16" depart="264.00" departLane="3fi_0" departPos="3.10" departSpeed="0.00" departDelay="4.00" arrival="537.00" arrivalLane="3fi_0" arrivalPos="255.03" arrivalSpeed="10.80" duration="273.00" routeLength="2200.53" waitSteps="44" rerouteNo="0" devices="tripinfo_vertical.16" vType="SUMO_DEFAULT_TYPE" vaporized=""/>
    <tripinfo id="vertical.17" depart="274.00" departLane="3fi_0" departPos="3.10" departSpeed="0.00" departDelay="4.00" arrival="539.00" arrivalLane="3fi_0" arrivalPos="255.46" arrivalSpeed="10.98" duration="265.00" routeLength="2200.96" waitSteps="36" rerouteNo="0" devices="tripinfo_vertical.17" vType="SUMO_DEFAULT_TYPE" vaporized=""/>
    <tripinfo id="vertical.18" depart="284.00" departLane="3fi_0" departPos="3.10" departSpeed="0.00" departDelay="4.00" arrival="541.00" arrivalLane="3fi_0" arrivalPos="254.64" arrivalSpeed="11.05" duration="257.00" routeLength="2200.14" waitSteps="25" rerouteNo="0" devices="tripinfo_vertical.18" vType="SUMO_DEFAULT_TYPE" vaporized=""/>
    <tripinfo id="vertical.19" depart="294.00" departLane="3fi_0" departPos="3.10" departSpeed="0.00" departDelay="4.00" arrival="543.00" arrivalLane="3fi_0" arrivalPos="254.08" arrivalSpeed="11.07" duration="249.00" routeLength="2199.58" waitSteps="18" rerouteNo="0" devices="tripinfo_vertical.19" vType="SUMO_DEFAULT_TYPE" vaporized=""/>
    <tripinfo id="vertical.20" depart="304.00" departLane="3fi_0" departPos="3.10" departSpeed="0.00" departDelay="4.00" arrival="545.00" arrivalLane="3fi_0" arrivalPos="254.62" arrivalSpeed="10.94" duration="241.00" routeLength="2200.12" waitSteps="8" rerouteNo="0" devices="tripinfo_vertical.20" vType="SUMO_DEFAULT_TYPE" vaporized=""/>
    <tripinfo id="vertical.21" depart="314.00" departLane="3fi_0" departPos="3.10" departSpeed="0.00" departDelay="4.00" arrival="547.00" arrivalLane="3fi_0" arrivalPos="254.19" arrivalSpeed="10.87" duration="233.00" routeLength="2199.69" waitSteps="0" rerouteNo="0" devices="tripinfo_vertical.21" vType="SUMO_DEFAULT_TYPE" vaporized=""/>
    <tripinfo id="horizontal.20" depart="300.00" departLane="2fi_0" departPos="3.10" departSpeed="0.00" departDelay="0.00" arrival="584.00" arrivalLane="2fi_0" arrivalPos="256.09" arrivalSpeed="11.08" duration="284.00" routeLength="2201.59" waitSteps="52" rerouteNo="0" devices="tripinfo_horizontal.20" vType="SUMO_DEFAULT_TYPE" vaporized=""/>
    <tripinfo id="horizontal.21" depart="310.00" departLane="2fi_0" departPos="3.10" departSpeed="0.00" departDelay="0.00" arrival="586.00" arrivalLane="2fi_0" arrivalPos="255.60" arrivalSpeed="10.88" duration="276.00" routeLength="2201.10" waitSteps="45" rerouteNo="0" devices="tripinfo_horizontal.21" vType="SUMO_DEFAULT_TYPE" vaporized=""/>
    <tripinfo id="horizontal.22" depart="320.00" departLane="2fi_0" departPos="3.10" departSpeed="0.00" departDelay="0.00" arrival="588.00" arrivalLane="2fi_0" arrivalPos="255.85" arrivalSpeed="10.80" duration="268.00" routeLength="2201.35" waitSteps="34" rerouteNo="0" devices="tripinfo_horizontal.22" vType="SUMO_DEFAULT_TYPE" vaporized=""/>
    <tripinfo id="horizontal.23" depart="347.00" departLane="2fi_0" departPos="3.10" departSpeed="0.00" departDelay="17.00" arrival="590.00" arrivalLane="2fi_0" arrivalPos="255.90" arrivalSpeed="10.72" duration="243.00" routeLength="2201.40" waitSteps="11" rerouteNo="0" devices="tripinfo_horizontal.23" vType="SUMO_DEFAULT_TYPE" vaporized=""/>
    <tripinfo id="horizontal.24" depart="351.00" departLane="2fi_0" departPos="3.10" departSpeed="0.00" departDelay="11.00" arrival="592.00" arrivalLane="2fi_0" arrivalPos="256.32" arrivalSpeed="10.95" duration="241.00" routeLength="2201.82" waitSteps="7" rerouteNo="0" devices="tripinfo_horizontal.24" vType="SUMO_DEFAULT_TYPE" vaporized=""/>
    <tripinfo id="horizontal.25" depart="363.00" departLane="2fi_0" departPos="3.10" departSpeed="0.00" departDelay="13.00" arrival="594.00" arrivalLane="2fi_0" arrivalPos="256.20" arrivalSpeed="10.95" duration="231.00" routeLength="2201.70" waitSteps="0" rerouteNo="0" devices="tripinfo_horizontal.25" vType="SUMO_DEFAULT_TYPE" vaporized=""/>
    <tripinfo id="horizontal.26" depart="367.00" departLane="2fi_0" departPos="3.10" departSpeed="0.00" departDelay="7.00" arrival="596.00" arrivalLane="2fi_0" arrivalPos="256.37" arrivalSpeed="11.10" duration="229.00" routeLength="2201.87" waitSteps="0" rerouteNo="0" devices="tripinfo_horizontal.26" vType="SUMO_DEFAULT_TYPE" vaporized=""/>
    <tripinfo id="vertical.22" depart="340.00" departLane="3fi_0" departPos="3.10" departSpeed="0.00" departDelay="20.00" arrival="624.00" arrivalLane="3fi_0" arrivalPos="251.41" arrivalSpeed="10.88" duration="284.00" routeLength="2196.91" waitSteps="57" rerouteNo="0" devices="tripinfo_vertical.22" vType="SUMO_DEFAULT_TYPE" vaporized=""/>
    <tripinfo id="vertical.23" depart="348.00" departLane="3fi_0" departPos="3.10" departSpeed="0.00" departDelay="18.00" arrival="626.00" arrivalLane="3fi_0" arrivalPos="251.80" arrivalSpeed="11.08" duration="278.00" routeLength="2197.30" waitSteps="49" rerouteNo="0" devices="tripinfo_vertical.23" vType="SUMO_DEFAULT_TYPE" vaporized=""/>
    <tripinfo id="vertical.24" depart="356.00" departLane="3fi_0" departPos="3.10" departSpeed="0.00" departDelay="16.00" arrival="628.00" arrivalLane="3fi_0" arrivalPos="251.88" arrivalSpeed="10.82" duration="272.00" routeLength="2197.38" waitSteps="43" rerouteNo="0" devices="tripinfo_vertical.24" vType="SUMO_DEFAULT_TYPE" vaporized=""/>
    <tripinfo id="vertical.25" depart="365.00" departLane="3fi_0" departPos="3.10" departSpeed="0.00" departDelay="15.00" arrival="630.00" arrivalLane="3fi_0" arrivalPos="252.26" arrivalSpeed="10.90" duration="265.00" routeLength="2197.76" waitSteps="34" rerouteNo="0" devices="tripinfo_vertical.25" vType="SUMO_DEFAULT_TYPE" vaporized=""/>
    <tripinfo id="vertical.26" depart="373.00" departLane="3fi_0" departPos="3.10" departSpeed="0.00" departDelay="13.00" arrival="632.00" arrivalLane="3fi_0" arrivalPos="252.56" arrivalSpeed="10.99" duration="259.00" routeLength="2198.06" waitSteps="28" rerouteNo="0" devices="tripinfo_vertical.26" vType="SUMO_DEFAULT_TYPE" vaporized=""/>
    <tripinfo id="vertical.27" depart="382.00" departLane="3fi_0" departPos="3.10" departSpeed="0.00" departDelay="12.00" arrival="634.00" arrivalLane="3fi_0" arrivalPos="252.29" arrivalSpeed="10.91" duration="252.00" routeLength="2197.79" waitSteps="21" rerouteNo="0" devices="tripinfo_vertical.27" vType="SUMO_DEFAULT_TYPE" vaporized=""/>
    <tripinfo id="vertical.28" depart="390.00" departLane="3fi_0" departPos="3.10" departSpeed="0.00" departDelay="10.00" arrival="636.00" arrivalLane="3fi_0" arrivalPos="252.44" arrivalSpeed="10.98" duration="246.00" routeLength="2197.94" waitSteps="16" rerouteNo="0" devices="tripinfo_vertical.28" vType="SUMO_DEFAULT_TYPE" vaporized=""/>
    <tripinfo id="vertical.29" depart="398.00" departLane="3fi_0" departPos="3.10" departSpeed="0.00" departDelay="8.00" arrival="638.00" arrivalLane="3fi_0" arrivalPos="252.02" arrivalSpeed="10.96" duration="240.00" routeLength="2197.52" waitSteps="8" rerouteNo="0" devices="tripinfo_vertical.29" vType="SUMO_DEFAULT_TYPE" vaporized=""/>
    <tripinfo id="vertical.30" depart="407.00" departLane="3fi_0" departPos="3.10" departSpeed="0.00" departDelay="7.00" arrival="640.00" arrivalLane="3fi_0" arrivalPos="252.56" arrivalSpeed="11.01" duration="233.00" routeLength="2198.06" waitSteps="0" rerouteNo="0" devices="tripinfo_vertical.30" vType="SUMO_DEFAULT_TYPE" vaporized=""/>
    <tripinfo id="always_right.0" depart="100.00" departLane="1fi_0" departPos="3.10" departSpeed="0.00" departDelay="0.00" arrival="650.00" arrivalLane="1fi_0" arrivalPos="250.30" arrivalSpeed="10.74" duration="550.00" routeLength="4144.40" waitSteps="99" rerouteNo="0" devices="tripinfo_always_right.0" vType="SUMO_DEFAULT_TYPE" vaporized=""/>
    <tripinfo id="always_right.1" depart="110.00" departLane="1fi_0" departPos="3.10" departSpeed="0.00" departDelay="0.00" arrival="652.00" arrivalLane="1fi_0" arrivalPos="250.71" arrivalSpeed="10.95" duration="542.00" routeLength="4144.81" waitSteps="81" rerouteNo="0" devices="tripinfo_always_right.1" vType="SUMO_DEFAULT_TYPE" vaporized=""/>
    <tripinfo id="always_right.2" depart="120.00" departLane="1fi_0" departPos="3.10" departSpeed="0.00" departDelay="0.00" arrival="654.00" arrivalLane="1fi_0" arrivalPos="249.83" arrivalSpeed="11.01" duration="534.00" routeLength="4143.93" waitSteps="73" rerouteNo="0" devices="tripinfo_always_right.2" vType="SUMO_DEFAULT_TYPE" vaporized=""/>
    <tripinfo id="horizontal.27" depart="394.00" departLane="2fi_0" departPos="3.10" departSpeed="0.00" departDelay="24.00" arrival="667.00" arrivalLane="2fi_0" arrivalPos="252.86" arrivalSpeed="10.86" duration="273.00" routeLength="2198.36" waitSteps="47" rerouteNo="0" devices="tripinfo_horizontal.27" vType="SUMO_DEFAULT_TYPE" vaporized=""/>
    <tripinfo id="always_left.0" depart="100.00" departLane="3fi_0" departPos="3.10" departSpeed="0.00" departDelay="0.00" arrival="668.00" arrivalLane="3fi_0" arrivalPos="252.03" arrivalSpeed="10.82" duration="568.00" routeLength="4146.13" waitSteps="120" rerouteNo="0" devices="tripinfo_always_left.0" vType="SUMO_DEFAULT_TYPE" vaporized=""/>
    <tripinfo id="horizontal.28" depart="398.00" departLane="2fi_0" departPos="3.10" departSpeed="0.00" departDelay="18.00" arrival="669.00" arrivalLane="2fi_0" arrivalPos="252.91" arrivalSpeed="10.87" duration="271.00" routeLength="2198.41" waitSteps="45" rerouteNo="0" devices="tripinfo_horizontal.28" vType="SUMO_DEFAULT_TYPE" vaporized=""/>
    <tripinfo id="always_left.1" depart="110.00" departLane="3fi_0" departPos="3.10" departSpeed="0.00" departDelay="0.00" arrival="670.00" arrivalLane="3fi_0" arrivalPos="251.15" arrivalSpeed="10.92" duration="560.00" routeLength="4145.25" waitSteps="108" rerouteNo="0" devices="tripinfo_always_left.1" vType="SUMO_DEFAULT_TYPE" vaporized=""/>
    <tripinfo id="horizontal.29" depart="402.00" departLane="2fi_0" departPos="3.10" departSpeed="0.00" departDelay="12.00" arrival="671.00" arrivalLane="2fi_0" arrivalPos="251.95" arrivalSpeed="10.71" duration="269.00" routeLength="2197.45" waitSteps="42" rerouteNo="0" devices="tripinfo_horizontal.29" vType="SUMO_DEFAULT_TYPE" vaporized=""/>
    <tripinfo id="always_left.2" depart="120.00" departLane="3fi_0" departPos="3.10" departSpeed="0.00" departDelay="0.00" arrival="672.00" arrivalLane="3fi_0" arrivalPos="250.73" arrivalSpeed="10.95" duration="552.00" routeLength="4144.83" waitSteps="96" rerouteNo="0" devices="tripinfo_always_left.2" vType="SUMO_DEFAULT_TYPE" vaporized=""/>
    <tripinfo id="horizontal.30" depart="407.00" departLane="2fi_0" departPos="3.10" departSpeed="0.00" departDelay="7.00" arrival="673.00" arrivalLane="2fi_0" arrivalPos="251.70" arrivalSpeed="10.91" duration="266.00" routeLength="2197.20" waitSteps="37" rerouteNo="0" devices="tripinfo_horizontal.30" vType="SUMO_DEFAULT_TYPE" vaporized=""/>
    <tripinfo id="always_left.3" depart="130.00" departLane="3fi_0" departPos="3.10" departSpeed="0.00" departDelay="0.00" arrival="674.00" arrivalLane="3fi_0" arrivalPos="251.01" arrivalSpeed="11.10" duration="544.00" routeLength="4145.11" waitSteps="84" rerouteNo="0" devices="tripinfo_always_left.3" vType="SUMO_DEFAULT_TYPE" vaporized=""/>
    <tripinfo id="horizontal.31" depart="411.00" departLane="2fi_0" departPos="3.10" departSpeed="0.00" departDelay="1.00" arrival="675.00" arrivalLane="2fi_0" arrivalPos="251.00" arrivalSpeed="10.81" duration="264.00" routeLength="2196.50" waitSteps="36" rerouteNo="0" devices="tripinfo_horizontal.31" vType="SUMO_DEFAULT_TYPE" vaporized=""/>
    <tripinfo id="always_left.4" depart="140.00" departLane="3fi_0" departPos="3.10" departSpeed="0.00" departDelay="0.00" arrival="676.00" arrivalLane="3fi_0" arrivalPos="250.89" arrivalSpeed="10.79" duration="536.00" routeLength="4144.99" waitSteps="82" rerouteNo="0" devices="tripinfo_always_left.4" vType="SUMO_DEFAULT_TYPE" vaporized=""/>
    <tripinfo id="horizontal.32" depart="434.00" departLane="2fi_0" departPos="3.10" departSpeed="0.00" departDelay="14.00" arrival="677.00" arrivalLane="2fi_0" arrivalPos="250.92" arrivalSpeed="10.91" duration="243.00" routeLength="2196.42" waitSteps="15" rerouteNo="0" devices="tripinfo_horizontal.32" vType="SUMO_DEFAULT_TYPE" vaporized=""/>
    <tripinfo id="always_left.5" depart="150.00" departLane="3fi_0" departPos="3.10" departSpeed="0.00" departDelay="0.00" arrival="678.00" arrivalLane="3fi_0" arrivalPos="251.29" arrivalSpeed="10.98" duration="528.00" routeLength="4145.39" waitSteps="79" rerouteNo="0" devices="tripinfo_always_left.5" vType="SUMO_DEFAULT_TYPE" vaporized=""/>
    <tripinfo id="horizontal.33" depart="441.00" departLane="2fi_0" departPos="3.10" departSpeed="0.00" departDelay="11.00" arrival="679.00" arrivalLane="2fi_0" arrivalPos="251.25" arrivalSpeed="10.94" duration="238.00" routeLength="2196.75" waitSteps="9" rerouteNo="0" devices="tripinfo_horizontal.33" vType="SUMO_DEFAULT_TYPE" vaporized=""/>
    <tripinfo id="always_left.6" depart="160.00" departLane="3fi_0" departPos="3.10" departSpeed="0.00" departDelay="0.00" arrival="680.00" arrivalLane="3fi_0" arrivalPos="251.60" arrivalSpeed="11.04" duration="520.00" routeLength="4145.70" waitSteps="73" rerouteNo="0" devices="tripinfo_always_left.6" vType="SUMO_DEFAULT_TYPE" vaporized=""/>
    <tripinfo id="horizontal.34" depart="456.00" departLane="2fi_0" departPos="3.10" departSpeed="0.00" departDelay="16.00" arrival="681.00" arrivalLane="2fi_0" arrivalPos="251.06" arrivalSpeed="10.79" duration="225.00" routeLength="2196.56" waitSteps="0" rerouteNo="0" devices="tripinfo_horizontal.34" vType="SUMO_DEFAULT_TYPE" vaporized=""/>
    <tripinfo id="vertical.31" depart="439.00" departLane="3fi_0" departPos="3.10" departSpeed="0.00" departDelay="29.00" arrival="714.00" arrivalLane="3fi_0" arrivalPos="257.13" arrivalSpeed="10.77" duration="275.00" routeLength="2202.63" waitSteps="47" rerouteNo="0" devices="tripinfo_vertical.31" vType="SUMO_DEFAULT_TYPE" vaporized=""/>
    <tripinfo id="vertical.32" depart="447.00" departLane="3fi_0" departPos="3.10" departSpeed="0.00" departDelay="27.00" arrival="716.00" arrivalLane="3fi_0" arrivalPos="250.58" arrivalSpeed="10.76" duration="269.00" routeLength="2196.08" waitSteps="40" rerouteNo="0" devices="tripinfo_vertical.32" vType="SUMO_DEFAULT_TYPE" vaporized=""/>
    <tripinfo id="vertical.33" depart="460.00" departLane="3fi_0" departPos="3.10" departSpeed="0.00" departDelay="30.00" arrival="718.00" arrivalLane="3fi_0" arrivalPos="250.28" arrivalSpeed="10.91" duration="258.00" routeLength="2195.78" waitSteps="29" rerouteNo="0" devices="tripinfo_vertical.33" vType="SUMO_DEFAULT_TYPE" vaporized=""/>
    <tripinfo id="vertical.34" depart="468.00" departLane="3fi_0" departPos="3.10" departSpeed="0.00" departDelay="28.00" arrival="720.00" arrivalLane="3fi_0" arrivalPos="250.48" arrivalSpeed="10.98" duration="252.00" routeLength="2195.98" waitSteps="22" rerouteNo="0" devices="tripinfo_vertical.34" vType="SUMO_DEFAULT_TYPE" vaporized=""/>
    <tripinfo id="vertical.35" depart="477.00" departLane="3fi_0" departPos="3.10" departSpeed="0.00" departDelay="27.00" arrival="722.00" arrivalLane="3fi_0" arrivalPos="249.98" arrivalSpeed="10.83" duration="245.00" routeLength="2195.48" waitSteps="14" rerouteNo="0" devices="tripinfo_vertical.35" vType="SUMO_DEFAULT_TYPE" vaporized=""/>
    <tripinfo id="vertical.36" depart="492.00" departLane="3fi_0" departPos="3.10" departSpeed="0.00" departDelay="32.00" arrival="724.00" arrivalLane="3fi_0" arrivalPos="250.58" arrivalSpeed="11.08" duration="232.00" routeLength="2196.08" waitSteps="1" rerouteNo="0" devices="tripinfo_vertical.36" vType="SUMO_DEFAULT_TYPE" vaporized=""/>
    <tripinfo id="vertical.37" depart="500.00" departLane="3fi_0" departPos="3.10" departSpeed="0.00" departDelay="30.00" arrival="726.00" arrivalLane="3fi_0" arrivalPos="251.04" arrivalSpeed="11.09" duration="226.00" routeLength="2196.54" waitSteps="0" rerouteNo="0" devices="tripinfo_vertical.37" vType="SUMO_DEFAULT_TYPE" vaporized=""/>
    <tripinfo id="always_right.3" depart="130.00" departLane="1fi_0" departPos="3.10" departSpeed="0.00" departDelay="0.00" arrival="739.00" arrivalLane="1fi_0" arrivalPos="250.31" arrivalSpeed="11.08" duration="609.00" routeLength="4144.41" waitSteps="138" rerouteNo="0" devices="tripinfo_always_right.3" vType="SUMO_DEFAULT_TYPE" vaporized=""/>
    <tripinfo id="always_right.4" depart="140.00" departLane="1fi_0" departPos="3.10" departSpeed="0.00" departDelay="0.00" arrival="741.00" arrivalLane="1fi_0" arrivalPos="250.32" arrivalSpeed="10.79" duration="601.00" routeLength="4144.42" waitSteps="108" rerouteNo="0" devices="tripinfo_always_right.4" vType="SUMO_DEFAULT_TYPE" vaporized=""/>