<?xml version="1.0"?>

<!-- generated on Tue Feb 12 13:49:25 2013 by SUMO sumo Version dev-SVN-r13319
<?xml version="1.0" encoding="UTF-8"?>

<configuration xmlns:xsi="http://www.w3.org/2001/XMLSchema-instance" xsi:noNamespaceSchemaLocation="http://sumo.sf.net/xsd/sumoConfiguration.xsd">

    <input>
        <net-file value="net.net.xml"/>
        <route-files value="input_routes.rou.xml"/>
    </input>

    <output>
        <tripinfo-output value="tripinfos.xml"/>
    </output>

    <time>
        <begin value="0"/>
        <end value="1000"/>
    </time>

    <report>
        <no-duration-log value="true"/>
        <no-step-log value="true"/>
    </report>

</configuration>
-->

<tripinfos>
    <tripinfo id="horizontal.0" depart="100.00" departLane="2fi_0" departPos="3.10" departSpeed="0.00" departDelay="0.00" arrival="313.00" arrivalLane="2fi_0" arrivalPos="248.50" arrivalSpeed="10.78" duration="213.00" routeLength="2194.00" waitSteps="0" rerouteNo="0" devices="tripinfo_horizontal.0" vType="SUMO_DEFAULT_TYPE" vaporized=""/>
    <tripinfo id="horizontal.1" depart="110.00" departLane="2fi_0" departPos="3.10" departSpeed="0.00" departDelay="0.00" arrival="324.00" arrivalLane="2fi_0" arrivalPos="248.50" arrivalSpeed="10.98" duration="214.00" routeLength="2194.00" waitSteps="0" rerouteNo="0" devices="tripinfo_horizontal.1" vType="SUMO_DEFAULT_TYPE" vaporized=""/>
    <tripinfo id="vertical.0" depart="104.00" departLane="3fi_0" departPos="3.10" departSpeed="0.00" departDelay="4.00" arrival="354.00" arrivalLane="3fi_0" arrivalPos="248.50" arrivalSpeed="11.05" duration="250.00" routeLength="2194.00" waitSteps="22" rerouteNo="0" devices="tripinfo_vertical.0" vType="SUMO_DEFAULT_TYPE" vaporized=""/>
    <tripinfo id="vertical.1" depart="114.00" departLane="3fi_0" departPos="3.10" departSpeed="0.00" departDelay="4.00" arrival="356.00" arrivalLane="3fi_0" arrivalPos="248.50" arrivalSpeed="11.02" duration="242.00" routeLength="2194.00" waitSteps="13" rerouteNo="0" devices="tripinfo_vertical.1" vType="SUMO_DEFAULT_TYPE" vaporized=""/>
    <tripinfo id="vertical.2" depart="125.00" departLane="3fi_0" departPos="3.10" departSpeed="0.00" departDelay="5.00" arrival="358.00" arrivalLane="3fi_0" arrivalPos="248.50" arrivalSpeed="10.83" duration="233.00" routeLength="2194.00" waitSteps="5" rerouteNo="0" devices="tripinfo_vertical.2" vType="SUMO_DEFAULT_TYPE" vaporized=""/>
    <tripinfo id="vertical.3" depart="134.00" departLane="3fi_0" departPos="3.10" departSpeed="0.00" departDelay="4.00" arrival="360.00" arrivalLane="3fi_0" arrivalPos="248.50" arrivalSpeed="10.89" duration="226.00" routeLength="2194.00" waitSteps="0" rerouteNo="0" devices="tripinfo_vertical.3" vType="SUMO_DEFAULT_TYPE" vaporized=""/>
    <tripinfo id="vertical.4" depart="144.00" departLane="3fi_0" departPos="3.10" departSpeed="0.00" departDelay="4.00" arrival="362.00" arrivalLane="3fi_0" arrivalPos="248.50" arrivalSpeed="10.79" duration="218.00" routeLength="2194.00" waitSteps="0" rerouteNo="0" devices="tripinfo_vertical.4" vType="SUMO_DEFAULT_TYPE" vaporized=""/>
    <tripinfo id="vertical.5" depart="154.00" departLane="3fi_0" departPos="3.10" departSpeed="0.00" departDelay="4.00" arrival="364.00" arrivalLane="3fi_0" arrivalPos="248.50" arrivalSpeed="10.91" duration="210.00" routeLength="2194.00" waitSteps="1" rerouteNo="0" devices="tripinfo_vertical.5" vType="SUMO_DEFAULT_TYPE" vaporized=""/>
    <tripinfo id="horizontal.2" depart="120.00" departLane="2fi_0" departPos="3.10" departSpeed="0.00" departDelay="0.00" arrival="393.00" arrivalLane="2fi_0" arrivalPos="248.50" arrivalSpeed="10.97" duration="273.00" routeLength="2194.00" waitSteps="53" rerouteNo="0" devices="tripinfo_horizontal.2" vType="SUMO_DEFAULT_TYPE" vaporized=""/>
    <tripinfo id="horizontal.3" depart="130.00" departLane="2fi_0" departPos="3.10" departSpeed="0.00" departDelay="0.00" arrival="394.00" arrivalLane="2fi_0" arrivalPos="248.50" arrivalSpeed="11.09" duration="264.00" routeLength="2194.00" waitSteps="42" rerouteNo="0" devices="tripinfo_horizontal.3" vType="SUMO_DEFAULT_TYPE" vaporized=""/>
    <tripinfo id="horizontal.4" depart="140.00" departLane="2fi_0" departPos="3.10" departSpeed="0.00" departDelay="0.00" arrival="397.00" arrivalLane="2fi_0" arrivalPos="248.50" arrivalSpeed="10.80" duration="257.00" routeLength="2194.00" waitSteps="34" rerouteNo="0" devices="tripinfo_horizontal.4" vType="SUMO_DEFAULT_TYPE" vaporized=""/>
    <tripinfo id="horizontal.5" depart="150.00" departLane="2fi_0" departPos="3.10" departSpeed="0.00" departDelay="0.00" arrival="399.00" arrivalLane="2fi_0" arrivalPos="248.50" arrivalSpeed="11.09" duration="249.00" routeLength="2194.00" waitSteps="26" rerouteNo="0" devices="tripinfo_horizontal.5" vType="SUMO_DEFAULT_TYPE" vaporized=""/>
    <tripinfo id="horizontal.6" depart="160.00" departLane="2fi_0" departPos="3.10" departSpeed="0.00" departDelay="0.00" arrival="400.00" arrivalLane="2fi_0" arrivalPos="248.50" arrivalSpeed="11.10" duration="240.00" routeLength="2194.00" waitSteps="17" rerouteNo="0" devices="tripinfo_horizontal.6" vType="SUMO_DEFAULT_TYPE" vaporized=""/>
    <tripinfo id="horizontal.7" depart="170.00" departLane="2fi_0" departPos="3.10" departSpeed="0.00" departDelay="0.00" arrival="403.00" arrivalLane="2fi_0" arrivalPos="248.50" arrivalSpeed="10.85" duration="233.00" routeLength="2194.00" waitSteps="8" rerouteNo="0" devices="tripinfo_horizontal.7" vType="SUMO_DEFAULT_TYPE" vaporized=""/>
    <tripinfo id="horizontal.8" depart="180.00" departLane="2fi_0" departPos="3.10" departSpeed="0.00" departDelay="0.00" arrival="405.00" arrivalLane="2fi_0" arrivalPos="248.50" arrivalSpeed="10.99" duration="225.00" routeLength="2194.00" waitSteps="0" rerouteNo="0" devices="tripinfo_horizontal.8" vType="SUMO_DEFAULT_TYPE" vaporized=""/>
    <tripinfo id="horizontal.9" depart="190.00" departLane="2fi_0" departPos="3.10" departSpeed="0.00" departDelay="0.00" arrival="406.00" arrivalLane="2fi_0" arrivalPos="248.50" arrivalSpeed="10.84" duration="216.00" routeLength="2194.00" waitSteps="0" rerouteNo="0" devices="tripinfo_horizontal.9" vType="SUMO_DEFAULT_TYPE" vaporized=""/>
    <tripinfo id="horizontal.10" depart="200.00" departLane="2fi_0" departPos="3.10" departSpeed="0.00" departDelay="0.00" arrival="408.00" arrivalLane="2fi_0" arrivalPos="248.50" arrivalSpeed="10.88" duration="208.00" routeLength="2194.00" waitSteps="0" rerouteNo="0" devices="tripinfo_horizontal.10" vType="SUMO_DEFAULT_TYPE" vaporized=""/>
    <tripinfo id="vertical.6" depart="164.00" departLane="3fi_0" departPos="3.10" departSpeed="0.00" departDelay="4.00" arrival="445.00" arrivalLane="3fi_0" arrivalPos="248.50" arrivalSpeed="11.01" duration="281.00" routeLength="2194.00" waitSteps="50" rerouteNo="0" devices="tripinfo_vertical.6" vType="SUMO_DEFAULT_TYPE" vaporized=""/>
    <tripinfo id="vertical.7" depart="175.00" departLane="3fi_0" departPos="3.10" departSpeed="0.00" departDelay="5.00" arrival="446.00" arrivalLane="3fi_0" arrivalPos="248.50" arrivalSpeed="10.86" duration="271.00" routeLength="2194.00" waitSteps="42" rerouteNo="0" devices="tripinfo_vertical.7" vType="SUMO_DEFAULT_TYPE" vaporized=""/>
    <tripinfo id="vertical.8" depart="184.00" departLane="3fi_0" departPos="3.10" departSpeed="0.00" departDelay="4.00" arrival="448.00" arrivalLane="3fi_0" arrivalPos="248.50" arrivalSpeed="10.77" duration="264.00" routeLength="2194.00" waitSteps="35" rerouteNo="0" devices="tripinfo_vertical.8" vType="SUMO_DEFAULT_TYPE" vaporized=""/>
    <tripinfo id="vertical.9" depart="194.00" departLane="3fi_0" departPos="3.10" departSpeed="0.00" departDelay="4.00" arrival="450.00" arrivalLane="3fi_0" arrivalPos="248.50" arrivalSpeed="11.03" duration="256.00" routeLength="2194.00" waitSteps="26" rerouteNo="0" devices="tripinfo_vertical.9" vType="SUMO_DEFAULT_TYPE" vaporized=""/>
    <tripinfo id="vertical.10" depart="204.00" departLane="3fi_0" departPos="3.10" departSpeed="0.00" departDelay="4.00" arrival="452.00" arrivalLane="3fi_0" arrivalPos="248.50" arrivalSpeed="10.98" duration="248.00" routeLength="2194.00" waitSteps="18" rerouteNo="0" devices="tripinfo_vertical.10" vType="SUMO_DEFAULT_TYPE" vaporized=""/>
    <tripinfo id="vertical.11" depart="214.00" departLane="3fi_0" departPos="3.10" departSpeed="0.00" departDelay="4.00" arrival="454.00" arrivalLane="3fi_0" arrivalPos="248.50" arrivalSpeed="10.97" duration="240.00" routeLength="2194.00" waitSteps="8" rerouteNo="0" devices="tripinfo_vertical.11" vType="SUMO_DEFAULT_TYPE" vaporized=""/>
    <tripinfo id="vertical.12" depart="224.00" departLane="3fi_0" departPos="3.10" departSpeed="0.00" departDelay="4.00" arrival="456.00" arrivalLane="3fi_0" arrivalPos="248.50" arrivalSpeed="10.97" duration="232.00" routeLength="2194.00" waitSteps="0" rerouteNo="0" devices="tripinfo_vertical.12" vType="SUMO_DEFAULT_TYPE" vaporized=""/>
    <tripinfo id="vertical.13" depart="234.00" departLane="3fi_0" departPos="3.10" departSpeed="0.00" departDelay="4.00" arrival="458.00" arrivalLane="3fi_0" arrivalPos="248.50" arrivalSpeed="11.02" duration="224.00" routeLength="2194.00" waitSteps="0" rerouteNo="0" devices="tripinfo_vertical.13" vType="SUMO_DEFAULT_TYPE" vaporized=""/>
    <tripinfo id="vertical.14" depart="244.00" departLane="3fi_0" departPos="3.10" departSpeed="0.00" departDelay="4.00" arrival="460.00" arrivalLane="3fi_0" arrivalPos="248.50" arrivalSpeed="11.01" duration="216.00" routeLength="2194.00" waitSteps="0" rerouteNo="0" devices="tripinfo_vertical.14" vType="SUMO_DEFAULT_TYPE" vaporized=""/>
    <tripinfo id="horizontal.11" depart="210.00" departLane="2fi_0" departPos="3.10" departSpeed="0.00" departDelay="0.00" arrival="483.00" arrivalLane="2fi_0" arrivalPos="248.50" arrivalSpeed="10.94" duration="273.00" routeLength="2194.00" waitSteps="51" rerouteNo="0" devices="tripinfo_horizontal.11" vType="SUMO_DEFAULT_TYPE" vaporized=""/>
    <tripinfo id="horizontal.12" depart="220.00" departLane="2fi_0" departPos="3.10" departSpeed="0.00" departDelay="0.00" arrival="485.00" arrivalLane="2fi_0" arrivalPos="248.50" arrivalSpeed="11.02" duration="265.00" routeLength="2194.00" waitSteps="43" rerouteNo="0" devices="tripinfo_horizontal.12" vType="SUMO_DEFAULT_TYPE" vaporized=""/>
    <tripinfo id="horizontal.13" depart="230.00" departLane="2fi_0" departPos="3.10" departSpeed="0.00" departDelay="0.00" arrival="486.00" arrivalLane="2fi_0" arrivalPos="248.50" arrivalSpeed="10.97" duration="256.00" routeLength="2194.00" waitSteps="34" rerouteNo="0" devices="tripinfo_horizontal.13" vType="SUMO_DEFAULT_TYPE" vaporized=""/>
    <tripinfo id="horizontal.14" depart="249.00" departLane="2fi_0" departPos="3.10" departSpeed="0.00" departDelay="9.00" arrival="488.00" arrivalLane="2fi_0" arrivalPos="248.50" arrivalSpeed="10.87" duration="239.00" routeLength="2194.00" waitSteps="16" rerouteNo="0" devices="tripinfo_horizontal.14" vType="SUMO_DEFAULT_TYPE" vaporized=""/>
    <tripinfo id="horizontal.15" depart="257.00" departLane="2fi_0" departPos="3.10" departSpeed="0.00" departDelay="7.00" arrival="490.00" arrivalLane="2fi_0" arrivalPos="248.50" arrivalSpeed="11.02" duration="233.00" routeLength="2194.00" waitSteps="10" rerouteNo="0" devices="tripinfo_horizontal.15" vType="SUMO_DEFAULT_TYPE" vaporized=""/>
    <tripinfo id="horizontal.16" depart="261.00" departLane="2fi_0" departPos="3.10" departSpeed="0.00" departDelay="1.00" arrival="492.00" arrivalLane="2fi_0" arrivalPos="248.50" arrivalSpeed="10.76" duration="231.00" routeLength="2194.00" waitSteps="6" rerouteNo="0" devices="tripinfo_horizontal.16" vType="SUMO_DEFAULT_TYPE" vaporized=""/>
    <tripinfo id="horizontal.17" depart="270.00" departLane="2fi_0" departPos="3.10" departSpeed="0.00" departDelay="0.00" arrival="494.00" arrivalLane="2fi_0" arrivalPos="248.50" arrivalSpeed="11.03" duration="224.00" routeLength="2194.00" waitSteps="0" rerouteNo="0" devices="tripinfo_horizontal.17" vType="SUMO_DEFAULT_TYPE" vaporized=""/>
    <tripinfo id="horizontal.18" depart="280.00" departLane="2fi_0" departPos="3.10" departSpeed="0.00" departDelay="0.00" arrival="496.00" arrivalLane="2fi_0" arrivalPos="248.50" arrivalSpeed="11.08" duration="216.00" routeLength="2194.00" waitSteps="0" rerouteNo="0" devices="tripinfo_horizontal.18" vType="SUMO_DEFAULT_TYPE" vaporized=""/>
    <tripinfo id="horizontal.19" depart="290.00" departLane="2fi_0" departPos="3.10" departSpeed="0.00" departDelay="0.00" arrival="498.00" arrivalLane="2fi_0" arrivalPos="248.50" arrivalSpeed="10.86" duration="208.00" routeLength="2194.00" waitSteps="0" rerouteNo="0" devices="tripinfo_horizontal.19" vType="SUMO_DEFAULT_TYPE" vaporized=""/>
    <tripinfo id="vertical.15" depart="254.00" departLane="3fi_0" departPos="3.10" departSpeed="0.00" departDelay="4.00" arrival="530.00" arrivalLane="3fi_0" arrivalPos="248.50" arrivalSpeed="10.75" duration="276.00" routeLength="2194.00" waitSteps="52" rerouteNo="0" devices="tripinfo_vertical.15" vType="SUMO_DEFAULT_TYPE" vaporized=""/>
    <tripinfo id="vertical.16" depart="264.00" departLane="3fi_0" departPos="3.10" departSpeed="0.00" departDelay="4.00" arrival="532.00" arrivalLane="3fi_0" arrivalPos="248.50" arrivalSpeed="10.78" duration="268.00" routeLength="2194.00" waitSteps="44" rerouteNo="0" devices="tripinfo_vertical.16" vType="SUMO_DEFAULT_TYPE" vaporized=""/>
    <tripinfo id="vertical.17" depart="274.00" departLane="3fi_0" departPos="3.10" departSpeed="0.00" departDelay="4.00" arrival="533.00" arrivalLane="3fi_0" arrivalPos="248.50" arrivalSpeed="10.87" duration="259.00" routeLength="2194.00" waitSteps="35" rerouteNo="0" devices="tripinfo_vertical.17" vType="SUMO_DEFAULT_TYPE" vaporized=""/>
    <tripinfo id="vertical.18" depart="284.00" departLane="3fi_0" departPos="3.10" departSpeed="0.00" departDelay="4.00" arrival="535.00" arrivalLane="3fi_0" arrivalPos="248.50" arrivalSpeed="10.79" duration="251.00" routeLength="2194.00" waitSteps="26" rerouteNo="0" devices="tripinfo_vertical.18" vType="SUMO_DEFAULT_TYPE" vaporized=""/>
    <tripinfo id="vertical.19" depart="294.00" departLane="3fi_0" departPos="3.10" departSpeed="0.00" departDelay="4.00" arrival="537.00" arrivalLane="3fi_0" arrivalPos="248.50" arrivalSpeed="10.88" duration="243.00" routeLength="2194.00" waitSteps="17" rerouteNo="0" devices="tripinfo_vertical.19" vType="SUMO_DEFAULT_TYPE" vaporized=""/>
    <tripinfo id="vertical.20" depart="304.00" departLane="3fi_0" departPos="3.10" departSpeed="0.00" departDelay="4.00" arrival="538.00" arrivalLane="3fi_0" arrivalPos="248.50" arrivalSpeed="11.10" duration="234.00" routeLength="2194.00" waitSteps="10" rerouteNo="0" devices="tripinfo_vertical.20" vType="SUMO_DEFAULT_TYPE" vaporized=""/>
    <tripinfo id="vertical.21" depart="314.00" departLane="3fi_0" departPos="3.10" departSpeed="0.00" departDelay="4.00" arrival="540.00" arrivalLane="3fi_0" arrivalPos="248.50" arrivalSpeed="10.72" duration="226.00" routeLength="2194.00" waitSteps="2" rerouteNo="0" devices="tripinfo_vertical.21" vType="SUMO_DEFAULT_TYPE" vaporized=""/>
    <tripinfo id="vertical.22" depart="340.00" departLane="3fi_0" departPos="3.10" departSpeed="0.00" departDelay="20.00" arrival="551.00" arrivalLane="3fi_0" arrivalPos="248.50" arrivalSpeed="11.05" duration="211.00" routeLength="2194.00" waitSteps="0" rerouteNo="0" devices="tripinfo_vertical.22" vType="SUMO_DEFAULT_TYPE" vaporized=""/>
    <tripinfo id="horizontal.20" depart="300.00" departLane="2fi_0" departPos="3.10" departSpeed="0.00" departDelay="0.00" arrival="579.00" arrivalLane="2fi_0" arrivalPos="248.50" arrivalSpeed="10.71" duration="279.00" routeLength="2194.00" waitSteps="50" rerouteNo="0" devices="tripinfo_horizontal.20" vType="SUMO_DEFAULT_TYPE" vaporized=""/>
    <tripinfo id="horizontal.21" depart="310.00" departLane="2fi_0" departPos="3.10" departSpeed="0.00" departDelay="0.00" arrival="581.00" arrivalLane="2fi_0" arrivalPos="248.50" arrivalSpeed="10.91" duration="271.00" routeLength="2194.00" waitSteps="43" rerouteNo="0" devices="tripinfo_horizontal.21" vType="SUMO_DEFAULT_TYPE" vaporized=""/>
    <tripinfo id="horizontal.22" depart="320.00" departLane="2fi_0" departPos="3.10" departSpeed="0.00" departDelay="0.00" arrival="582.00" arrivalLane="2fi_0" arrivalPos="248.50" arrivalSpeed="10.71" duration="262.00" routeLength="2194.00" waitSteps="35" rerouteNo="0" devices="tripinfo_horizontal.22" vType="SUMO_DEFAULT_TYPE" vaporized=""/>
    <tripinfo id="horizontal.23" depart="341.00" departLane="2fi_0" departPos="3.10" departSpeed="0.00" departDelay="11.00" arrival="585.00" arrivalLane="2fi_0" arrivalPos="248.50" arrivalSpeed="10.84" duration="244.00" routeLength="2194.00" waitSteps="13" rerouteNo="0" devices="tripinfo_horizontal.23" vType="SUMO_DEFAULT_TYPE" vaporized=""/>
    <tripinfo id="horizontal.24" depart="349.00" departLane="2fi_0" departPos="3.10" departSpeed="0.00" departDelay="9.00" arrival="586.00" arrivalLane="2fi_0" arrivalPos="248.50" arrivalSpeed="10.98" duration="237.00" routeLength="2194.00" waitSteps="8" rerouteNo="0" devices="tripinfo_horizontal.24" vType="SUMO_DEFAULT_TYPE" vaporized=""/>
    <tripinfo id="horizontal.25" depart="353.00" departLane="2fi_0" departPos="3.10" departSpeed="0.00" departDelay="3.00" arrival="588.00" arrivalLane="2fi_0" arrivalPos="248.50" arrivalSpeed="10.83" duration="235.00" routeLength="2194.00" waitSteps="5" rerouteNo="0" devices="tripinfo_horizontal.25" vType="SUMO_DEFAULT_TYPE" vaporized=""/>
    <tripinfo id="vertical.23" depart="348.00" departLane="3fi_0" departPos="3.10" departSpeed="0.00" departDelay="18.00" arrival="622.00" arrivalLane="3fi_0" arrivalPos="248.50" arrivalSpeed="11.04" duration="274.00" routeLength="2194.00" waitSteps="47" rerouteNo="0" devices="tripinfo_vertical.23" vType="SUMO_DEFAULT_TYPE" vaporized=""/>
    <tripinfo id="vertical.24" depart="356.00" departLane="3fi_0" departPos="3.10" departSpeed="0.00" departDelay="16.00" arrival="623.00" arrivalLane="3fi_0" arrivalPos="248.50" arrivalSpeed="11.04" duration="267.00" routeLength="2194.00" waitSteps="42" rerouteNo="0" devices="tripinfo_vertical.24" vType="SUMO_DEFAULT_TYPE" vaporized=""/>
    <tripinfo id="vertical.25" depart="364.00" departLane="3fi_0" departPos="3.10" departSpeed="0.00" departDelay="14.00" arrival="625.00" arrivalLane="3fi_0" arrivalPos="248.50" arrivalSpeed="11.08" duration="261.00" routeLength="2194.00" waitSteps="35" rerouteNo="0" devices="tripinfo_vertical.25" vType="SUMO_DEFAULT_TYPE" vaporized=""/>
    <tripinfo id="vertical.26" depart="372.00" departLane="3fi_0" departPos="3.10" departSpeed="0.00" departDelay="12.00" arrival="627.00" arrivalLane="3fi_0" arrivalPos="248.50" arrivalSpeed="10.98" duration="255.00" routeLength="2194.00" waitSteps="27" rerouteNo="0" devices="tripinfo_vertical.26" vType="SUMO_DEFAULT_TYPE" vaporized=""/>
    <tripinfo id="vertical.27" depart="381.00" departLane="3fi_0" departPos="3.10" departSpeed="0.00" departDelay="11.00" arrival="628.00" arrivalLane="3fi_0" arrivalPos="248.50" arrivalSpeed="10.82" duration="247.00" routeLength="2194.00" waitSteps="20" rerouteNo="0" devices="tripinfo_vertical.27" vType="SUMO_DEFAULT_TYPE" vaporized=""/>
    <tripinfo id="vertical.28" depart="390.00" departLane="3fi_0" departPos="3.10" departSpeed="0.00" departDelay="10.00" arrival="630.00" arrivalLane="3fi_0" arrivalPos="248.50" arrivalSpeed="11.08" duration="240.00" routeLength="2194.00" waitSteps="14" rerouteNo="0" devices="tripinfo_vertical.28" vType="SUMO_DEFAULT_TYPE" vaporized=""/>
    <tripinfo id="vertical.29" depart="398.00" departLane="3fi_0" departPos="3.10" departSpeed="0.00" departDelay="8.00" arrival="631.00" arrivalLane="3fi_0" arrivalPos="248.50" arrivalSpeed="10.92" duration="233.00" routeLength="2194.00" waitSteps="7" rerouteNo="0" devices="tripinfo_vertical.29" vType="SUMO_DEFAULT_TYPE" vaporized=""/>
    <tripinfo id="vertical.30" depart="406.00" departLane="3fi_0" departPos="3.10" departSpeed="0.00" departDelay="6.00" arrival="633.00" arrivalLane="3fi_0" arrivalPos="248.50" arrivalSpeed="10.93" duration="227.00" routeLength="2194.00" waitSteps="1" rerouteNo="0" devices="tripinfo_vertical.30" vType="SUMO_DEFAULT_TYPE" vaporized=""/>
    <tripinfo id="always_right.0" depart="100.00" departLane="1fi_0" departPos="3.10" departSpeed="0.00" departDelay="0.00" arrival="647.00" arrivalLane="1fi_0" arrivalPos="248.50" arrivalSpeed="10.91" duration="547.00" routeLength="4142.60" waitSteps="105" rerouteNo="0" devices="tripinfo_always_right.0" vType="SUMO_DEFAULT_TYPE" vaporized=""/>
    <tripinfo id="always_right.1" depart="110.00" departLane="1fi_0" departPos="3.10" departSpeed="0.00" departDelay="0.00" arrival="648.00" arrivalLane="1fi_0" arrivalPos="248.50" arrivalSpeed="10.90" duration="538.00" routeLength="4142.60" waitSteps="81" rerouteNo="0" devices="tripinfo_always_right.1" vType="SUMO_DEFAULT_TYPE" vaporized=""/>
    <tripinfo id="always_right.2" depart="120.00" departLane="1fi_0" departPos="3.10" departSpeed="0.00" departDelay="0.00" arrival="650.00" arrivalLane="1fi_0" arrivalPos="248.50" arrivalSpeed="10.75" duration="530.00" routeLength="4142.60" waitSteps="70" rerouteNo="0" devices="tripinfo_always_right.2" vType="SUMO_DEFAULT_TYPE" vaporized=""/>
    <tripinfo id="horizontal.26" depart="386.00" departLane="2fi_0" departPos="3.10" departSpeed="0.00" departDelay="26.00" arrival="666.00" arrivalLane="2fi_0" arrivalPos="248.50" arrivalSpeed="10.91" duration="280.00" routeLength="2194.00" waitSteps="49" rerouteNo="0" devices="tripinfo_horizontal.26" vType="SUMO_DEFAULT_TYPE" vaporized=""/>
    <tripinfo id="horizontal.27" depart="391.00" departLane="2fi_0" departPos="3.10" departSpeed="0.00" departDelay="21.00" arrival="667.00" arrivalLane="2fi_0" arrivalPos="248.50" arrivalSpeed="10.97" duration="276.00" routeLength="2194.00" waitSteps="50" rerouteNo="0" devices="tripinfo_horizontal.27" vType="SUMO_DEFAULT_TYPE" vaporized=""/>
    <tripinfo id="horizontal.28" depart="395.00" departLane="2fi_0" departPos="3.10" departSpeed="0.00" departDelay="15.00" arrival="669.00" arrivalLane="2fi_0" arrivalPos="248.50" arrivalSpeed="10.75" duration="274.00" routeLength="2194.00" waitSteps="47" rerouteNo="0" devices="tripinfo_horizontal.28" vType="SUMO_DEFAULT_TYPE" vaporized=""/>
    <tripinfo id="always_left.0" depart="100.00" departLane="3fi_0" departPos="3.10" departSpeed="0.00" departDelay="0.00" arrival="669.00" arrivalLane="3fi_0" arrivalPos="248.50" arrivalSpeed="10.77" duration="569.00" routeLength="4142.60" waitSteps="120" rerouteNo="0" devices="tripinfo_always_left.0" vType="SUMO_DEFAULT_TYPE" vaporized=""/>
    <tripinfo id="horizontal.29" depart="400.00" departLane="2fi_0" departPos="3.10" departSpeed="0.00" departDelay="10.00" arrival="670.00" arrivalLane="2fi_0" arrivalPos="248.50" arrivalSpeed="11.07" duration="270.00" routeLength="2194.00" waitSteps="44" rerouteNo="0" devices="tripinfo_horizontal.29" vType="SUMO_DEFAULT_TYPE" vaporized=""/>
    <tripinfo id="always_left.1" depart="110.00" departLane="3fi_0" departPos="3.10" departSpeed="0.00" departDelay="0.00" arrival="671.00" arrivalLane="3fi_0" arrivalPos="248.50" arrivalSpeed="10.93" duration="561.00" routeLength="4142.60" waitSteps="104" rerouteNo="0" devices="tripinfo_always_left.1" vType="SUMO_DEFAULT_TYPE" vaporized=""/>
    <tripinfo id="horizontal.30" depart="404.00" departLane="2fi_0" departPos="3.10" departSpeed="0.00" departDelay="4.00" arrival="672.00" arrivalLane="2fi_0" arrivalPos="248.50" arrivalSpeed="10.85" duration="268.00" routeLength="2194.00" waitSteps="41" rerouteNo="0" devices="tripinfo_horizontal.30" vType="SUMO_DEFAULT_TYPE" vaporized=""/>
    <tripinfo id="always_left.2" depart="120.00" departLane="3fi_0" departPos="3.10" departSpeed="0.00" departDelay="0.00" arrival="672.00" arrivalLane="3fi_0" arrivalPos="248.50" arrivalSpeed="11.06" duration="552.00" routeLength="4142.60" waitSteps="94" rerouteNo="0" devices="tripinfo_always_left.2" vType="SUMO_DEFAULT_TYPE" vaporized=""/>
    <tripinfo id="horizontal.31" depart="410.00" departLane="2fi_0" departPos="3.10" departSpeed="0.00" departDelay="0.00" arrival="674.00" arrivalLane="2fi_0" arrivalPos="248.50" arrivalSpeed="11.02" duration="264.00" routeLength="2194.00" waitSteps="36" rerouteNo="0" devices="tripinfo_horizontal.31" vType="SUMO_DEFAULT_TYPE" vaporized=""/>
    <tripinfo id="horizontal.32" depart="431.00" departLane="2fi_0" departPos="3.10" departSpeed="0.00" departDelay="11.00" arrival="675.00" arrivalLane="2fi_0" arrivalPos="248.50" arrivalSpeed="10.92" duration="244.00" routeLength="2194.00" waitSteps="16" rerouteNo="0" devices="tripinfo_horizontal.32" vType="SUMO_DEFAULT_TYPE" vaporized=""/>
    <tripinfo id="always_left.3" depart="130.00" departLane="3fi_0" departPos="3.10" departSpeed="0.00" departDelay="0.00" arrival="675.00" arrivalLane="3fi_0" arrivalPos="248.50" arrivalSpeed="10.78" duration="545.00" routeLength="4142.60" waitSteps="84" rerouteNo="0" devices="tripinfo_always_left.3" vType="SUMO_DEFAULT_TYPE" vaporized=""/>
    <tripinfo id="always_left.4" depart="140.00" departLane="3fi_0" departPos="3.10" departSpeed="0.00" departDelay="0.00" arrival="676.00" arrivalLane="3fi_0" arrivalPos="248.50" arrivalSpeed="10.91" duration="536.00" routeLength="4142.60" waitSteps="82" rerouteNo="0" devices="tripinfo_always_left.4" vType="SUMO_DEFAULT_TYPE" vaporized=""/>
    <tripinfo id="horizontal.33" depart="441.00" departLane="2fi_0" departPos="3.10" departSpeed="0.00" departDelay="11.00" arrival="677.00" arrivalLane="2fi_0" arrivalPos="248.50" arrivalSpeed="10.91" duration="236.00" routeLength="2194.00" waitSteps="9" rerouteNo="0" devices="tripinfo_horizontal.33" vType="SUMO_DEFAULT_TYPE" vaporized=""/>
    <tripinfo id="always_left.5" depart="150.00" departLane="3fi_0" departPos="3.10" departSpeed="0.00" departDelay="0.00" arrival="679.00" arrivalLane="3fi_0" arrivalPos="248.50" arrivalSpeed="10.87" duration="529.00" routeLength="4142.60" waitSteps="79" rerouteNo="0" devices="tripinfo_always_left.5" vType="SUMO_DEFAULT_TYPE" vaporized=""/>
    <tripinfo id="always_left.6" depart="160.00" departLane="3fi_0" departPos="3.10" departSpeed="0.00" departDelay="0.00" arrival="680.00" arrivalLane="3fi_0" arrivalPos="248.50" arrivalSpeed="11.07" duration="520.00" routeLength="4142.60" waitSteps="73" rerouteNo="0" devices="tripinfo_always_left.6" vType="SUMO_DEFAULT_TYPE" vaporized=""/>
    <tripinfo id="vertical.31" depart="437.00" departLane="3fi_0" departPos="3.10" departSpeed="0.00" departDelay="27.00" arrival="711.00" arrivalLane="3fi_0" arrivalPos="248.50" arrivalSpeed="10.84" duration="274.00" routeLength="2194.00" waitSteps="50" rerouteNo="0" devices="tripinfo_vertical.31" vType="SUMO_DEFAULT_TYPE" vaporized=""/>
    <tripinfo id="vertical.32" depart="445.00" departLane="3fi_0" departPos="3.10" departSpeed="0.00" departDelay="25.00" arrival="712.00" arrivalLane="3fi_0" arrivalPos="248.50" arrivalSpeed="11.04" duration="267.00" routeLength="2194.00" waitSteps="42" rerouteNo="0" devices="tripinfo_vertical.32" vType="SUMO_DEFAULT_TYPE" vaporized=""/>
    <tripinfo id="vertical.33" depart="457.00" departLane="3fi_0" departPos="3.10" departSpeed="0.00" departDelay="27.00" arrival="714.00" arrivalLane="3fi_0" arrivalPos="248.50" arrivalSpeed="10.95" duration="257.00" routeLength="2194.00" waitSteps="31" rerouteNo="0" devices="tripinfo_vertical.33" vType="SUMO_DEFAULT_TYPE" vaporized=""/>
    <tripinfo id="vertical.34" depart="466.00" departLane="3fi_0" departPos="3.10" departSpeed="0.00" departDelay="26.00" arrival="716.00" arrivalLane="3fi_0" arrivalPos="248.50" arrivalSpeed="10.76" duration="250.00" routeLength="2194.00" waitSteps="23" rerouteNo="0" devices="tripinfo_vertical.34" vType="SUMO_DEFAULT_TYPE" vaporized=""/>
    <tripinfo id="vertical.35" depart="474.00" departLane="3fi_0" departPos="3.10" departSpeed="0.00" departDelay="24.00" arrival="717.00" arrivalLane="3fi_0" arrivalPos="248.50" arrivalSpeed="11.08" duration="243.00" routeLength="2194.00" waitSteps="16" rerouteNo="0" devices="tripinfo_vertical.35" vType="SUMO_DEFAULT_TYPE" vaporized=""/>
    <tripinfo id="vertical.36" depart="489.00" departLane="3fi_0" departPos="3.10" departSpeed="0.00" departDelay="29.00" arrival="719.00" arrivalLane="3fi_0" arrivalPos="248.50" arrivalSpeed="11.09" duration="230.00" routeLength="2194.00" waitSteps="3" rerouteNo="0" devices="tripinfo_vertical.36" vType="SUMO_DEFAULT_TYPE" vaporized=""/>
    <tripinfo id="vertical.37" depart="497.00" departLane="3fi_0" departPos="3.10" departSpeed="0.00" departDelay="27.00" arrival="720.00" arrivalLane="3fi_0" arrivalPos="248.50" arrivalSpeed="10.76" duration="223.00" routeLength="2194.00" waitSteps="0" rerouteNo="0" devices="tripinfo_vertical.37" vType="SUMO_DEFAULT_TYPE" vaporized=""/>
    <tripinfo id="always_right.3" depart="130.00" departLane="1fi_0" departPos="3.10" departSpeed="0.00" departDelay="0.00" arrival="735.00" arrivalLane="1fi_0" arrivalPos="248.50" arrivalSpeed="11.02" duration="605.00" routeLength="4142.60" waitSteps="130" rerouteNo="0" devices="tripinfo_always_right.3" vType="SUMO_DEFAULT_TYPE" vaporized=""/>
    <tripinfo id="always_right.4" depart="140.00" departLane="1fi_0" departPos="3.10" departSpeed="0.00" departDelay="0.00" arrival="737.00" arrivalLane="1fi_0" arrivalPos="248.50" arrivalSpeed="10.78" duration="597.00" routeLength="4142.60" waitSteps="113" rerouteNo="0" devices="tripinfo_always_right.4" vType="SUMO_DEFAULT_TYPE" vaporized=""/>
    <tripinfo id="always_right.5" depart="150.00" departLane="1fi_0" departPos="3.10" departSpeed="0.00" departDelay="0.00" arrival="739.00" arrivalLane="1fi_0" arrivalPos="248.50" arrivalSpeed="10.91" duration="589.00" routeLength="4142.60" waitSteps="96" rerouteNo="0" devices="tripinfo_always_right.5" vType="SUMO_DEFAULT_TYPE" vaporized=""/>