<?xml version="1.0" encoding="UTF-8"?>

<!-- generated on Wed Sep  4 15:30:40 2013 by SUMO sumo Version dev-SVN-r14576
<?xml version="1.0" encoding="UTF-8"?>

<configuration xmlns:xsi="http://www.w3.org/2001/XMLSchema-instance" xsi:noNamespaceSchemaLocation="http://sumo-sim.org/xsd/sumoConfiguration.xsd">

    <input>
        <net-file value="net.net.xml"/>
        <route-files value="input_routes.rou.xml"/>
    </input>

    <output>
        <tripinfo-output value="tripinfos.xml"/>
    </output>

    <time>
        <begin value="0"/>
        <end value="1000"/>
    </time>

    <report>
        <no-duration-log value="true"/>
        <no-step-log value="true"/>
    </report>

</configuration>
-->

<tripinfos>
    <tripinfo id="horizontal.0" depart="100.00" departLane="2fi_0" departPos="3.10" departSpeed="0.00" departDelay="0.00" arrival="311.00" arrivalLane="2fi_0" arrivalPos="248.50" arrivalSpeed="11.11" duration="211.00" routeLength="2194.00" waitSteps="0" rerouteNo="0" devices="tripinfo_horizontal.0" vType="SUMO_DEFAULT_TYPE" vaporized=""/>
    <tripinfo id="horizontal.1" depart="110.00" departLane="2fi_0" departPos="3.10" departSpeed="0.00" departDelay="0.00" arrival="321.00" arrivalLane="2fi_0" arrivalPos="248.50" arrivalSpeed="11.11" duration="211.00" routeLength="2194.00" waitSteps="0" rerouteNo="0" devices="tripinfo_horizontal.1" vType="SUMO_DEFAULT_TYPE" vaporized=""/>
    <tripinfo id="vertical.0" depart="104.00" departLane="3fi_0" departPos="3.10" departSpeed="0.00" departDelay="4.00" arrival="345.00" arrivalLane="3fi_0" arrivalPos="248.50" arrivalSpeed="11.11" duration="241.00" routeLength="2194.00" waitSteps="26" rerouteNo="0" devices="tripinfo_vertical.0" vType="SUMO_DEFAULT_TYPE" vaporized=""/>
    <tripinfo id="vertical.1" depart="114.00" departLane="3fi_0" departPos="3.10" departSpeed="0.00" departDelay="4.00" arrival="346.00" arrivalLane="3fi_0" arrivalPos="248.50" arrivalSpeed="11.11" duration="232.00" routeLength="2194.00" waitSteps="17" rerouteNo="0" devices="tripinfo_vertical.1" vType="SUMO_DEFAULT_TYPE" vaporized=""/>
    <tripinfo id="vertical.2" depart="124.00" departLane="3fi_0" departPos="3.10" departSpeed="0.00" departDelay="4.00" arrival="348.00" arrivalLane="3fi_0" arrivalPos="248.50" arrivalSpeed="11.11" duration="224.00" routeLength="2194.00" waitSteps="8" rerouteNo="0" devices="tripinfo_vertical.2" vType="SUMO_DEFAULT_TYPE" vaporized=""/>
    <tripinfo id="vertical.3" depart="134.00" departLane="3fi_0" departPos="3.10" departSpeed="0.00" departDelay="4.00" arrival="349.00" arrivalLane="3fi_0" arrivalPos="248.50" arrivalSpeed="11.11" duration="215.00" routeLength="2194.00" waitSteps="0" rerouteNo="0" devices="tripinfo_vertical.3" vType="SUMO_DEFAULT_TYPE" vaporized=""/>
    <tripinfo id="vertical.4" depart="144.00" departLane="3fi_0" departPos="3.10" departSpeed="0.00" departDelay="4.00" arrival="351.00" arrivalLane="3fi_0" arrivalPos="248.50" arrivalSpeed="11.11" duration="207.00" routeLength="2194.00" waitSteps="0" rerouteNo="0" devices="tripinfo_vertical.4" vType="SUMO_DEFAULT_TYPE" vaporized=""/>
    <tripinfo id="vertical.5" depart="154.00" departLane="3fi_0" departPos="3.10" departSpeed="0.00" departDelay="4.00" arrival="359.00" arrivalLane="3fi_0" arrivalPos="248.50" arrivalSpeed="11.11" duration="205.00" routeLength="2194.00" waitSteps="0" rerouteNo="0" devices="tripinfo_vertical.5" vType="SUMO_DEFAULT_TYPE" vaporized=""/>
    <tripinfo id="vertical.6" depart="164.00" departLane="3fi_0" departPos="3.10" departSpeed="0.00" departDelay="4.00" arrival="370.00" arrivalLane="3fi_0" arrivalPos="248.50" arrivalSpeed="11.11" duration="206.00" routeLength="2194.00" waitSteps="0" rerouteNo="0" devices="tripinfo_vertical.6" vType="SUMO_DEFAULT_TYPE" vaporized=""/>
    <tripinfo id="horizontal.2" depart="120.00" departLane="2fi_0" departPos="3.10" departSpeed="0.00" departDelay="0.00" arrival="392.00" arrivalLane="2fi_0" arrivalPos="248.50" arrivalSpeed="11.11" duration="272.00" routeLength="2194.00" waitSteps="55" rerouteNo="0" devices="tripinfo_horizontal.2" vType="SUMO_DEFAULT_TYPE" vaporized=""/>
    <tripinfo id="horizontal.3" depart="130.00" departLane="2fi_0" departPos="3.10" departSpeed="0.00" departDelay="0.00" arrival="394.00" arrivalLane="2fi_0" arrivalPos="248.50" arrivalSpeed="11.11" duration="264.00" routeLength="2194.00" waitSteps="46" rerouteNo="0" devices="tripinfo_horizontal.3" vType="SUMO_DEFAULT_TYPE" vaporized=""/>
    <tripinfo id="horizontal.4" depart="140.00" departLane="2fi_0" departPos="3.10" departSpeed="0.00" departDelay="0.00" arrival="396.00" arrivalLane="2fi_0" arrivalPos="248.50" arrivalSpeed="11.11" duration="256.00" routeLength="2194.00" waitSteps="37" rerouteNo="0" devices="tripinfo_horizontal.4" vType="SUMO_DEFAULT_TYPE" vaporized=""/>
    <tripinfo id="horizontal.5" depart="150.00" departLane="2fi_0" departPos="3.10" departSpeed="0.00" departDelay="0.00" arrival="397.00" arrivalLane="2fi_0" arrivalPos="248.50" arrivalSpeed="11.11" duration="247.00" routeLength="2194.00" waitSteps="29" rerouteNo="0" devices="tripinfo_horizontal.5" vType="SUMO_DEFAULT_TYPE" vaporized=""/>
    <tripinfo id="horizontal.6" depart="160.00" departLane="2fi_0" departPos="3.10" departSpeed="0.00" departDelay="0.00" arrival="399.00" arrivalLane="2fi_0" arrivalPos="248.50" arrivalSpeed="11.11" duration="239.00" routeLength="2194.00" waitSteps="20" rerouteNo="0" devices="tripinfo_horizontal.6" vType="SUMO_DEFAULT_TYPE" vaporized=""/>
    <tripinfo id="horizontal.7" depart="170.00" departLane="2fi_0" departPos="3.10" departSpeed="0.00" departDelay="0.00" arrival="401.00" arrivalLane="2fi_0" arrivalPos="248.50" arrivalSpeed="11.11" duration="231.00" routeLength="2194.00" waitSteps="12" rerouteNo="0" devices="tripinfo_horizontal.7" vType="SUMO_DEFAULT_TYPE" vaporized=""/>
    <tripinfo id="horizontal.8" depart="180.00" departLane="2fi_0" departPos="3.10" departSpeed="0.00" departDelay="0.00" arrival="402.00" arrivalLane="2fi_0" arrivalPos="248.50" arrivalSpeed="11.11" duration="222.00" routeLength="2194.00" waitSteps="3" rerouteNo="0" devices="tripinfo_horizontal.8" vType="SUMO_DEFAULT_TYPE" vaporized=""/>
    <tripinfo id="horizontal.9" depart="190.00" departLane="2fi_0" departPos="3.10" departSpeed="0.00" departDelay="0.00" arrival="404.00" arrivalLane="2fi_0" arrivalPos="248.50" arrivalSpeed="11.11" duration="214.00" routeLength="2194.00" waitSteps="0" rerouteNo="0" devices="tripinfo_horizontal.9" vType="SUMO_DEFAULT_TYPE" vaporized=""/>
    <tripinfo id="horizontal.10" depart="200.00" departLane="2fi_0" departPos="3.10" departSpeed="0.00" departDelay="0.00" arrival="406.00" arrivalLane="2fi_0" arrivalPos="248.50" arrivalSpeed="11.11" duration="206.00" routeLength="2194.00" waitSteps="0" rerouteNo="0" devices="tripinfo_horizontal.10" vType="SUMO_DEFAULT_TYPE" vaporized=""/>
    <tripinfo id="vertical.7" depart="174.00" departLane="3fi_0" departPos="3.10" departSpeed="0.00" departDelay="4.00" arrival="435.00" arrivalLane="3fi_0" arrivalPos="248.50" arrivalSpeed="11.11" duration="261.00" routeLength="2194.00" waitSteps="46" rerouteNo="0" devices="tripinfo_vertical.7" vType="SUMO_DEFAULT_TYPE" vaporized=""/>
    <tripinfo id="vertical.8" depart="184.00" departLane="3fi_0" departPos="3.10" departSpeed="0.00" departDelay="4.00" arrival="436.00" arrivalLane="3fi_0" arrivalPos="248.50" arrivalSpeed="11.11" duration="252.00" routeLength="2194.00" waitSteps="37" rerouteNo="0" devices="tripinfo_vertical.8" vType="SUMO_DEFAULT_TYPE" vaporized=""/>
    <tripinfo id="vertical.9" depart="194.00" departLane="3fi_0" departPos="3.10" departSpeed="0.00" departDelay="4.00" arrival="438.00" arrivalLane="3fi_0" arrivalPos="248.50" arrivalSpeed="11.11" duration="244.00" routeLength="2194.00" waitSteps="28" rerouteNo="0" devices="tripinfo_vertical.9" vType="SUMO_DEFAULT_TYPE" vaporized=""/>
    <tripinfo id="vertical.10" depart="204.00" departLane="3fi_0" departPos="3.10" departSpeed="0.00" departDelay="4.00" arrival="439.00" arrivalLane="3fi_0" arrivalPos="248.50" arrivalSpeed="11.11" duration="235.00" routeLength="2194.00" waitSteps="20" rerouteNo="0" devices="tripinfo_vertical.10" vType="SUMO_DEFAULT_TYPE" vaporized=""/>
    <tripinfo id="vertical.11" depart="214.00" departLane="3fi_0" departPos="3.10" departSpeed="0.00" departDelay="4.00" arrival="441.00" arrivalLane="3fi_0" arrivalPos="248.50" arrivalSpeed="11.11" duration="227.00" routeLength="2194.00" waitSteps="11" rerouteNo="0" devices="tripinfo_vertical.11" vType="SUMO_DEFAULT_TYPE" vaporized=""/>
    <tripinfo id="vertical.12" depart="224.00" departLane="3fi_0" departPos="3.10" departSpeed="0.00" departDelay="4.00" arrival="442.00" arrivalLane="3fi_0" arrivalPos="248.50" arrivalSpeed="11.11" duration="218.00" routeLength="2194.00" waitSteps="3" rerouteNo="0" devices="tripinfo_vertical.12" vType="SUMO_DEFAULT_TYPE" vaporized=""/>
    <tripinfo id="vertical.13" depart="234.00" departLane="3fi_0" departPos="3.10" departSpeed="0.00" departDelay="4.00" arrival="444.00" arrivalLane="3fi_0" arrivalPos="248.50" arrivalSpeed="11.11" duration="210.00" routeLength="2194.00" waitSteps="0" rerouteNo="0" devices="tripinfo_vertical.13" vType="SUMO_DEFAULT_TYPE" vaporized=""/>
    <tripinfo id="vertical.14" depart="244.00" departLane="3fi_0" departPos="3.10" departSpeed="0.00" departDelay="4.00" arrival="446.00" arrivalLane="3fi_0" arrivalPos="248.50" arrivalSpeed="11.11" duration="202.00" routeLength="2194.00" waitSteps="0" rerouteNo="0" devices="tripinfo_vertical.14" vType="SUMO_DEFAULT_TYPE" vaporized=""/>
    <tripinfo id="vertical.15" depart="254.00" departLane="3fi_0" departPos="3.10" departSpeed="0.00" departDelay="4.00" arrival="459.00" arrivalLane="3fi_0" arrivalPos="248.50" arrivalSpeed="11.11" duration="205.00" routeLength="2194.00" waitSteps="0" rerouteNo="0" devices="tripinfo_vertical.15" vType="SUMO_DEFAULT_TYPE" vaporized=""/>
    <tripinfo id="horizontal.11" depart="210.00" departLane="2fi_0" departPos="3.10" departSpeed="0.00" departDelay="0.00" arrival="480.00" arrivalLane="2fi_0" arrivalPos="248.50" arrivalSpeed="11.11" duration="270.00" routeLength="2194.00" waitSteps="55" rerouteNo="0" devices="tripinfo_horizontal.11" vType="SUMO_DEFAULT_TYPE" vaporized=""/>
    <tripinfo id="horizontal.12" depart="220.00" departLane="2fi_0" departPos="3.10" departSpeed="0.00" departDelay="0.00" arrival="481.00" arrivalLane="2fi_0" arrivalPos="248.50" arrivalSpeed="11.11" duration="261.00" routeLength="2194.00" waitSteps="46" rerouteNo="0" devices="tripinfo_horizontal.12" vType="SUMO_DEFAULT_TYPE" vaporized=""/>
    <tripinfo id="horizontal.13" depart="243.00" departLane="2fi_0" departPos="3.10" departSpeed="0.00" departDelay="13.00" arrival="483.00" arrivalLane="2fi_0" arrivalPos="248.50" arrivalSpeed="11.11" duration="240.00" routeLength="2194.00" waitSteps="24" rerouteNo="0" devices="tripinfo_horizontal.13" vType="SUMO_DEFAULT_TYPE" vaporized=""/>
    <tripinfo id="horizontal.14" depart="247.00" departLane="2fi_0" departPos="3.10" departSpeed="0.00" departDelay="7.00" arrival="484.00" arrivalLane="2fi_0" arrivalPos="248.50" arrivalSpeed="11.11" duration="237.00" routeLength="2194.00" waitSteps="22" rerouteNo="0" devices="tripinfo_horizontal.14" vType="SUMO_DEFAULT_TYPE" vaporized=""/>
    <tripinfo id="horizontal.15" depart="254.00" departLane="2fi_0" departPos="3.10" departSpeed="0.00" departDelay="4.00" arrival="486.00" arrivalLane="2fi_0" arrivalPos="248.50" arrivalSpeed="11.11" duration="232.00" routeLength="2194.00" waitSteps="16" rerouteNo="0" devices="tripinfo_horizontal.15" vType="SUMO_DEFAULT_TYPE" vaporized=""/>
    <tripinfo id="horizontal.16" depart="260.00" departLane="2fi_0" departPos="3.10" departSpeed="0.00" departDelay="0.00" arrival="487.00" arrivalLane="2fi_0" arrivalPos="248.50" arrivalSpeed="11.11" duration="227.00" routeLength="2194.00" waitSteps="12" rerouteNo="0" devices="tripinfo_horizontal.16" vType="SUMO_DEFAULT_TYPE" vaporized=""/>
    <tripinfo id="horizontal.17" depart="270.00" departLane="2fi_0" departPos="3.10" departSpeed="0.00" departDelay="0.00" arrival="489.00" arrivalLane="2fi_0" arrivalPos="248.50" arrivalSpeed="11.11" duration="219.00" routeLength="2194.00" waitSteps="3" rerouteNo="0" devices="tripinfo_horizontal.17" vType="SUMO_DEFAULT_TYPE" vaporized=""/>
    <tripinfo id="horizontal.18" depart="280.00" departLane="2fi_0" departPos="3.10" departSpeed="0.00" departDelay="0.00" arrival="490.00" arrivalLane="2fi_0" arrivalPos="248.50" arrivalSpeed="11.11" duration="210.00" routeLength="2194.00" waitSteps="0" rerouteNo="0" devices="tripinfo_horizontal.18" vType="SUMO_DEFAULT_TYPE" vaporized=""/>
    <tripinfo id="horizontal.19" depart="290.00" departLane="2fi_0" departPos="3.10" departSpeed="0.00" departDelay="0.00" arrival="492.00" arrivalLane="2fi_0" arrivalPos="248.50" arrivalSpeed="11.11" duration="202.00" routeLength="2194.00" waitSteps="0" rerouteNo="0" devices="tripinfo_horizontal.19" vType="SUMO_DEFAULT_TYPE" vaporized=""/>
    <tripinfo id="vertical.16" depart="264.00" departLane="3fi_0" departPos="3.10" departSpeed="0.00" departDelay="4.00" arrival="525.00" arrivalLane="3fi_0" arrivalPos="248.50" arrivalSpeed="11.11" duration="261.00" routeLength="2194.00" waitSteps="46" rerouteNo="0" devices="tripinfo_vertical.16" vType="SUMO_DEFAULT_TYPE" vaporized=""/>
    <tripinfo id="vertical.17" depart="274.00" departLane="3fi_0" departPos="3.10" departSpeed="0.00" departDelay="4.00" arrival="526.00" arrivalLane="3fi_0" arrivalPos="248.50" arrivalSpeed="11.11" duration="252.00" routeLength="2194.00" waitSteps="37" rerouteNo="0" devices="tripinfo_vertical.17" vType="SUMO_DEFAULT_TYPE" vaporized=""/>
    <tripinfo id="vertical.18" depart="284.00" departLane="3fi_0" departPos="3.10" departSpeed="0.00" departDelay="4.00" arrival="528.00" arrivalLane="3fi_0" arrivalPos="248.50" arrivalSpeed="11.11" duration="244.00" routeLength="2194.00" waitSteps="28" rerouteNo="0" devices="tripinfo_vertical.18" vType="SUMO_DEFAULT_TYPE" vaporized=""/>
    <tripinfo id="vertical.19" depart="294.00" departLane="3fi_0" departPos="3.10" departSpeed="0.00" departDelay="4.00" arrival="529.00" arrivalLane="3fi_0" arrivalPos="248.50" arrivalSpeed="11.11" duration="235.00" routeLength="2194.00" waitSteps="20" rerouteNo="0" devices="tripinfo_vertical.19" vType="SUMO_DEFAULT_TYPE" vaporized=""/>
    <tripinfo id="vertical.20" depart="304.00" departLane="3fi_0" departPos="3.10" departSpeed="0.00" departDelay="4.00" arrival="531.00" arrivalLane="3fi_0" arrivalPos="248.50" arrivalSpeed="11.11" duration="227.00" routeLength="2194.00" waitSteps="11" rerouteNo="0" devices="tripinfo_vertical.20" vType="SUMO_DEFAULT_TYPE" vaporized=""/>
    <tripinfo id="vertical.21" depart="314.00" departLane="3fi_0" departPos="3.10" departSpeed="0.00" departDelay="4.00" arrival="532.00" arrivalLane="3fi_0" arrivalPos="248.50" arrivalSpeed="11.11" duration="218.00" routeLength="2194.00" waitSteps="3" rerouteNo="0" devices="tripinfo_vertical.21" vType="SUMO_DEFAULT_TYPE" vaporized=""/>
    <tripinfo id="vertical.22" depart="335.00" departLane="3fi_0" departPos="3.10" departSpeed="0.00" departDelay="15.00" arrival="541.00" arrivalLane="3fi_0" arrivalPos="248.50" arrivalSpeed="11.11" duration="206.00" routeLength="2194.00" waitSteps="0" rerouteNo="0" devices="tripinfo_vertical.22" vType="SUMO_DEFAULT_TYPE" vaporized=""/>
    <tripinfo id="horizontal.20" depart="300.00" departLane="2fi_0" departPos="3.10" departSpeed="0.00" departDelay="0.00" arrival="568.00" arrivalLane="2fi_0" arrivalPos="248.50" arrivalSpeed="11.11" duration="268.00" routeLength="2194.00" waitSteps="55" rerouteNo="0" devices="tripinfo_horizontal.20" vType="SUMO_DEFAULT_TYPE" vaporized=""/>
    <tripinfo id="horizontal.21" depart="310.00" departLane="2fi_0" departPos="3.10" departSpeed="0.00" departDelay="0.00" arrival="569.00" arrivalLane="2fi_0" arrivalPos="248.50" arrivalSpeed="11.11" duration="259.00" routeLength="2194.00" waitSteps="46" rerouteNo="0" devices="tripinfo_horizontal.21" vType="SUMO_DEFAULT_TYPE" vaporized=""/>
    <tripinfo id="horizontal.22" depart="335.00" departLane="2fi_0" departPos="3.10" departSpeed="0.00" departDelay="15.00" arrival="571.00" arrivalLane="2fi_0" arrivalPos="248.50" arrivalSpeed="11.11" duration="236.00" routeLength="2194.00" waitSteps="22" rerouteNo="0" devices="tripinfo_horizontal.22" vType="SUMO_DEFAULT_TYPE" vaporized=""/>
    <tripinfo id="horizontal.23" depart="339.00" departLane="2fi_0" departPos="3.10" departSpeed="0.00" departDelay="9.00" arrival="572.00" arrivalLane="2fi_0" arrivalPos="248.50" arrivalSpeed="11.11" duration="233.00" routeLength="2194.00" waitSteps="20" rerouteNo="0" devices="tripinfo_horizontal.23" vType="SUMO_DEFAULT_TYPE" vaporized=""/>
    <tripinfo id="horizontal.24" depart="345.00" departLane="2fi_0" departPos="3.10" departSpeed="0.00" departDelay="5.00" arrival="574.00" arrivalLane="2fi_0" arrivalPos="248.50" arrivalSpeed="11.11" duration="229.00" routeLength="2194.00" waitSteps="14" rerouteNo="0" devices="tripinfo_horizontal.24" vType="SUMO_DEFAULT_TYPE" vaporized=""/>
    <tripinfo id="horizontal.25" depart="350.00" departLane="2fi_0" departPos="3.10" departSpeed="0.00" departDelay="0.00" arrival="576.00" arrivalLane="2fi_0" arrivalPos="248.50" arrivalSpeed="11.11" duration="226.00" routeLength="2194.00" waitSteps="12" rerouteNo="0" devices="tripinfo_horizontal.25" vType="SUMO_DEFAULT_TYPE" vaporized=""/>
    <tripinfo id="horizontal.26" depart="361.00" departLane="2fi_0" departPos="3.10" departSpeed="0.00" departDelay="1.00" arrival="578.00" arrivalLane="2fi_0" arrivalPos="248.50" arrivalSpeed="11.11" duration="217.00" routeLength="2194.00" waitSteps="2" rerouteNo="0" devices="tripinfo_horizontal.26" vType="SUMO_DEFAULT_TYPE" vaporized=""/>
    <tripinfo id="horizontal.27" depart="384.00" departLane="2fi_0" departPos="3.10" departSpeed="0.00" departDelay="14.00" arrival="596.00" arrivalLane="2fi_0" arrivalPos="248.50" arrivalSpeed="11.11" duration="212.00" routeLength="2194.00" waitSteps="0" rerouteNo="0" devices="tripinfo_horizontal.27" vType="SUMO_DEFAULT_TYPE" vaporized=""/>
    <tripinfo id="horizontal.28" depart="388.00" departLane="2fi_0" departPos="3.10" departSpeed="0.00" departDelay="8.00" arrival="598.00" arrivalLane="2fi_0" arrivalPos="248.50" arrivalSpeed="11.11" duration="210.00" routeLength="2194.00" waitSteps="0" rerouteNo="0" devices="tripinfo_horizontal.28" vType="SUMO_DEFAULT_TYPE" vaporized=""/>
    <tripinfo id="vertical.23" depart="346.00" departLane="3fi_0" departPos="3.10" departSpeed="0.00" departDelay="16.00" arrival="614.00" arrivalLane="3fi_0" arrivalPos="248.50" arrivalSpeed="11.11" duration="268.00" routeLength="2194.00" waitSteps="54" rerouteNo="0" devices="tripinfo_vertical.23" vType="SUMO_DEFAULT_TYPE" vaporized=""/>
    <tripinfo id="vertical.24" depart="354.00" departLane="3fi_0" departPos="3.10" departSpeed="0.00" departDelay="14.00" arrival="615.00" arrivalLane="3fi_0" arrivalPos="248.50" arrivalSpeed="11.11" duration="261.00" routeLength="2194.00" waitSteps="47" rerouteNo="0" devices="tripinfo_vertical.24" vType="SUMO_DEFAULT_TYPE" vaporized=""/>
    <tripinfo id="vertical.25" depart="362.00" departLane="3fi_0" departPos="3.10" departSpeed="0.00" departDelay="12.00" arrival="617.00" arrivalLane="3fi_0" arrivalPos="248.50" arrivalSpeed="11.11" duration="255.00" routeLength="2194.00" waitSteps="40" rerouteNo="0" devices="tripinfo_vertical.25" vType="SUMO_DEFAULT_TYPE" vaporized=""/>
    <tripinfo id="vertical.26" depart="370.00" departLane="3fi_0" departPos="3.10" departSpeed="0.00" departDelay="10.00" arrival="618.00" arrivalLane="3fi_0" arrivalPos="248.50" arrivalSpeed="11.11" duration="248.00" routeLength="2194.00" waitSteps="34" rerouteNo="0" devices="tripinfo_vertical.26" vType="SUMO_DEFAULT_TYPE" vaporized=""/>
    <tripinfo id="vertical.27" depart="378.00" departLane="3fi_0" departPos="3.10" departSpeed="0.00" departDelay="8.00" arrival="620.00" arrivalLane="3fi_0" arrivalPos="248.50" arrivalSpeed="11.11" duration="242.00" routeLength="2194.00" waitSteps="27" rerouteNo="0" devices="tripinfo_vertical.27" vType="SUMO_DEFAULT_TYPE" vaporized=""/>
    <tripinfo id="vertical.28" depart="386.00" departLane="3fi_0" departPos="3.10" departSpeed="0.00" departDelay="6.00" arrival="621.00" arrivalLane="3fi_0" arrivalPos="248.50" arrivalSpeed="11.11" duration="235.00" routeLength="2194.00" waitSteps="21" rerouteNo="0" devices="tripinfo_vertical.28" vType="SUMO_DEFAULT_TYPE" vaporized=""/>
    <tripinfo id="vertical.29" depart="394.00" departLane="3fi_0" departPos="3.10" departSpeed="0.00" departDelay="4.00" arrival="623.00" arrivalLane="3fi_0" arrivalPos="248.50" arrivalSpeed="11.11" duration="229.00" routeLength="2194.00" waitSteps="14" rerouteNo="0" devices="tripinfo_vertical.29" vType="SUMO_DEFAULT_TYPE" vaporized=""/>
    <tripinfo id="vertical.30" depart="404.00" departLane="3fi_0" departPos="3.10" departSpeed="0.00" departDelay="4.00" arrival="625.00" arrivalLane="3fi_0" arrivalPos="248.50" arrivalSpeed="11.11" duration="221.00" routeLength="2194.00" waitSteps="5" rerouteNo="0" devices="tripinfo_vertical.30" vType="SUMO_DEFAULT_TYPE" vaporized=""/>
    <tripinfo id="vertical.31" depart="428.00" departLane="3fi_0" departPos="3.10" departSpeed="0.00" departDelay="18.00" arrival="635.00" arrivalLane="3fi_0" arrivalPos="248.50" arrivalSpeed="11.11" duration="207.00" routeLength="2194.00" waitSteps="0" rerouteNo="0" devices="tripinfo_vertical.31" vType="SUMO_DEFAULT_TYPE" vaporized=""/>
    <tripinfo id="always_right.0" depart="100.00" departLane="1fi_0" departPos="3.10" departSpeed="0.00" departDelay="0.00" arrival="639.00" arrivalLane="1fi_0" arrivalPos="248.50" arrivalSpeed="11.11" duration="539.00" routeLength="4142.60" waitSteps="109" rerouteNo="0" devices="tripinfo_always_right.0" vType="SUMO_DEFAULT_TYPE" vaporized=""/>
    <tripinfo id="always_right.1" depart="110.00" departLane="1fi_0" departPos="3.10" departSpeed="0.00" departDelay="0.00" arrival="640.00" arrivalLane="1fi_0" arrivalPos="248.50" arrivalSpeed="11.11" duration="530.00" routeLength="4142.60" waitSteps="97" rerouteNo="0" devices="tripinfo_always_right.1" vType="SUMO_DEFAULT_TYPE" vaporized=""/>
    <tripinfo id="always_right.2" depart="120.00" departLane="1fi_0" departPos="3.10" departSpeed="0.00" departDelay="0.00" arrival="642.00" arrivalLane="1fi_0" arrivalPos="248.50" arrivalSpeed="11.11" duration="522.00" routeLength="4142.60" waitSteps="86" rerouteNo="0" devices="tripinfo_always_right.2" vType="SUMO_DEFAULT_TYPE" vaporized=""/>
    <tripinfo id="horizontal.29" depart="392.00" departLane="2fi_0" departPos="3.10" departSpeed="0.00" departDelay="2.00" arrival="658.00" arrivalLane="2fi_0" arrivalPos="248.50" arrivalSpeed="11.11" duration="266.00" routeLength="2194.00" waitSteps="53" rerouteNo="0" devices="tripinfo_horizontal.29" vType="SUMO_DEFAULT_TYPE" vaporized=""/>
    <tripinfo id="horizontal.30" depart="400.00" departLane="2fi_0" departPos="3.10" departSpeed="0.00" departDelay="0.00" arrival="659.00" arrivalLane="2fi_0" arrivalPos="248.50" arrivalSpeed="11.11" duration="259.00" routeLength="2194.00" waitSteps="46" rerouteNo="0" devices="tripinfo_horizontal.30" vType="SUMO_DEFAULT_TYPE" vaporized=""/>
    <tripinfo id="horizontal.31" depart="423.00" departLane="2fi_0" departPos="3.10" departSpeed="0.00" departDelay="13.00" arrival="661.00" arrivalLane="2fi_0" arrivalPos="248.50" arrivalSpeed="11.11" duration="238.00" routeLength="2194.00" waitSteps="24" rerouteNo="0" devices="tripinfo_horizontal.31" vType="SUMO_DEFAULT_TYPE" vaporized=""/>
    <tripinfo id="always_left.0" depart="100.00" departLane="3fi_0" departPos="3.10" departSpeed="0.00" departDelay="0.00" arrival="661.00" arrivalLane="3fi_0" arrivalPos="248.50" arrivalSpeed="11.11" duration="561.00" routeLength="4142.60" waitSteps="150" rerouteNo="0" devices="tripinfo_always_left.0" vType="SUMO_DEFAULT_TYPE" vaporized=""/>
    <tripinfo id="horizontal.32" depart="427.00" departLane="2fi_0" departPos="3.10" departSpeed="0.00" departDelay="7.00" arrival="662.00" arrivalLane="2fi_0" arrivalPos="248.50" arrivalSpeed="11.11" duration="235.00" routeLength="2194.00" waitSteps="22" rerouteNo="0" devices="tripinfo_horizontal.32" vType="SUMO_DEFAULT_TYPE" vaporized=""/>
    <tripinfo id="always_left.1" depart="110.00" departLane="3fi_0" departPos="3.10" departSpeed="0.00" departDelay="0.00" arrival="662.00" arrivalLane="3fi_0" arrivalPos="248.50" arrivalSpeed="11.11" duration="552.00" routeLength="4142.60" waitSteps="138" rerouteNo="0" devices="tripinfo_always_left.1" vType="SUMO_DEFAULT_TYPE" vaporized=""/>
    <tripinfo id="horizontal.33" depart="434.00" departLane="2fi_0" departPos="3.10" departSpeed="0.00" departDelay="4.00" arrival="664.00" arrivalLane="2fi_0" arrivalPos="248.50" arrivalSpeed="11.11" duration="230.00" routeLength="2194.00" waitSteps="16" rerouteNo="0" devices="tripinfo_horizontal.33" vType="SUMO_DEFAULT_TYPE" vaporized=""/>
    <tripinfo id="always_left.2" depart="120.00" departLane="3fi_0" departPos="3.10" departSpeed="0.00" departDelay="0.00" arrival="664.00" arrivalLane="3fi_0" arrivalPos="248.50" arrivalSpeed="11.11" duration="544.00" routeLength="4142.60" waitSteps="126" rerouteNo="0" devices="tripinfo_always_left.2" vType="SUMO_DEFAULT_TYPE" vaporized=""/>
    <tripinfo id="always_left.3" depart="130.00" departLane="3fi_0" departPos="3.10" departSpeed="0.00" departDelay="0.00" arrival="665.00" arrivalLane="3fi_0" arrivalPos="248.50" arrivalSpeed="11.11" duration="535.00" routeLength="4142.60" waitSteps="118" rerouteNo="0" devices="tripinfo_always_left.3" vType="SUMO_DEFAULT_TYPE" vaporized=""/>
    <tripinfo id="horizontal.34" depart="449.00" departLane="2fi_0" departPos="3.10" departSpeed="0.00" departDelay="9.00" arrival="666.00" arrivalLane="2fi_0" arrivalPos="248.50" arrivalSpeed="11.11" duration="217.00" routeLength="2194.00" waitSteps="3" rerouteNo="0" devices="tripinfo_horizontal.34" vType="SUMO_DEFAULT_TYPE" vaporized=""/>
    <tripinfo id="always_left.4" depart="140.00" departLane="3fi_0" departPos="3.10" departSpeed="0.00" departDelay="0.00" arrival="667.00" arrivalLane="3fi_0" arrivalPos="248.50" arrivalSpeed="11.11" duration="527.00" routeLength="4142.60" waitSteps="111" rerouteNo="0" devices="tripinfo_always_left.4" vType="SUMO_DEFAULT_TYPE" vaporized=""/>
    <tripinfo id="always_left.5" depart="150.00" departLane="3fi_0" departPos="3.10" departSpeed="0.00" departDelay="0.00" arrival="669.00" arrivalLane="3fi_0" arrivalPos="248.50" arrivalSpeed="11.11" duration="519.00" routeLength="4142.60" waitSteps="108" rerouteNo="0" devices="tripinfo_always_left.5" vType="SUMO_DEFAULT_TYPE" vaporized=""/>
    <tripinfo id="always_left.6" depart="160.00" departLane="3fi_0" departPos="3.10" departSpeed="0.00" departDelay="0.00" arrival="670.00" arrivalLane="3fi_0" arrivalPos="248.50" arrivalSpeed="11.11" duration="510.00" routeLength="4142.60" waitSteps="96" rerouteNo="0" devices="tripinfo_always_left.6" vType="SUMO_DEFAULT_TYPE" vaporized=""/>
    <tripinfo id="horizontal.35" depart="470.00" departLane="2fi_0" departPos="3.10" departSpeed="0.00" departDelay="20.00" arrival="680.00" arrivalLane="2fi_0" arrivalPos="248.50" arrivalSpeed="11.11" duration="210.00" routeLength="2194.00" waitSteps="0" rerouteNo="0" devices="tripinfo_horizontal.35" vType="SUMO_DEFAULT_TYPE" vaporized=""/>
    <tripinfo id="horizontal.36" depart="474.00" departLane="2fi_0" departPos="3.10" departSpeed="0.00" departDelay="14.00" arrival="682.00" arrivalLane="2fi_0" arrivalPos="248.50" arrivalSpeed="11.11" duration="208.00" routeLength="2194.00" waitSteps="0" rerouteNo="0" devices="tripinfo_horizontal.36" vType="SUMO_DEFAULT_TYPE" vaporized=""/>
    <tripinfo id="horizontal.37" depart="478.00" departLane="2fi_0" departPos="3.10" departSpeed="0.00" departDelay="8.00" arrival="689.00" arrivalLane="2fi_0" arrivalPos="248.50" arrivalSpeed="11.11" duration="211.00" routeLength="2194.00" waitSteps="0" rerouteNo="0" devices="tripinfo_horizontal.37" vType="SUMO_DEFAULT_TYPE" vaporized=""/>
    <tripinfo id="vertical.32" depart="439.00" departLane="3fi_0" departPos="3.10" departSpeed="0.00" departDelay="19.00" arrival="702.00" arrivalLane="3fi_0" arrivalPos="248.50" arrivalSpeed="11.11" duration="263.00" routeLength="2194.00" waitSteps="51" rerouteNo="0" devices="tripinfo_vertical.32" vType="SUMO_DEFAULT_TYPE" vaporized=""/>
    <tripinfo id="vertical.33" depart="447.00" departLane="3fi_0" departPos="3.10" departSpeed="0.00" departDelay="17.00" arrival="703.00" arrivalLane="3fi_0" arrivalPos="248.50" arrivalSpeed="11.11" duration="256.00" routeLength="2194.00" waitSteps="44" rerouteNo="0" devices="tripinfo_vertical.33" vType="SUMO_DEFAULT_TYPE" vaporized=""/>
    <tripinfo id="vertical.34" depart="455.00" departLane="3fi_0" departPos="3.10" departSpeed="0.00" departDelay="15.00" arrival="705.00" arrivalLane="3fi_0" arrivalPos="248.50" arrivalSpeed="11.11" duration="250.00" routeLength="2194.00" waitSteps="37" rerouteNo="0" devices="tripinfo_vertical.34" vType="SUMO_DEFAULT_TYPE" vaporized=""/>
    <tripinfo id="vertical.35" depart="463.00" departLane="3fi_0" departPos="3.10" departSpeed="0.00" departDelay="13.00" arrival="707.00" arrivalLane="3fi_0" arrivalPos="248.50" arrivalSpeed="11.11" duration="244.00" routeLength="2194.00" waitSteps="31" rerouteNo="0" devices="tripinfo_vertical.35" vType="SUMO_DEFAULT_TYPE" vaporized=""/>
    <tripinfo id="vertical.36" depart="471.00" departLane="3fi_0" departPos="3.10" departSpeed="0.00" departDelay="11.00" arrival="709.00" arrivalLane="3fi_0" arrivalPos="248.50" arrivalSpeed="11.11" duration="238.00" routeLength="2194.00" waitSteps="24" rerouteNo="0" devices="tripinfo_vertical.36" vType="SUMO_DEFAULT_TYPE" vaporized=""/>