<?xml version="1.0"?>

<!-- generated on Fri Nov  9 12:27:04 2012 by SUMO sumo Version dev-SVN-r12945
<?xml version="1.0" encoding="UTF-8"?>

<configuration xmlns:xsi="http://www.w3.org/2001/XMLSchema-instance" xsi:noNamespaceSchemaLocation="http://sumo.sf.net/xsd/sumoConfiguration.xsd">

    <input>
        <net-file value="net.net.xml"/>
        <route-files value="input_routes.rou.xml"/>
    </input>

    <output>
        <tripinfo-output value="tripinfos.xml"/>
    </output>

    <time>
        <begin value="0"/>
        <end value="1000"/>
    </time>

    <report>
        <no-duration-log value="true"/>
        <no-step-log value="true"/>
    </report>

</configuration>
-->

<tripinfos>
    <tripinfo id="horizontal.0" depart="100.00" departLane="2fi_0" departPos="3.10" departSpeed="0.00" departDelay="0.00" arrival="313.00" arrivalLane="2fi_0" arrivalPos="249.49" arrivalSpeed="10.66" duration="213.00" routeLength="2194.99" waitSteps="0" rerouteNo="0" devices="tripinfo_horizontal.0" vType="SUMO_DEFAULT_TYPE" vaporized=""/>
    <tripinfo id="horizontal.1" depart="110.00" departLane="2fi_0" departPos="3.10" departSpeed="0.00" departDelay="0.00" arrival="324.00" arrivalLane="2fi_0" arrivalPos="254.15" arrivalSpeed="8.01" duration="214.00" routeLength="2199.65" waitSteps="0" rerouteNo="0" devices="tripinfo_horizontal.1" vType="SUMO_DEFAULT_TYPE" vaporized=""/>
    <tripinfo id="vertical.0" depart="104.00" departLane="3fi_0" departPos="3.10" departSpeed="0.00" departDelay="4.00" arrival="354.00" arrivalLane="3fi_0" arrivalPos="253.90" arrivalSpeed="8.11" duration="250.00" routeLength="2199.40" waitSteps="22" rerouteNo="0" devices="tripinfo_vertical.0" vType="SUMO_DEFAULT_TYPE" vaporized=""/>
    <tripinfo id="vertical.1" depart="114.00" departLane="3fi_0" departPos="3.10" departSpeed="0.00" departDelay="4.00" arrival="356.00" arrivalLane="3fi_0" arrivalPos="254.53" arrivalSpeed="8.22" duration="242.00" routeLength="2200.03" waitSteps="13" rerouteNo="0" devices="tripinfo_vertical.1" vType="SUMO_DEFAULT_TYPE" vaporized=""/>
    <tripinfo id="vertical.2" depart="125.00" departLane="3fi_0" departPos="3.10" departSpeed="0.00" departDelay="5.00" arrival="358.00" arrivalLane="3fi_0" arrivalPos="254.55" arrivalSpeed="8.09" duration="233.00" routeLength="2200.05" waitSteps="5" rerouteNo="0" devices="tripinfo_vertical.2" vType="SUMO_DEFAULT_TYPE" vaporized=""/>
    <tripinfo id="vertical.3" depart="134.00" departLane="3fi_0" departPos="3.10" departSpeed="0.00" departDelay="4.00" arrival="360.00" arrivalLane="3fi_0" arrivalPos="253.97" arrivalSpeed="8.28" duration="226.00" routeLength="2199.47" waitSteps="0" rerouteNo="0" devices="tripinfo_vertical.3" vType="SUMO_DEFAULT_TYPE" vaporized=""/>
    <tripinfo id="vertical.4" depart="144.00" departLane="3fi_0" departPos="3.10" departSpeed="0.00" departDelay="4.00" arrival="362.00" arrivalLane="3fi_0" arrivalPos="253.94" arrivalSpeed="8.02" duration="218.00" routeLength="2199.44" waitSteps="0" rerouteNo="0" devices="tripinfo_vertical.4" vType="SUMO_DEFAULT_TYPE" vaporized=""/>
    <tripinfo id="vertical.5" depart="154.00" departLane="3fi_0" departPos="3.10" departSpeed="0.00" departDelay="4.00" arrival="364.00" arrivalLane="3fi_0" arrivalPos="254.65" arrivalSpeed="8.16" duration="210.00" routeLength="2200.15" waitSteps="1" rerouteNo="0" devices="tripinfo_vertical.5" vType="SUMO_DEFAULT_TYPE" vaporized=""/>
    <tripinfo id="horizontal.2" depart="120.00" departLane="2fi_0" departPos="3.10" departSpeed="0.00" departDelay="0.00" arrival="402.00" arrivalLane="2fi_0" arrivalPos="253.50" arrivalSpeed="8.53" duration="282.00" routeLength="2199.00" waitSteps="53" rerouteNo="0" devices="tripinfo_horizontal.2" vType="SUMO_DEFAULT_TYPE" vaporized=""/>
    <tripinfo id="horizontal.3" depart="130.00" departLane="2fi_0" departPos="3.10" departSpeed="0.00" departDelay="0.00" arrival="404.00" arrivalLane="2fi_0" arrivalPos="253.34" arrivalSpeed="8.62" duration="274.00" routeLength="2198.84" waitSteps="42" rerouteNo="0" devices="tripinfo_horizontal.3" vType="SUMO_DEFAULT_TYPE" vaporized=""/>
    <tripinfo id="horizontal.4" depart="140.00" departLane="2fi_0" departPos="3.10" departSpeed="0.00" departDelay="0.00" arrival="406.00" arrivalLane="2fi_0" arrivalPos="253.61" arrivalSpeed="8.59" duration="266.00" routeLength="2199.11" waitSteps="34" rerouteNo="0" devices="tripinfo_horizontal.4" vType="SUMO_DEFAULT_TYPE" vaporized=""/>
    <tripinfo id="horizontal.5" depart="150.00" departLane="2fi_0" departPos="3.10" departSpeed="0.00" departDelay="0.00" arrival="408.00" arrivalLane="2fi_0" arrivalPos="253.48" arrivalSpeed="8.51" duration="258.00" routeLength="2198.98" waitSteps="26" rerouteNo="0" devices="tripinfo_horizontal.5" vType="SUMO_DEFAULT_TYPE" vaporized=""/>
    <tripinfo id="horizontal.6" depart="160.00" departLane="2fi_0" departPos="3.10" departSpeed="0.00" departDelay="0.00" arrival="410.00" arrivalLane="2fi_0" arrivalPos="253.52" arrivalSpeed="8.47" duration="250.00" routeLength="2199.02" waitSteps="17" rerouteNo="0" devices="tripinfo_horizontal.6" vType="SUMO_DEFAULT_TYPE" vaporized=""/>
    <tripinfo id="horizontal.7" depart="170.00" departLane="2fi_0" departPos="3.10" departSpeed="0.00" departDelay="0.00" arrival="412.00" arrivalLane="2fi_0" arrivalPos="253.48" arrivalSpeed="8.53" duration="242.00" routeLength="2198.98" waitSteps="7" rerouteNo="0" devices="tripinfo_horizontal.7" vType="SUMO_DEFAULT_TYPE" vaporized=""/>
    <tripinfo id="horizontal.8" depart="180.00" departLane="2fi_0" departPos="3.10" departSpeed="0.00" departDelay="0.00" arrival="414.00" arrivalLane="2fi_0" arrivalPos="253.49" arrivalSpeed="8.43" duration="234.00" routeLength="2198.99" waitSteps="0" rerouteNo="0" devices="tripinfo_horizontal.8" vType="SUMO_DEFAULT_TYPE" vaporized=""/>
    <tripinfo id="horizontal.9" depart="190.00" departLane="2fi_0" departPos="3.10" departSpeed="0.00" departDelay="0.00" arrival="416.00" arrivalLane="2fi_0" arrivalPos="253.54" arrivalSpeed="8.60" duration="226.00" routeLength="2199.04" waitSteps="0" rerouteNo="0" devices="tripinfo_horizontal.9" vType="SUMO_DEFAULT_TYPE" vaporized=""/>
    <tripinfo id="horizontal.10" depart="200.00" departLane="2fi_0" departPos="3.10" departSpeed="0.00" departDelay="0.00" arrival="418.00" arrivalLane="2fi_0" arrivalPos="253.87" arrivalSpeed="8.64" duration="218.00" routeLength="2199.37" waitSteps="0" rerouteNo="0" devices="tripinfo_horizontal.10" vType="SUMO_DEFAULT_TYPE" vaporized=""/>
    <tripinfo id="vertical.6" depart="164.00" departLane="3fi_0" departPos="3.10" departSpeed="0.00" departDelay="4.00" arrival="446.00" arrivalLane="3fi_0" arrivalPos="251.44" arrivalSpeed="9.79" duration="282.00" routeLength="2196.94" waitSteps="51" rerouteNo="0" devices="tripinfo_vertical.6" vType="SUMO_DEFAULT_TYPE" vaporized=""/>
    <tripinfo id="vertical.7" depart="175.00" departLane="3fi_0" departPos="3.10" departSpeed="0.00" departDelay="5.00" arrival="448.00" arrivalLane="3fi_0" arrivalPos="251.27" arrivalSpeed="9.59" duration="273.00" routeLength="2196.77" waitSteps="43" rerouteNo="0" devices="tripinfo_vertical.7" vType="SUMO_DEFAULT_TYPE" vaporized=""/>
    <tripinfo id="vertical.8" depart="184.00" departLane="3fi_0" departPos="3.10" departSpeed="0.00" departDelay="4.00" arrival="450.00" arrivalLane="3fi_0" arrivalPos="251.42" arrivalSpeed="9.75" duration="266.00" routeLength="2196.92" waitSteps="36" rerouteNo="0" devices="tripinfo_vertical.8" vType="SUMO_DEFAULT_TYPE" vaporized=""/>
    <tripinfo id="vertical.9" depart="194.00" departLane="3fi_0" departPos="3.10" departSpeed="0.00" departDelay="4.00" arrival="452.00" arrivalLane="3fi_0" arrivalPos="251.50" arrivalSpeed="9.58" duration="258.00" routeLength="2197.00" waitSteps="27" rerouteNo="0" devices="tripinfo_vertical.9" vType="SUMO_DEFAULT_TYPE" vaporized=""/>
    <tripinfo id="vertical.10" depart="204.00" departLane="3fi_0" departPos="3.10" departSpeed="0.00" departDelay="4.00" arrival="454.00" arrivalLane="3fi_0" arrivalPos="251.07" arrivalSpeed="9.69" duration="250.00" routeLength="2196.57" waitSteps="19" rerouteNo="0" devices="tripinfo_vertical.10" vType="SUMO_DEFAULT_TYPE" vaporized=""/>
    <tripinfo id="vertical.11" depart="214.00" departLane="3fi_0" departPos="3.10" departSpeed="0.00" departDelay="4.00" arrival="456.00" arrivalLane="3fi_0" arrivalPos="250.49" arrivalSpeed="9.84" duration="242.00" routeLength="2195.99" waitSteps="9" rerouteNo="0" devices="tripinfo_vertical.11" vType="SUMO_DEFAULT_TYPE" vaporized=""/>
    <tripinfo id="vertical.12" depart="224.00" departLane="3fi_0" departPos="3.10" departSpeed="0.00" departDelay="4.00" arrival="458.00" arrivalLane="3fi_0" arrivalPos="250.49" arrivalSpeed="9.71" duration="234.00" routeLength="2195.99" waitSteps="0" rerouteNo="0" devices="tripinfo_vertical.12" vType="SUMO_DEFAULT_TYPE" vaporized=""/>
    <tripinfo id="vertical.13" depart="234.00" departLane="3fi_0" departPos="3.10" departSpeed="0.00" departDelay="4.00" arrival="460.00" arrivalLane="3fi_0" arrivalPos="250.09" arrivalSpeed="10.03" duration="226.00" routeLength="2195.59" waitSteps="0" rerouteNo="0" devices="tripinfo_vertical.13" vType="SUMO_DEFAULT_TYPE" vaporized=""/>
    <tripinfo id="vertical.14" depart="244.00" departLane="3fi_0" departPos="3.10" departSpeed="0.00" departDelay="4.00" arrival="462.00" arrivalLane="3fi_0" arrivalPos="250.54" arrivalSpeed="10.17" duration="218.00" routeLength="2196.04" waitSteps="0" rerouteNo="0" devices="tripinfo_vertical.14" vType="SUMO_DEFAULT_TYPE" vaporized=""/>
    <tripinfo id="horizontal.11" depart="210.00" departLane="2fi_0" departPos="3.10" departSpeed="0.00" departDelay="0.00" arrival="490.00" arrivalLane="2fi_0" arrivalPos="251.76" arrivalSpeed="9.13" duration="280.00" routeLength="2197.26" waitSteps="51" rerouteNo="0" devices="tripinfo_horizontal.11" vType="SUMO_DEFAULT_TYPE" vaporized=""/>
    <tripinfo id="horizontal.12" depart="220.00" departLane="2fi_0" departPos="3.10" departSpeed="0.00" departDelay="0.00" arrival="492.00" arrivalLane="2fi_0" arrivalPos="252.00" arrivalSpeed="9.38" duration="272.00" routeLength="2197.50" waitSteps="43" rerouteNo="0" devices="tripinfo_horizontal.12" vType="SUMO_DEFAULT_TYPE" vaporized=""/>
    <tripinfo id="horizontal.13" depart="230.00" departLane="2fi_0" departPos="3.10" departSpeed="0.00" departDelay="0.00" arrival="494.00" arrivalLane="2fi_0" arrivalPos="252.29" arrivalSpeed="9.33" duration="264.00" routeLength="2197.79" waitSteps="34" rerouteNo="0" devices="tripinfo_horizontal.13" vType="SUMO_DEFAULT_TYPE" vaporized=""/>
    <tripinfo id="horizontal.14" depart="250.00" departLane="2fi_0" departPos="3.10" departSpeed="0.00" departDelay="10.00" arrival="496.00" arrivalLane="2fi_0" arrivalPos="252.35" arrivalSpeed="9.05" duration="246.00" routeLength="2197.85" waitSteps="15" rerouteNo="0" devices="tripinfo_horizontal.14" vType="SUMO_DEFAULT_TYPE" vaporized=""/>
    <tripinfo id="horizontal.15" depart="258.00" departLane="2fi_0" departPos="3.10" departSpeed="0.00" departDelay="8.00" arrival="498.00" arrivalLane="2fi_0" arrivalPos="252.49" arrivalSpeed="8.87" duration="240.00" routeLength="2197.99" waitSteps="9" rerouteNo="0" devices="tripinfo_horizontal.15" vType="SUMO_DEFAULT_TYPE" vaporized=""/>
    <tripinfo id="horizontal.16" depart="262.00" departLane="2fi_0" departPos="3.10" departSpeed="0.00" departDelay="2.00" arrival="500.00" arrivalLane="2fi_0" arrivalPos="252.88" arrivalSpeed="9.14" duration="238.00" routeLength="2198.38" waitSteps="6" rerouteNo="0" devices="tripinfo_horizontal.16" vType="SUMO_DEFAULT_TYPE" vaporized=""/>
    <tripinfo id="horizontal.17" depart="270.00" departLane="2fi_0" departPos="3.10" departSpeed="0.00" departDelay="0.00" arrival="502.00" arrivalLane="2fi_0" arrivalPos="253.11" arrivalSpeed="8.83" duration="232.00" routeLength="2198.61" waitSteps="0" rerouteNo="0" devices="tripinfo_horizontal.17" vType="SUMO_DEFAULT_TYPE" vaporized=""/>
    <tripinfo id="horizontal.18" depart="280.00" departLane="2fi_0" departPos="3.10" departSpeed="0.00" departDelay="0.00" arrival="504.00" arrivalLane="2fi_0" arrivalPos="253.42" arrivalSpeed="8.81" duration="224.00" routeLength="2198.92" waitSteps="0" rerouteNo="0" devices="tripinfo_horizontal.18" vType="SUMO_DEFAULT_TYPE" vaporized=""/>
    <tripinfo id="horizontal.19" depart="290.00" departLane="2fi_0" departPos="3.10" departSpeed="0.00" departDelay="0.00" arrival="506.00" arrivalLane="2fi_0" arrivalPos="253.77" arrivalSpeed="8.59" duration="216.00" routeLength="2199.27" waitSteps="0" rerouteNo="0" devices="tripinfo_horizontal.19" vType="SUMO_DEFAULT_TYPE" vaporized=""/>
    <tripinfo id="vertical.15" depart="255.00" departLane="3fi_0" departPos="3.10" departSpeed="0.00" departDelay="5.00" arrival="535.00" arrivalLane="3fi_0" arrivalPos="253.30" arrivalSpeed="8.88" duration="280.00" routeLength="2198.80" waitSteps="50" rerouteNo="0" devices="tripinfo_vertical.15" vType="SUMO_DEFAULT_TYPE" vaporized=""/>
    <tripinfo id="vertical.16" depart="264.00" departLane="3fi_0" departPos="3.10" departSpeed="0.00" departDelay="4.00" arrival="537.00" arrivalLane="3fi_0" arrivalPos="252.92" arrivalSpeed="8.69" duration="273.00" routeLength="2198.42" waitSteps="44" rerouteNo="0" devices="tripinfo_vertical.16" vType="SUMO_DEFAULT_TYPE" vaporized=""/>
    <tripinfo id="vertical.17" depart="274.00" departLane="3fi_0" departPos="3.10" departSpeed="0.00" departDelay="4.00" arrival="539.00" arrivalLane="3fi_0" arrivalPos="253.26" arrivalSpeed="8.78" duration="265.00" routeLength="2198.76" waitSteps="36" rerouteNo="0" devices="tripinfo_vertical.17" vType="SUMO_DEFAULT_TYPE" vaporized=""/>
    <tripinfo id="vertical.18" depart="284.00" departLane="3fi_0" departPos="3.10" departSpeed="0.00" departDelay="4.00" arrival="541.00" arrivalLane="3fi_0" arrivalPos="252.74" arrivalSpeed="9.14" duration="257.00" routeLength="2198.24" waitSteps="25" rerouteNo="0" devices="tripinfo_vertical.18" vType="SUMO_DEFAULT_TYPE" vaporized=""/>
    <tripinfo id="vertical.19" depart="294.00" departLane="3fi_0" departPos="3.10" departSpeed="0.00" departDelay="4.00" arrival="543.00" arrivalLane="3fi_0" arrivalPos="252.37" arrivalSpeed="9.36" duration="249.00" routeLength="2197.87" waitSteps="18" rerouteNo="0" devices="tripinfo_vertical.19" vType="SUMO_DEFAULT_TYPE" vaporized=""/>
    <tripinfo id="vertical.20" depart="304.00" departLane="3fi_0" departPos="3.10" departSpeed="0.00" departDelay="4.00" arrival="545.00" arrivalLane="3fi_0" arrivalPos="252.69" arrivalSpeed="9.00" duration="241.00" routeLength="2198.19" waitSteps="8" rerouteNo="0" devices="tripinfo_vertical.20" vType="SUMO_DEFAULT_TYPE" vaporized=""/>
    <tripinfo id="vertical.21" depart="314.00" departLane="3fi_0" departPos="3.10" departSpeed="0.00" departDelay="4.00" arrival="547.00" arrivalLane="3fi_0" arrivalPos="252.37" arrivalSpeed="9.05" duration="233.00" routeLength="2197.87" waitSteps="0" rerouteNo="0" devices="tripinfo_vertical.21" vType="SUMO_DEFAULT_TYPE" vaporized=""/>
    <tripinfo id="horizontal.20" depart="300.00" departLane="2fi_0" departPos="3.10" departSpeed="0.00" departDelay="0.00" arrival="584.00" arrivalLane="2fi_0" arrivalPos="253.71" arrivalSpeed="8.70" duration="284.00" routeLength="2199.21" waitSteps="52" rerouteNo="0" devices="tripinfo_horizontal.20" vType="SUMO_DEFAULT_TYPE" vaporized=""/>
    <tripinfo id="horizontal.21" depart="310.00" departLane="2fi_0" departPos="3.10" departSpeed="0.00" departDelay="0.00" arrival="586.00" arrivalLane="2fi_0" arrivalPos="253.32" arrivalSpeed="8.60" duration="276.00" routeLength="2198.82" waitSteps="45" rerouteNo="0" devices="tripinfo_horizontal.21" vType="SUMO_DEFAULT_TYPE" vaporized=""/>
    <tripinfo id="horizontal.22" depart="320.00" departLane="2fi_0" departPos="3.10" departSpeed="0.00" departDelay="0.00" arrival="588.00" arrivalLane="2fi_0" arrivalPos="253.45" arrivalSpeed="8.41" duration="268.00" routeLength="2198.95" waitSteps="34" rerouteNo="0" devices="tripinfo_horizontal.22" vType="SUMO_DEFAULT_TYPE" vaporized=""/>
    <tripinfo id="horizontal.23" depart="347.00" departLane="2fi_0" departPos="3.10" departSpeed="0.00" departDelay="17.00" arrival="590.00" arrivalLane="2fi_0" arrivalPos="253.46" arrivalSpeed="8.29" duration="243.00" routeLength="2198.96" waitSteps="11" rerouteNo="0" devices="tripinfo_horizontal.23" vType="SUMO_DEFAULT_TYPE" vaporized=""/>
    <tripinfo id="horizontal.24" depart="351.00" departLane="2fi_0" departPos="3.10" departSpeed="0.00" departDelay="11.00" arrival="592.00" arrivalLane="2fi_0" arrivalPos="253.82" arrivalSpeed="8.45" duration="241.00" routeLength="2199.32" waitSteps="7" rerouteNo="0" devices="tripinfo_horizontal.24" vType="SUMO_DEFAULT_TYPE" vaporized=""/>
    <tripinfo id="horizontal.25" depart="363.00" departLane="2fi_0" departPos="3.10" departSpeed="0.00" departDelay="13.00" arrival="594.00" arrivalLane="2fi_0" arrivalPos="253.74" arrivalSpeed="8.49" duration="231.00" routeLength="2199.24" waitSteps="0" rerouteNo="0" devices="tripinfo_horizontal.25" vType="SUMO_DEFAULT_TYPE" vaporized=""/>
    <tripinfo id="horizontal.26" depart="367.00" departLane="2fi_0" departPos="3.10" departSpeed="0.00" departDelay="7.00" arrival="596.00" arrivalLane="2fi_0" arrivalPos="253.91" arrivalSpeed="8.63" duration="229.00" routeLength="2199.41" waitSteps="0" rerouteNo="0" devices="tripinfo_horizontal.26" vType="SUMO_DEFAULT_TYPE" vaporized=""/>
    <tripinfo id="vertical.22" depart="340.00" departLane="3fi_0" departPos="3.10" departSpeed="0.00" departDelay="20.00" arrival="624.00" arrivalLane="3fi_0" arrivalPos="250.48" arrivalSpeed="9.95" duration="284.00" routeLength="2195.98" waitSteps="57" rerouteNo="0" devices="tripinfo_vertical.22" vType="SUMO_DEFAULT_TYPE" vaporized=""/>
    <tripinfo id="vertical.23" depart="348.00" departLane="3fi_0" departPos="3.10" departSpeed="0.00" departDelay="18.00" arrival="626.00" arrivalLane="3fi_0" arrivalPos="250.81" arrivalSpeed="10.10" duration="278.00" routeLength="2196.31" waitSteps="49" rerouteNo="0" devices="tripinfo_vertical.23" vType="SUMO_DEFAULT_TYPE" vaporized=""/>
    <tripinfo id="vertical.24" depart="356.00" departLane="3fi_0" departPos="3.10" departSpeed="0.00" departDelay="16.00" arrival="628.00" arrivalLane="3fi_0" arrivalPos="250.78" arrivalSpeed="9.72" duration="272.00" routeLength="2196.28" waitSteps="43" rerouteNo="0" devices="tripinfo_vertical.24" vType="SUMO_DEFAULT_TYPE" vaporized=""/>
    <tripinfo id="vertical.25" depart="365.00" departLane="3fi_0" departPos="3.10" departSpeed="0.00" departDelay="15.00" arrival="630.00" arrivalLane="3fi_0" arrivalPos="251.07" arrivalSpeed="9.71" duration="265.00" routeLength="2196.57" waitSteps="34" rerouteNo="0" devices="tripinfo_vertical.25" vType="SUMO_DEFAULT_TYPE" vaporized=""/>
    <tripinfo id="vertical.26" depart="373.00" departLane="3fi_0" departPos="3.10" departSpeed="0.00" departDelay="13.00" arrival="632.00" arrivalLane="3fi_0" arrivalPos="251.31" arrivalSpeed="9.74" duration="259.00" routeLength="2196.81" waitSteps="28" rerouteNo="0" devices="tripinfo_vertical.26" vType="SUMO_DEFAULT_TYPE" vaporized=""/>
    <tripinfo id="vertical.27" depart="382.00" departLane="3fi_0" departPos="3.10" departSpeed="0.00" departDelay="12.00" arrival="634.00" arrivalLane="3fi_0" arrivalPos="251.09" arrivalSpeed="9.72" duration="252.00" routeLength="2196.59" waitSteps="21" rerouteNo="0" devices="tripinfo_vertical.27" vType="SUMO_DEFAULT_TYPE" vaporized=""/>
    <tripinfo id="vertical.28" depart="390.00" departLane="3fi_0" departPos="3.10" departSpeed="0.00" departDelay="10.00" arrival="636.00" arrivalLane="3fi_0" arrivalPos="251.22" arrivalSpeed="9.76" duration="246.00" routeLength="2196.72" waitSteps="16" rerouteNo="0" devices="tripinfo_vertical.28" vType="SUMO_DEFAULT_TYPE" vaporized=""/>
    <tripinfo id="vertical.29" depart="398.00" departLane="3fi_0" departPos="3.10" departSpeed="0.00" departDelay="8.00" arrival="638.00" arrivalLane="3fi_0" arrivalPos="250.93" arrivalSpeed="9.86" duration="240.00" routeLength="2196.43" waitSteps="8" rerouteNo="0" devices="tripinfo_vertical.29" vType="SUMO_DEFAULT_TYPE" vaporized=""/>
    <tripinfo id="vertical.30" depart="407.00" departLane="3fi_0" departPos="3.10" departSpeed="0.00" departDelay="7.00" arrival="640.00" arrivalLane="3fi_0" arrivalPos="251.31" arrivalSpeed="9.76" duration="233.00" routeLength="2196.81" waitSteps="0" rerouteNo="0" devices="tripinfo_vertical.30" vType="SUMO_DEFAULT_TYPE" vaporized=""/>
    <tripinfo id="always_right.0" depart="100.00" departLane="1fi_0" departPos="3.10" departSpeed="0.00" departDelay="0.00" arrival="650.00" arrivalLane="1fi_0" arrivalPos="249.66" arrivalSpeed="10.10" duration="550.00" routeLength="4143.76" waitSteps="99" rerouteNo="0" devices="tripinfo_always_right.0" vType="SUMO_DEFAULT_TYPE" vaporized=""/>
    <tripinfo id="always_right.1" depart="110.00" departLane="1fi_0" departPos="3.10" departSpeed="0.00" departDelay="0.00" arrival="652.00" arrivalLane="1fi_0" arrivalPos="250.01" arrivalSpeed="10.26" duration="542.00" routeLength="4144.11" waitSteps="81" rerouteNo="0" devices="tripinfo_always_right.1" vType="SUMO_DEFAULT_TYPE" vaporized=""/>
    <tripinfo id="always_right.2" depart="120.00" departLane="1fi_0" departPos="3.10" departSpeed="0.00" departDelay="0.00" arrival="654.00" arrivalLane="1fi_0" arrivalPos="249.41" arrivalSpeed="10.59" duration="534.00" routeLength="4143.51" waitSteps="73" rerouteNo="0" devices="tripinfo_always_right.2" vType="SUMO_DEFAULT_TYPE" vaporized=""/>
    <tripinfo id="horizontal.27" depart="394.00" departLane="2fi_0" departPos="3.10" departSpeed="0.00" departDelay="24.00" arrival="667.00" arrivalLane="2fi_0" arrivalPos="251.47" arrivalSpeed="9.47" duration="273.00" routeLength="2196.97" waitSteps="47" rerouteNo="0" devices="tripinfo_horizontal.27" vType="SUMO_DEFAULT_TYPE" vaporized=""/>
    <tripinfo id="always_left.0" depart="100.00" departLane="3fi_0" departPos="3.10" departSpeed="0.00" departDelay="0.00" arrival="668.00" arrivalLane="3fi_0" arrivalPos="250.89" arrivalSpeed="9.68" duration="568.00" routeLength="4144.99" waitSteps="120" rerouteNo="0" devices="tripinfo_always_left.0" vType="SUMO_DEFAULT_TYPE" vaporized=""/>
    <tripinfo id="horizontal.28" depart="398.00" departLane="2fi_0" departPos="3.10" departSpeed="0.00" departDelay="18.00" arrival="669.00" arrivalLane="2fi_0" arrivalPos="251.50" arrivalSpeed="9.47" duration="271.00" routeLength="2197.00" waitSteps="45" rerouteNo="0" devices="tripinfo_horizontal.28" vType="SUMO_DEFAULT_TYPE" vaporized=""/>
    <tripinfo id="always_left.1" depart="110.00" departLane="3fi_0" departPos="3.10" departSpeed="0.00" departDelay="0.00" arrival="670.00" arrivalLane="3fi_0" arrivalPos="250.31" arrivalSpeed="10.08" duration="560.00" routeLength="4144.41" waitSteps="108" rerouteNo="0" devices="tripinfo_always_left.1" vType="SUMO_DEFAULT_TYPE" vaporized=""/>
    <tripinfo id="horizontal.29" depart="402.00" departLane="2fi_0" departPos="3.10" departSpeed="0.00" departDelay="12.00" arrival="671.00" arrivalLane="2fi_0" arrivalPos="250.80" arrivalSpeed="9.56" duration="269.00" routeLength="2196.30" waitSteps="42" rerouteNo="0" devices="tripinfo_horizontal.29" vType="SUMO_DEFAULT_TYPE" vaporized=""/>
    <tripinfo id="always_left.2" depart="120.00" departLane="3fi_0" departPos="3.10" departSpeed="0.00" departDelay="0.00" arrival="672.00" arrivalLane="3fi_0" arrivalPos="250.03" arrivalSpeed="10.25" duration="552.00" routeLength="4144.13" waitSteps="96" rerouteNo="0" devices="tripinfo_always_left.2" vType="SUMO_DEFAULT_TYPE" vaporized=""/>
    <tripinfo id="horizontal.30" depart="407.00" departLane="2fi_0" departPos="3.10" departSpeed="0.00" departDelay="7.00" arrival="673.00" arrivalLane="2fi_0" arrivalPos="250.68" arrivalSpeed="9.89" duration="266.00" routeLength="2196.18" waitSteps="37" rerouteNo="0" devices="tripinfo_horizontal.30" vType="SUMO_DEFAULT_TYPE" vaporized=""/>
    <tripinfo id="always_left.3" depart="130.00" departLane="3fi_0" departPos="3.10" departSpeed="0.00" departDelay="0.00" arrival="674.00" arrivalLane="3fi_0" arrivalPos="250.26" arrivalSpeed="10.35" duration="544.00" routeLength="4144.36" waitSteps="84" rerouteNo="0" devices="tripinfo_always_left.3" vType="SUMO_DEFAULT_TYPE" vaporized=""/>
    <tripinfo id="horizontal.31" depart="411.00" departLane="2fi_0" departPos="3.10" departSpeed="0.00" departDelay="1.00" arrival="675.00" arrivalLane="2fi_0" arrivalPos="250.17" arrivalSpeed="9.97" duration="264.00" routeLength="2195.67" waitSteps="36" rerouteNo="0" devices="tripinfo_horizontal.31" vType="SUMO_DEFAULT_TYPE" vaporized=""/>
    <tripinfo id="always_left.4" depart="140.00" departLane="3fi_0" departPos="3.10" departSpeed="0.00" departDelay="0.00" arrival="676.00" arrivalLane="3fi_0" arrivalPos="250.09" arrivalSpeed="9.99" duration="536.00" routeLength="4144.19" waitSteps="82" rerouteNo="0" devices="tripinfo_always_left.4" vType="SUMO_DEFAULT_TYPE" vaporized=""/>
    <tripinfo id="horizontal.32" depart="434.00" departLane="2fi_0" departPos="3.10" departSpeed="0.00" departDelay="14.00" arrival="677.00" arrivalLane="2fi_0" arrivalPos="250.15" arrivalSpeed="10.13" duration="243.00" routeLength="2195.65" waitSteps="15" rerouteNo="0" devices="tripinfo_horizontal.32" vType="SUMO_DEFAULT_TYPE" vaporized=""/>
    <tripinfo id="always_left.5" depart="150.00" departLane="3fi_0" departPos="3.10" departSpeed="0.00" departDelay="0.00" arrival="678.00" arrivalLane="3fi_0" arrivalPos="250.42" arrivalSpeed="10.12" duration="528.00" routeLength="4144.52" waitSteps="79" rerouteNo="0" devices="tripinfo_always_left.5" vType="SUMO_DEFAULT_TYPE" vaporized=""/>
    <tripinfo id="horizontal.33" depart="441.00" departLane="2fi_0" departPos="3.10" departSpeed="0.00" departDelay="11.00" arrival="679.00" arrivalLane="2fi_0" arrivalPos="250.39" arrivalSpeed="10.07" duration="238.00" routeLength="2195.89" waitSteps="9" rerouteNo="0" devices="tripinfo_horizontal.33" vType="SUMO_DEFAULT_TYPE" vaporized=""/>
    <tripinfo id="always_left.6" depart="160.00" departLane="3fi_0" departPos="3.10" departSpeed="0.00" departDelay="0.00" arrival="680.00" arrivalLane="3fi_0" arrivalPos="250.66" arrivalSpeed="10.10" duration="520.00" routeLength="4144.76" waitSteps="73" rerouteNo="0" devices="tripinfo_always_left.6" vType="SUMO_DEFAULT_TYPE" vaporized=""/>
    <tripinfo id="horizontal.34" depart="456.00" departLane="2fi_0" departPos="3.10" departSpeed="0.00" departDelay="16.00" arrival="681.00" arrivalLane="2fi_0" arrivalPos="250.21" arrivalSpeed="9.94" duration="225.00" routeLength="2195.71" waitSteps="0" rerouteNo="0" devices="tripinfo_horizontal.34" vType="SUMO_DEFAULT_TYPE" vaporized=""/>
    <tripinfo id="vertical.31" depart="439.00" departLane="3fi_0" departPos="3.10" departSpeed="0.00" departDelay="29.00" arrival="714.00" arrivalLane="3fi_0" arrivalPos="254.29" arrivalSpeed="7.92" duration="275.00" routeLength="2199.79" waitSteps="47" rerouteNo="0" devices="tripinfo_vertical.31" vType="SUMO_DEFAULT_TYPE" vaporized=""/>
    <tripinfo id="vertical.32" depart="447.00" departLane="3fi_0" departPos="3.10" departSpeed="0.00" departDelay="27.00" arrival="716.00" arrivalLane="3fi_0" arrivalPos="249.86" arrivalSpeed="10.04" duration="269.00" routeLength="2195.36" waitSteps="40" rerouteNo="0" devices="tripinfo_vertical.32" vType="SUMO_DEFAULT_TYPE" vaporized=""/>
    <tripinfo id="vertical.33" depart="460.00" departLane="3fi_0" departPos="3.10" departSpeed="0.00" departDelay="30.00" arrival="718.00" arrivalLane="3fi_0" arrivalPos="249.70" arrivalSpeed="10.32" duration="258.00" routeLength="2195.20" waitSteps="29" rerouteNo="0" devices="tripinfo_vertical.33" vType="SUMO_DEFAULT_TYPE" vaporized=""/>
    <tripinfo id="vertical.34" depart="468.00" departLane="3fi_0" departPos="3.10" departSpeed="0.00" departDelay="28.00" arrival="720.00" arrivalLane="3fi_0" arrivalPos="249.86" arrivalSpeed="10.36" duration="252.00" routeLength="2195.36" waitSteps="22" rerouteNo="0" devices="tripinfo_vertical.34" vType="SUMO_DEFAULT_TYPE" vaporized=""/>
    <tripinfo id="vertical.35" depart="477.00" departLane="3fi_0" departPos="3.10" departSpeed="0.00" departDelay="27.00" arrival="722.00" arrivalLane="3fi_0" arrivalPos="249.47" arrivalSpeed="10.32" duration="245.00" routeLength="2194.97" waitSteps="14" rerouteNo="0" devices="tripinfo_vertical.35" vType="SUMO_DEFAULT_TYPE" vaporized=""/>
    <tripinfo id="vertical.36" depart="492.00" departLane="3fi_0" departPos="3.10" departSpeed="0.00" departDelay="32.00" arrival="724.00" arrivalLane="3fi_0" arrivalPos="249.96" arrivalSpeed="10.46" duration="232.00" routeLength="2195.46" waitSteps="1" rerouteNo="0" devices="tripinfo_vertical.36" vType="SUMO_DEFAULT_TYPE" vaporized=""/>
    <tripinfo id="vertical.37" depart="500.00" departLane="3fi_0" departPos="3.10" departSpeed="0.00" departDelay="30.00" arrival="726.00" arrivalLane="3fi_0" arrivalPos="250.28" arrivalSpeed="10.33" duration="226.00" routeLength="2195.78" waitSteps="0" rerouteNo="0" devices="tripinfo_vertical.37" vType="SUMO_DEFAULT_TYPE" vaporized=""/>
    <tripinfo id="always_right.3" depart="130.00" departLane="1fi_0" departPos="3.10" departSpeed="0.00" departDelay="0.00" arrival="739.00" arrivalLane="1fi_0" arrivalPos="249.77" arrivalSpeed="10.54" duration="609.00" routeLength="4143.87" waitSteps="138" rerouteNo="0" devices="tripinfo_always_right.3" vType="SUMO_DEFAULT_TYPE" vaporized=""/>
    <tripinfo id="always_right.4" depart="140.00" departLane="1fi_0" departPos="3.10" departSpeed="0.00" departDelay="0.00" arrival="741.00" arrivalLane="1fi_0" arrivalPos="249.69" arrivalSpeed="10.16" duration="601.00" routeLength="4143.79" waitSteps="108" rerouteNo="0" devices="tripinfo_always_right.4" vType="SUMO_DEFAULT_TYPE" vaporized=""/>