<?xml version="1.0" encoding="UTF-8"?>

<!-- generated on Thu Jan  5 15:50:43 2017 by SUMO Version dev-SVN-r22466
<?xml version="1.0" encoding="UTF-8"?>

<configuration xmlns:xsi="http://www.w3.org/2001/XMLSchema-instance" xsi:noNamespaceSchemaLocation="http://sumo.dlr.de/xsd/sumoConfiguration.xsd">

    <input>
        <net-file value="net.net.xml"/>
        <route-files value="input_routes.rou.xml"/>
    </input>

    <output>
        <tripinfo-output value="tripinfos.xml"/>
    </output>

    <time>
        <begin value="0"/>
        <end value="1000"/>
    </time>

    <report>
        <xml-validation value="never"/>
        <duration-log.disable value="true"/>
        <no-step-log value="true"/>
    </report>

    <mesoscopic>
        <mesosim value="true"/>
    </mesoscopic>

</configuration>
-->

<tripinfos xmlns:xsi="http://www.w3.org/2001/XMLSchema-instance" xsi:noNamespaceSchemaLocation="http://sumo.dlr.de/xsd/tripinfo_file.xsd">
    <tripinfo id="vertical.0" depart="100.00" departLane="" departPos="0.00" departSpeed="8.95" departDelay="0.00" arrival="292.00" arrivalLane="" arrivalPos="248.50" arrivalSpeed="11.11" duration="192.00" routeLength="2197.10" waitSteps="0" timeLoss="1.80" rerouteNo="0" devices="tripinfo_vertical.0" vType="DEFAULT_VEHTYPE" vaporized=""/>
    <tripinfo id="horizontal.0" depart="100.00" departLane="" departPos="0.00" departSpeed="11.11" departDelay="0.00" arrival="292.00" arrivalLane="" arrivalPos="248.50" arrivalSpeed="11.11" duration="192.00" routeLength="2197.10" waitSteps="1" timeLoss="1.80" rerouteNo="0" devices="tripinfo_horizontal.0" vType="DEFAULT_VEHTYPE" vaporized=""/>
    <tripinfo id="vertical.1" depart="110.00" departLane="" departPos="0.00" departSpeed="8.95" departDelay="0.00" arrival="302.00" arrivalLane="" arrivalPos="248.50" arrivalSpeed="11.11" duration="192.00" routeLength="2197.10" waitSteps="0" timeLoss="1.80" rerouteNo="0" devices="tripinfo_vertical.1" vType="DEFAULT_VEHTYPE" vaporized=""/>
    <tripinfo id="horizontal.1" depart="110.00" departLane="" departPos="0.00" departSpeed="11.11" departDelay="0.00" arrival="302.00" arrivalLane="" arrivalPos="248.50" arrivalSpeed="11.11" duration="192.00" routeLength="2197.10" waitSteps="1" timeLoss="1.80" rerouteNo="0" devices="tripinfo_horizontal.1" vType="DEFAULT_VEHTYPE" vaporized=""/>
    <tripinfo id="vertical.2" depart="120.00" departLane="" departPos="0.00" departSpeed="8.95" departDelay="0.00" arrival="312.00" arrivalLane="" arrivalPos="248.50" arrivalSpeed="11.11" duration="192.00" routeLength="2197.10" waitSteps="0" timeLoss="1.80" rerouteNo="0" devices="tripinfo_vertical.2" vType="DEFAULT_VEHTYPE" vaporized=""/>
    <tripinfo id="horizontal.2" depart="120.00" departLane="" departPos="0.00" departSpeed="11.11" departDelay="0.00" arrival="312.00" arrivalLane="" arrivalPos="248.50" arrivalSpeed="11.11" duration="192.00" routeLength="2197.10" waitSteps="1" timeLoss="1.80" rerouteNo="0" devices="tripinfo_horizontal.2" vType="DEFAULT_VEHTYPE" vaporized=""/>
    <tripinfo id="vertical.3" depart="130.00" departLane="" departPos="0.00" departSpeed="8.95" departDelay="0.00" arrival="322.00" arrivalLane="" arrivalPos="248.50" arrivalSpeed="11.11" duration="192.00" routeLength="2197.10" waitSteps="0" timeLoss="1.80" rerouteNo="0" devices="tripinfo_vertical.3" vType="DEFAULT_VEHTYPE" vaporized=""/>
    <tripinfo id="horizontal.3" depart="130.00" departLane="" departPos="0.00" departSpeed="11.11" departDelay="0.00" arrival="322.00" arrivalLane="" arrivalPos="248.50" arrivalSpeed="11.11" duration="192.00" routeLength="2197.10" waitSteps="1" timeLoss="1.80" rerouteNo="0" devices="tripinfo_horizontal.3" vType="DEFAULT_VEHTYPE" vaporized=""/>
    <tripinfo id="vertical.4" depart="140.00" departLane="" departPos="0.00" departSpeed="8.95" departDelay="0.00" arrival="332.00" arrivalLane="" arrivalPos="248.50" arrivalSpeed="11.11" duration="192.00" routeLength="2197.10" waitSteps="0" timeLoss="1.80" rerouteNo="0" devices="tripinfo_vertical.4" vType="DEFAULT_VEHTYPE" vaporized=""/>
    <tripinfo id="horizontal.4" depart="140.00" departLane="" departPos="0.00" departSpeed="11.11" departDelay="0.00" arrival="332.00" arrivalLane="" arrivalPos="248.50" arrivalSpeed="11.11" duration="192.00" routeLength="2197.10" waitSteps="1" timeLoss="1.80" rerouteNo="0" devices="tripinfo_horizontal.4" vType="DEFAULT_VEHTYPE" vaporized=""/>
    <tripinfo id="vertical.5" depart="150.00" departLane="" departPos="0.00" departSpeed="8.95" departDelay="0.00" arrival="342.00" arrivalLane="" arrivalPos="248.50" arrivalSpeed="11.11" duration="192.00" routeLength="2197.10" waitSteps="0" timeLoss="1.80" rerouteNo="0" devices="tripinfo_vertical.5" vType="DEFAULT_VEHTYPE" vaporized=""/>
    <tripinfo id="horizontal.5" depart="150.00" departLane="" departPos="0.00" departSpeed="11.11" departDelay="0.00" arrival="342.00" arrivalLane="" arrivalPos="248.50" arrivalSpeed="11.11" duration="192.00" routeLength="2197.10" waitSteps="1" timeLoss="1.80" rerouteNo="0" devices="tripinfo_horizontal.5" vType="DEFAULT_VEHTYPE" vaporized=""/>
    <tripinfo id="vertical.6" depart="160.00" departLane="" departPos="0.00" departSpeed="8.95" departDelay="0.00" arrival="352.00" arrivalLane="" arrivalPos="248.50" arrivalSpeed="11.11" duration="192.00" routeLength="2197.10" waitSteps="0" timeLoss="1.80" rerouteNo="0" devices="tripinfo_vertical.6" vType="DEFAULT_VEHTYPE" vaporized=""/>
    <tripinfo id="horizontal.6" depart="160.00" departLane="" departPos="0.00" departSpeed="11.11" departDelay="0.00" arrival="352.00" arrivalLane="" arrivalPos="248.50" arrivalSpeed="11.11" duration="192.00" routeLength="2197.10" waitSteps="1" timeLoss="1.80" rerouteNo="0" devices="tripinfo_horizontal.6" vType="DEFAULT_VEHTYPE" vaporized=""/>
    <tripinfo id="vertical.7" depart="170.00" departLane="" departPos="0.00" departSpeed="8.95" departDelay="0.00" arrival="362.00" arrivalLane="" arrivalPos="248.50" arrivalSpeed="11.11" duration="192.00" routeLength="2197.10" waitSteps="0" timeLoss="1.80" rerouteNo="0" devices="tripinfo_vertical.7" vType="DEFAULT_VEHTYPE" vaporized=""/>
    <tripinfo id="horizontal.7" depart="170.00" departLane="" departPos="0.00" departSpeed="11.11" departDelay="0.00" arrival="362.00" arrivalLane="" arrivalPos="248.50" arrivalSpeed="11.11" duration="192.00" routeLength="2197.10" waitSteps="1" timeLoss="1.80" rerouteNo="0" devices="tripinfo_horizontal.7" vType="DEFAULT_VEHTYPE" vaporized=""/>
    <tripinfo id="vertical.8" depart="180.00" departLane="" departPos="0.00" departSpeed="8.95" departDelay="0.00" arrival="372.00" arrivalLane="" arrivalPos="248.50" arrivalSpeed="11.11" duration="192.00" routeLength="2197.10" waitSteps="0" timeLoss="1.80" rerouteNo="0" devices="tripinfo_vertical.8" vType="DEFAULT_VEHTYPE" vaporized=""/>
    <tripinfo id="horizontal.8" depart="180.00" departLane="" departPos="0.00" departSpeed="11.11" departDelay="0.00" arrival="372.00" arrivalLane="" arrivalPos="248.50" arrivalSpeed="11.11" duration="192.00" routeLength="2197.10" waitSteps="1" timeLoss="1.80" rerouteNo="0" devices="tripinfo_horizontal.8" vType="DEFAULT_VEHTYPE" vaporized=""/>
    <tripinfo id="vertical.9" depart="190.00" departLane="" departPos="0.00" departSpeed="8.95" departDelay="0.00" arrival="382.00" arrivalLane="" arrivalPos="248.50" arrivalSpeed="11.11" duration="192.00" routeLength="2197.10" waitSteps="0" timeLoss="1.80" rerouteNo="0" devices="tripinfo_vertical.9" vType="DEFAULT_VEHTYPE" vaporized=""/>
    <tripinfo id="horizontal.9" depart="190.00" departLane="" departPos="0.00" departSpeed="11.11" departDelay="0.00" arrival="382.00" arrivalLane="" arrivalPos="248.50" arrivalSpeed="11.11" duration="192.00" routeLength="2197.10" waitSteps="1" timeLoss="1.80" rerouteNo="0" devices="tripinfo_horizontal.9" vType="DEFAULT_VEHTYPE" vaporized=""/>
    <tripinfo id="vertical.10" depart="200.00" departLane="" departPos="0.00" departSpeed="8.95" departDelay="0.00" arrival="392.00" arrivalLane="" arrivalPos="248.50" arrivalSpeed="11.11" duration="192.00" routeLength="2197.10" waitSteps="0" timeLoss="1.80" rerouteNo="0" devices="tripinfo_vertical.10" vType="DEFAULT_VEHTYPE" vaporized=""/>
    <tripinfo id="horizontal.10" depart="200.00" departLane="" departPos="0.00" departSpeed="11.11" departDelay="0.00" arrival="392.00" arrivalLane="" arrivalPos="248.50" arrivalSpeed="11.11" duration="192.00" routeLength="2197.10" waitSteps="1" timeLoss="1.80" rerouteNo="0" devices="tripinfo_horizontal.10" vType="DEFAULT_VEHTYPE" vaporized=""/>
    <tripinfo id="vertical.11" depart="210.00" departLane="" departPos="0.00" departSpeed="8.95" departDelay="0.00" arrival="402.00" arrivalLane="" arrivalPos="248.50" arrivalSpeed="11.11" duration="192.00" routeLength="2197.10" waitSteps="0" timeLoss="1.80" rerouteNo="0" devices="tripinfo_vertical.11" vType="DEFAULT_VEHTYPE" vaporized=""/>
    <tripinfo id="horizontal.11" depart="210.00" departLane="" departPos="0.00" departSpeed="11.11" departDelay="0.00" arrival="402.00" arrivalLane="" arrivalPos="248.50" arrivalSpeed="11.11" duration="192.00" routeLength="2197.10" waitSteps="1" timeLoss="1.80" rerouteNo="0" devices="tripinfo_horizontal.11" vType="DEFAULT_VEHTYPE" vaporized=""/>
    <tripinfo id="vertical.12" depart="220.00" departLane="" departPos="0.00" departSpeed="8.95" departDelay="0.00" arrival="412.00" arrivalLane="" arrivalPos="248.50" arrivalSpeed="11.11" duration="192.00" routeLength="2197.10" waitSteps="0" timeLoss="1.80" rerouteNo="0" devices="tripinfo_vertical.12" vType="DEFAULT_VEHTYPE" vaporized=""/>
    <tripinfo id="horizontal.12" depart="220.00" departLane="" departPos="0.00" departSpeed="11.11" departDelay="0.00" arrival="412.00" arrivalLane="" arrivalPos="248.50" arrivalSpeed="11.11" duration="192.00" routeLength="2197.10" waitSteps="1" timeLoss="1.80" rerouteNo="0" devices="tripinfo_horizontal.12" vType="DEFAULT_VEHTYPE" vaporized=""/>
    <tripinfo id="vertical.13" depart="230.00" departLane="" departPos="0.00" departSpeed="8.95" departDelay="0.00" arrival="422.00" arrivalLane="" arrivalPos="248.50" arrivalSpeed="11.11" duration="192.00" routeLength="2197.10" waitSteps="0" timeLoss="1.80" rerouteNo="0" devices="tripinfo_vertical.13" vType="DEFAULT_VEHTYPE" vaporized=""/>
    <tripinfo id="horizontal.13" depart="230.00" departLane="" departPos="0.00" departSpeed="11.11" departDelay="0.00" arrival="422.00" arrivalLane="" arrivalPos="248.50" arrivalSpeed="11.11" duration="192.00" routeLength="2197.10" waitSteps="1" timeLoss="1.80" rerouteNo="0" devices="tripinfo_horizontal.13" vType="DEFAULT_VEHTYPE" vaporized=""/>
    <tripinfo id="vertical.14" depart="240.00" departLane="" departPos="0.00" departSpeed="8.95" departDelay="0.00" arrival="432.00" arrivalLane="" arrivalPos="248.50" arrivalSpeed="11.11" duration="192.00" routeLength="2197.10" waitSteps="0" timeLoss="1.80" rerouteNo="0" devices="tripinfo_vertical.14" vType="DEFAULT_VEHTYPE" vaporized=""/>
    <tripinfo id="horizontal.14" depart="240.00" departLane="" departPos="0.00" departSpeed="11.11" departDelay="0.00" arrival="432.00" arrivalLane="" arrivalPos="248.50" arrivalSpeed="11.11" duration="192.00" routeLength="2197.10" waitSteps="1" timeLoss="1.80" rerouteNo="0" devices="tripinfo_horizontal.14" vType="DEFAULT_VEHTYPE" vaporized=""/>
    <tripinfo id="vertical.15" depart="250.00" departLane="" departPos="0.00" departSpeed="8.95" departDelay="0.00" arrival="442.00" arrivalLane="" arrivalPos="248.50" arrivalSpeed="11.11" duration="192.00" routeLength="2197.10" waitSteps="0" timeLoss="1.80" rerouteNo="0" devices="tripinfo_vertical.15" vType="DEFAULT_VEHTYPE" vaporized=""/>
    <tripinfo id="horizontal.15" depart="250.00" departLane="" departPos="0.00" departSpeed="11.11" departDelay="0.00" arrival="442.00" arrivalLane="" arrivalPos="248.50" arrivalSpeed="11.11" duration="192.00" routeLength="2197.10" waitSteps="1" timeLoss="1.80" rerouteNo="0" devices="tripinfo_horizontal.15" vType="DEFAULT_VEHTYPE" vaporized=""/>
    <tripinfo id="vertical.16" depart="260.00" departLane="" departPos="0.00" departSpeed="8.95" departDelay="0.00" arrival="452.00" arrivalLane="" arrivalPos="248.50" arrivalSpeed="11.11" duration="192.00" routeLength="2197.10" waitSteps="0" timeLoss="1.80" rerouteNo="0" devices="tripinfo_vertical.16" vType="DEFAULT_VEHTYPE" vaporized=""/>
    <tripinfo id="horizontal.16" depart="260.00" departLane="" departPos="0.00" departSpeed="11.11" departDelay="0.00" arrival="452.00" arrivalLane="" arrivalPos="248.50" arrivalSpeed="11.11" duration="192.00" routeLength="2197.10" waitSteps="1" timeLoss="1.80" rerouteNo="0" devices="tripinfo_horizontal.16" vType="DEFAULT_VEHTYPE" vaporized=""/>
    <tripinfo id="always_right.0" depart="100.00" departLane="" departPos="0.00" departSpeed="11.11" departDelay="0.00" arrival="459.00" arrivalLane="" arrivalPos="248.50" arrivalSpeed="11.11" duration="359.00" routeLength="4145.70" waitSteps="0" timeLoss="2.19" rerouteNo="0" devices="tripinfo_always_right.0" vType="DEFAULT_VEHTYPE" vaporized=""/>
    <tripinfo id="always_left.0" depart="100.00" departLane="" departPos="0.00" departSpeed="11.11" departDelay="0.00" arrival="460.00" arrivalLane="" arrivalPos="248.50" arrivalSpeed="11.11" duration="360.00" routeLength="4145.70" waitSteps="0" timeLoss="3.80" rerouteNo="0" devices="tripinfo_always_left.0" vType="DEFAULT_VEHTYPE" vaporized=""/>
    <tripinfo id="horizontal.17" depart="270.00" departLane="" departPos="0.00" departSpeed="10.49" departDelay="0.00" arrival="462.00" arrivalLane="" arrivalPos="248.50" arrivalSpeed="11.11" duration="192.00" routeLength="2197.10" waitSteps="1" timeLoss="1.80" rerouteNo="0" devices="tripinfo_horizontal.17" vType="DEFAULT_VEHTYPE" vaporized=""/>
    <tripinfo id="vertical.17" depart="270.00" departLane="" departPos="0.00" departSpeed="8.54" departDelay="0.00" arrival="462.00" arrivalLane="" arrivalPos="248.50" arrivalSpeed="11.11" duration="192.00" routeLength="2197.10" waitSteps="0" timeLoss="2.25" rerouteNo="0" devices="tripinfo_vertical.17" vType="DEFAULT_VEHTYPE" vaporized=""/>
    <tripinfo id="always_right.1" depart="110.00" departLane="" departPos="0.00" departSpeed="11.11" departDelay="0.00" arrival="469.00" arrivalLane="" arrivalPos="248.50" arrivalSpeed="11.11" duration="359.00" routeLength="4145.70" waitSteps="0" timeLoss="2.63" rerouteNo="0" devices="tripinfo_always_right.1" vType="DEFAULT_VEHTYPE" vaporized=""/>
    <tripinfo id="always_left.1" depart="110.00" departLane="" departPos="0.00" departSpeed="11.11" departDelay="0.00" arrival="470.00" arrivalLane="" arrivalPos="248.50" arrivalSpeed="11.11" duration="360.00" routeLength="4145.70" waitSteps="0" timeLoss="3.80" rerouteNo="0" devices="tripinfo_always_left.1" vType="DEFAULT_VEHTYPE" vaporized=""/>
    <tripinfo id="horizontal.18" depart="280.00" departLane="" departPos="0.00" departSpeed="10.49" departDelay="0.00" arrival="472.00" arrivalLane="" arrivalPos="248.50" arrivalSpeed="11.11" duration="192.00" routeLength="2197.10" waitSteps="1" timeLoss="1.80" rerouteNo="0" devices="tripinfo_horizontal.18" vType="DEFAULT_VEHTYPE" vaporized=""/>
    <tripinfo id="vertical.18" depart="280.00" departLane="" departPos="0.00" departSpeed="8.54" departDelay="0.00" arrival="472.00" arrivalLane="" arrivalPos="248.50" arrivalSpeed="11.11" duration="192.00" routeLength="2197.10" waitSteps="0" timeLoss="2.25" rerouteNo="0" devices="tripinfo_vertical.18" vType="DEFAULT_VEHTYPE" vaporized=""/>
    <tripinfo id="always_right.2" depart="120.00" departLane="" departPos="0.00" departSpeed="11.11" departDelay="0.00" arrival="479.00" arrivalLane="" arrivalPos="248.50" arrivalSpeed="11.11" duration="359.00" routeLength="4145.70" waitSteps="0" timeLoss="2.63" rerouteNo="0" devices="tripinfo_always_right.2" vType="DEFAULT_VEHTYPE" vaporized=""/>
    <tripinfo id="always_left.2" depart="120.00" departLane="" departPos="0.00" departSpeed="11.11" departDelay="0.00" arrival="480.00" arrivalLane="" arrivalPos="248.50" arrivalSpeed="11.11" duration="360.00" routeLength="4145.70" waitSteps="0" timeLoss="3.80" rerouteNo="0" devices="tripinfo_always_left.2" vType="DEFAULT_VEHTYPE" vaporized=""/>
    <tripinfo id="horizontal.19" depart="290.00" departLane="" departPos="0.00" departSpeed="10.49" departDelay="0.00" arrival="482.00" arrivalLane="" arrivalPos="248.50" arrivalSpeed="11.11" duration="192.00" routeLength="2197.10" waitSteps="1" timeLoss="1.80" rerouteNo="0" devices="tripinfo_horizontal.19" vType="DEFAULT_VEHTYPE" vaporized=""/>
    <tripinfo id="vertical.19" depart="290.00" departLane="" departPos="0.00" departSpeed="8.54" departDelay="0.00" arrival="482.00" arrivalLane="" arrivalPos="248.50" arrivalSpeed="11.11" duration="192.00" routeLength="2197.10" waitSteps="0" timeLoss="2.25" rerouteNo="0" devices="tripinfo_vertical.19" vType="DEFAULT_VEHTYPE" vaporized=""/>
    <tripinfo id="always_right.3" depart="130.00" departLane="" departPos="0.00" departSpeed="11.11" departDelay="0.00" arrival="489.00" arrivalLane="" arrivalPos="248.50" arrivalSpeed="11.11" duration="359.00" routeLength="4145.70" waitSteps="0" timeLoss="2.63" rerouteNo="0" devices="tripinfo_always_right.3" vType="DEFAULT_VEHTYPE" vaporized=""/>
    <tripinfo id="always_left.3" depart="130.00" departLane="" departPos="0.00" departSpeed="11.11" departDelay="0.00" arrival="490.00" arrivalLane="" arrivalPos="248.50" arrivalSpeed="11.11" duration="360.00" routeLength="4145.70" waitSteps="0" timeLoss="3.80" rerouteNo="0" devices="tripinfo_always_left.3" vType="DEFAULT_VEHTYPE" vaporized=""/>
    <tripinfo id="horizontal.20" depart="300.00" departLane="" departPos="0.00" departSpeed="10.49" departDelay="0.00" arrival="492.00" arrivalLane="" arrivalPos="248.50" arrivalSpeed="11.11" duration="192.00" routeLength="2197.10" waitSteps="1" timeLoss="1.80" rerouteNo="0" devices="tripinfo_horizontal.20" vType="DEFAULT_VEHTYPE" vaporized=""/>
    <tripinfo id="vertical.20" depart="300.00" departLane="" departPos="0.00" departSpeed="8.54" departDelay="0.00" arrival="492.00" arrivalLane="" arrivalPos="248.50" arrivalSpeed="11.11" duration="192.00" routeLength="2197.10" waitSteps="0" timeLoss="2.25" rerouteNo="0" devices="tripinfo_vertical.20" vType="DEFAULT_VEHTYPE" vaporized=""/>
    <tripinfo id="always_right.4" depart="140.00" departLane="" departPos="0.00" departSpeed="11.11" departDelay="0.00" arrival="499.00" arrivalLane="" arrivalPos="248.50" arrivalSpeed="11.11" duration="359.00" routeLength="4145.70" waitSteps="0" timeLoss="2.63" rerouteNo="0" devices="tripinfo_always_right.4" vType="DEFAULT_VEHTYPE" vaporized=""/>
    <tripinfo id="always_left.4" depart="140.00" departLane="" departPos="0.00" departSpeed="11.11" departDelay="0.00" arrival="500.00" arrivalLane="" arrivalPos="248.50" arrivalSpeed="11.11" duration="360.00" routeLength="4145.70" waitSteps="0" timeLoss="3.80" rerouteNo="0" devices="tripinfo_always_left.4" vType="DEFAULT_VEHTYPE" vaporized=""/>
    <tripinfo id="horizontal.21" depart="310.00" departLane="" departPos="0.00" departSpeed="10.49" departDelay="0.00" arrival="502.00" arrivalLane="" arrivalPos="248.50" arrivalSpeed="11.11" duration="192.00" routeLength="2197.10" waitSteps="1" timeLoss="1.80" rerouteNo="0" devices="tripinfo_horizontal.21" vType="DEFAULT_VEHTYPE" vaporized=""/>
    <tripinfo id="vertical.21" depart="310.00" departLane="" departPos="0.00" departSpeed="8.54" departDelay="0.00" arrival="502.00" arrivalLane="" arrivalPos="248.50" arrivalSpeed="11.11" duration="192.00" routeLength="2197.10" waitSteps="0" timeLoss="2.25" rerouteNo="0" devices="tripinfo_vertical.21" vType="DEFAULT_VEHTYPE" vaporized=""/>
    <tripinfo id="always_right.5" depart="150.00" departLane="" departPos="0.00" departSpeed="11.11" departDelay="0.00" arrival="509.00" arrivalLane="" arrivalPos="248.50" arrivalSpeed="11.11" duration="359.00" routeLength="4145.70" waitSteps="0" timeLoss="2.63" rerouteNo="0" devices="tripinfo_always_right.5" vType="DEFAULT_VEHTYPE" vaporized=""/>
    <tripinfo id="always_left.5" depart="150.00" departLane="" departPos="0.00" departSpeed="11.11" departDelay="0.00" arrival="510.00" arrivalLane="" arrivalPos="248.50" arrivalSpeed="11.11" duration="360.00" routeLength="4145.70" waitSteps="0" timeLoss="3.80" rerouteNo="0" devices="tripinfo_always_left.5" vType="DEFAULT_VEHTYPE" vaporized=""/>
    <tripinfo id="horizontal.22" depart="320.00" departLane="" departPos="0.00" departSpeed="10.49" departDelay="0.00" arrival="512.00" arrivalLane="" arrivalPos="248.50" arrivalSpeed="11.11" duration="192.00" routeLength="2197.10" waitSteps="1" timeLoss="1.80" rerouteNo="0" devices="tripinfo_horizontal.22" vType="DEFAULT_VEHTYPE" vaporized=""/>
    <tripinfo id="vertical.22" depart="320.00" departLane="" departPos="0.00" departSpeed="8.54" departDelay="0.00" arrival="512.00" arrivalLane="" arrivalPos="248.50" arrivalSpeed="11.11" duration="192.00" routeLength="2197.10" waitSteps="0" timeLoss="2.25" rerouteNo="0" devices="tripinfo_vertical.22" vType="DEFAULT_VEHTYPE" vaporized=""/>
    <tripinfo id="always_right.6" depart="160.00" departLane="" departPos="0.00" departSpeed="11.11" departDelay="0.00" arrival="519.00" arrivalLane="" arrivalPos="248.50" arrivalSpeed="11.11" duration="359.00" routeLength="4145.70" waitSteps="0" timeLoss="2.63" rerouteNo="0" devices="tripinfo_always_right.6" vType="DEFAULT_VEHTYPE" vaporized=""/>
    <tripinfo id="always_left.6" depart="160.00" departLane="" departPos="0.00" departSpeed="11.11" departDelay="0.00" arrival="520.00" arrivalLane="" arrivalPos="248.50" arrivalSpeed="11.11" duration="360.00" routeLength="4145.70" waitSteps="0" timeLoss="3.80" rerouteNo="0" devices="tripinfo_always_left.6" vType="DEFAULT_VEHTYPE" vaporized=""/>
    <tripinfo id="horizontal.23" depart="330.00" departLane="" departPos="0.00" departSpeed="10.49" departDelay="0.00" arrival="522.00" arrivalLane="" arrivalPos="248.50" arrivalSpeed="11.11" duration="192.00" routeLength="2197.10" waitSteps="1" timeLoss="1.80" rerouteNo="0" devices="tripinfo_horizontal.23" vType="DEFAULT_VEHTYPE" vaporized=""/>
    <tripinfo id="vertical.23" depart="330.00" departLane="" departPos="0.00" departSpeed="8.54" departDelay="0.00" arrival="522.00" arrivalLane="" arrivalPos="248.50" arrivalSpeed="11.11" duration="192.00" routeLength="2197.10" waitSteps="0" timeLoss="2.25" rerouteNo="0" devices="tripinfo_vertical.23" vType="DEFAULT_VEHTYPE" vaporized=""/>
    <tripinfo id="always_right.7" depart="170.00" departLane="" departPos="0.00" departSpeed="11.11" departDelay="0.00" arrival="529.00" arrivalLane="" arrivalPos="248.50" arrivalSpeed="11.11" duration="359.00" routeLength="4145.70" waitSteps="0" timeLoss="2.63" rerouteNo="0" devices="tripinfo_always_right.7" vType="DEFAULT_VEHTYPE" vaporized=""/>
    <tripinfo id="always_left.7" depart="170.00" departLane="" departPos="0.00" departSpeed="11.11" departDelay="0.00" arrival="530.00" arrivalLane="" arrivalPos="248.50" arrivalSpeed="11.11" duration="360.00" routeLength="4145.70" waitSteps="0" timeLoss="3.80" rerouteNo="0" devices="tripinfo_always_left.7" vType="DEFAULT_VEHTYPE" vaporized=""/>
    <tripinfo id="horizontal.24" depart="340.00" departLane="" departPos="0.00" departSpeed="10.49" departDelay="0.00" arrival="532.00" arrivalLane="" arrivalPos="248.50" arrivalSpeed="11.11" duration="192.00" routeLength="2197.10" waitSteps="1" timeLoss="1.80" rerouteNo="0" devices="tripinfo_horizontal.24" vType="DEFAULT_VEHTYPE" vaporized=""/>
    <tripinfo id="vertical.24" depart="340.00" departLane="" departPos="0.00" departSpeed="8.54" departDelay="0.00" arrival="532.00" arrivalLane="" arrivalPos="248.50" arrivalSpeed="11.11" duration="192.00" routeLength="2197.10" waitSteps="0" timeLoss="2.25" rerouteNo="0" devices="tripinfo_vertical.24" vType="DEFAULT_VEHTYPE" vaporized=""/>
    <tripinfo id="always_right.8" depart="180.00" departLane="" departPos="0.00" departSpeed="11.11" departDelay="0.00" arrival="539.00" arrivalLane="" arrivalPos="248.50" arrivalSpeed="11.11" duration="359.00" routeLength="4145.70" waitSteps="0" timeLoss="2.63" rerouteNo="0" devices="tripinfo_always_right.8" vType="DEFAULT_VEHTYPE" vaporized=""/>
    <tripinfo id="always_left.8" depart="180.00" departLane="" departPos="0.00" departSpeed="11.11" departDelay="0.00" arrival="540.00" arrivalLane="" arrivalPos="248.50" arrivalSpeed="11.11" duration="360.00" routeLength="4145.70" waitSteps="0" timeLoss="3.80" rerouteNo="0" devices="tripinfo_always_left.8" vType="DEFAULT_VEHTYPE" vaporized=""/>
    <tripinfo id="horizontal.25" depart="350.00" departLane="" departPos="0.00" departSpeed="10.49" departDelay="0.00" arrival="542.00" arrivalLane="" arrivalPos="248.50" arrivalSpeed="11.11" duration="192.00" routeLength="2197.10" waitSteps="1" timeLoss="1.80" rerouteNo="0" devices="tripinfo_horizontal.25" vType="DEFAULT_VEHTYPE" vaporized=""/>
    <tripinfo id="vertical.25" depart="350.00" departLane="" departPos="0.00" departSpeed="8.54" departDelay="0.00" arrival="542.00" arrivalLane="" arrivalPos="248.50" arrivalSpeed="11.11" duration="192.00" routeLength="2197.10" waitSteps="0" timeLoss="2.25" rerouteNo="0" devices="tripinfo_vertical.25" vType="DEFAULT_VEHTYPE" vaporized=""/>
    <tripinfo id="always_right.9" depart="190.00" departLane="" departPos="0.00" departSpeed="11.11" departDelay="0.00" arrival="549.00" arrivalLane="" arrivalPos="248.50" arrivalSpeed="11.11" duration="359.00" routeLength="4145.70" waitSteps="0" timeLoss="2.63" rerouteNo="0" devices="tripinfo_always_right.9" vType="DEFAULT_VEHTYPE" vaporized=""/>
    <tripinfo id="always_left.9" depart="190.00" departLane="" departPos="0.00" departSpeed="11.11" departDelay="0.00" arrival="551.00" arrivalLane="" arrivalPos="248.50" arrivalSpeed="11.11" duration="361.00" routeLength="4145.70" waitSteps="0" timeLoss="4.24" rerouteNo="0" devices="tripinfo_always_left.9" vType="DEFAULT_VEHTYPE" vaporized=""/>
    <tripinfo id="horizontal.26" depart="360.00" departLane="" departPos="0.00" departSpeed="10.49" departDelay="0.00" arrival="552.00" arrivalLane="" arrivalPos="248.50" arrivalSpeed="11.11" duration="192.00" routeLength="2197.10" waitSteps="1" timeLoss="1.80" rerouteNo="0" devices="tripinfo_horizontal.26" vType="DEFAULT_VEHTYPE" vaporized=""/>
    <tripinfo id="vertical.26" depart="360.00" departLane="" departPos="0.00" departSpeed="8.54" departDelay="0.00" arrival="552.00" arrivalLane="" arrivalPos="248.50" arrivalSpeed="11.11" duration="192.00" routeLength="2197.10" waitSteps="0" timeLoss="2.25" rerouteNo="0" devices="tripinfo_vertical.26" vType="DEFAULT_VEHTYPE" vaporized=""/>
    <tripinfo id="always_left.10" depart="200.00" departLane="" departPos="0.00" departSpeed="11.11" departDelay="0.00" arrival="559.00" arrivalLane="" arrivalPos="248.50" arrivalSpeed="11.11" duration="359.00" routeLength="4145.70" waitSteps="0" timeLoss="2.44" rerouteNo="0" devices="tripinfo_always_left.10" vType="DEFAULT_VEHTYPE" vaporized=""/>
    <tripinfo id="always_right.10" depart="200.00" departLane="" departPos="0.00" departSpeed="11.11" departDelay="0.00" arrival="559.00" arrivalLane="" arrivalPos="248.50" arrivalSpeed="11.11" duration="359.00" routeLength="4145.70" waitSteps="0" timeLoss="2.63" rerouteNo="0" devices="tripinfo_always_right.10" vType="DEFAULT_VEHTYPE" vaporized=""/>
    <tripinfo id="horizontal.27" depart="370.00" departLane="" departPos="0.00" departSpeed="10.49" departDelay="0.00" arrival="562.00" arrivalLane="" arrivalPos="248.50" arrivalSpeed="11.11" duration="192.00" routeLength="2197.10" waitSteps="1" timeLoss="1.80" rerouteNo="0" devices="tripinfo_horizontal.27" vType="DEFAULT_VEHTYPE" vaporized=""/>
    <tripinfo id="vertical.27" depart="370.00" departLane="" departPos="0.00" departSpeed="8.54" departDelay="0.00" arrival="562.00" arrivalLane="" arrivalPos="248.50" arrivalSpeed="11.11" duration="192.00" routeLength="2197.10" waitSteps="0" timeLoss="2.25" rerouteNo="0" devices="tripinfo_vertical.27" vType="DEFAULT_VEHTYPE" vaporized=""/>
    <tripinfo id="always_left.11" depart="210.00" departLane="" departPos="0.00" departSpeed="11.11" departDelay="0.00" arrival="569.00" arrivalLane="" arrivalPos="248.50" arrivalSpeed="11.11" duration="359.00" routeLength="4145.70" waitSteps="0" timeLoss="2.44" rerouteNo="0" devices="tripinfo_always_left.11" vType="DEFAULT_VEHTYPE" vaporized=""/>
    <tripinfo id="always_right.11" depart="210.00" departLane="" departPos="0.00" departSpeed="11.11" departDelay="0.00" arrival="569.00" arrivalLane="" arrivalPos="248.50" arrivalSpeed="11.11" duration="359.00" routeLength="4145.70" waitSteps="0" timeLoss="2.63" rerouteNo="0" devices="tripinfo_always_right.11" vType="DEFAULT_VEHTYPE" vaporized=""/>
    <tripinfo id="horizontal.28" depart="380.00" departLane="" departPos="0.00" departSpeed="10.49" departDelay="0.00" arrival="572.00" arrivalLane="" arrivalPos="248.50" arrivalSpeed="11.11" duration="192.00" routeLength="2197.10" waitSteps="1" timeLoss="1.80" rerouteNo="0" devices="tripinfo_horizontal.28" vType="DEFAULT_VEHTYPE" vaporized=""/>
    <tripinfo id="vertical.28" depart="380.00" departLane="" departPos="0.00" departSpeed="8.54" departDelay="0.00" arrival="572.00" arrivalLane="" arrivalPos="248.50" arrivalSpeed="11.11" duration="192.00" routeLength="2197.10" waitSteps="0" timeLoss="2.25" rerouteNo="0" devices="tripinfo_vertical.28" vType="DEFAULT_VEHTYPE" vaporized=""/>
    <tripinfo id="always_left.12" depart="220.00" departLane="" departPos="0.00" departSpeed="11.11" departDelay="0.00" arrival="579.00" arrivalLane="" arrivalPos="248.50" arrivalSpeed="11.11" duration="359.00" routeLength="4145.70" waitSteps="0" timeLoss="2.44" rerouteNo="0" devices="tripinfo_always_left.12" vType="DEFAULT_VEHTYPE" vaporized=""/>