<?xml version="1.0"?>

<!-- generated on 02/19/10 11:09:22 by SUMO sumo Version dev-SVN-r8292
<configuration>

    <input>
        <net-file value="net.net.xml"/>
        <route-files value="input_routes.rou.xml"/>
    </input>

    <output>
        <tripinfo-output value="tripinfos.xml"/>
    </output>

    <time>
        <begin value="0"/>
        <end value="1000"/>
    </time>

    <report>
        <no-duration-log value="true"/>
        <no-step-log value="true"/>
    </report>

</configuration>
-->

<tripinfos>
    <tripinfo id="horizontal.0" depart="100" departLane="2fi_0" departPos="0.00" departSpeed="0.00" departDelay="0" arrival="289" arrivalLane="2fi_0" arrivalPos="9.08" arrivalSpeed="9.95" duration="189" routeLength="1957.68" waitSteps="0" rerouteNo="0" devices="" vtype="SUMO_DEFAULT_TYPE" vaporized=""></tripinfo>
    <tripinfo id="horizontal.1" depart="110" departLane="2fi_0" departPos="0.00" departSpeed="0.00" departDelay="0" arrival="299" arrivalLane="2fi_0" arrivalPos="0.62" arrivalSpeed="10.89" duration="189" routeLength="1949.22" waitSteps="0" rerouteNo="0" devices="" vtype="SUMO_DEFAULT_TYPE" vaporized=""></tripinfo>
    <tripinfo id="vertical.0" depart="104" departLane="3fi_0" departPos="0.00" departSpeed="0.00" departDelay="4" arrival="325" arrivalLane="3fi_0" arrivalPos="0.34" arrivalSpeed="2.67" duration="221" routeLength="1948.94" waitSteps="21" rerouteNo="0" devices="" vtype="SUMO_DEFAULT_TYPE" vaporized=""></tripinfo>
    <tripinfo id="vertical.1" depart="114" departLane="3fi_0" departPos="0.00" departSpeed="0.00" departDelay="4" arrival="327" arrivalLane="3fi_0" arrivalPos="3.97" arrivalSpeed="6.56" duration="213" routeLength="1952.57" waitSteps="13" rerouteNo="0" devices="" vtype="SUMO_DEFAULT_TYPE" vaporized=""></tripinfo>
    <tripinfo id="vertical.2" depart="125" departLane="3fi_0" departPos="0.00" departSpeed="0.00" departDelay="5" arrival="329" arrivalLane="3fi_0" arrivalPos="5.70" arrivalSpeed="9.35" duration="204" routeLength="1954.30" waitSteps="3" rerouteNo="0" devices="" vtype="SUMO_DEFAULT_TYPE" vaporized=""></tripinfo>
    <tripinfo id="vertical.3" depart="134" departLane="3fi_0" departPos="0.00" departSpeed="0.00" departDelay="4" arrival="331" arrivalLane="3fi_0" arrivalPos="4.95" arrivalSpeed="9.27" duration="197" routeLength="1953.55" waitSteps="0" rerouteNo="0" devices="" vtype="SUMO_DEFAULT_TYPE" vaporized=""></tripinfo>
    <tripinfo id="vertical.4" depart="144" departLane="3fi_0" departPos="0.00" departSpeed="0.00" departDelay="4" arrival="333" arrivalLane="3fi_0" arrivalPos="4.65" arrivalSpeed="9.59" duration="189" routeLength="1953.25" waitSteps="0" rerouteNo="0" devices="" vtype="SUMO_DEFAULT_TYPE" vaporized=""></tripinfo>
    <tripinfo id="vertical.5" depart="154" departLane="3fi_0" departPos="0.00" departSpeed="0.00" departDelay="4" arrival="342" arrivalLane="3fi_0" arrivalPos="1.55" arrivalSpeed="1.87" duration="188" routeLength="1950.15" waitSteps="0" rerouteNo="0" devices="" vtype="SUMO_DEFAULT_TYPE" vaporized=""></tripinfo>
    <tripinfo id="horizontal.2" depart="120" departLane="2fi_0" departPos="0.00" departSpeed="0.00" departDelay="0" arrival="370" arrivalLane="2fi_0" arrivalPos="0.26" arrivalSpeed="1.79" duration="250" routeLength="1948.86" waitSteps="51" rerouteNo="0" devices="" vtype="SUMO_DEFAULT_TYPE" vaporized=""></tripinfo>
    <tripinfo id="horizontal.3" depart="130" departLane="2fi_0" departPos="0.00" departSpeed="0.00" departDelay="0" arrival="375" arrivalLane="2fi_0" arrivalPos="0.18" arrivalSpeed="0.58" duration="245" routeLength="1948.78" waitSteps="41" rerouteNo="0" devices="" vtype="SUMO_DEFAULT_TYPE" vaporized=""></tripinfo>
    <tripinfo id="horizontal.4" depart="140" departLane="2fi_0" departPos="0.00" departSpeed="0.00" departDelay="0" arrival="377" arrivalLane="2fi_0" arrivalPos="0.38" arrivalSpeed="3.65" duration="237" routeLength="1948.98" waitSteps="33" rerouteNo="0" devices="" vtype="SUMO_DEFAULT_TYPE" vaporized=""></tripinfo>
    <tripinfo id="horizontal.5" depart="150" departLane="2fi_0" departPos="0.00" departSpeed="0.00" departDelay="0" arrival="380" arrivalLane="2fi_0" arrivalPos="3.28" arrivalSpeed="4.66" duration="230" routeLength="1951.88" waitSteps="25" rerouteNo="0" devices="" vtype="SUMO_DEFAULT_TYPE" vaporized=""></tripinfo>
    <tripinfo id="horizontal.6" depart="160" departLane="2fi_0" departPos="0.00" departSpeed="0.00" departDelay="0" arrival="382" arrivalLane="2fi_0" arrivalPos="2.13" arrivalSpeed="4.85" duration="222" routeLength="1950.73" waitSteps="17" rerouteNo="0" devices="" vtype="SUMO_DEFAULT_TYPE" vaporized=""></tripinfo>
    <tripinfo id="horizontal.7" depart="170" departLane="2fi_0" departPos="0.00" departSpeed="0.00" departDelay="0" arrival="384" arrivalLane="2fi_0" arrivalPos="2.00" arrivalSpeed="5.50" duration="214" routeLength="1950.60" waitSteps="8" rerouteNo="0" devices="" vtype="SUMO_DEFAULT_TYPE" vaporized=""></tripinfo>
    <tripinfo id="horizontal.8" depart="180" departLane="2fi_0" departPos="0.00" departSpeed="0.00" departDelay="0" arrival="386" arrivalLane="2fi_0" arrivalPos="1.72" arrivalSpeed="5.70" duration="206" routeLength="1950.32" waitSteps="0" rerouteNo="0" devices="" vtype="SUMO_DEFAULT_TYPE" vaporized=""></tripinfo>
    <tripinfo id="horizontal.9" depart="190" departLane="2fi_0" departPos="0.00" departSpeed="0.00" departDelay="0" arrival="388" arrivalLane="2fi_0" arrivalPos="2.07" arrivalSpeed="6.14" duration="198" routeLength="1950.67" waitSteps="0" rerouteNo="0" devices="" vtype="SUMO_DEFAULT_TYPE" vaporized=""></tripinfo>
    <tripinfo id="vertical.6" depart="164" departLane="3fi_0" departPos="0.00" departSpeed="0.00" departDelay="4" arrival="416" arrivalLane="3fi_0" arrivalPos="1.18" arrivalSpeed="4.71" duration="252" routeLength="1949.78" waitSteps="52" rerouteNo="0" devices="" vtype="SUMO_DEFAULT_TYPE" vaporized=""></tripinfo>
    <tripinfo id="vertical.7" depart="174" departLane="3fi_0" departPos="0.00" departSpeed="0.00" departDelay="4" arrival="418" arrivalLane="3fi_0" arrivalPos="3.51" arrivalSpeed="8.23" duration="244" routeLength="1952.11" waitSteps="43" rerouteNo="0" devices="" vtype="SUMO_DEFAULT_TYPE" vaporized=""></tripinfo>
    <tripinfo id="vertical.8" depart="184" departLane="3fi_0" departPos="0.00" departSpeed="0.00" departDelay="4" arrival="423" arrivalLane="3fi_0" arrivalPos="1.93" arrivalSpeed="2.41" duration="239" routeLength="1950.53" waitSteps="35" rerouteNo="0" devices="" vtype="SUMO_DEFAULT_TYPE" vaporized=""></tripinfo>
    <tripinfo id="vertical.9" depart="194" departLane="3fi_0" departPos="0.00" departSpeed="0.00" departDelay="4" arrival="425" arrivalLane="3fi_0" arrivalPos="2.77" arrivalSpeed="5.01" duration="231" routeLength="1951.37" waitSteps="25" rerouteNo="0" devices="" vtype="SUMO_DEFAULT_TYPE" vaporized=""></tripinfo>
    <tripinfo id="vertical.10" depart="204" departLane="3fi_0" departPos="0.00" departSpeed="0.00" departDelay="4" arrival="427" arrivalLane="3fi_0" arrivalPos="2.88" arrivalSpeed="5.53" duration="223" routeLength="1951.48" waitSteps="18" rerouteNo="0" devices="" vtype="SUMO_DEFAULT_TYPE" vaporized=""></tripinfo>
    <tripinfo id="vertical.11" depart="214" departLane="3fi_0" departPos="0.00" departSpeed="0.00" departDelay="4" arrival="429" arrivalLane="3fi_0" arrivalPos="3.46" arrivalSpeed="6.11" duration="215" routeLength="1952.06" waitSteps="10" rerouteNo="0" devices="" vtype="SUMO_DEFAULT_TYPE" vaporized=""></tripinfo>
    <tripinfo id="vertical.12" depart="224" departLane="3fi_0" departPos="0.00" departSpeed="0.00" departDelay="4" arrival="431" arrivalLane="3fi_0" arrivalPos="4.28" arrivalSpeed="6.64" duration="207" routeLength="1952.88" waitSteps="1" rerouteNo="0" devices="" vtype="SUMO_DEFAULT_TYPE" vaporized=""></tripinfo>
    <tripinfo id="vertical.13" depart="234" departLane="3fi_0" departPos="0.00" departSpeed="0.00" departDelay="4" arrival="433" arrivalLane="3fi_0" arrivalPos="4.38" arrivalSpeed="6.74" duration="199" routeLength="1952.98" waitSteps="0" rerouteNo="0" devices="" vtype="SUMO_DEFAULT_TYPE" vaporized=""></tripinfo>
    <tripinfo id="vertical.14" depart="245" departLane="3fi_0" departPos="0.00" departSpeed="0.00" departDelay="5" arrival="435" arrivalLane="3fi_0" arrivalPos="4.17" arrivalSpeed="6.64" duration="190" routeLength="1952.77" waitSteps="0" rerouteNo="0" devices="" vtype="SUMO_DEFAULT_TYPE" vaporized=""></tripinfo>
    <tripinfo id="horizontal.10" depart="200" departLane="2fi_0" departPos="0.00" departSpeed="0.00" departDelay="0" arrival="462" arrivalLane="2fi_0" arrivalPos="5.44" arrivalSpeed="8.28" duration="262" routeLength="1954.04" waitSteps="51" rerouteNo="0" devices="" vtype="SUMO_DEFAULT_TYPE" vaporized=""></tripinfo>
    <tripinfo id="horizontal.11" depart="210" departLane="2fi_0" departPos="0.00" departSpeed="0.00" departDelay="0" arrival="464" arrivalLane="2fi_0" arrivalPos="4.68" arrivalSpeed="9.06" duration="254" routeLength="1953.28" waitSteps="51" rerouteNo="0" devices="" vtype="SUMO_DEFAULT_TYPE" vaporized=""></tripinfo>
    <tripinfo id="horizontal.12" depart="220" departLane="2fi_0" departPos="0.00" departSpeed="0.00" departDelay="0" arrival="466" arrivalLane="2fi_0" arrivalPos="5.25" arrivalSpeed="8.41" duration="246" routeLength="1953.85" waitSteps="42" rerouteNo="0" devices="" vtype="SUMO_DEFAULT_TYPE" vaporized=""></tripinfo>
    <tripinfo id="horizontal.13" depart="230" departLane="2fi_0" departPos="0.00" departSpeed="0.00" departDelay="0" arrival="468" arrivalLane="2fi_0" arrivalPos="4.23" arrivalSpeed="7.45" duration="238" routeLength="1952.83" waitSteps="33" rerouteNo="0" devices="" vtype="SUMO_DEFAULT_TYPE" vaporized=""></tripinfo>
    <tripinfo id="horizontal.14" depart="249" departLane="2fi_0" departPos="0.00" departSpeed="0.00" departDelay="9" arrival="470" arrivalLane="2fi_0" arrivalPos="5.25" arrivalSpeed="7.74" duration="221" routeLength="1953.85" waitSteps="15" rerouteNo="0" devices="" vtype="SUMO_DEFAULT_TYPE" vaporized=""></tripinfo>
    <tripinfo id="horizontal.15" depart="253" departLane="2fi_0" departPos="0.00" departSpeed="0.00" departDelay="3" arrival="472" arrivalLane="2fi_0" arrivalPos="4.34" arrivalSpeed="7.14" duration="219" routeLength="1952.94" waitSteps="13" rerouteNo="0" devices="" vtype="SUMO_DEFAULT_TYPE" vaporized=""></tripinfo>
    <tripinfo id="horizontal.16" depart="261" departLane="2fi_0" departPos="0.00" departSpeed="0.00" departDelay="1" arrival="474" arrivalLane="2fi_0" arrivalPos="4.89" arrivalSpeed="7.17" duration="213" routeLength="1953.49" waitSteps="6" rerouteNo="0" devices="" vtype="SUMO_DEFAULT_TYPE" vaporized=""></tripinfo>
    <tripinfo id="horizontal.17" depart="270" departLane="2fi_0" departPos="0.00" departSpeed="0.00" departDelay="0" arrival="476" arrivalLane="2fi_0" arrivalPos="3.42" arrivalSpeed="6.39" duration="206" routeLength="1952.02" waitSteps="0" rerouteNo="0" devices="" vtype="SUMO_DEFAULT_TYPE" vaporized=""></tripinfo>
    <tripinfo id="horizontal.18" depart="280" departLane="2fi_0" departPos="0.00" departSpeed="0.00" departDelay="0" arrival="478" arrivalLane="2fi_0" arrivalPos="4.37" arrivalSpeed="6.85" duration="198" routeLength="1952.97" waitSteps="0" rerouteNo="0" devices="" vtype="SUMO_DEFAULT_TYPE" vaporized=""></tripinfo>
    <tripinfo id="vertical.15" depart="254" departLane="3fi_0" departPos="0.00" departSpeed="0.00" departDelay="4" arrival="506" arrivalLane="3fi_0" arrivalPos="1.66" arrivalSpeed="5.69" duration="252" routeLength="1950.26" waitSteps="52" rerouteNo="0" devices="" vtype="SUMO_DEFAULT_TYPE" vaporized=""></tripinfo>
    <tripinfo id="vertical.16" depart="265" departLane="3fi_0" departPos="0.00" departSpeed="0.00" departDelay="5" arrival="511" arrivalLane="3fi_0" arrivalPos="0.70" arrivalSpeed="2.73" duration="246" routeLength="1949.30" waitSteps="42" rerouteNo="0" devices="" vtype="SUMO_DEFAULT_TYPE" vaporized=""></tripinfo>
    <tripinfo id="vertical.17" depart="275" departLane="3fi_0" departPos="0.00" departSpeed="0.00" departDelay="5" arrival="513" arrivalLane="3fi_0" arrivalPos="3.72" arrivalSpeed="6.72" duration="238" routeLength="1952.32" waitSteps="35" rerouteNo="0" devices="" vtype="SUMO_DEFAULT_TYPE" vaporized=""></tripinfo>
    <tripinfo id="vertical.18" depart="284" departLane="3fi_0" departPos="0.00" departSpeed="0.00" departDelay="4" arrival="515" arrivalLane="3fi_0" arrivalPos="4.60" arrivalSpeed="7.23" duration="231" routeLength="1953.20" waitSteps="26" rerouteNo="0" devices="" vtype="SUMO_DEFAULT_TYPE" vaporized=""></tripinfo>
    <tripinfo id="vertical.19" depart="294" departLane="3fi_0" departPos="0.00" departSpeed="0.00" departDelay="4" arrival="517" arrivalLane="3fi_0" arrivalPos="4.51" arrivalSpeed="7.10" duration="223" routeLength="1953.11" waitSteps="18" rerouteNo="0" devices="" vtype="SUMO_DEFAULT_TYPE" vaporized=""></tripinfo>
    <tripinfo id="vertical.20" depart="304" departLane="3fi_0" departPos="0.00" departSpeed="0.00" departDelay="4" arrival="519" arrivalLane="3fi_0" arrivalPos="4.18" arrivalSpeed="6.78" duration="215" routeLength="1952.78" waitSteps="9" rerouteNo="0" devices="" vtype="SUMO_DEFAULT_TYPE" vaporized=""></tripinfo>
    <tripinfo id="vertical.21" depart="314" departLane="3fi_0" departPos="0.00" departSpeed="0.00" departDelay="4" arrival="521" arrivalLane="3fi_0" arrivalPos="3.80" arrivalSpeed="6.55" duration="207" routeLength="1952.40" waitSteps="2" rerouteNo="0" devices="" vtype="SUMO_DEFAULT_TYPE" vaporized=""></tripinfo>
    <tripinfo id="vertical.22" depart="333" departLane="3fi_0" departPos="0.00" departSpeed="0.00" departDelay="13" arrival="523" arrivalLane="3fi_0" arrivalPos="4.15" arrivalSpeed="6.82" duration="190" routeLength="1952.75" waitSteps="0" rerouteNo="0" devices="" vtype="SUMO_DEFAULT_TYPE" vaporized=""></tripinfo>
    <tripinfo id="horizontal.19" depart="290" departLane="2fi_0" departPos="0.00" departSpeed="0.00" departDelay="0" arrival="552" arrivalLane="2fi_0" arrivalPos="1.16" arrivalSpeed="1.87" duration="262" routeLength="1949.77" waitSteps="52" rerouteNo="0" devices="" vtype="SUMO_DEFAULT_TYPE" vaporized=""></tripinfo>
    <tripinfo id="horizontal.20" depart="300" departLane="2fi_0" departPos="0.00" departSpeed="0.00" departDelay="0" arrival="554" arrivalLane="2fi_0" arrivalPos="1.71" arrivalSpeed="4.09" duration="254" routeLength="1950.31" waitSteps="50" rerouteNo="0" devices="" vtype="SUMO_DEFAULT_TYPE" vaporized=""></tripinfo>
    <tripinfo id="horizontal.21" depart="310" departLane="2fi_0" departPos="0.00" departSpeed="0.00" departDelay="0" arrival="556" arrivalLane="2fi_0" arrivalPos="1.03" arrivalSpeed="4.75" duration="246" routeLength="1949.63" waitSteps="41" rerouteNo="0" devices="" vtype="SUMO_DEFAULT_TYPE" vaporized=""></tripinfo>
    <tripinfo id="horizontal.22" depart="320" departLane="2fi_0" departPos="0.00" departSpeed="0.00" departDelay="0" arrival="558" arrivalLane="2fi_0" arrivalPos="1.50" arrivalSpeed="5.85" duration="238" routeLength="1950.10" waitSteps="31" rerouteNo="0" devices="" vtype="SUMO_DEFAULT_TYPE" vaporized=""></tripinfo>
    <tripinfo id="horizontal.23" depart="342" departLane="2fi_0" departPos="0.00" departSpeed="0.00" departDelay="12" arrival="560" arrivalLane="2fi_0" arrivalPos="2.46" arrivalSpeed="6.58" duration="218" routeLength="1951.06" waitSteps="13" rerouteNo="0" devices="" vtype="SUMO_DEFAULT_TYPE" vaporized=""></tripinfo>
    <tripinfo id="horizontal.24" depart="349" departLane="2fi_0" departPos="0.00" departSpeed="0.00" departDelay="9" arrival="562" arrivalLane="2fi_0" arrivalPos="3.29" arrivalSpeed="6.83" duration="213" routeLength="1951.89" waitSteps="7" rerouteNo="0" devices="" vtype="SUMO_DEFAULT_TYPE" vaporized=""></tripinfo>
    <tripinfo id="horizontal.25" depart="353" departLane="2fi_0" departPos="0.00" departSpeed="0.00" departDelay="3" arrival="564" arrivalLane="2fi_0" arrivalPos="4.97" arrivalSpeed="7.47" duration="211" routeLength="1953.57" waitSteps="4" rerouteNo="0" devices="" vtype="SUMO_DEFAULT_TYPE" vaporized=""></tripinfo>
    <tripinfo id="horizontal.26" depart="365" departLane="2fi_0" departPos="0.00" departSpeed="0.00" departDelay="5" arrival="566" arrivalLane="2fi_0" arrivalPos="4.46" arrivalSpeed="7.10" duration="201" routeLength="1953.06" waitSteps="0" rerouteNo="0" devices="" vtype="SUMO_DEFAULT_TYPE" vaporized=""></tripinfo>
    <tripinfo id="horizontal.27" depart="370" departLane="2fi_0" departPos="0.00" departSpeed="0.00" departDelay="0" arrival="568" arrivalLane="2fi_0" arrivalPos="5.39" arrivalSpeed="10.35" duration="198" routeLength="1953.99" waitSteps="0" rerouteNo="0" devices="" vtype="SUMO_DEFAULT_TYPE" vaporized=""></tripinfo>
    <tripinfo id="vertical.23" depart="342" departLane="3fi_0" departPos="0.00" departSpeed="0.00" departDelay="12" arrival="596" arrivalLane="3fi_0" arrivalPos="1.52" arrivalSpeed="5.22" duration="254" routeLength="1950.12" waitSteps="56" rerouteNo="0" devices="" vtype="SUMO_DEFAULT_TYPE" vaporized=""></tripinfo>
    <tripinfo id="vertical.24" depart="350" departLane="3fi_0" departPos="0.00" departSpeed="0.00" departDelay="10" arrival="598" arrivalLane="3fi_0" arrivalPos="4.38" arrivalSpeed="8.66" duration="248" routeLength="1952.98" waitSteps="49" rerouteNo="0" devices="" vtype="SUMO_DEFAULT_TYPE" vaporized=""></tripinfo>
    <tripinfo id="vertical.25" depart="358" departLane="3fi_0" departPos="0.00" departSpeed="0.00" departDelay="8" arrival="603" arrivalLane="3fi_0" arrivalPos="1.60" arrivalSpeed="2.06" duration="245" routeLength="1950.20" waitSteps="41" rerouteNo="0" devices="" vtype="SUMO_DEFAULT_TYPE" vaporized=""></tripinfo>
    <tripinfo id="vertical.26" depart="366" departLane="3fi_0" departPos="0.00" departSpeed="0.00" departDelay="6" arrival="605" arrivalLane="3fi_0" arrivalPos="0.65" arrivalSpeed="3.66" duration="239" routeLength="1949.25" waitSteps="35" rerouteNo="0" devices="" vtype="SUMO_DEFAULT_TYPE" vaporized=""></tripinfo>
    <tripinfo id="vertical.27" depart="374" departLane="3fi_0" departPos="0.00" departSpeed="0.00" departDelay="4" arrival="608" arrivalLane="3fi_0" arrivalPos="4.44" arrivalSpeed="4.72" duration="234" routeLength="1953.04" waitSteps="28" rerouteNo="0" devices="" vtype="SUMO_DEFAULT_TYPE" vaporized=""></tripinfo>
    <tripinfo id="vertical.28" depart="384" departLane="3fi_0" departPos="0.00" departSpeed="0.00" departDelay="4" arrival="610" arrivalLane="3fi_0" arrivalPos="2.05" arrivalSpeed="4.59" duration="226" routeLength="1950.65" waitSteps="20" rerouteNo="0" devices="" vtype="SUMO_DEFAULT_TYPE" vaporized=""></tripinfo>
    <tripinfo id="vertical.29" depart="394" departLane="3fi_0" departPos="0.00" departSpeed="0.00" departDelay="4" arrival="612" arrivalLane="3fi_0" arrivalPos="3.48" arrivalSpeed="7.23" duration="218" routeLength="1952.08" waitSteps="12" rerouteNo="0" devices="" vtype="SUMO_DEFAULT_TYPE" vaporized=""></tripinfo>
    <tripinfo id="vertical.30" depart="404" departLane="3fi_0" departPos="0.00" departSpeed="0.00" departDelay="4" arrival="614" arrivalLane="3fi_0" arrivalPos="4.84" arrivalSpeed="7.62" duration="210" routeLength="1953.44" waitSteps="4" rerouteNo="0" devices="" vtype="SUMO_DEFAULT_TYPE" vaporized=""></tripinfo>
    <tripinfo id="vertical.31" depart="418" departLane="3fi_0" departPos="0.00" departSpeed="0.00" departDelay="8" arrival="616" arrivalLane="3fi_0" arrivalPos="4.60" arrivalSpeed="7.06" duration="198" routeLength="1953.20" waitSteps="0" rerouteNo="0" devices="" vtype="SUMO_DEFAULT_TYPE" vaporized=""></tripinfo>
    <tripinfo id="always_right.0" depart="100" departLane="1fi_0" departPos="0.00" departSpeed="0.00" departDelay="0" arrival="626" arrivalLane="1fi_0" arrivalPos="0.67" arrivalSpeed="2.61" duration="526" routeLength="3897.87" waitSteps="91" rerouteNo="0" devices="" vtype="SUMO_DEFAULT_TYPE" vaporized=""></tripinfo>
    <tripinfo id="always_right.1" depart="110" departLane="1fi_0" departPos="0.00" departSpeed="0.00" departDelay="0" arrival="628" arrivalLane="1fi_0" arrivalPos="2.28" arrivalSpeed="5.34" duration="518" routeLength="3899.48" waitSteps="77" rerouteNo="0" devices="" vtype="SUMO_DEFAULT_TYPE" vaporized=""></tripinfo>
    <tripinfo id="always_right.2" depart="120" departLane="1fi_0" departPos="0.00" departSpeed="0.00" departDelay="0" arrival="630" arrivalLane="1fi_0" arrivalPos="3.35" arrivalSpeed="6.40" duration="510" routeLength="3900.55" waitSteps="63" rerouteNo="0" devices="" vtype="SUMO_DEFAULT_TYPE" vaporized=""></tripinfo>
    <tripinfo id="horizontal.28" depart="388" departLane="2fi_0" departPos="0.00" departSpeed="0.00" departDelay="8" arrival="639" arrivalLane="2fi_0" arrivalPos="1.88" arrivalSpeed="7.90" duration="251" routeLength="1950.48" waitSteps="52" rerouteNo="0" devices="" vtype="SUMO_DEFAULT_TYPE" vaporized=""></tripinfo>
    <tripinfo id="horizontal.29" depart="392" departLane="2fi_0" departPos="0.00" departSpeed="0.00" departDelay="2" arrival="641" arrivalLane="2fi_0" arrivalPos="4.76" arrivalSpeed="10.83" duration="249" routeLength="1953.36" waitSteps="50" rerouteNo="0" devices="" vtype="SUMO_DEFAULT_TYPE" vaporized=""></tripinfo>
    <tripinfo id="always_left.0" depart="100" departLane="3fi_0" departPos="0.00" departSpeed="0.00" departDelay="0" arrival="641" arrivalLane="3fi_0" arrivalPos="0.70" arrivalSpeed="3.13" duration="541" routeLength="3897.90" waitSteps="117" rerouteNo="0" devices="" vtype="SUMO_DEFAULT_TYPE" vaporized=""></tripinfo>
    <tripinfo id="horizontal.30" depart="400" departLane="2fi_0" departPos="0.00" departSpeed="0.00" departDelay="0" arrival="643" arrivalLane="2fi_0" arrivalPos="8.86" arrivalSpeed="11.00" duration="243" routeLength="1957.46" waitSteps="42" rerouteNo="0" devices="" vtype="SUMO_DEFAULT_TYPE" vaporized=""></tripinfo>
    <tripinfo id="always_left.1" depart="110" departLane="3fi_0" departPos="0.00" departSpeed="0.00" departDelay="0" arrival="643" arrivalLane="3fi_0" arrivalPos="3.29" arrivalSpeed="7.57" duration="533" routeLength="3900.49" waitSteps="105" rerouteNo="0" devices="" vtype="SUMO_DEFAULT_TYPE" vaporized=""></tripinfo>
    <tripinfo id="always_left.2" depart="120" departLane="3fi_0" departPos="0.00" departSpeed="0.00" departDelay="0" arrival="645" arrivalLane="3fi_0" arrivalPos="5.19" arrivalSpeed="8.97" duration="525" routeLength="3902.39" waitSteps="93" rerouteNo="0" devices="" vtype="SUMO_DEFAULT_TYPE" vaporized=""></tripinfo>
    <tripinfo id="always_left.3" depart="130" departLane="3fi_0" departPos="0.00" departSpeed="0.00" departDelay="0" arrival="647" arrivalLane="3fi_0" arrivalPos="4.88" arrivalSpeed="8.39" duration="517" routeLength="3902.08" waitSteps="77" rerouteNo="0" devices="" vtype="SUMO_DEFAULT_TYPE" vaporized=""></tripinfo>
    <tripinfo id="horizontal.31" depart="410" departLane="2fi_0" departPos="0.00" departSpeed="0.00" departDelay="0" arrival="648" arrivalLane="2fi_0" arrivalPos="1.18" arrivalSpeed="1.21" duration="238" routeLength="1949.78" waitSteps="34" rerouteNo="0" devices="" vtype="SUMO_DEFAULT_TYPE" vaporized=""></tripinfo>
    <tripinfo id="always_left.4" depart="140" departLane="3fi_0" departPos="0.00" departSpeed="0.00" departDelay="0" arrival="649" arrivalLane="3fi_0" arrivalPos="5.37" arrivalSpeed="8.21" duration="509" routeLength="3902.57" waitSteps="74" rerouteNo="0" devices="" vtype="SUMO_DEFAULT_TYPE" vaporized=""></tripinfo>
    <tripinfo id="horizontal.32" depart="429" departLane="2fi_0" departPos="0.00" departSpeed="0.00" departDelay="9" arrival="651" arrivalLane="2fi_0" arrivalPos="3.91" arrivalSpeed="3.95" duration="222" routeLength="1952.51" waitSteps="17" rerouteNo="0" devices="" vtype="SUMO_DEFAULT_TYPE" vaporized=""></tripinfo>
    <tripinfo id="always_left.5" depart="150" departLane="3fi_0" departPos="0.00" departSpeed="0.00" departDelay="0" arrival="651" arrivalLane="3fi_0" arrivalPos="4.53" arrivalSpeed="7.50" duration="501" routeLength="3901.73" waitSteps="72" rerouteNo="0" devices="" vtype="SUMO_DEFAULT_TYPE" vaporized=""></tripinfo>
    <tripinfo id="horizontal.33" depart="436" departLane="2fi_0" departPos="0.00" departSpeed="0.00" departDelay="6" arrival="653" arrivalLane="2fi_0" arrivalPos="1.07" arrivalSpeed="3.83" duration="217" routeLength="1949.67" waitSteps="12" rerouteNo="0" devices="" vtype="SUMO_DEFAULT_TYPE" vaporized=""></tripinfo>
    <tripinfo id="always_left.6" depart="160" departLane="3fi_0" departPos="0.00" departSpeed="0.00" departDelay="0" arrival="653" arrivalLane="3fi_0" arrivalPos="5.00" arrivalSpeed="7.44" duration="493" routeLength="3902.20" waitSteps="58" rerouteNo="0" devices="" vtype="SUMO_DEFAULT_TYPE" vaporized=""></tripinfo>
    <tripinfo id="horizontal.34" depart="440" departLane="2fi_0" departPos="0.00" departSpeed="0.00" departDelay="0" arrival="655" arrivalLane="2fi_0" arrivalPos="0.66" arrivalSpeed="5.12" duration="215" routeLength="1949.26" waitSteps="9" rerouteNo="0" devices="" vtype="SUMO_DEFAULT_TYPE" vaporized=""></tripinfo>
    <tripinfo id="horizontal.35" depart="454" departLane="2fi_0" departPos="0.00" departSpeed="0.00" departDelay="4" arrival="657" arrivalLane="2fi_0" arrivalPos="0.89" arrivalSpeed="5.59" duration="203" routeLength="1949.49" waitSteps="0" rerouteNo="0" devices="" vtype="SUMO_DEFAULT_TYPE" vaporized=""></tripinfo>
    <tripinfo id="vertical.32" depart="439" departLane="3fi_0" departPos="0.00" departSpeed="0.00" departDelay="19" arrival="687" arrivalLane="3fi_0" arrivalPos="3.01" arrivalSpeed="4.01" duration="248" routeLength="1951.61" waitSteps="48" rerouteNo="0" devices="" vtype="SUMO_DEFAULT_TYPE" vaporized=""></tripinfo>
    <tripinfo id="vertical.33" depart="447" departLane="3fi_0" departPos="0.00" departSpeed="0.00" departDelay="17" arrival="689" arrivalLane="3fi_0" arrivalPos="5.28" arrivalSpeed="8.16" duration="242" routeLength="1953.88" waitSteps="41" rerouteNo="0" devices="" vtype="SUMO_DEFAULT_TYPE" vaporized=""></tripinfo>
    <tripinfo id="vertical.34" depart="451" departLane="3fi_0" departPos="0.00" departSpeed="0.00" departDelay="11" arrival="691" arrivalLane="3fi_0" arrivalPos="5.15" arrivalSpeed="8.50" duration="240" routeLength="1953.75" waitSteps="39" rerouteNo="0" devices="" vtype="SUMO_DEFAULT_TYPE" vaporized=""></tripinfo>
    <tripinfo id="vertical.35" depart="459" departLane="3fi_0" departPos="0.00" departSpeed="0.00" departDelay="9" arrival="693" arrivalLane="3fi_0" arrivalPos="4.58" arrivalSpeed="9.23" duration="234" routeLength="1953.18" waitSteps="31" rerouteNo="0" devices="" vtype="SUMO_DEFAULT_TYPE" vaporized=""></tripinfo>
    <tripinfo id="vertical.36" depart="468" departLane="3fi_0" departPos="0.00" departSpeed="0.00" departDelay="8" arrival="698" arrivalLane="3fi_0" arrivalPos="0.53" arrivalSpeed="0.95" duration="230" routeLength="1949.13" waitSteps="25" rerouteNo="0" devices="" vtype="SUMO_DEFAULT_TYPE" vaporized=""></tripinfo>
    <tripinfo id="vertical.37" depart="476" departLane="3fi_0" departPos="0.00" departSpeed="0.00" departDelay="6" arrival="701" arrivalLane="3fi_0" arrivalPos="2.67" arrivalSpeed="3.30" duration="225" routeLength="1951.27" waitSteps="18" rerouteNo="0" devices="" vtype="SUMO_DEFAULT_TYPE" vaporized=""></tripinfo>
    <tripinfo id="vertical.38" depart="492" departLane="3fi_0" departPos="0.00" departSpeed="0.00" departDelay="12" arrival="703" arrivalLane="3fi_0" arrivalPos="2.04" arrivalSpeed="4.43" duration="211" routeLength="1950.64" waitSteps="3" rerouteNo="0" devices="" vtype="SUMO_DEFAULT_TYPE" vaporized=""></tripinfo>
    <tripinfo id="vertical.39" depart="500" departLane="3fi_0" departPos="0.00" departSpeed="0.00" departDelay="10" arrival="705" arrivalLane="3fi_0" arrivalPos="2.20" arrivalSpeed="5.25" duration="205" routeLength="1950.80" waitSteps="0" rerouteNo="0" devices="" vtype="SUMO_DEFAULT_TYPE" vaporized=""></tripinfo>
    <tripinfo id="always_right.3" depart="130" departLane="1fi_0" departPos="0.00" departSpeed="0.00" departDelay="0" arrival="712" arrivalLane="1fi_0" arrivalPos="3.42" arrivalSpeed="6.22" duration="582" routeLength="3900.62" waitSteps="135" rerouteNo="0" devices="" vtype="SUMO_DEFAULT_TYPE" vaporized=""></tripinfo>
    <tripinfo id="always_right.4" depart="140" departLane="1fi_0" departPos="0.00" departSpeed="0.00" departDelay="0" arrival="714" arrivalLane="1fi_0" arrivalPos="4.93" arrivalSpeed="7.94" duration="574" routeLength="3902.13" waitSteps="120" rerouteNo="0" devices="" vtype="SUMO_DEFAULT_TYPE" vaporized=""></tripinfo>
    <tripinfo id="always_right.5" depart="150" departLane="1fi_0" departPos="0.00" departSpeed="0.00" departDelay="0" arrival="716" arrivalLane="1fi_0" arrivalPos="4.66" arrivalSpeed="7.45" duration="566" routeLength="3901.86" waitSteps="108" rerouteNo="0" devices="" vtype="SUMO_DEFAULT_TYPE" vaporized=""></tripinfo>
    <tripinfo id="always_right.6" depart="160" departLane="1fi_0" departPos="0.00" departSpeed="0.00" departDelay="0" arrival="721" arrivalLane="1fi_0" arrivalPos="1.01" arrivalSpeed="1.56" duration="561" routeLength="3898.21" waitSteps="94" rerouteNo="0" devices="" vtype="SUMO_DEFAULT_TYPE" vaporized=""></tripinfo>
    <tripinfo id="horizontal.36" depart="478" departLane="2fi_0" departPos="0.00" departSpeed="0.00" departDelay="18" arrival="731" arrivalLane="2fi_0" arrivalPos="2.46" arrivalSpeed="3.51" duration="253" routeLength="1951.06" waitSteps="52" rerouteNo="0" devices="" vtype="SUMO_DEFAULT_TYPE" vaporized=""></tripinfo>
    <tripinfo id="always_left.7" depart="170" departLane="3fi_0" departPos="0.00" departSpeed="0.00" departDelay="0" arrival="731" arrivalLane="3fi_0" arrivalPos="1.20" arrivalSpeed="4.18" duration="561" routeLength="3898.40" waitSteps="134" rerouteNo="0" devices="" vtype="SUMO_DEFAULT_TYPE" vaporized=""></tripinfo>
    <tripinfo id="horizontal.37" depart="482" departLane="2fi_0" departPos="0.00" departSpeed="0.00" departDelay="12" arrival="733" arrivalLane="2fi_0" arrivalPos="4.16" arrivalSpeed="7.59" duration="251" routeLength="1952.76" waitSteps="50" rerouteNo="0" devices="" vtype="SUMO_DEFAULT_TYPE" vaporized=""></tripinfo>