<?xml version="1.0" encoding="UTF-8"?>

<!-- generated on Mon Nov 11 08:36:46 2013 by SUMO sumo Version dev-SVN-r15052
<?xml version="1.0" encoding="UTF-8"?>

<configuration xmlns:xsi="http://www.w3.org/2001/XMLSchema-instance" xsi:noNamespaceSchemaLocation="http://sumo-sim.org/xsd/sumoConfiguration.xsd">

    <input>
        <net-file value="net.net.xml"/>
        <route-files value="input_routes.rou.xml"/>
    </input>

    <output>
        <tripinfo-output value="tripinfos.xml"/>
    </output>

    <time>
        <begin value="0"/>
        <end value="1000"/>
    </time>

    <report>
        <no-duration-log value="true"/>
        <no-step-log value="true"/>
    </report>

</configuration>
-->

<tripinfos>
    <tripinfo id="horizontal.0" depart="100.00" departLane="2fi_0" departPos="5.10" departSpeed="0.00" departDelay="0.00" arrival="310.00" arrivalLane="2fi_0" arrivalPos="248.50" arrivalSpeed="10.38" duration="210.00" routeLength="2192.00" waitSteps="0" rerouteNo="0" devices="tripinfo_horizontal.0" vType="DEFAULT_VEHTYPE" vaporized=""/>
    <tripinfo id="horizontal.1" depart="110.00" departLane="2fi_0" departPos="5.10" departSpeed="0.00" departDelay="0.00" arrival="320.00" arrivalLane="2fi_0" arrivalPos="248.50" arrivalSpeed="10.73" duration="210.00" routeLength="2192.00" waitSteps="0" rerouteNo="0" devices="tripinfo_horizontal.1" vType="DEFAULT_VEHTYPE" vaporized=""/>
    <tripinfo id="vertical.0" depart="102.00" departLane="3fi_0" departPos="5.10" departSpeed="0.00" departDelay="2.00" arrival="347.00" arrivalLane="3fi_0" arrivalPos="248.50" arrivalSpeed="10.27" duration="245.00" routeLength="2192.00" waitSteps="26" rerouteNo="0" devices="tripinfo_vertical.0" vType="DEFAULT_VEHTYPE" vaporized=""/>
    <tripinfo id="vertical.1" depart="113.00" departLane="3fi_0" departPos="5.10" departSpeed="0.00" departDelay="3.00" arrival="349.00" arrivalLane="3fi_0" arrivalPos="248.50" arrivalSpeed="10.49" duration="236.00" routeLength="2192.00" waitSteps="19" rerouteNo="0" devices="tripinfo_vertical.1" vType="DEFAULT_VEHTYPE" vaporized=""/>
    <tripinfo id="vertical.2" depart="123.00" departLane="3fi_0" departPos="5.10" departSpeed="0.00" departDelay="3.00" arrival="351.00" arrivalLane="3fi_0" arrivalPos="248.50" arrivalSpeed="10.71" duration="228.00" routeLength="2192.00" waitSteps="11" rerouteNo="0" devices="tripinfo_vertical.2" vType="DEFAULT_VEHTYPE" vaporized=""/>
    <tripinfo id="vertical.3" depart="133.00" departLane="3fi_0" departPos="5.10" departSpeed="0.00" departDelay="3.00" arrival="354.00" arrivalLane="3fi_0" arrivalPos="248.50" arrivalSpeed="9.81" duration="221.00" routeLength="2192.00" waitSteps="2" rerouteNo="0" devices="tripinfo_vertical.3" vType="DEFAULT_VEHTYPE" vaporized=""/>
    <tripinfo id="vertical.4" depart="143.00" departLane="3fi_0" departPos="5.10" departSpeed="0.00" departDelay="3.00" arrival="356.00" arrivalLane="3fi_0" arrivalPos="248.50" arrivalSpeed="10.40" duration="213.00" routeLength="2192.00" waitSteps="0" rerouteNo="0" devices="tripinfo_vertical.4" vType="DEFAULT_VEHTYPE" vaporized=""/>
    <tripinfo id="vertical.5" depart="153.00" departLane="3fi_0" departPos="5.10" departSpeed="0.00" departDelay="3.00" arrival="362.00" arrivalLane="3fi_0" arrivalPos="248.50" arrivalSpeed="10.71" duration="209.00" routeLength="2192.00" waitSteps="0" rerouteNo="0" devices="tripinfo_vertical.5" vType="DEFAULT_VEHTYPE" vaporized=""/>
    <tripinfo id="vertical.6" depart="163.00" departLane="3fi_0" departPos="5.10" departSpeed="0.00" departDelay="3.00" arrival="372.00" arrivalLane="3fi_0" arrivalPos="248.50" arrivalSpeed="10.85" duration="209.00" routeLength="2192.00" waitSteps="0" rerouteNo="0" devices="tripinfo_vertical.6" vType="DEFAULT_VEHTYPE" vaporized=""/>
    <tripinfo id="horizontal.2" depart="120.00" departLane="2fi_0" departPos="5.10" departSpeed="0.00" departDelay="0.00" arrival="390.00" arrivalLane="2fi_0" arrivalPos="248.50" arrivalSpeed="9.91" duration="270.00" routeLength="2192.00" waitSteps="56" rerouteNo="0" devices="tripinfo_horizontal.2" vType="DEFAULT_VEHTYPE" vaporized=""/>
    <tripinfo id="horizontal.3" depart="130.00" departLane="2fi_0" departPos="5.10" departSpeed="0.00" departDelay="0.00" arrival="392.00" arrivalLane="2fi_0" arrivalPos="248.50" arrivalSpeed="10.33" duration="262.00" routeLength="2192.00" waitSteps="46" rerouteNo="0" devices="tripinfo_horizontal.3" vType="DEFAULT_VEHTYPE" vaporized=""/>
    <tripinfo id="horizontal.4" depart="140.00" departLane="2fi_0" departPos="5.10" departSpeed="0.00" departDelay="0.00" arrival="394.00" arrivalLane="2fi_0" arrivalPos="248.50" arrivalSpeed="10.89" duration="254.00" routeLength="2192.00" waitSteps="37" rerouteNo="0" devices="tripinfo_horizontal.4" vType="DEFAULT_VEHTYPE" vaporized=""/>
    <tripinfo id="horizontal.5" depart="150.00" departLane="2fi_0" departPos="5.10" departSpeed="0.00" departDelay="0.00" arrival="397.00" arrivalLane="2fi_0" arrivalPos="248.50" arrivalSpeed="10.22" duration="247.00" routeLength="2192.00" waitSteps="28" rerouteNo="0" devices="tripinfo_horizontal.5" vType="DEFAULT_VEHTYPE" vaporized=""/>
    <tripinfo id="horizontal.6" depart="160.00" departLane="2fi_0" departPos="5.10" departSpeed="0.00" departDelay="0.00" arrival="399.00" arrivalLane="2fi_0" arrivalPos="248.50" arrivalSpeed="10.57" duration="239.00" routeLength="2192.00" waitSteps="21" rerouteNo="0" devices="tripinfo_horizontal.6" vType="DEFAULT_VEHTYPE" vaporized=""/>
    <tripinfo id="horizontal.7" depart="170.00" departLane="2fi_0" departPos="5.10" departSpeed="0.00" departDelay="0.00" arrival="401.00" arrivalLane="2fi_0" arrivalPos="248.50" arrivalSpeed="10.32" duration="231.00" routeLength="2192.00" waitSteps="11" rerouteNo="0" devices="tripinfo_horizontal.7" vType="DEFAULT_VEHTYPE" vaporized=""/>
    <tripinfo id="horizontal.8" depart="180.00" departLane="2fi_0" departPos="5.10" departSpeed="0.00" departDelay="0.00" arrival="403.00" arrivalLane="2fi_0" arrivalPos="248.50" arrivalSpeed="10.03" duration="223.00" routeLength="2192.00" waitSteps="5" rerouteNo="0" devices="tripinfo_horizontal.8" vType="DEFAULT_VEHTYPE" vaporized=""/>
    <tripinfo id="horizontal.9" depart="190.00" departLane="2fi_0" departPos="5.10" departSpeed="0.00" departDelay="0.00" arrival="405.00" arrivalLane="2fi_0" arrivalPos="248.50" arrivalSpeed="10.10" duration="215.00" routeLength="2192.00" waitSteps="0" rerouteNo="0" devices="tripinfo_horizontal.9" vType="DEFAULT_VEHTYPE" vaporized=""/>
    <tripinfo id="horizontal.10" depart="200.00" departLane="2fi_0" departPos="5.10" departSpeed="0.00" departDelay="0.00" arrival="410.00" arrivalLane="2fi_0" arrivalPos="248.50" arrivalSpeed="10.62" duration="210.00" routeLength="2192.00" waitSteps="0" rerouteNo="0" devices="tripinfo_horizontal.10" vType="DEFAULT_VEHTYPE" vaporized=""/>
    <tripinfo id="horizontal.11" depart="210.00" departLane="2fi_0" departPos="5.10" departSpeed="0.00" departDelay="0.00" arrival="418.00" arrivalLane="2fi_0" arrivalPos="248.50" arrivalSpeed="10.79" duration="208.00" routeLength="2192.00" waitSteps="0" rerouteNo="0" devices="tripinfo_horizontal.11" vType="DEFAULT_VEHTYPE" vaporized=""/>
    <tripinfo id="vertical.7" depart="173.00" departLane="3fi_0" departPos="5.10" departSpeed="0.00" departDelay="3.00" arrival="436.00" arrivalLane="3fi_0" arrivalPos="248.50" arrivalSpeed="10.88" duration="263.00" routeLength="2192.00" waitSteps="48" rerouteNo="0" devices="tripinfo_vertical.7" vType="DEFAULT_VEHTYPE" vaporized=""/>
    <tripinfo id="vertical.8" depart="183.00" departLane="3fi_0" departPos="5.10" departSpeed="0.00" departDelay="3.00" arrival="438.00" arrivalLane="3fi_0" arrivalPos="248.50" arrivalSpeed="10.90" duration="255.00" routeLength="2192.00" waitSteps="38" rerouteNo="0" devices="tripinfo_vertical.8" vType="DEFAULT_VEHTYPE" vaporized=""/>
    <tripinfo id="vertical.9" depart="193.00" departLane="3fi_0" departPos="5.10" departSpeed="0.00" departDelay="3.00" arrival="441.00" arrivalLane="3fi_0" arrivalPos="248.50" arrivalSpeed="10.74" duration="248.00" routeLength="2192.00" waitSteps="31" rerouteNo="0" devices="tripinfo_vertical.9" vType="DEFAULT_VEHTYPE" vaporized=""/>
    <tripinfo id="vertical.10" depart="203.00" departLane="3fi_0" departPos="5.10" departSpeed="0.00" departDelay="3.00" arrival="443.00" arrivalLane="3fi_0" arrivalPos="248.50" arrivalSpeed="10.98" duration="240.00" routeLength="2192.00" waitSteps="22" rerouteNo="0" devices="tripinfo_vertical.10" vType="DEFAULT_VEHTYPE" vaporized=""/>
    <tripinfo id="vertical.11" depart="213.00" departLane="3fi_0" departPos="5.10" departSpeed="0.00" departDelay="3.00" arrival="445.00" arrivalLane="3fi_0" arrivalPos="248.50" arrivalSpeed="10.34" duration="232.00" routeLength="2192.00" waitSteps="15" rerouteNo="0" devices="tripinfo_vertical.11" vType="DEFAULT_VEHTYPE" vaporized=""/>
    <tripinfo id="vertical.12" depart="223.00" departLane="3fi_0" departPos="5.10" departSpeed="0.00" departDelay="3.00" arrival="447.00" arrivalLane="3fi_0" arrivalPos="248.50" arrivalSpeed="10.79" duration="224.00" routeLength="2192.00" waitSteps="6" rerouteNo="0" devices="tripinfo_vertical.12" vType="DEFAULT_VEHTYPE" vaporized=""/>
    <tripinfo id="vertical.13" depart="233.00" departLane="3fi_0" departPos="5.10" departSpeed="0.00" departDelay="3.00" arrival="450.00" arrivalLane="3fi_0" arrivalPos="248.50" arrivalSpeed="10.30" duration="217.00" routeLength="2192.00" waitSteps="0" rerouteNo="0" devices="tripinfo_vertical.13" vType="DEFAULT_VEHTYPE" vaporized=""/>
    <tripinfo id="vertical.14" depart="243.00" departLane="3fi_0" departPos="5.10" departSpeed="0.00" departDelay="3.00" arrival="452.00" arrivalLane="3fi_0" arrivalPos="248.50" arrivalSpeed="10.68" duration="209.00" routeLength="2192.00" waitSteps="0" rerouteNo="0" devices="tripinfo_vertical.14" vType="DEFAULT_VEHTYPE" vaporized=""/>
    <tripinfo id="vertical.15" depart="253.00" departLane="3fi_0" departPos="5.10" departSpeed="0.00" departDelay="3.00" arrival="462.00" arrivalLane="3fi_0" arrivalPos="248.50" arrivalSpeed="10.62" duration="209.00" routeLength="2192.00" waitSteps="0" rerouteNo="0" devices="tripinfo_vertical.15" vType="DEFAULT_VEHTYPE" vaporized=""/>
    <tripinfo id="horizontal.12" depart="220.00" departLane="2fi_0" departPos="5.10" departSpeed="0.00" departDelay="0.00" arrival="481.00" arrivalLane="2fi_0" arrivalPos="248.50" arrivalSpeed="10.16" duration="261.00" routeLength="2192.00" waitSteps="46" rerouteNo="0" devices="tripinfo_horizontal.12" vType="DEFAULT_VEHTYPE" vaporized=""/>
    <tripinfo id="horizontal.13" depart="244.00" departLane="2fi_0" departPos="5.10" departSpeed="0.00" departDelay="14.00" arrival="483.00" arrivalLane="2fi_0" arrivalPos="248.50" arrivalSpeed="11.10" duration="239.00" routeLength="2192.00" waitSteps="23" rerouteNo="0" devices="tripinfo_horizontal.13" vType="DEFAULT_VEHTYPE" vaporized=""/>
    <tripinfo id="horizontal.14" depart="247.00" departLane="2fi_0" departPos="5.10" departSpeed="0.00" departDelay="7.00" arrival="485.00" arrivalLane="2fi_0" arrivalPos="248.50" arrivalSpeed="10.23" duration="238.00" routeLength="2192.00" waitSteps="21" rerouteNo="0" devices="tripinfo_horizontal.14" vType="DEFAULT_VEHTYPE" vaporized=""/>
    <tripinfo id="horizontal.15" depart="254.00" departLane="2fi_0" departPos="5.10" departSpeed="0.00" departDelay="4.00" arrival="488.00" arrivalLane="2fi_0" arrivalPos="248.50" arrivalSpeed="10.48" duration="234.00" routeLength="2192.00" waitSteps="17" rerouteNo="0" devices="tripinfo_horizontal.15" vType="DEFAULT_VEHTYPE" vaporized=""/>
    <tripinfo id="horizontal.16" depart="260.00" departLane="2fi_0" departPos="5.10" departSpeed="0.00" departDelay="0.00" arrival="490.00" arrivalLane="2fi_0" arrivalPos="248.50" arrivalSpeed="9.92" duration="230.00" routeLength="2192.00" waitSteps="12" rerouteNo="0" devices="tripinfo_horizontal.16" vType="DEFAULT_VEHTYPE" vaporized=""/>
    <tripinfo id="horizontal.17" depart="270.00" departLane="2fi_0" departPos="5.10" departSpeed="0.00" departDelay="0.00" arrival="492.00" arrivalLane="2fi_0" arrivalPos="248.50" arrivalSpeed="10.09" duration="222.00" routeLength="2192.00" waitSteps="3" rerouteNo="0" devices="tripinfo_horizontal.17" vType="DEFAULT_VEHTYPE" vaporized=""/>
    <tripinfo id="horizontal.18" depart="280.00" departLane="2fi_0" departPos="5.10" departSpeed="0.00" departDelay="0.00" arrival="495.00" arrivalLane="2fi_0" arrivalPos="248.50" arrivalSpeed="10.24" duration="215.00" routeLength="2192.00" waitSteps="0" rerouteNo="0" devices="tripinfo_horizontal.18" vType="DEFAULT_VEHTYPE" vaporized=""/>
    <tripinfo id="horizontal.19" depart="290.00" departLane="2fi_0" departPos="5.10" departSpeed="0.00" departDelay="0.00" arrival="498.00" arrivalLane="2fi_0" arrivalPos="248.50" arrivalSpeed="10.36" duration="208.00" routeLength="2192.00" waitSteps="0" rerouteNo="0" devices="tripinfo_horizontal.19" vType="DEFAULT_VEHTYPE" vaporized=""/>
    <tripinfo id="horizontal.20" depart="300.00" departLane="2fi_0" departPos="5.10" departSpeed="0.00" departDelay="0.00" arrival="510.00" arrivalLane="2fi_0" arrivalPos="248.50" arrivalSpeed="9.95" duration="210.00" routeLength="2192.00" waitSteps="0" rerouteNo="0" devices="tripinfo_horizontal.20" vType="DEFAULT_VEHTYPE" vaporized=""/>
    <tripinfo id="vertical.16" depart="263.00" departLane="3fi_0" departPos="5.10" departSpeed="0.00" departDelay="3.00" arrival="526.00" arrivalLane="3fi_0" arrivalPos="248.50" arrivalSpeed="10.61" duration="263.00" routeLength="2192.00" waitSteps="48" rerouteNo="0" devices="tripinfo_vertical.16" vType="DEFAULT_VEHTYPE" vaporized=""/>
    <tripinfo id="vertical.17" depart="273.00" departLane="3fi_0" departPos="5.10" departSpeed="0.00" departDelay="3.00" arrival="529.00" arrivalLane="3fi_0" arrivalPos="248.50" arrivalSpeed="10.42" duration="256.00" routeLength="2192.00" waitSteps="40" rerouteNo="0" devices="tripinfo_vertical.17" vType="DEFAULT_VEHTYPE" vaporized=""/>
    <tripinfo id="vertical.18" depart="283.00" departLane="3fi_0" departPos="5.10" departSpeed="0.00" departDelay="3.00" arrival="532.00" arrivalLane="3fi_0" arrivalPos="248.50" arrivalSpeed="10.30" duration="249.00" routeLength="2192.00" waitSteps="32" rerouteNo="0" devices="tripinfo_vertical.18" vType="DEFAULT_VEHTYPE" vaporized=""/>
    <tripinfo id="vertical.19" depart="293.00" departLane="3fi_0" departPos="5.10" departSpeed="0.00" departDelay="3.00" arrival="534.00" arrivalLane="3fi_0" arrivalPos="248.50" arrivalSpeed="10.41" duration="241.00" routeLength="2192.00" waitSteps="22" rerouteNo="0" devices="tripinfo_vertical.19" vType="DEFAULT_VEHTYPE" vaporized=""/>
    <tripinfo id="vertical.20" depart="303.00" departLane="3fi_0" departPos="5.10" departSpeed="0.00" departDelay="3.00" arrival="536.00" arrivalLane="3fi_0" arrivalPos="248.50" arrivalSpeed="10.58" duration="233.00" routeLength="2192.00" waitSteps="14" rerouteNo="0" devices="tripinfo_vertical.20" vType="DEFAULT_VEHTYPE" vaporized=""/>
    <tripinfo id="vertical.21" depart="313.00" departLane="3fi_0" departPos="5.10" departSpeed="0.00" departDelay="3.00" arrival="538.00" arrivalLane="3fi_0" arrivalPos="248.50" arrivalSpeed="9.81" duration="225.00" routeLength="2192.00" waitSteps="6" rerouteNo="0" devices="tripinfo_vertical.21" vType="DEFAULT_VEHTYPE" vaporized=""/>
    <tripinfo id="vertical.22" depart="340.00" departLane="3fi_0" departPos="5.10" departSpeed="0.00" departDelay="20.00" arrival="548.00" arrivalLane="3fi_0" arrivalPos="248.50" arrivalSpeed="10.73" duration="208.00" routeLength="2192.00" waitSteps="0" rerouteNo="0" devices="tripinfo_vertical.22" vType="DEFAULT_VEHTYPE" vaporized=""/>
    <tripinfo id="horizontal.21" depart="310.00" departLane="2fi_0" departPos="5.10" departSpeed="0.00" departDelay="0.00" arrival="572.00" arrivalLane="2fi_0" arrivalPos="248.50" arrivalSpeed="10.20" duration="262.00" routeLength="2192.00" waitSteps="46" rerouteNo="0" devices="tripinfo_horizontal.21" vType="DEFAULT_VEHTYPE" vaporized=""/>
    <tripinfo id="horizontal.22" depart="345.00" departLane="2fi_0" departPos="5.10" departSpeed="0.00" departDelay="25.00" arrival="574.00" arrivalLane="2fi_0" arrivalPos="248.50" arrivalSpeed="10.98" duration="229.00" routeLength="2192.00" waitSteps="14" rerouteNo="0" devices="tripinfo_horizontal.22" vType="DEFAULT_VEHTYPE" vaporized=""/>
    <tripinfo id="horizontal.23" depart="356.00" departLane="2fi_0" departPos="5.10" departSpeed="0.00" departDelay="26.00" arrival="576.00" arrivalLane="2fi_0" arrivalPos="248.50" arrivalSpeed="10.07" duration="220.00" routeLength="2192.00" waitSteps="3" rerouteNo="0" devices="tripinfo_horizontal.23" vType="DEFAULT_VEHTYPE" vaporized=""/>
    <tripinfo id="horizontal.24" depart="359.00" departLane="2fi_0" departPos="5.10" departSpeed="0.00" departDelay="19.00" arrival="578.00" arrivalLane="2fi_0" arrivalPos="248.50" arrivalSpeed="10.31" duration="219.00" routeLength="2192.00" waitSteps="0" rerouteNo="0" devices="tripinfo_horizontal.24" vType="DEFAULT_VEHTYPE" vaporized=""/>
    <tripinfo id="horizontal.25" depart="362.00" departLane="2fi_0" departPos="5.10" departSpeed="0.00" departDelay="12.00" arrival="581.00" arrivalLane="2fi_0" arrivalPos="248.50" arrivalSpeed="9.94" duration="219.00" routeLength="2192.00" waitSteps="0" rerouteNo="0" devices="tripinfo_horizontal.25" vType="DEFAULT_VEHTYPE" vaporized=""/>
    <tripinfo id="horizontal.26" depart="387.00" departLane="2fi_0" departPos="5.10" departSpeed="0.00" departDelay="27.00" arrival="596.00" arrivalLane="2fi_0" arrivalPos="248.50" arrivalSpeed="10.76" duration="209.00" routeLength="2192.00" waitSteps="0" rerouteNo="0" devices="tripinfo_horizontal.26" vType="DEFAULT_VEHTYPE" vaporized=""/>
    <tripinfo id="horizontal.27" depart="390.00" departLane="2fi_0" departPos="5.10" departSpeed="0.00" departDelay="20.00" arrival="599.00" arrivalLane="2fi_0" arrivalPos="248.50" arrivalSpeed="11.01" duration="209.00" routeLength="2192.00" waitSteps="0" rerouteNo="0" devices="tripinfo_horizontal.27" vType="DEFAULT_VEHTYPE" vaporized=""/>
    <tripinfo id="vertical.23" depart="349.00" departLane="3fi_0" departPos="5.10" departSpeed="0.00" departDelay="19.00" arrival="617.00" arrivalLane="3fi_0" arrivalPos="248.50" arrivalSpeed="9.92" duration="268.00" routeLength="2192.00" waitSteps="51" rerouteNo="0" devices="tripinfo_vertical.23" vType="DEFAULT_VEHTYPE" vaporized=""/>
    <tripinfo id="vertical.24" depart="355.00" departLane="3fi_0" departPos="5.10" departSpeed="0.00" departDelay="15.00" arrival="619.00" arrivalLane="3fi_0" arrivalPos="248.50" arrivalSpeed="10.71" duration="264.00" routeLength="2192.00" waitSteps="49" rerouteNo="0" devices="tripinfo_vertical.24" vType="DEFAULT_VEHTYPE" vaporized=""/>
    <tripinfo id="vertical.25" depart="361.00" departLane="3fi_0" departPos="5.10" departSpeed="0.00" departDelay="11.00" arrival="622.00" arrivalLane="3fi_0" arrivalPos="248.50" arrivalSpeed="10.27" duration="261.00" routeLength="2192.00" waitSteps="43" rerouteNo="0" devices="tripinfo_vertical.25" vType="DEFAULT_VEHTYPE" vaporized=""/>
    <tripinfo id="vertical.26" depart="367.00" departLane="3fi_0" departPos="5.10" departSpeed="0.00" departDelay="7.00" arrival="624.00" arrivalLane="3fi_0" arrivalPos="248.50" arrivalSpeed="10.69" duration="257.00" routeLength="2192.00" waitSteps="39" rerouteNo="0" devices="tripinfo_vertical.26" vType="DEFAULT_VEHTYPE" vaporized=""/>
    <tripinfo id="vertical.27" depart="373.00" departLane="3fi_0" departPos="5.10" departSpeed="0.00" departDelay="3.00" arrival="626.00" arrivalLane="3fi_0" arrivalPos="248.50" arrivalSpeed="10.76" duration="253.00" routeLength="2192.00" waitSteps="35" rerouteNo="0" devices="tripinfo_vertical.27" vType="DEFAULT_VEHTYPE" vaporized=""/>
    <tripinfo id="vertical.28" depart="383.00" departLane="3fi_0" departPos="5.10" departSpeed="0.00" departDelay="3.00" arrival="628.00" arrivalLane="3fi_0" arrivalPos="248.50" arrivalSpeed="10.48" duration="245.00" routeLength="2192.00" waitSteps="25" rerouteNo="0" devices="tripinfo_vertical.28" vType="DEFAULT_VEHTYPE" vaporized=""/>
    <tripinfo id="vertical.29" depart="393.00" departLane="3fi_0" departPos="5.10" departSpeed="0.00" departDelay="3.00" arrival="631.00" arrivalLane="3fi_0" arrivalPos="248.50" arrivalSpeed="10.83" duration="238.00" routeLength="2192.00" waitSteps="17" rerouteNo="0" devices="tripinfo_vertical.29" vType="DEFAULT_VEHTYPE" vaporized=""/>
    <tripinfo id="vertical.30" depart="403.00" departLane="3fi_0" departPos="5.10" departSpeed="0.00" departDelay="3.00" arrival="633.00" arrivalLane="3fi_0" arrivalPos="248.50" arrivalSpeed="9.97" duration="230.00" routeLength="2192.00" waitSteps="9" rerouteNo="0" devices="tripinfo_vertical.30" vType="DEFAULT_VEHTYPE" vaporized=""/>
    <tripinfo id="always_left.0" depart="100.00" departLane="1fi_0" departPos="5.10" departSpeed="0.00" departDelay="0.00" arrival="634.00" arrivalLane="1fi_0" arrivalPos="248.50" arrivalSpeed="10.23" duration="534.00" routeLength="4140.60" waitSteps="109" rerouteNo="0" devices="tripinfo_always_left.0" vType="DEFAULT_VEHTYPE" vaporized=""/>
    <tripinfo id="always_left.1" depart="110.00" departLane="1fi_0" departPos="5.10" departSpeed="0.00" departDelay="0.00" arrival="637.00" arrivalLane="1fi_0" arrivalPos="248.50" arrivalSpeed="9.91" duration="527.00" routeLength="4140.60" waitSteps="101" rerouteNo="0" devices="tripinfo_always_left.1" vType="DEFAULT_VEHTYPE" vaporized=""/>
    <tripinfo id="vertical.31" depart="433.00" departLane="3fi_0" departPos="5.10" departSpeed="0.00" departDelay="23.00" arrival="642.00" arrivalLane="3fi_0" arrivalPos="248.50" arrivalSpeed="11.09" duration="209.00" routeLength="2192.00" waitSteps="0" rerouteNo="0" devices="tripinfo_vertical.31" vType="DEFAULT_VEHTYPE" vaporized=""/>
    <tripinfo id="always_left.2" depart="120.00" departLane="1fi_0" departPos="5.10" departSpeed="0.00" departDelay="0.00" arrival="645.00" arrivalLane="1fi_0" arrivalPos="248.50" arrivalSpeed="10.22" duration="525.00" routeLength="4140.60" waitSteps="86" rerouteNo="0" devices="tripinfo_always_left.2" vType="DEFAULT_VEHTYPE" vaporized=""/>
    <tripinfo id="always_left.3" depart="130.00" departLane="1fi_0" departPos="5.10" departSpeed="0.00" departDelay="0.00" arrival="647.00" arrivalLane="1fi_0" arrivalPos="248.50" arrivalSpeed="10.46" duration="517.00" routeLength="4140.60" waitSteps="70" rerouteNo="0" devices="tripinfo_always_left.3" vType="DEFAULT_VEHTYPE" vaporized=""/>
    <tripinfo id="always_right.0" depart="100.00" departLane="3fi_0" departPos="5.10" departSpeed="0.00" departDelay="0.00" arrival="660.00" arrivalLane="3fi_0" arrivalPos="248.50" arrivalSpeed="10.48" duration="560.00" routeLength="4140.60" waitSteps="145" rerouteNo="0" devices="tripinfo_always_right.0" vType="DEFAULT_VEHTYPE" vaporized=""/>
    <tripinfo id="horizontal.28" depart="396.00" departLane="2fi_0" departPos="5.10" departSpeed="0.00" departDelay="16.00" arrival="662.00" arrivalLane="2fi_0" arrivalPos="248.50" arrivalSpeed="10.48" duration="266.00" routeLength="2192.00" waitSteps="48" rerouteNo="0" devices="tripinfo_horizontal.28" vType="DEFAULT_VEHTYPE" vaporized=""/>
    <tripinfo id="always_right.1" depart="110.00" departLane="3fi_0" departPos="5.10" departSpeed="0.00" departDelay="0.00" arrival="662.00" arrivalLane="3fi_0" arrivalPos="248.50" arrivalSpeed="10.67" duration="552.00" routeLength="4140.60" waitSteps="131" rerouteNo="0" devices="tripinfo_always_right.1" vType="DEFAULT_VEHTYPE" vaporized=""/>
    <tripinfo id="horizontal.29" depart="399.00" departLane="2fi_0" departPos="5.10" departSpeed="0.00" departDelay="9.00" arrival="664.00" arrivalLane="2fi_0" arrivalPos="248.50" arrivalSpeed="10.68" duration="265.00" routeLength="2192.00" waitSteps="46" rerouteNo="0" devices="tripinfo_horizontal.29" vType="DEFAULT_VEHTYPE" vaporized=""/>
    <tripinfo id="always_right.2" depart="120.00" departLane="3fi_0" departPos="5.10" departSpeed="0.00" departDelay="0.00" arrival="664.00" arrivalLane="3fi_0" arrivalPos="248.50" arrivalSpeed="10.07" duration="544.00" routeLength="4140.60" waitSteps="120" rerouteNo="0" devices="tripinfo_always_right.2" vType="DEFAULT_VEHTYPE" vaporized=""/>
    <tripinfo id="horizontal.30" depart="402.00" departLane="2fi_0" departPos="5.10" departSpeed="0.00" departDelay="2.00" arrival="666.00" arrivalLane="2fi_0" arrivalPos="248.50" arrivalSpeed="9.93" duration="264.00" routeLength="2192.00" waitSteps="46" rerouteNo="0" devices="tripinfo_horizontal.30" vType="DEFAULT_VEHTYPE" vaporized=""/>
    <tripinfo id="always_right.3" depart="130.00" departLane="3fi_0" departPos="5.10" departSpeed="0.00" departDelay="0.00" arrival="666.00" arrivalLane="3fi_0" arrivalPos="248.50" arrivalSpeed="11.00" duration="536.00" routeLength="4140.60" waitSteps="108" rerouteNo="0" devices="tripinfo_always_right.3" vType="DEFAULT_VEHTYPE" vaporized=""/>
    <tripinfo id="horizontal.31" depart="430.00" departLane="2fi_0" departPos="5.10" departSpeed="0.00" departDelay="20.00" arrival="668.00" arrivalLane="2fi_0" arrivalPos="248.50" arrivalSpeed="10.77" duration="238.00" routeLength="2192.00" waitSteps="21" rerouteNo="0" devices="tripinfo_horizontal.31" vType="DEFAULT_VEHTYPE" vaporized=""/>
    <tripinfo id="always_right.4" depart="140.00" departLane="3fi_0" departPos="5.10" departSpeed="0.00" departDelay="0.00" arrival="669.00" arrivalLane="3fi_0" arrivalPos="248.50" arrivalSpeed="10.19" duration="529.00" routeLength="4140.60" waitSteps="97" rerouteNo="0" devices="tripinfo_always_right.4" vType="DEFAULT_VEHTYPE" vaporized=""/>
    <tripinfo id="horizontal.32" depart="433.00" departLane="2fi_0" departPos="5.10" departSpeed="0.00" departDelay="13.00" arrival="671.00" arrivalLane="2fi_0" arrivalPos="248.50" arrivalSpeed="10.25" duration="238.00" routeLength="2192.00" waitSteps="19" rerouteNo="0" devices="tripinfo_horizontal.32" vType="DEFAULT_VEHTYPE" vaporized=""/>
    <tripinfo id="always_right.5" depart="150.00" departLane="3fi_0" departPos="5.10" departSpeed="0.00" departDelay="0.00" arrival="671.00" arrivalLane="3fi_0" arrivalPos="248.50" arrivalSpeed="10.93" duration="521.00" routeLength="4140.60" waitSteps="92" rerouteNo="0" devices="tripinfo_always_right.5" vType="DEFAULT_VEHTYPE" vaporized=""/>
    <tripinfo id="horizontal.33" depart="449.00" departLane="2fi_0" departPos="5.10" departSpeed="0.00" departDelay="19.00" arrival="673.00" arrivalLane="2fi_0" arrivalPos="248.50" arrivalSpeed="10.55" duration="224.00" routeLength="2192.00" waitSteps="5" rerouteNo="0" devices="tripinfo_horizontal.33" vType="DEFAULT_VEHTYPE" vaporized=""/>
    <tripinfo id="always_right.6" depart="160.00" departLane="3fi_0" departPos="5.10" departSpeed="0.00" departDelay="0.00" arrival="673.00" arrivalLane="3fi_0" arrivalPos="248.50" arrivalSpeed="10.75" duration="513.00" routeLength="4140.60" waitSteps="85" rerouteNo="0" devices="tripinfo_always_right.6" vType="DEFAULT_VEHTYPE" vaporized=""/>
    <tripinfo id="horizontal.34" depart="452.00" departLane="2fi_0" departPos="5.10" departSpeed="0.00" departDelay="12.00" arrival="675.00" arrivalLane="2fi_0" arrivalPos="248.50" arrivalSpeed="10.20" duration="223.00" routeLength="2192.00" waitSteps="4" rerouteNo="0" devices="tripinfo_horizontal.34" vType="DEFAULT_VEHTYPE" vaporized=""/>
    <tripinfo id="horizontal.35" depart="476.00" departLane="2fi_0" departPos="5.10" departSpeed="0.00" departDelay="26.00" arrival="687.00" arrivalLane="2fi_0" arrivalPos="248.50" arrivalSpeed="10.78" duration="211.00" routeLength="2192.00" waitSteps="0" rerouteNo="0" devices="tripinfo_horizontal.35" vType="DEFAULT_VEHTYPE" vaporized=""/>
    <tripinfo id="horizontal.36" depart="479.00" departLane="2fi_0" departPos="5.10" departSpeed="0.00" departDelay="19.00" arrival="688.00" arrivalLane="2fi_0" arrivalPos="248.50" arrivalSpeed="10.87" duration="209.00" routeLength="2192.00" waitSteps="0" rerouteNo="0" devices="tripinfo_horizontal.36" vType="DEFAULT_VEHTYPE" vaporized=""/>
    <tripinfo id="vertical.32" depart="442.00" departLane="3fi_0" departPos="5.10" departSpeed="0.00" departDelay="22.00" arrival="708.00" arrivalLane="3fi_0" arrivalPos="248.50" arrivalSpeed="10.62" duration="266.00" routeLength="2192.00" waitSteps="50" rerouteNo="0" devices="tripinfo_vertical.32" vType="DEFAULT_VEHTYPE" vaporized=""/>
    <tripinfo id="vertical.33" depart="448.00" departLane="3fi_0" departPos="5.10" departSpeed="0.00" departDelay="18.00" arrival="710.00" arrivalLane="3fi_0" arrivalPos="248.50" arrivalSpeed="10.99" duration="262.00" routeLength="2192.00" waitSteps="44" rerouteNo="0" devices="tripinfo_vertical.33" vType="DEFAULT_VEHTYPE" vaporized=""/>
    <tripinfo id="vertical.34" depart="454.00" departLane="3fi_0" departPos="5.10" departSpeed="0.00" departDelay="14.00" arrival="712.00" arrivalLane="3fi_0" arrivalPos="248.50" arrivalSpeed="10.50" duration="258.00" routeLength="2192.00" waitSteps="40" rerouteNo="0" devices="tripinfo_vertical.34" vType="DEFAULT_VEHTYPE" vaporized=""/>
    <tripinfo id="vertical.35" depart="460.00" departLane="3fi_0" departPos="5.10" departSpeed="0.00" departDelay="10.00" arrival="714.00" arrivalLane="3fi_0" arrivalPos="248.50" arrivalSpeed="10.37" duration="254.00" routeLength="2192.00" waitSteps="37" rerouteNo="0" devices="tripinfo_vertical.35" vType="DEFAULT_VEHTYPE" vaporized=""/>
    <tripinfo id="vertical.36" depart="466.00" departLane="3fi_0" departPos="5.10" departSpeed="0.00" departDelay="6.00" arrival="717.00" arrivalLane="3fi_0" arrivalPos="248.50" arrivalSpeed="10.88" duration="251.00" routeLength="2192.00" waitSteps="31" rerouteNo="0" devices="tripinfo_vertical.36" vType="DEFAULT_VEHTYPE" vaporized=""/>
    <tripinfo id="vertical.37" depart="473.00" departLane="3fi_0" departPos="5.10" departSpeed="0.00" departDelay="3.00" arrival="719.00" arrivalLane="3fi_0" arrivalPos="248.50" arrivalSpeed="10.12" duration="246.00" routeLength="2192.00" waitSteps="26" rerouteNo="0" devices="tripinfo_vertical.37" vType="DEFAULT_VEHTYPE" vaporized=""/>