<?xml version="1.0" encoding="UTF-8"?>

<!-- generated on 2021-08-24 11:28:22 by Eclipse SUMO sumo Version v1_10_0+0165-ee91fbe
This data file and the accompanying materials
are made available under the terms of the Eclipse Public License v2.0
which accompanies this distribution, and is available at
http://www.eclipse.org/legal/epl-v20.html
SPDX-License-Identifier: EPL-2.0
<configuration xmlns:xsi="http://www.w3.org/2001/XMLSchema-instance" xsi:noNamespaceSchemaLocation="http://sumo.dlr.de/xsd/sumoConfiguration.xsd">

    <input>
        <net-file value="net.net.xml"/>
        <route-files value="input_routes.rou.xml"/>
        <additional-files value="input_additional.add.xml"/>
    </input>

    <output>
        <write-license value="true"/>
        <vehroute-output value="vehroutes.xml"/>
        <vehroute-output.exit-times value="true"/>
    </output>

    <processing>
        <default.speeddev value="0"/>
    </processing>

    <report>
        <xml-validation value="never"/>
        <xml-validation.routes value="never"/>
        <duration-log.disable value="true"/>
        <no-step-log value="true"/>
    </report>

</configuration>
-->

<routes xmlns:xsi="http://www.w3.org/2001/XMLSchema-instance" xsi:noNamespaceSchemaLocation="http://sumo.dlr.de/xsd/routes_file.xsd">
    <person id="p31" depart="0.00" arrival="10.00">
        <stop busStop="bs" duration="10.00" started="0.00" ended="10.00"/>
    </person>

    <person id="p32" depart="0.00" arrival="10.00">
        <stop trainStop="ts" duration="10.00" started="0.00" ended="10.00"/>
    </person>

    <person id="p33" depart="0.00" arrival="10.00">
        <stop containerStop="cs" duration="10.00" started="0.00" ended="10.00"/>
    </person>

    <person id="p34" depart="0.00" arrival="10.00">
        <stop parkingArea="pa" duration="10.00" started="0.00" ended="10.00"/>
    </person>

    <person id="p35" depart="0.00" arrival="10.00">
        <stop chargingStation="cc" duration="10.00" started="0.00" ended="10.00"/>
    </person>

    <person id="p21" depart="0.00" arrival="1212.00">
        <walk edges="beg middle end" busStop="bs" exitTimes="402.00 1200.00 1212.00"/>
    </person>

    <person id="p11" depart="0.00" arrival="1213.00">
        <walk edges="beg middle end" busStop="bs" exitTimes="398.00 1200.00 1213.00"/>
    </person>

    <person id="p41" depart="0.00" arrival="1221.00">
        <walk edges="beg middle end" busStop="bs" exitTimes="407.00 1209.00 1221.00"/>
    </person>

    <person id="p12" depart="0.00" arrival="1266.00">
        <walk edges="beg middle end" busStop="ts" exitTimes="400.00 1201.00 1266.00"/>
    </person>

    <person id="p22" depart="0.00" arrival="1270.00">
        <walk edges="beg middle end" busStop="ts" exitTimes="404.00 1207.00 1270.00"/>
    </person>

    <person id="p42" depart="0.00" arrival="1276.00">
        <walk edges="beg middle end" busStop="ts" exitTimes="409.00 1212.00 1276.00"/>
    </person>

    <person id="p23" depart="0.00" arrival="1324.00">
        <walk edges="beg middle end" busStop="cs" exitTimes="406.00 1208.00 1324.00"/>
    </person>

    <person id="p13" depart="0.00" arrival="1397.00">
        <walk edges="beg middle end" exitTimes="401.00 1199.00 1397.00"/>
    </person>

    <person id="p14" depart="0.00" arrival="1402.00">
        <walk edges="beg middle end" exitTimes="402.00 1202.00 1402.00"/>
    </person>

    <person id="p15" depart="0.00" arrival="1404.00">
        <walk edges="beg middle end" exitTimes="404.00 1204.00 1404.00"/>
    </person>

    <person id="p43" depart="0.00" arrival="1411.00">
        <walk edges="beg middle end" exitTimes="408.00 1210.00 1411.00"/>
    </person>

    <person id="p45" depart="0.00" arrival="1412.00">
        <walk edges="beg middle end" exitTimes="412.00 1212.00 1412.00"/>
    </person>

    <person id="p44" depart="0.00" arrival="1417.00">
        <walk edges="beg middle end" exitTimes="410.00 1215.00 1417.00"/>
    </person>

    <person id="p24" depart="0.00" arrival="1783.00">
        <walk edges="beg middle end" busStop="pa" exitTimes="406.00 1208.00 1783.00"/>
    </person>

    <person id="p25" depart="0.00" arrival="2557.00">
        <walk edges="beg middle end" busStop="cc" exitTimes="406.00 1208.00 2557.00"/>
    </person>

    <person id="p1" depart="0.00">
        <ride from="beg" to="end" busStop="bs" lines="ANY" ended="-1"/>
    </person>

    <person id="p2" depart="0.00">
        <ride from="beg" to="end" trainStop="ts" lines="ANY" ended="-1"/>
    </person>

    <person id="p3" depart="0.00">
        <ride from="beg" to="end" containerStop="cs" lines="ANY" ended="-1"/>
    </person>

    <person id="p4" depart="0.00">
        <ride from="beg" to="end" parkingArea="pa" lines="ANY" ended="-1"/>
    </person>

    <person id="p5" depart="0.00">
        <ride from="beg" to="end" chargingStation="cc" lines="ANY" ended="-1"/>
    </person>

</routes>
