<?xml version="1.0" encoding="UTF-8"?>

<!-- generated on 2026-05-29T17:35:38.753696+01:00 by Eclipse SUMO sumo v1_27_0+0065-a761253ea52
<sumoConfiguration xmlns:xsi="http://www.w3.org/2001/XMLSchema-instance" xsi:noNamespaceSchemaLocation="http://sumo.dlr.de/xsd/sumoConfiguration.xsd">

    <input>
        <net-file value="input_net2.net.xml"/>
        <route-files value="input_routes.rou.xml"/>
    </input>

    <output>
        <tripinfo-output value="tripinfo.xml"/>
        <save-state.times value="700"/>
        <save-state.files value="state.xml"/>
        <save-state.rng value="true"/>
    </output>

    <processing>
        <default.departspeed value="0"/>
        <default.departlane value="first"/>
    </processing>

    <report>
        <duration-log.disable value="true"/>
        <no-step-log value="true"/>
    </report>

</sumoConfiguration>
-->

<tripinfos xmlns:xsi="http://www.w3.org/2001/XMLSchema-instance" xsi:noNamespaceSchemaLocation="http://sumo.dlr.de/xsd/tripinfo_file.xsd">
    <tripinfo id="v0" depart="0.00" departLane="SC_0" departPos="5.10" departSpeed="13.55" departDelay="0.00" arrival="15.00" arrivalLane="CN_0" arrivalPos="91.95" arrivalSpeed="13.55" duration="15.00" routeLength="194.90" waitingTime="0.00" waitingCount="0" stopTime="0.00" timeLoss="0.00" rerouteNo="0" devices="tripinfo_v0" vType="t2" speedFactor="0.98" vaporized=""/>
    <tripinfo id="v1" depart="100.00" departLane="SC_0" departPos="3.10" departSpeed="13.89" departDelay="0.00" arrival="114.00" arrivalLane="CN_0" arrivalPos="91.95" arrivalSpeed="15.04" duration="14.00" routeLength="196.90" waitingTime="0.00" waitingCount="0" stopTime="0.00" timeLoss="0.00" rerouteNo="0" devices="tripinfo_v1" vType="t1" speedFactor="1.08" vaporized=""/>
    <tripinfo id="v2" depart="200.00" departLane="SC_0" departPos="5.10" departSpeed="13.89" departDelay="0.00" arrival="212.00" arrivalLane="CN_0" arrivalPos="91.95" arrivalSpeed="16.67" duration="12.00" routeLength="194.90" waitingTime="0.00" waitingCount="0" stopTime="0.00" timeLoss="0.01" rerouteNo="0" devices="tripinfo_v2" vType="t2" speedFactor="1.20" vaporized=""/>
    <tripinfo id="v3" depart="300.00" departLane="SC_0" departPos="3.10" departSpeed="13.89" departDelay="0.00" arrival="369.00" arrivalLane="CN_0" arrivalPos="91.95" arrivalSpeed="14.53" duration="69.00" routeLength="196.90" waitingTime="51.00" waitingCount="1" stopTime="0.00" timeLoss="55.27" rerouteNo="0" devices="tripinfo_v3" vType="t1" speedFactor="1.05" vaporized=""/>
    <tripinfo id="v4" depart="400.00" departLane="SC_0" departPos="3.10" departSpeed="13.89" departDelay="0.00" arrival="459.00" arrivalLane="CN_0" arrivalPos="91.95" arrivalSpeed="14.97" duration="59.00" routeLength="196.90" waitingTime="41.00" waitingCount="1" stopTime="0.00" timeLoss="45.53" rerouteNo="0" devices="tripinfo_v4" vType="t1" speedFactor="1.08" vaporized=""/>
    <tripinfo id="v5" depart="500.00" departLane="SC_0" departPos="5.10" departSpeed="13.03" departDelay="0.00" arrival="550.00" arrivalLane="CN_0" arrivalPos="91.95" arrivalSpeed="13.03" duration="50.00" routeLength="194.90" waitingTime="31.00" waitingCount="1" stopTime="0.00" timeLoss="34.42" rerouteNo="0" devices="tripinfo_v5" vType="t2" speedFactor="0.94" vaporized=""/>
    <tripinfo id="v6" depart="600.00" departLane="SC_0" departPos="3.10" departSpeed="13.89" departDelay="0.00" arrival="639.00" arrivalLane="CN_0" arrivalPos="91.95" arrivalSpeed="14.13" duration="39.00" routeLength="196.90" waitingTime="21.00" waitingCount="1" stopTime="0.00" timeLoss="25.02" rerouteNo="0" devices="tripinfo_v6" vType="t1" speedFactor="1.02" vaporized=""/>
    <tripinfo id="v7" depart="700.00" departLane="SC_0" departPos="5.10" departSpeed="13.89" departDelay="0.00" arrival="729.00" arrivalLane="CN_0" arrivalPos="91.95" arrivalSpeed="15.15" duration="29.00" routeLength="194.90" waitingTime="12.00" waitingCount="1" stopTime="0.00" timeLoss="15.76" rerouteNo="0" devices="tripinfo_v7" vType="t2" speedFactor="1.09" vaporized=""/>
    <tripinfo id="v8" depart="800.00" departLane="SC_0" departPos="5.10" departSpeed="12.82" departDelay="0.00" arrival="820.00" arrivalLane="CN_0" arrivalPos="91.95" arrivalSpeed="12.82" duration="20.00" routeLength="194.90" waitingTime="1.00" waitingCount="1" stopTime="0.00" timeLoss="4.27" rerouteNo="0" devices="tripinfo_v8" vType="t2" speedFactor="0.92" vaporized=""/>
    <tripinfo id="v9" depart="900.00" departLane="SC_0" departPos="3.10" departSpeed="13.89" departDelay="0.00" arrival="913.00" arrivalLane="CN_0" arrivalPos="91.95" arrivalSpeed="15.60" duration="13.00" routeLength="196.90" waitingTime="0.00" waitingCount="0" stopTime="0.00" timeLoss="0.00" rerouteNo="0" devices="tripinfo_v9" vType="t1" speedFactor="1.12" vaporized=""/>
</tripinfos>
