<?xml version="1.0" encoding="UTF-8"?>

<!-- generated on Tue Mar  3 08:46:38 2020 by Eclipse SUMO Version v1_5_0+0337-8d59749
This data file and the accompanying materials
are made available under the terms of the Eclipse Public License v2.0
which accompanies this distribution, and is available at
http://www.eclipse.org/legal/epl-v20.html
SPDX-License-Identifier: EPL-2.0
<configuration xmlns:xsi="http://www.w3.org/2001/XMLSchema-instance" xsi:noNamespaceSchemaLocation="http://sumo.dlr.de/xsd/sumoConfiguration.xsd">

    <input>
        <net-file value="three_split.net.xml"/>
        <additional-files value="input_routes.rou.xml,input_additional2.add.xml"/>
    </input>

    <output>
        <write-license value="true"/>
        <tripinfo-output value="tripinfos.xml"/>
    </output>

    <time>
        <begin value="0"/>
    </time>

    <processing>
        <default.speeddev value="0"/>
        <pedestrian.model value="nonInteracting"/>
    </processing>

    <report>
        <xml-validation value="never"/>
        <duration-log.disable value="true"/>
        <no-step-log value="true"/>
    </report>

    <mesoscopic>
        <mesosim value="true"/>
    </mesoscopic>

</configuration>
-->

<tripinfos xmlns:xsi="http://www.w3.org/2001/XMLSchema-instance" xsi:noNamespaceSchemaLocation="http://sumo.dlr.de/xsd/tripinfo_file.xsd">
    <tripinfo id="0.2" depart="40.00" departLane="" departPos="0.00" departSpeed="27.80" departDelay="0.00" arrival="58.00" arrivalLane="" arrivalPos="0.00" arrivalSpeed="27.80" duration="18.00" routeLength="500.00" waitingTime="0.00" waitingCount="0" stopTime="0.00" timeLoss="0.00" rerouteNo="0" devices="tripinfo_0.2" vType="DEFAULT_VEHTYPE" speedFactor="1.00" vaporized="vaporizer"/>
    <tripinfo id="0.3" depart="60.00" departLane="" departPos="0.00" departSpeed="27.80" departDelay="0.00" arrival="78.00" arrivalLane="" arrivalPos="0.00" arrivalSpeed="27.80" duration="18.00" routeLength="500.00" waitingTime="0.00" waitingCount="0" stopTime="0.00" timeLoss="0.00" rerouteNo="0" devices="tripinfo_0.3" vType="DEFAULT_VEHTYPE" speedFactor="1.00" vaporized="vaporizer"/>
    <tripinfo id="0.0" depart="0.00" departLane="" departPos="0.00" departSpeed="27.80" departDelay="0.00" arrival="90.00" arrivalLane="" arrivalPos="500.00" arrivalSpeed="27.80" duration="90.00" routeLength="2500.00" waitingTime="0.00" waitingCount="0" stopTime="0.00" timeLoss="0.00" rerouteNo="0" devices="tripinfo_0.0" vType="DEFAULT_VEHTYPE" speedFactor="1.00" vaporized=""/>
    <tripinfo id="0.4" depart="80.00" departLane="" departPos="0.00" departSpeed="27.80" departDelay="0.00" arrival="98.00" arrivalLane="" arrivalPos="0.00" arrivalSpeed="27.80" duration="18.00" routeLength="500.00" waitingTime="0.00" waitingCount="0" stopTime="0.00" timeLoss="0.00" rerouteNo="0" devices="tripinfo_0.4" vType="DEFAULT_VEHTYPE" speedFactor="1.00" vaporized="vaporizer"/>
    <tripinfo id="0.1" depart="20.00" departLane="" departPos="0.00" departSpeed="27.80" departDelay="0.00" arrival="110.00" arrivalLane="" arrivalPos="500.00" arrivalSpeed="27.80" duration="90.00" routeLength="2500.00" waitingTime="0.00" waitingCount="0" stopTime="0.00" timeLoss="0.00" rerouteNo="0" devices="tripinfo_0.1" vType="DEFAULT_VEHTYPE" speedFactor="1.00" vaporized=""/>
    <tripinfo id="0.5" depart="100.00" departLane="" departPos="0.00" departSpeed="27.80" departDelay="0.00" arrival="190.00" arrivalLane="" arrivalPos="500.00" arrivalSpeed="27.80" duration="90.00" routeLength="2500.00" waitingTime="0.00" waitingCount="0" stopTime="0.00" timeLoss="0.00" rerouteNo="0" devices="tripinfo_0.5" vType="DEFAULT_VEHTYPE" speedFactor="1.00" vaporized=""/>
    <tripinfo id="0.6" depart="120.00" departLane="" departPos="0.00" departSpeed="27.80" departDelay="0.00" arrival="210.00" arrivalLane="" arrivalPos="500.00" arrivalSpeed="27.80" duration="90.00" routeLength="2500.00" waitingTime="0.00" waitingCount="0" stopTime="0.00" timeLoss="0.00" rerouteNo="0" devices="tripinfo_0.6" vType="DEFAULT_VEHTYPE" speedFactor="1.00" vaporized=""/>
    <tripinfo id="0.7" depart="140.00" departLane="" departPos="0.00" departSpeed="27.80" departDelay="0.00" arrival="230.00" arrivalLane="" arrivalPos="500.00" arrivalSpeed="27.80" duration="90.00" routeLength="2500.00" waitingTime="0.00" waitingCount="0" stopTime="0.00" timeLoss="0.00" rerouteNo="0" devices="tripinfo_0.7" vType="DEFAULT_VEHTYPE" speedFactor="1.00" vaporized=""/>
    <tripinfo id="0.8" depart="160.00" departLane="" departPos="0.00" departSpeed="27.80" departDelay="0.00" arrival="250.00" arrivalLane="" arrivalPos="500.00" arrivalSpeed="27.80" duration="90.00" routeLength="2500.00" waitingTime="0.00" waitingCount="0" stopTime="0.00" timeLoss="0.00" rerouteNo="0" devices="tripinfo_0.8" vType="DEFAULT_VEHTYPE" speedFactor="1.00" vaporized=""/>
    <tripinfo id="0.9" depart="180.00" departLane="" departPos="0.00" departSpeed="27.80" departDelay="0.00" arrival="270.00" arrivalLane="" arrivalPos="500.00" arrivalSpeed="27.80" duration="90.00" routeLength="2500.00" waitingTime="0.00" waitingCount="0" stopTime="0.00" timeLoss="0.00" rerouteNo="0" devices="tripinfo_0.9" vType="DEFAULT_VEHTYPE" speedFactor="1.00" vaporized=""/>
    <tripinfo id="0.10" depart="200.00" departLane="" departPos="0.00" departSpeed="27.80" departDelay="0.00" arrival="290.00" arrivalLane="" arrivalPos="500.00" arrivalSpeed="27.80" duration="90.00" routeLength="2500.00" waitingTime="0.00" waitingCount="0" stopTime="0.00" timeLoss="0.00" rerouteNo="0" devices="tripinfo_0.10" vType="DEFAULT_VEHTYPE" speedFactor="1.00" vaporized=""/>
</tripinfos>
