<?xml version="1.0" encoding="UTF-8"?>

<!-- generated on 2022-02-11 11:28:37 by Eclipse SUMO sumo Version v1_12_0+0490-00f3a0f
This data file and the accompanying materials
are made available under the terms of the Eclipse Public License v2.0
which accompanies this distribution, and is available at
http://www.eclipse.org/legal/epl-v20.html
This file may also be made available under the following Secondary
Licenses when the conditions for such availability set forth in the Eclipse
Public License 2.0 are satisfied: GNU General Public License, version 2
or later which is available at
https://www.gnu.org/licenses/old-licenses/gpl-2.0-standalone.html
SPDX-License-Identifier: EPL-2.0 OR GPL-2.0-or-later
<configuration xmlns:xsi="http://www.w3.org/2001/XMLSchema-instance" xsi:noNamespaceSchemaLocation="http://sumo.dlr.de/xsd/sumoConfiguration.xsd">

    <input>
        <net-file value="motorway.net.xml"/>
        <route-files value="input_routes.rou.xml"/>
        <additional-files value="input_additional.add.xml"/>
    </input>

    <output>
        <write-license value="true"/>
    </output>

    <processing>
        <max-depart-delay value="1"/>
        <default.speeddev value="0"/>
        <default.emergencydecel value="8"/>
        <pedestrian.model value="nonInteracting"/>
    </processing>

    <report>
        <verbose value="true"/>
        <xml-validation value="never"/>
        <xml-validation.routes value="never"/>
        <duration-log.statistics value="true"/>
        <no-step-log value="true"/>
    </report>

    <mesoscopic>
        <mesosim value="true"/>
        <meso-jam-threshold value="-0.9"/>
        <meso-junction-control value="true"/>
    </mesoscopic>

</configuration>
-->

<detector xmlns:xsi="http://www.w3.org/2001/XMLSchema-instance" xsi:noNamespaceSchemaLocation="http://sumo.dlr.de/xsd/det_e1meso_file.xsd">
    <interval begin="0.00" end="900.00" id="beg2_0" sampledSeconds="3949.76" density="45.47" laneDensity="22.74" occupancy="11.37" waitingTime="0.00" timeLoss="1361.18" speed="23.52" speedRelative="0.65" departed="18" arrived="0" entered="947" left="960"/>
    <interval begin="0.00" end="900.00" id="beg2_1" sampledSeconds="3949.76" density="45.47" laneDensity="22.74" occupancy="11.37" waitingTime="0.00" timeLoss="1361.18" speed="23.52" speedRelative="0.65" departed="18" arrived="0" entered="947" left="960"/>
    <interval begin="900.00" end="1800.00" id="beg2_0" sampledSeconds="5170.51" density="59.52" laneDensity="29.76" occupancy="14.88" waitingTime="0.00" timeLoss="1755.85" speed="23.52" speedRelative="0.65" departed="95" arrived="0" entered="1166" left="1260"/>
    <interval begin="900.00" end="1800.00" id="beg2_1" sampledSeconds="5170.51" density="59.52" laneDensity="29.76" occupancy="14.88" waitingTime="0.00" timeLoss="1755.85" speed="23.52" speedRelative="0.65" departed="95" arrived="0" entered="1166" left="1260"/>
    <interval begin="1800.00" end="2413.00" id="beg2_0" sampledSeconds="2352.79" density="39.77" laneDensity="19.88" occupancy="9.94" waitingTime="0.00" timeLoss="517.27" speed="27.78" speedRelative="0.77" departed="0" arrived="0" entered="674" left="680"/>
    <interval begin="1800.00" end="2413.00" id="beg2_1" sampledSeconds="2352.79" density="39.77" laneDensity="19.88" occupancy="9.94" waitingTime="0.00" timeLoss="517.27" speed="27.78" speedRelative="0.77" departed="0" arrived="0" entered="674" left="680"/>
</detector>
