<?xml version="1.0" encoding="UTF-8"?>

<!-- generated on Thu Mar 12 17:05:14 2020 by Eclipse SUMO Version v1_5_0+0684-7ca31cf
This data file and the accompanying materials
are made available under the terms of the Eclipse Public License v2.0
which accompanies this distribution, and is available at
http://www.eclipse.org/legal/epl-v20.html
SPDX-License-Identifier: EPL-2.0
<configuration xmlns:xsi="http://www.w3.org/2001/XMLSchema-instance" xsi:noNamespaceSchemaLocation="http://sumo.dlr.de/xsd/sumoConfiguration.xsd">

    <input>
        <net-file value="net.net.xml"/>
        <route-files value="input_routes.rou.xml"/>
    </input>

    <output>
        <write-license value="true"/>
        <tripinfo-output value="tripinfos.xml"/>
        <tripinfo-output.write-unfinished value="true"/>
    </output>

    <processing>
        <default.speeddev value="0"/>
    </processing>

    <report>
        <xml-validation value="never"/>
        <duration-log.disable value="true"/>
        <no-step-log value="true"/>
    </report>

    <taxi_device>
        <device.taxi.dispatch-algorithm value="greedyClosest"/>
    </taxi_device>

</configuration>
-->

<tripinfos xmlns:xsi="http://www.w3.org/2001/XMLSchema-instance" xsi:noNamespaceSchemaLocation="http://sumo.dlr.de/xsd/tripinfo_file.xsd">
    <personinfo id="p.0" depart="0.00" type="DEFAULT_PEDTYPE">
        <ride waitingTime="131.00" vehicle="trip_1" depart="131.00" arrival="253.00" arrivalPos="287.60" duration="122.00" routeLength="1372.05"/>
    </personinfo>
    <personinfo id="p.1" depart="0.00" type="DEFAULT_PEDTYPE">
        <ride waitingTime="131.00" vehicle="trip_1" depart="131.00" arrival="253.00" arrivalPos="287.60" duration="122.00" routeLength="1372.05"/>
    </personinfo>
    <personinfo id="p.2" depart="0.00" type="DEFAULT_PEDTYPE">
        <ride waitingTime="131.00" vehicle="trip_1" depart="131.00" arrival="253.00" arrivalPos="287.60" duration="122.00" routeLength="1372.05"/>
    </personinfo>
    <personinfo id="p.3" depart="0.00" type="DEFAULT_PEDTYPE">
        <ride waitingTime="131.00" vehicle="trip_1" depart="131.00" arrival="253.00" arrivalPos="287.60" duration="122.00" routeLength="1372.03"/>
    </personinfo>
    <personinfo id="p.4" depart="0.00" type="DEFAULT_PEDTYPE">
        <ride waitingTime="131.00" vehicle="trip_1" depart="131.00" arrival="253.00" arrivalPos="287.60" duration="122.00" routeLength="1372.03"/>
    </personinfo>
    <tripinfo id="trip_0" depart="0.00" departLane="A0B0_1" departPos="5.10" departSpeed="0.00" departDelay="0.00" arrival="-1.00" arrivalLane="" arrivalPos="-1.00" arrivalSpeed="-1.00" duration="255.00" routeLength="282.49" waitingTime="0.00" waitingCount="0" stopTime="228.00" timeLoss="6.66" rerouteNo="1" devices="tripinfo_trip_0 routing_trip_0 taxi_trip_0" vType="taxi_small" speedFactor="1.00" vaporized="end">
        <taxi customers="0" occupiedDistance="0.00" occupiedTime="0.00"/>
    </tripinfo>
    <tripinfo id="trip_1" depart="100.00" departLane="A2B2_1" departPos="5.10" departSpeed="0.00" departDelay="0.00" arrival="-1.00" arrivalLane="" arrivalPos="-1.00" arrivalSpeed="-1.00" duration="155.00" routeLength="1673.92" waitingTime="3.00" waitingCount="1" stopTime="5.00" timeLoss="27.45" rerouteNo="3" devices="tripinfo_trip_1 routing_trip_1 taxi_trip_1 person_trip_1" vType="taxi_large" speedFactor="1.00" vaporized="">
        <taxi customers="5" occupiedDistance="1372.05" occupiedTime="124.00"/>
    </tripinfo>
</tripinfos>
