<?xml version="1.0" encoding="UTF-8"?>

<!-- generated on Tue May 31 12:55:38 2016 by SUMO Version dev-SVN-r20823
<?xml version="1.0" encoding="UTF-8"?>

<configuration xmlns:xsi="http://www.w3.org/2001/XMLSchema-instance" xsi:noNamespaceSchemaLocation="http://sumo.dlr.de/xsd/sumoConfiguration.xsd">

    <input>
        <net-file value="net.net.xml"/>
        <route-files value="input_routes.rou.xml"/>
        <additional-files value="input_additional.add.xml"/>
    </input>

    <time>
        <begin value="0"/>
        <end value="10000"/>
    </time>

    <report>
        <xml-validation value="never"/>
        <duration-log.disable value="true"/>
        <no-step-log value="true"/>
    </report>

    <mesoscopic>
        <mesosim value="true"/>
        <meso-tauff value="1.7"/>
    </mesoscopic>

</configuration>
-->

<meandata xmlns:xsi="http://www.w3.org/2001/XMLSchema-instance" xsi:noNamespaceSchemaLocation="http://sumo.dlr.de/xsd/meandata_file.xsd">
    <interval begin="0.00" end="60.00" id="dump_60">
        <edge id="1/1to2/1" sampledSeconds="926.52" traveltime="54.19" density="15.76" occupancy="7.88" waitingTime="0.00" speed="18.08" departed="31" arrived="0" entered="0" left="5" laneChangedFrom="0" laneChangedTo="0"/>
        <edge id="2/1to3/1" sampledSeconds="24.48" traveltime="49.99" density="0.42" occupancy="0.21" waitingTime="0.00" speed="19.60" departed="0" arrived="0" entered="5" left="0" laneChangedFrom="0" laneChangedTo="0"/>
    </interval>
    <interval begin="60.00" end="120.00" id="dump_60">
        <edge id="1/1to2/1" sampledSeconds="1539.12" traveltime="52.78" density="26.18" occupancy="13.09" waitingTime="0.00" speed="18.57" departed="29" arrived="0" entered="0" left="29" laneChangedFrom="0" laneChangedTo="0"/>
        <edge id="2/1to3/1" sampledSeconds="1070.25" traveltime="49.99" density="18.20" occupancy="9.10" waitingTime="0.00" speed="19.60" departed="0" arrived="0" entered="29" left="10" laneChangedFrom="0" laneChangedTo="0"/>
        <edge id="3/1to4/1" sampledSeconds="97.63" traveltime="49.99" density="1.66" occupancy="0.83" waitingTime="0.00" speed="19.60" departed="0" arrived="0" entered="10" left="0" laneChangedFrom="0" laneChangedTo="0"/>
    </interval>
    <interval begin="120.00" end="180.00" id="dump_60">
        <edge id="1/1to2/1" sampledSeconds="1538.05" traveltime="52.69" density="26.16" occupancy="13.08" waitingTime="0.00" speed="18.60" departed="29" arrived="0" entered="0" left="29" laneChangedFrom="0" laneChangedTo="0"/>
        <edge id="2/1to3/1" sampledSeconds="1458.04" traveltime="49.99" density="24.80" occupancy="12.40" waitingTime="0.00" speed="19.60" departed="0" arrived="0" entered="29" left="29" laneChangedFrom="0" laneChangedTo="0"/>
        <edge id="3/1to4/1" sampledSeconds="1240.44" traveltime="49.99" density="21.10" occupancy="10.55" waitingTime="0.00" speed="19.60" departed="0" arrived="0" entered="29" left="15" laneChangedFrom="0" laneChangedTo="0"/>
        <edge id="4/1to5/1" sampledSeconds="219.46" traveltime="49.99" density="3.73" occupancy="1.87" waitingTime="0.00" speed="19.60" departed="0" arrived="0" entered="15" left="0" laneChangedFrom="0" laneChangedTo="0"/>
    </interval>
    <interval begin="180.00" end="240.00" id="dump_60">
        <edge id="1/1to2/1" sampledSeconds="1536.99" traveltime="52.70" density="26.14" occupancy="13.07" waitingTime="0.00" speed="18.59" departed="29" arrived="0" entered="0" left="29" laneChangedFrom="0" laneChangedTo="0"/>
        <edge id="2/1to3/1" sampledSeconds="1458.04" traveltime="49.99" density="24.80" occupancy="12.40" waitingTime="0.00" speed="19.60" departed="0" arrived="0" entered="29" left="29" laneChangedFrom="0" laneChangedTo="0"/>
        <edge id="3/1to4/1" sampledSeconds="1458.04" traveltime="49.99" density="24.80" occupancy="12.40" waitingTime="0.00" speed="19.60" departed="0" arrived="0" entered="29" left="29" laneChangedFrom="0" laneChangedTo="0"/>
        <edge id="4/1to5/1" sampledSeconds="1361.92" traveltime="49.99" density="23.16" occupancy="11.58" waitingTime="0.00" speed="19.60" departed="0" arrived="0" entered="29" left="19" laneChangedFrom="0" laneChangedTo="0"/>
        <edge id="5/1to6/1" sampledSeconds="390.01" traveltime="49.99" density="6.63" occupancy="3.32" waitingTime="0.00" speed="19.60" departed="0" arrived="0" entered="19" left="0" laneChangedFrom="0" laneChangedTo="0"/>
    </interval>
    <interval begin="240.00" end="300.00" id="dump_60">
        <edge id="1/1to2/1" sampledSeconds="1538.82" traveltime="52.76" density="26.17" occupancy="13.09" waitingTime="0.00" speed="18.57" departed="29" arrived="0" entered="0" left="30" laneChangedFrom="0" laneChangedTo="0"/>
        <edge id="2/1to3/1" sampledSeconds="1458.15" traveltime="49.99" density="24.80" occupancy="12.40" waitingTime="0.00" speed="19.60" departed="0" arrived="0" entered="30" left="29" laneChangedFrom="0" laneChangedTo="0"/>
        <edge id="3/1to4/1" sampledSeconds="1458.04" traveltime="49.99" density="24.80" occupancy="12.40" waitingTime="0.00" speed="19.60" departed="0" arrived="0" entered="29" left="29" laneChangedFrom="0" laneChangedTo="0"/>
        <edge id="4/1to5/1" sampledSeconds="1458.08" traveltime="49.99" density="24.80" occupancy="12.40" waitingTime="0.00" speed="19.60" departed="0" arrived="0" entered="29" left="30" laneChangedFrom="0" laneChangedTo="0"/>
        <edge id="5/1to6/1" sampledSeconds="1434.45" traveltime="49.99" density="24.40" occupancy="12.20" waitingTime="0.00" speed="19.60" departed="0" arrived="0" entered="30" left="24" laneChangedFrom="0" laneChangedTo="0"/>
        <edge id="6/1to7/1" sampledSeconds="609.47" traveltime="49.99" density="10.37" occupancy="5.18" waitingTime="0.00" speed="19.60" departed="0" arrived="0" entered="24" left="0" laneChangedFrom="0" laneChangedTo="0"/>
    </interval>
    <interval begin="300.00" end="360.00" id="dump_60">
        <edge id="1/1to2/1" sampledSeconds="1536.52" traveltime="52.67" density="26.13" occupancy="13.07" waitingTime="0.00" speed="18.60" departed="30" arrived="0" entered="0" left="29" laneChangedFrom="0" laneChangedTo="0"/>
        <edge id="2/1to3/1" sampledSeconds="1458.39" traveltime="49.99" density="24.80" occupancy="12.40" waitingTime="0.00" speed="19.60" departed="0" arrived="0" entered="29" left="29" laneChangedFrom="0" laneChangedTo="0"/>
        <edge id="3/1to4/1" sampledSeconds="1458.04" traveltime="49.99" density="24.80" occupancy="12.40" waitingTime="0.00" speed="19.60" departed="0" arrived="0" entered="29" left="29" laneChangedFrom="0" laneChangedTo="0"/>
        <edge id="4/1to5/1" sampledSeconds="1458.04" traveltime="49.99" density="24.80" occupancy="12.40" waitingTime="0.00" speed="19.60" departed="0" arrived="0" entered="29" left="29" laneChangedFrom="0" laneChangedTo="0"/>
        <edge id="5/1to6/1" sampledSeconds="1458.36" traveltime="49.99" density="24.80" occupancy="12.40" waitingTime="0.00" speed="19.60" departed="0" arrived="0" entered="29" left="30" laneChangedFrom="0" laneChangedTo="0"/>
        <edge id="6/1to7/1" sampledSeconds="1458.07" traveltime="49.99" density="24.80" occupancy="12.40" waitingTime="0.00" speed="19.60" departed="0" arrived="0" entered="30" left="29" laneChangedFrom="0" laneChangedTo="0"/>
        <edge id="7/1to8/1" sampledSeconds="852.82" traveltime="49.99" density="14.50" occupancy="7.25" waitingTime="0.00" speed="19.60" departed="0" arrived="0" entered="29" left="5" laneChangedFrom="0" laneChangedTo="0"/>
        <edge id="8/1to9/1" sampledSeconds="24.78" traveltime="49.99" density="0.42" occupancy="0.21" waitingTime="0.00" speed="19.60" departed="0" arrived="0" entered="5" left="0" laneChangedFrom="0" laneChangedTo="0"/>
    </interval>
    <interval begin="360.00" end="420.00" id="dump_60">
        <edge id="1/1to2/1" sampledSeconds="1537.46" traveltime="52.72" density="26.15" occupancy="13.07" waitingTime="0.00" speed="18.59" departed="29" arrived="0" entered="0" left="29" laneChangedFrom="0" laneChangedTo="0"/>
        <edge id="2/1to3/1" sampledSeconds="1458.20" traveltime="49.99" density="24.80" occupancy="12.40" waitingTime="0.00" speed="19.60" departed="0" arrived="0" entered="29" left="30" laneChangedFrom="0" laneChangedTo="0"/>
        <edge id="3/1to4/1" sampledSeconds="1458.22" traveltime="49.99" density="24.80" occupancy="12.40" waitingTime="0.00" speed="19.60" departed="0" arrived="0" entered="30" left="29" laneChangedFrom="0" laneChangedTo="0"/>
        <edge id="4/1to5/1" sampledSeconds="1458.04" traveltime="49.99" density="24.80" occupancy="12.40" waitingTime="0.00" speed="19.60" departed="0" arrived="0" entered="29" left="29" laneChangedFrom="0" laneChangedTo="0"/>
        <edge id="5/1to6/1" sampledSeconds="1458.04" traveltime="49.99" density="24.80" occupancy="12.40" waitingTime="0.00" speed="19.60" departed="0" arrived="0" entered="29" left="29" laneChangedFrom="0" laneChangedTo="0"/>
        <edge id="6/1to7/1" sampledSeconds="1458.39" traveltime="49.99" density="24.80" occupancy="12.40" waitingTime="0.00" speed="19.60" departed="0" arrived="0" entered="29" left="29" laneChangedFrom="0" laneChangedTo="0"/>
        <edge id="7/1to8/1" sampledSeconds="1458.04" traveltime="49.99" density="24.80" occupancy="12.40" waitingTime="0.00" speed="19.60" departed="0" arrived="0" entered="29" left="29" laneChangedFrom="0" laneChangedTo="0"/>
        <edge id="8/1to9/1" sampledSeconds="1071.39" traveltime="49.99" density="18.22" occupancy="9.11" waitingTime="0.00" speed="19.60" departed="0" arrived="0" entered="29" left="10" laneChangedFrom="0" laneChangedTo="0"/>
        <edge id="9/1to10/1" sampledSeconds="98.23" traveltime="49.99" density="1.67" occupancy="0.84" waitingTime="0.00" speed="19.60" departed="0" arrived="0" entered="10" left="0" laneChangedFrom="0" laneChangedTo="0"/>
    </interval>
    <interval begin="420.00" end="480.00" id="dump_60">
        <edge id="1/1to2/1" sampledSeconds="1539.39" traveltime="52.78" density="26.18" occupancy="13.09" waitingTime="0.00" speed="18.57" departed="29" arrived="0" entered="0" left="29" laneChangedFrom="0" laneChangedTo="0"/>
        <edge id="10/1to1/1" sampledSeconds="220.36" traveltime="49.99" density="3.75" occupancy="1.87" waitingTime="0.00" speed="19.60" departed="0" arrived="0" entered="15" left="0" laneChangedFrom="0" laneChangedTo="0"/>
        <edge id="2/1to3/1" sampledSeconds="1458.04" traveltime="49.99" density="24.80" occupancy="12.40" waitingTime="0.00" speed="19.60" departed="0" arrived="0" entered="29" left="29" laneChangedFrom="0" laneChangedTo="0"/>
        <edge id="3/1to4/1" sampledSeconds="1458.39" traveltime="49.99" density="24.80" occupancy="12.40" waitingTime="0.00" speed="19.60" departed="0" arrived="0" entered="29" left="29" laneChangedFrom="0" laneChangedTo="0"/>
        <edge id="4/1to5/1" sampledSeconds="1458.04" traveltime="49.99" density="24.80" occupancy="12.40" waitingTime="0.00" speed="19.60" departed="0" arrived="0" entered="29" left="29" laneChangedFrom="0" laneChangedTo="0"/>
        <edge id="5/1to6/1" sampledSeconds="1458.04" traveltime="49.99" density="24.80" occupancy="12.40" waitingTime="0.00" speed="19.60" departed="0" arrived="0" entered="29" left="29" laneChangedFrom="0" laneChangedTo="0"/>
        <edge id="6/1to7/1" sampledSeconds="1458.28" traveltime="49.99" density="24.80" occupancy="12.40" waitingTime="0.00" speed="19.60" departed="0" arrived="0" entered="29" left="30" laneChangedFrom="0" laneChangedTo="0"/>
        <edge id="7/1to8/1" sampledSeconds="1458.14" traveltime="49.99" density="24.80" occupancy="12.40" waitingTime="0.00" speed="19.60" departed="0" arrived="0" entered="30" left="29" laneChangedFrom="0" laneChangedTo="0"/>
        <edge id="8/1to9/1" sampledSeconds="1458.04" traveltime="49.99" density="24.80" occupancy="12.40" waitingTime="0.00" speed="19.60" departed="0" arrived="0" entered="29" left="29" laneChangedFrom="0" laneChangedTo="0"/>
        <edge id="9/1to10/1" sampledSeconds="1241.28" traveltime="49.99" density="21.11" occupancy="10.56" waitingTime="0.00" speed="19.60" departed="0" arrived="0" entered="29" left="15" laneChangedFrom="0" laneChangedTo="0"/>
    </interval>
    <interval begin="480.00" end="540.00" id="dump_60">
        <edge id="1/1to2/1" sampledSeconds="1596.50" traveltime="54.46" density="27.15" occupancy="13.58" waitingTime="0.00" speed="17.99" departed="11" arrived="0" entered="20" left="29" laneChangedFrom="0" laneChangedTo="0"/>
        <edge id="10/1to1/1" sampledSeconds="1362.50" traveltime="49.99" density="23.17" occupancy="11.59" waitingTime="0.00" speed="19.60" departed="0" arrived="0" entered="29" left="20" laneChangedFrom="0" laneChangedTo="0"/>
        <edge id="2/1to3/1" sampledSeconds="1458.04" traveltime="49.99" density="24.80" occupancy="12.40" waitingTime="0.00" speed="19.60" departed="0" arrived="0" entered="29" left="29" laneChangedFrom="0" laneChangedTo="0"/>
        <edge id="3/1to4/1" sampledSeconds="1458.13" traveltime="49.99" density="24.80" occupancy="12.40" waitingTime="0.00" speed="19.60" departed="0" arrived="0" entered="29" left="30" laneChangedFrom="0" laneChangedTo="0"/>
        <edge id="4/1to5/1" sampledSeconds="1458.30" traveltime="49.99" density="24.80" occupancy="12.40" waitingTime="0.00" speed="19.60" departed="0" arrived="0" entered="30" left="29" laneChangedFrom="0" laneChangedTo="0"/>
        <edge id="5/1to6/1" sampledSeconds="1458.04" traveltime="49.99" density="24.80" occupancy="12.40" waitingTime="0.00" speed="19.60" departed="0" arrived="0" entered="29" left="29" laneChangedFrom="0" laneChangedTo="0"/>
        <edge id="6/1to7/1" sampledSeconds="1458.04" traveltime="49.99" density="24.80" occupancy="12.40" waitingTime="0.00" speed="19.60" departed="0" arrived="0" entered="29" left="29" laneChangedFrom="0" laneChangedTo="0"/>
        <edge id="7/1to8/1" sampledSeconds="1458.39" traveltime="49.99" density="24.80" occupancy="12.40" waitingTime="0.00" speed="19.60" departed="0" arrived="0" entered="29" left="29" laneChangedFrom="0" laneChangedTo="0"/>
        <edge id="8/1to9/1" sampledSeconds="1458.04" traveltime="49.99" density="24.80" occupancy="12.40" waitingTime="0.00" speed="19.60" departed="0" arrived="0" entered="29" left="29" laneChangedFrom="0" laneChangedTo="0"/>
        <edge id="9/1to10/1" sampledSeconds="1458.04" traveltime="49.99" density="24.80" occupancy="12.40" waitingTime="0.00" speed="19.60" departed="0" arrived="0" entered="29" left="29" laneChangedFrom="0" laneChangedTo="0"/>
    </interval>
    <interval begin="540.00" end="600.00" id="dump_60">
        <edge id="1/1to2/1" sampledSeconds="1790.96" traveltime="60.88" density="30.46" occupancy="15.23" waitingTime="0.00" speed="16.10" departed="3" arrived="0" entered="29" left="29" laneChangedFrom="0" laneChangedTo="0"/>
        <edge id="10/1to1/1" sampledSeconds="1458.04" traveltime="49.99" density="24.80" occupancy="12.40" waitingTime="0.00" speed="19.60" departed="0" arrived="0" entered="29" left="29" laneChangedFrom="0" laneChangedTo="0"/>
        <edge id="2/1to3/1" sampledSeconds="1458.04" traveltime="49.99" density="24.80" occupancy="12.40" waitingTime="0.00" speed="19.60" departed="0" arrived="0" entered="29" left="29" laneChangedFrom="0" laneChangedTo="0"/>
        <edge id="3/1to4/1" sampledSeconds="1458.04" traveltime="49.99" density="24.80" occupancy="12.40" waitingTime="0.00" speed="19.60" departed="0" arrived="0" entered="29" left="29" laneChangedFrom="0" laneChangedTo="0"/>
        <edge id="4/1to5/1" sampledSeconds="1458.39" traveltime="49.99" density="24.80" occupancy="12.40" waitingTime="0.00" speed="19.60" departed="0" arrived="0" entered="29" left="29" laneChangedFrom="0" laneChangedTo="0"/>
        <edge id="5/1to6/1" sampledSeconds="1458.04" traveltime="49.99" density="24.80" occupancy="12.40" waitingTime="0.00" speed="19.60" departed="0" arrived="0" entered="29" left="29" laneChangedFrom="0" laneChangedTo="0"/>
        <edge id="6/1to7/1" sampledSeconds="1458.04" traveltime="49.99" density="24.80" occupancy="12.40" waitingTime="0.00" speed="19.60" departed="0" arrived="0" entered="29" left="29" laneChangedFrom="0" laneChangedTo="0"/>
        <edge id="7/1to8/1" sampledSeconds="1458.21" traveltime="49.99" density="24.80" occupancy="12.40" waitingTime="0.00" speed="19.60" departed="0" arrived="0" entered="29" left="30" laneChangedFrom="0" laneChangedTo="0"/>
        <edge id="8/1to9/1" sampledSeconds="1458.21" traveltime="49.99" density="24.80" occupancy="12.40" waitingTime="0.00" speed="19.60" departed="0" arrived="0" entered="30" left="29" laneChangedFrom="0" laneChangedTo="0"/>
        <edge id="9/1to10/1" sampledSeconds="1458.04" traveltime="49.99" density="24.80" occupancy="12.40" waitingTime="0.00" speed="19.60" departed="0" arrived="0" entered="29" left="29" laneChangedFrom="0" laneChangedTo="0"/>
    </interval>
    <interval begin="600.00" end="660.00" id="dump_60">
        <edge id="1/1to2/1" sampledSeconds="1906.83" traveltime="65.11" density="32.43" occupancy="16.22" waitingTime="0.00" speed="15.05" departed="2" arrived="0" entered="29" left="30" laneChangedFrom="0" laneChangedTo="0"/>
        <edge id="10/1to1/1" sampledSeconds="1458.04" traveltime="49.99" density="24.80" occupancy="12.40" waitingTime="0.00" speed="19.60" departed="0" arrived="0" entered="29" left="29" laneChangedFrom="0" laneChangedTo="0"/>
        <edge id="2/1to3/1" sampledSeconds="1458.18" traveltime="49.99" density="24.80" occupancy="12.40" waitingTime="0.00" speed="19.60" departed="0" arrived="0" entered="30" left="29" laneChangedFrom="0" laneChangedTo="0"/>
        <edge id="3/1to4/1" sampledSeconds="1458.04" traveltime="49.99" density="24.80" occupancy="12.40" waitingTime="0.00" speed="19.60" departed="0" arrived="0" entered="29" left="29" laneChangedFrom="0" laneChangedTo="0"/>
        <edge id="4/1to5/1" sampledSeconds="1458.06" traveltime="49.99" density="24.80" occupancy="12.40" waitingTime="0.00" speed="19.60" departed="0" arrived="0" entered="29" left="30" laneChangedFrom="0" laneChangedTo="0"/>
        <edge id="5/1to6/1" sampledSeconds="1458.37" traveltime="49.99" density="24.80" occupancy="12.40" waitingTime="0.00" speed="19.60" departed="0" arrived="0" entered="30" left="29" laneChangedFrom="0" laneChangedTo="0"/>
        <edge id="6/1to7/1" sampledSeconds="1458.04" traveltime="49.99" density="24.80" occupancy="12.40" waitingTime="0.00" speed="19.60" departed="0" arrived="0" entered="29" left="29" laneChangedFrom="0" laneChangedTo="0"/>
        <edge id="7/1to8/1" sampledSeconds="1458.04" traveltime="49.99" density="24.80" occupancy="12.40" waitingTime="0.00" speed="19.60" departed="0" arrived="0" entered="29" left="29" laneChangedFrom="0" laneChangedTo="0"/>
        <edge id="8/1to9/1" sampledSeconds="1458.39" traveltime="49.99" density="24.80" occupancy="12.40" waitingTime="0.00" speed="19.60" departed="0" arrived="0" entered="29" left="29" laneChangedFrom="0" laneChangedTo="0"/>
        <edge id="9/1to10/1" sampledSeconds="1458.04" traveltime="49.99" density="24.80" occupancy="12.40" waitingTime="0.00" speed="19.60" departed="0" arrived="0" entered="29" left="29" laneChangedFrom="0" laneChangedTo="0"/>
    </interval>
    <interval begin="660.00" end="720.00" id="dump_60">
        <edge id="1/1to2/1" sampledSeconds="1936.62" traveltime="66.38" density="32.94" occupancy="16.47" waitingTime="0.00" speed="14.76" departed="0" arrived="0" entered="29" left="29" laneChangedFrom="0" laneChangedTo="0"/>
        <edge id="10/1to1/1" sampledSeconds="1458.04" traveltime="49.99" density="24.80" occupancy="12.40" waitingTime="0.00" speed="19.60" departed="0" arrived="0" entered="29" left="29" laneChangedFrom="0" laneChangedTo="0"/>
        <edge id="2/1to3/1" sampledSeconds="1458.39" traveltime="49.99" density="24.80" occupancy="12.40" waitingTime="0.00" speed="19.60" departed="0" arrived="0" entered="29" left="29" laneChangedFrom="0" laneChangedTo="0"/>
        <edge id="3/1to4/1" sampledSeconds="1458.04" traveltime="49.99" density="24.80" occupancy="12.40" waitingTime="0.00" speed="19.60" departed="0" arrived="0" entered="29" left="29" laneChangedFrom="0" laneChangedTo="0"/>
        <edge id="4/1to5/1" sampledSeconds="1458.04" traveltime="49.99" density="24.80" occupancy="12.40" waitingTime="0.00" speed="19.60" departed="0" arrived="0" entered="29" left="29" laneChangedFrom="0" laneChangedTo="0"/>
        <edge id="5/1to6/1" sampledSeconds="1458.33" traveltime="49.99" density="24.80" occupancy="12.40" waitingTime="0.00" speed="19.60" departed="0" arrived="0" entered="29" left="30" laneChangedFrom="0" laneChangedTo="0"/>
        <edge id="6/1to7/1" sampledSeconds="1458.09" traveltime="49.99" density="24.80" occupancy="12.40" waitingTime="0.00" speed="19.60" departed="0" arrived="0" entered="30" left="29" laneChangedFrom="0" laneChangedTo="0"/>
        <edge id="7/1to8/1" sampledSeconds="1458.04" traveltime="49.99" density="24.80" occupancy="12.40" waitingTime="0.00" speed="19.60" departed="0" arrived="0" entered="29" left="29" laneChangedFrom="0" laneChangedTo="0"/>
        <edge id="8/1to9/1" sampledSeconds="1458.14" traveltime="49.99" density="24.80" occupancy="12.40" waitingTime="0.00" speed="19.60" departed="0" arrived="0" entered="29" left="30" laneChangedFrom="0" laneChangedTo="0"/>
        <edge id="9/1to10/1" sampledSeconds="1458.28" traveltime="49.99" density="24.80" occupancy="12.40" waitingTime="0.00" speed="19.60" departed="0" arrived="0" entered="30" left="29" laneChangedFrom="0" laneChangedTo="0"/>
    </interval>
    <interval begin="720.00" end="780.00" id="dump_60">
        <edge id="1/1to2/1" sampledSeconds="2036.62" traveltime="69.55" density="34.64" occupancy="17.32" waitingTime="0.00" speed="14.09" departed="2" arrived="0" entered="29" left="29" laneChangedFrom="0" laneChangedTo="0"/>
        <edge id="10/1to1/1" sampledSeconds="1458.04" traveltime="49.99" density="24.80" occupancy="12.40" waitingTime="0.00" speed="19.60" departed="0" arrived="0" entered="29" left="29" laneChangedFrom="0" laneChangedTo="0"/>
        <edge id="2/1to3/1" sampledSeconds="1458.18" traveltime="49.99" density="24.80" occupancy="12.40" waitingTime="0.00" speed="19.60" departed="0" arrived="0" entered="29" left="30" laneChangedFrom="0" laneChangedTo="0"/>
        <edge id="3/1to4/1" sampledSeconds="1458.25" traveltime="49.99" density="24.80" occupancy="12.40" waitingTime="0.00" speed="19.60" departed="0" arrived="0" entered="30" left="29" laneChangedFrom="0" laneChangedTo="0"/>
        <edge id="4/1to5/1" sampledSeconds="1458.04" traveltime="49.99" density="24.80" occupancy="12.40" waitingTime="0.00" speed="19.60" departed="0" arrived="0" entered="29" left="29" laneChangedFrom="0" laneChangedTo="0"/>
        <edge id="5/1to6/1" sampledSeconds="1458.04" traveltime="49.99" density="24.80" occupancy="12.40" waitingTime="0.00" speed="19.60" departed="0" arrived="0" entered="29" left="29" laneChangedFrom="0" laneChangedTo="0"/>
        <edge id="6/1to7/1" sampledSeconds="1458.39" traveltime="49.99" density="24.80" occupancy="12.40" waitingTime="0.00" speed="19.60" departed="0" arrived="0" entered="29" left="29" laneChangedFrom="0" laneChangedTo="0"/>
        <edge id="7/1to8/1" sampledSeconds="1458.04" traveltime="49.99" density="24.80" occupancy="12.40" waitingTime="0.00" speed="19.60" departed="0" arrived="0" entered="29" left="29" laneChangedFrom="0" laneChangedTo="0"/>
        <edge id="8/1to9/1" sampledSeconds="1458.04" traveltime="49.99" density="24.80" occupancy="12.40" waitingTime="0.00" speed="19.60" departed="0" arrived="0" entered="29" left="29" laneChangedFrom="0" laneChangedTo="0"/>
        <edge id="9/1to10/1" sampledSeconds="1458.39" traveltime="49.99" density="24.80" occupancy="12.40" waitingTime="0.00" speed="19.60" departed="0" arrived="0" entered="29" left="29" laneChangedFrom="0" laneChangedTo="0"/>
    </interval>
    <interval begin="780.00" end="840.00" id="dump_60">
        <edge id="1/1to2/1" sampledSeconds="2099.62" traveltime="71.85" density="35.71" occupancy="17.85" waitingTime="0.00" speed="13.64" departed="1" arrived="0" entered="29" left="29" laneChangedFrom="0" laneChangedTo="0"/>
        <edge id="10/1to1/1" sampledSeconds="1458.36" traveltime="49.99" density="24.80" occupancy="12.40" waitingTime="0.00" speed="19.60" departed="0" arrived="0" entered="30" left="29" laneChangedFrom="0" laneChangedTo="0"/>
        <edge id="2/1to3/1" sampledSeconds="1458.04" traveltime="49.99" density="24.80" occupancy="12.40" waitingTime="0.00" speed="19.60" departed="0" arrived="0" entered="29" left="29" laneChangedFrom="0" laneChangedTo="0"/>
        <edge id="3/1to4/1" sampledSeconds="1458.39" traveltime="49.99" density="24.80" occupancy="12.40" waitingTime="0.00" speed="19.60" departed="0" arrived="0" entered="29" left="29" laneChangedFrom="0" laneChangedTo="0"/>
        <edge id="4/1to5/1" sampledSeconds="1458.04" traveltime="49.99" density="24.80" occupancy="12.40" waitingTime="0.00" speed="19.60" departed="0" arrived="0" entered="29" left="29" laneChangedFrom="0" laneChangedTo="0"/>
        <edge id="5/1to6/1" sampledSeconds="1458.04" traveltime="49.99" density="24.80" occupancy="12.40" waitingTime="0.00" speed="19.60" departed="0" arrived="0" entered="29" left="29" laneChangedFrom="0" laneChangedTo="0"/>
        <edge id="6/1to7/1" sampledSeconds="1458.26" traveltime="49.99" density="24.80" occupancy="12.40" waitingTime="0.00" speed="19.60" departed="0" arrived="0" entered="29" left="30" laneChangedFrom="0" laneChangedTo="0"/>
        <edge id="7/1to8/1" sampledSeconds="1458.16" traveltime="49.99" density="24.80" occupancy="12.40" waitingTime="0.00" speed="19.60" departed="0" arrived="0" entered="30" left="29" laneChangedFrom="0" laneChangedTo="0"/>
        <edge id="8/1to9/1" sampledSeconds="1458.04" traveltime="49.99" density="24.80" occupancy="12.40" waitingTime="0.00" speed="19.60" departed="0" arrived="0" entered="29" left="29" laneChangedFrom="0" laneChangedTo="0"/>
        <edge id="9/1to10/1" sampledSeconds="1458.07" traveltime="49.99" density="24.80" occupancy="12.40" waitingTime="0.00" speed="19.60" departed="0" arrived="0" entered="29" left="30" laneChangedFrom="0" laneChangedTo="0"/>
    </interval>
    <interval begin="840.00" end="900.00" id="dump_60">
        <edge id="1/1to2/1" sampledSeconds="2116.66" traveltime="72.56" density="36.00" occupancy="18.00" waitingTime="0.00" speed="13.51" departed="0" arrived="0" entered="30" left="29" laneChangedFrom="0" laneChangedTo="0"/>
        <edge id="10/1to1/1" sampledSeconds="1458.34" traveltime="49.99" density="24.80" occupancy="12.40" waitingTime="0.00" speed="19.60" departed="0" arrived="0" entered="29" left="30" laneChangedFrom="0" laneChangedTo="0"/>
        <edge id="2/1to3/1" sampledSeconds="1458.04" traveltime="49.99" density="24.80" occupancy="12.40" waitingTime="0.00" speed="19.60" departed="0" arrived="0" entered="29" left="29" laneChangedFrom="0" laneChangedTo="0"/>
        <edge id="3/1to4/1" sampledSeconds="1458.10" traveltime="49.99" density="24.80" occupancy="12.40" waitingTime="0.00" speed="19.60" departed="0" arrived="0" entered="29" left="30" laneChangedFrom="0" laneChangedTo="0"/>
        <edge id="4/1to5/1" sampledSeconds="1458.32" traveltime="49.99" density="24.80" occupancy="12.40" waitingTime="0.00" speed="19.60" departed="0" arrived="0" entered="30" left="29" laneChangedFrom="0" laneChangedTo="0"/>
        <edge id="5/1to6/1" sampledSeconds="1458.04" traveltime="49.99" density="24.80" occupancy="12.40" waitingTime="0.00" speed="19.60" departed="0" arrived="0" entered="29" left="29" laneChangedFrom="0" laneChangedTo="0"/>
        <edge id="6/1to7/1" sampledSeconds="1458.04" traveltime="49.99" density="24.80" occupancy="12.40" waitingTime="0.00" speed="19.60" departed="0" arrived="0" entered="29" left="29" laneChangedFrom="0" laneChangedTo="0"/>
        <edge id="7/1to8/1" sampledSeconds="1458.39" traveltime="49.99" density="24.80" occupancy="12.40" waitingTime="0.00" speed="19.60" departed="0" arrived="0" entered="29" left="29" laneChangedFrom="0" laneChangedTo="0"/>
        <edge id="8/1to9/1" sampledSeconds="1458.04" traveltime="49.99" density="24.80" occupancy="12.40" waitingTime="0.00" speed="19.60" departed="0" arrived="0" entered="29" left="29" laneChangedFrom="0" laneChangedTo="0"/>
        <edge id="9/1to10/1" sampledSeconds="1458.04" traveltime="49.99" density="24.80" occupancy="12.40" waitingTime="0.00" speed="19.60" departed="0" arrived="0" entered="29" left="29" laneChangedFrom="0" laneChangedTo="0"/>
    </interval>
    <interval begin="900.00" end="960.00" id="dump_60">
        <edge id="1/1to2/1" sampledSeconds="2151.13" traveltime="73.59" density="36.59" occupancy="18.29" waitingTime="0.00" speed="13.32" departed="1" arrived="0" entered="29" left="29" laneChangedFrom="0" laneChangedTo="0"/>
        <edge id="10/1to1/1" sampledSeconds="1465.88" traveltime="50.26" density="24.93" occupancy="12.47" waitingTime="0.00" speed="19.50" departed="0" arrived="0" entered="29" left="29" laneChangedFrom="0" laneChangedTo="0"/>
        <edge id="2/1to3/1" sampledSeconds="1458.04" traveltime="49.99" density="24.80" occupancy="12.40" waitingTime="0.00" speed="19.60" departed="0" arrived="0" entered="29" left="29" laneChangedFrom="0" laneChangedTo="0"/>
        <edge id="3/1to4/1" sampledSeconds="1458.04" traveltime="49.99" density="24.80" occupancy="12.40" waitingTime="0.00" speed="19.60" departed="0" arrived="0" entered="29" left="29" laneChangedFrom="0" laneChangedTo="0"/>
        <edge id="4/1to5/1" sampledSeconds="1458.38" traveltime="49.99" density="24.80" occupancy="12.40" waitingTime="0.00" speed="19.60" departed="0" arrived="0" entered="29" left="30" laneChangedFrom="0" laneChangedTo="0"/>
        <edge id="5/1to6/1" sampledSeconds="1458.05" traveltime="49.99" density="24.80" occupancy="12.40" waitingTime="0.00" speed="19.60" departed="0" arrived="0" entered="30" left="29" laneChangedFrom="0" laneChangedTo="0"/>