<?xml version="1.0" encoding="UTF-8"?>

<!-- generated on Wed Mar  5 22:15:11 2014 by SUMO sumo Version dev-SVN-r15830
<?xml version="1.0" encoding="UTF-8"?>

<configuration xmlns:xsi="http://www.w3.org/2001/XMLSchema-instance" xsi:noNamespaceSchemaLocation="http://sumo-sim.org/xsd/sumoConfiguration.xsd">

    <input>
        <net-file value="net.net.xml"/>
        <route-files value="input_routes.rou.xml"/>
        <additional-files value="input_additional.add.xml"/>
    </input>

    <output>
        <netstate-dump value="netstate_dump.xml"/>
    </output>

    <report>
        <xml-validation value="never"/>
        <no-step-log value="true"/>
    </report>

    <traci_server>
        <remote-port value="8815"/>
    </traci_server>

</configuration>
-->

<netstate xmlns:xsi="http://www.w3.org/2001/XMLSchema-instance" xsi:noNamespaceSchemaLocation="http://sumo-sim.org/xsd/netstate_file.xsd">
    <timestep time="0.00">
        <edge id="4/1to3/1">
            <lane id="4/1to3/1_0">
                <vehicle id="0" pos="100.00" speed="10.00"/>
            </lane>
        </edge>
    </timestep>
    <timestep time="1.00">
        <edge id="4/1to3/1">
            <lane id="4/1to3/1_0">
                <vehicle id="0" pos="110.00" speed="10.00"/>
            </lane>
        </edge>
    </timestep>
    <timestep time="2.00">
        <edge id="4/1to3/1">
            <lane id="4/1to3/1_0">
                <vehicle id="0" pos="120.00" speed="10.00"/>
            </lane>
        </edge>
    </timestep>
    <timestep time="3.00">
        <edge id="4/1to3/1">
            <lane id="4/1to3/1_0">
                <vehicle id="0" pos="130.00" speed="10.00"/>
            </lane>
        </edge>
    </timestep>
    <timestep time="4.00">
        <edge id="4/1to3/1">
            <lane id="4/1to3/1_0">
                <vehicle id="0" pos="140.00" speed="10.00"/>
            </lane>
        </edge>
    </timestep>
    <timestep time="5.00">
        <edge id="4/1to3/1">
            <lane id="4/1to3/1_0">
                <vehicle id="0" pos="150.00" speed="10.00"/>
            </lane>
        </edge>
    </timestep>
    <timestep time="6.00">
        <edge id="4/1to3/1">
            <lane id="4/1to3/1_0">
                <vehicle id="0" pos="160.00" speed="10.00"/>
            </lane>
        </edge>
    </timestep>
    <timestep time="7.00">
        <edge id="4/1to3/1">
            <lane id="4/1to3/1_0">
                <vehicle id="0" pos="170.00" speed="10.00"/>
            </lane>
        </edge>
    </timestep>
    <timestep time="8.00">
        <edge id="4/1to3/1">
            <lane id="4/1to3/1_0">
                <vehicle id="0" pos="180.00" speed="10.00"/>
            </lane>
        </edge>
    </timestep>
    <timestep time="9.00">
        <edge id="4/1to3/1">
            <lane id="4/1to3/1_0">
                <vehicle id="0" pos="190.00" speed="10.00"/>
            </lane>
        </edge>
    </timestep>
    <timestep time="10.00">
        <edge id="4/1to3/1">
            <lane id="4/1to3/1_0">
                <vehicle id="0" pos="200.00" speed="10.00"/>
            </lane>
        </edge>
    </timestep>
    <timestep time="11.00">
        <edge id="4/1to3/1">
            <lane id="4/1to3/1_0">
                <vehicle id="0" pos="210.00" speed="10.00"/>
            </lane>
        </edge>
    </timestep>
    <timestep time="12.00">
        <edge id="4/1to3/1">
            <lane id="4/1to3/1_0">
                <vehicle id="0" pos="220.00" speed="10.00"/>
            </lane>
        </edge>
    </timestep>
    <timestep time="13.00">
        <edge id="4/1to3/1">
            <lane id="4/1to3/1_0">
                <vehicle id="0" pos="230.00" speed="10.00"/>
            </lane>
        </edge>
    </timestep>
    <timestep time="14.00">
        <edge id="4/1to3/1">
            <lane id="4/1to3/1_0">
                <vehicle id="0" pos="240.00" speed="10.00"/>
            </lane>
        </edge>
    </timestep>
    <timestep time="15.00">
        <edge id="4/1to3/1">
            <lane id="4/1to3/1_0">
                <vehicle id="0" pos="250.00" speed="10.00"/>
            </lane>
        </edge>
    </timestep>
    <timestep time="16.00">
        <edge id="4/1to3/1">
            <lane id="4/1to3/1_0">
                <vehicle id="0" pos="260.00" speed="10.00"/>
            </lane>
        </edge>
    </timestep>
    <timestep time="17.00">
        <edge id="4/1to3/1">
            <lane id="4/1to3/1_0">
                <vehicle id="0" pos="270.00" speed="10.00"/>
            </lane>
        </edge>
    </timestep>
    <timestep time="18.00">
        <edge id="4/1to3/1">
            <lane id="4/1to3/1_0">
                <vehicle id="0" pos="280.00" speed="10.00"/>
            </lane>
        </edge>
    </timestep>
    <timestep time="19.00">
        <edge id="4/1to3/1">
            <lane id="4/1to3/1_0">
                <vehicle id="0" pos="290.00" speed="10.00"/>
            </lane>
        </edge>
    </timestep>
    <timestep time="20.00">
        <edge id="4/1to3/1">
            <lane id="4/1to3/1_0">
                <vehicle id="0" pos="300.00" speed="10.00"/>
            </lane>
        </edge>
    </timestep>
    <timestep time="21.00">
        <edge id="4/1to3/1">
            <lane id="4/1to3/1_0">
                <vehicle id="0" pos="310.00" speed="10.00"/>
            </lane>
        </edge>
    </timestep>
    <timestep time="22.00">
        <edge id="4/1to3/1">
            <lane id="4/1to3/1_0">
                <vehicle id="0" pos="320.00" speed="10.00"/>
            </lane>
        </edge>
    </timestep>
    <timestep time="23.00">
        <edge id="4/1to3/1">
            <lane id="4/1to3/1_0">
                <vehicle id="0" pos="330.00" speed="10.00"/>
            </lane>
        </edge>
    </timestep>
    <timestep time="24.00">
        <edge id="4/1to3/1">
            <lane id="4/1to3/1_0">
                <vehicle id="0" pos="340.00" speed="10.00"/>
            </lane>
        </edge>
    </timestep>
    <timestep time="25.00">
        <edge id="4/1to3/1">
            <lane id="4/1to3/1_0">
                <vehicle id="0" pos="350.00" speed="10.00"/>
            </lane>
        </edge>
    </timestep>
    <timestep time="26.00">
        <edge id="4/1to3/1">
            <lane id="4/1to3/1_0">
                <vehicle id="0" pos="360.00" speed="10.00"/>
            </lane>
        </edge>
    </timestep>
    <timestep time="27.00">
        <edge id="4/1to3/1">
            <lane id="4/1to3/1_0">
                <vehicle id="0" pos="370.00" speed="10.00"/>
            </lane>
        </edge>
    </timestep>
    <timestep time="28.00">
        <edge id="4/1to3/1">
            <lane id="4/1to3/1_0">
                <vehicle id="0" pos="380.00" speed="10.00"/>
            </lane>
        </edge>
    </timestep>
    <timestep time="29.00">
        <edge id="4/1to3/1">
            <lane id="4/1to3/1_0">
                <vehicle id="0" pos="390.00" speed="10.00"/>
            </lane>
        </edge>
    </timestep>
    <timestep time="30.00">
        <edge id="4/1to3/1">
            <lane id="4/1to3/1_0">
                <vehicle id="0" pos="400.00" speed="10.00"/>
            </lane>
        </edge>
    </timestep>
    <timestep time="31.00">
        <edge id="3/1to2/1">
            <lane id="3/1to2/1_0">
                <vehicle id="0" pos="10.00" speed="10.00"/>
            </lane>
        </edge>
    </timestep>
    <timestep time="32.00">
        <edge id="3/1to2/1">
            <lane id="3/1to2/1_0">
                <vehicle id="0" pos="20.00" speed="10.00"/>
            </lane>
        </edge>
    </timestep>
    <timestep time="33.00">
        <edge id="3/1to2/1">
            <lane id="3/1to2/1_0">
                <vehicle id="0" pos="30.00" speed="10.00"/>
            </lane>
        </edge>
    </timestep>
    <timestep time="34.00">
        <edge id="3/1to2/1">
            <lane id="3/1to2/1_0">
                <vehicle id="0" pos="40.00" speed="10.00"/>
            </lane>
        </edge>
    </timestep>
    <timestep time="35.00">
        <edge id="3/1to2/1">
            <lane id="3/1to2/1_0">
                <vehicle id="0" pos="50.00" speed="10.00"/>
            </lane>
        </edge>
    </timestep>
    <timestep time="36.00">
        <edge id="3/1to2/1">
            <lane id="3/1to2/1_0">
                <vehicle id="0" pos="60.00" speed="10.00"/>
            </lane>
        </edge>
    </timestep>
    <timestep time="37.00">
        <edge id="3/1to2/1">
            <lane id="3/1to2/1_0">
                <vehicle id="0" pos="70.00" speed="10.00"/>
            </lane>
        </edge>
    </timestep>
    <timestep time="38.00">
        <edge id="3/1to2/1">
            <lane id="3/1to2/1_0">
                <vehicle id="0" pos="80.00" speed="10.00"/>
            </lane>
        </edge>
    </timestep>
    <timestep time="39.00">
        <edge id="3/1to2/1">
            <lane id="3/1to2/1_0">
                <vehicle id="0" pos="90.00" speed="10.00"/>
            </lane>
        </edge>
    </timestep>
    <timestep time="40.00">
        <edge id="3/1to2/1">
            <lane id="3/1to2/1_0">
                <vehicle id="0" pos="100.00" speed="10.00"/>
            </lane>
        </edge>
    </timestep>
    <timestep time="41.00">
        <edge id="3/1to2/1">
            <lane id="3/1to2/1_0">
                <vehicle id="0" pos="110.00" speed="10.00"/>
            </lane>
        </edge>
    </timestep>
    <timestep time="42.00">
        <edge id="3/1to2/1">
            <lane id="3/1to2/1_0">
                <vehicle id="0" pos="120.00" speed="10.00"/>
            </lane>
        </edge>
    </timestep>
    <timestep time="43.00">
        <edge id="3/1to2/1">
            <lane id="3/1to2/1_0">
                <vehicle id="0" pos="130.00" speed="10.00"/>
            </lane>
        </edge>
    </timestep>
    <timestep time="44.00">
        <edge id="3/1to2/1">
            <lane id="3/1to2/1_0">
                <vehicle id="0" pos="140.00" speed="10.00"/>
            </lane>
        </edge>
    </timestep>
    <timestep time="45.00">
        <edge id="3/1to2/1">
            <lane id="3/1to2/1_0">
                <vehicle id="0" pos="150.00" speed="10.00"/>
            </lane>
        </edge>
    </timestep>
    <timestep time="46.00">
        <edge id="3/1to2/1">
            <lane id="3/1to2/1_0">
                <vehicle id="0" pos="160.00" speed="10.00"/>
            </lane>
        </edge>
    </timestep>
    <timestep time="47.00">
        <edge id="3/1to2/1">
            <lane id="3/1to2/1_0">
                <vehicle id="0" pos="170.00" speed="10.00"/>
            </lane>
        </edge>
    </timestep>
    <timestep time="48.00">
        <edge id="3/1to2/1">
            <lane id="3/1to2/1_0">
                <vehicle id="0" pos="180.00" speed="10.00"/>
            </lane>
        </edge>
    </timestep>
    <timestep time="49.00">
        <edge id="3/1to2/1">
            <lane id="3/1to2/1_0">
                <vehicle id="0" pos="190.00" speed="10.00"/>
            </lane>
        </edge>
    </timestep>
    <timestep time="50.00">
        <edge id="3/1to2/1">
            <lane id="3/1to2/1_0">
                <vehicle id="0" pos="200.00" speed="10.00"/>
            </lane>
        </edge>
    </timestep>
    <timestep time="51.00">
        <edge id="3/1to2/1">
            <lane id="3/1to2/1_0">
                <vehicle id="0" pos="210.00" speed="10.00"/>
            </lane>
        </edge>
    </timestep>
    <timestep time="52.00">
        <edge id="3/1to2/1">
            <lane id="3/1to2/1_0">
                <vehicle id="0" pos="220.00" speed="10.00"/>
            </lane>
        </edge>
    </timestep>
    <timestep time="53.00">
        <edge id="3/1to2/1">
            <lane id="3/1to2/1_0">
                <vehicle id="0" pos="230.00" speed="10.00"/>
            </lane>
        </edge>
    </timestep>
    <timestep time="54.00">
        <edge id="3/1to2/1">
            <lane id="3/1to2/1_0">
                <vehicle id="0" pos="240.00" speed="10.00"/>
            </lane>
        </edge>
    </timestep>
    <timestep time="55.00">
        <edge id="3/1to2/1">
            <lane id="3/1to2/1_0">
                <vehicle id="0" pos="250.00" speed="10.00"/>
            </lane>
        </edge>
    </timestep>
    <timestep time="56.00">
        <edge id="3/1to2/1">
            <lane id="3/1to2/1_0">
                <vehicle id="0" pos="260.00" speed="10.00"/>
            </lane>
        </edge>
    </timestep>
    <timestep time="57.00">
        <edge id="3/1to2/1">
            <lane id="3/1to2/1_0">
                <vehicle id="0" pos="270.00" speed="10.00"/>
            </lane>
        </edge>
    </timestep>
    <timestep time="58.00">
        <edge id="3/1to2/1">
            <lane id="3/1to2/1_0">
                <vehicle id="0" pos="280.00" speed="10.00"/>
            </lane>
        </edge>
    </timestep>
    <timestep time="59.00">
        <edge id="3/1to2/1">
            <lane id="3/1to2/1_0">
                <vehicle id="0" pos="290.00" speed="10.00"/>
            </lane>
        </edge>
    </timestep>
    <timestep time="60.00">
        <edge id="3/1to2/1">
            <lane id="3/1to2/1_0">
                <vehicle id="0" pos="300.00" speed="10.00"/>
            </lane>
        </edge>
    </timestep>
    <timestep time="61.00">
        <edge id="3/1to2/1">
            <lane id="3/1to2/1_0">
                <vehicle id="0" pos="310.00" speed="10.00"/>
            </lane>
        </edge>
    </timestep>
    <timestep time="62.00">
        <edge id="3/1to2/1">
            <lane id="3/1to2/1_0">
                <vehicle id="0" pos="320.00" speed="10.00"/>
            </lane>
        </edge>
    </timestep>
    <timestep time="63.00">
        <edge id="3/1to2/1">
            <lane id="3/1to2/1_0">
                <vehicle id="0" pos="330.00" speed="10.00"/>
            </lane>
        </edge>
    </timestep>
    <timestep time="64.00">
        <edge id="3/1to2/1">
            <lane id="3/1to2/1_0">
                <vehicle id="0" pos="340.00" speed="10.00"/>
            </lane>
        </edge>
    </timestep>
    <timestep time="65.00">
        <edge id="3/1to2/1">
            <lane id="3/1to2/1_0">
                <vehicle id="0" pos="350.00" speed="10.00"/>
            </lane>
        </edge>
    </timestep>
    <timestep time="66.00">
        <edge id="3/1to2/1">
            <lane id="3/1to2/1_0">
                <vehicle id="0" pos="360.00" speed="10.00"/>
            </lane>
        </edge>
    </timestep>
    <timestep time="67.00">
        <edge id="3/1to2/1">
            <lane id="3/1to2/1_0">
                <vehicle id="0" pos="370.00" speed="10.00"/>
            </lane>
        </edge>
    </timestep>
    <timestep time="68.00">
        <edge id="3/1to2/1">
            <lane id="3/1to2/1_0">
                <vehicle id="0" pos="380.00" speed="10.00"/>
            </lane>
        </edge>
    </timestep>
    <timestep time="69.00">
        <edge id="3/1to2/1">
            <lane id="3/1to2/1_0">
                <vehicle id="0" pos="390.00" speed="10.00"/>
            </lane>
        </edge>
    </timestep>
    <timestep time="70.00">
        <edge id="3/1to2/1">
            <lane id="3/1to2/1_0">
                <vehicle id="0" pos="400.00" speed="10.00"/>
            </lane>
        </edge>
    </timestep>
    <timestep time="71.00">
        <edge id="2/1to1/1">
            <lane id="2/1to1/1_0">
                <vehicle id="0" pos="10.00" speed="10.00"/>
            </lane>
        </edge>
    </timestep>
    <timestep time="72.00">
        <edge id="2/1to1/1">
            <lane id="2/1to1/1_0">
                <vehicle id="0" pos="20.00" speed="10.00"/>
            </lane>
        </edge>
    </timestep>
    <timestep time="73.00">
        <edge id="2/1to1/1">
            <lane id="2/1to1/1_0">
                <vehicle id="0" pos="30.00" speed="10.00"/>
            </lane>
        </edge>
    </timestep>
    <timestep time="74.00">
        <edge id="2/1to1/1">
            <lane id="2/1to1/1_0">
                <vehicle id="0" pos="40.00" speed="10.00"/>
            </lane>
        </edge>
    </timestep>
    <timestep time="75.00">
        <edge id="2/1to1/1">
            <lane id="2/1to1/1_0">
                <vehicle id="0" pos="50.00" speed="10.00"/>
            </lane>
        </edge>
    </timestep>
    <timestep time="76.00">
        <edge id="2/1to1/1">
            <lane id="2/1to1/1_0">
                <vehicle id="0" pos="60.00" speed="10.00"/>
            </lane>
        </edge>
    </timestep>
    <timestep time="77.00">
        <edge id="2/1to1/1">
            <lane id="2/1to1/1_0">
                <vehicle id="0" pos="70.00" speed="10.00"/>
            </lane>
        </edge>
    </timestep>
    <timestep time="78.00">
        <edge id="2/1to1/1">
            <lane id="2/1to1/1_0">
                <vehicle id="0" pos="80.00" speed="10.00"/>
            </lane>
        </edge>
    </timestep>
    <timestep time="79.00">
        <edge id="2/1to1/1">
            <lane id="2/1to1/1_0">
                <vehicle id="0" pos="90.00" speed="10.00"/>
            </lane>
        </edge>
    </timestep>
    <timestep time="80.00">
        <edge id="2/1to1/1">
            <lane id="2/1to1/1_0">
                <vehicle id="0" pos="100.00" speed="10.00"/>
            </lane>
        </edge>
    </timestep>
    <timestep time="81.00">
        <edge id="2/1to1/1">
            <lane id="2/1to1/1_0">
                <vehicle id="0" pos="110.00" speed="10.00"/>
            </lane>
        </edge>
    </timestep>
    <timestep time="82.00">
        <edge id="2/1to1/1">
            <lane id="2/1to1/1_0">
                <vehicle id="0" pos="120.00" speed="10.00"/>
            </lane>
        </edge>
    </timestep>
    <timestep time="83.00">
        <edge id="2/1to1/1">
            <lane id="2/1to1/1_0">
                <vehicle id="0" pos="130.00" speed="10.00"/>
            </lane>
        </edge>
    </timestep>
    <timestep time="84.00">
        <edge id="2/1to1/1">
            <lane id="2/1to1/1_0">
                <vehicle id="0" pos="140.00" speed="10.00"/>
            </lane>
        </edge>
    </timestep>
    <timestep time="85.00">
        <edge id="2/1to1/1">
            <lane id="2/1to1/1_0">
                <vehicle id="0" pos="150.00" speed="10.00"/>
            </lane>
        </edge>
    </timestep>
    <timestep time="86.00">
        <edge id="2/1to1/1">
            <lane id="2/1to1/1_0">
                <vehicle id="0" pos="160.00" speed="10.00"/>
            </lane>
        </edge>
    </timestep>
    <timestep time="87.00">
        <edge id="2/1to1/1">
            <lane id="2/1to1/1_0">
                <vehicle id="0" pos="170.00" speed="10.00"/>
            </lane>
        </edge>
    </timestep>
    <timestep time="88.00">
        <edge id="2/1to1/1">
            <lane id="2/1to1/1_0">
                <vehicle id="0" pos="180.00" speed="10.00"/>
            </lane>
        </edge>
    </timestep>
    <timestep time="89.00">
        <edge id="2/1to1/1">
            <lane id="2/1to1/1_0">
                <vehicle id="0" pos="190.00" speed="10.00"/>
            </lane>
        </edge>
    </timestep>
    <timestep time="90.00">
        <edge id="2/1to1/1">
            <lane id="2/1to1/1_0">
                <vehicle id="0" pos="200.00" speed="10.00"/>
            </lane>
        </edge>
    </timestep>
    <timestep time="91.00">
        <edge id="2/1to1/1">
            <lane id="2/1to1/1_0">
                <vehicle id="0" pos="210.00" speed="10.00"/>
            </lane>
        </edge>
    </timestep>
    <timestep time="92.00">
        <edge id="2/1to1/1">
            <lane id="2/1to1/1_0">
                <vehicle id="0" pos="220.00" speed="10.00"/>
            </lane>
        </edge>
    </timestep>
    <timestep time="93.00">
        <edge id="2/1to1/1">
            <lane id="2/1to1/1_0">
                <vehicle id="0" pos="230.00" speed="10.00"/>
            </lane>
        </edge>
    </timestep>
    <timestep time="94.00">
        <edge id="2/1to1/1">
            <lane id="2/1to1/1_0">
                <vehicle id="0" pos="240.00" speed="10.00"/>
            </lane>
        </edge>
    </timestep>
    <timestep time="95.00">
        <edge id="2/1to1/1">
            <lane id="2/1to1/1_0">
                <vehicle id="0" pos="250.00" speed="10.00"/>
            </lane>
        </edge>
    </timestep>
    <timestep time="96.00">
        <edge id="2/1to1/1">
            <lane id="2/1to1/1_0">
                <vehicle id="0" pos="260.00" speed="10.00"/>
            </lane>
        </edge>
    </timestep>
    <timestep time="97.00">
        <edge id="2/1to1/1">
            <lane id="2/1to1/1_0">
                <vehicle id="0" pos="270.00" speed="10.00"/>
            </lane>
        </edge>
    </timestep>
    <timestep time="98.00">
        <edge id="2/1to1/1">
            <lane id="2/1to1/1_0">
                <vehicle id="0" pos="280.00" speed="10.00"/>
            </lane>
        </edge>
    </timestep>
    <timestep time="99.00">
        <edge id="2/1to1/1">
            <lane id="2/1to1/1_0">
                <vehicle id="0" pos="290.00" speed="10.00"/>
            </lane>
        </edge>
    </timestep>
    <timestep time="100.00">
        <edge id="2/1to1/1">
            <lane id="2/1to1/1_0">
                <vehicle id="0" pos="300.00" speed="10.00"/>
            </lane>
        </edge>
    </timestep>
    <timestep time="101.00">
        <edge id="2/1to1/1">
            <lane id="2/1to1/1_0">
                <vehicle id="0" pos="310.00" speed="10.00"/>
            </lane>
        </edge>
    </timestep>
    <timestep time="102.00">
        <edge id="2/1to1/1">
            <lane id="2/1to1/1_0">
                <vehicle id="0" pos="320.00" speed="10.00"/>
            </lane>
        </edge>
    </timestep>
    <timestep time="103.00">
        <edge id="2/1to1/1">
            <lane id="2/1to1/1_0">
                <vehicle id="0" pos="330.00" speed="10.00"/>
            </lane>
        </edge>
    </timestep>
    <timestep time="104.00">
        <edge id="2/1to1/1">
            <lane id="2/1to1/1_0">
                <vehicle id="0" pos="340.00" speed="10.00"/>
            </lane>
        </edge>
    </timestep>
    <timestep time="105.00">
        <edge id="2/1to1/1">
            <lane id="2/1to1/1_0">
                <vehicle id="0" pos="350.00" speed="10.00"/>
            </lane>
        </edge>
    </timestep>
    <timestep time="106.00">
        <edge id="2/1to1/1">
            <lane id="2/1to1/1_0">
                <vehicle id="0" pos="360.00" speed="10.00"/>
            </lane>
        </edge>
    </timestep>
    <timestep time="107.00">
        <edge id="2/1to1/1">
            <lane id="2/1to1/1_0">
                <vehicle id="0" pos="370.00" speed="10.00"/>
            </lane>
        </edge>
    </timestep>
    <timestep time="108.00">
        <edge id="2/1to1/1">
            <lane id="2/1to1/1_0">
                <vehicle id="0" pos="380.00" speed="10.00"/>
            </lane>
        </edge>
    </timestep>
    <timestep time="109.00">
        <edge id="2/1to1/1">
            <lane id="2/1to1/1_0">
                <vehicle id="0" pos="390.00" speed="10.00"/>
            </lane>
        </edge>
    </timestep>
    <timestep time="110.00">
        <edge id="2/1to1/1">
            <lane id="2/1to1/1_0">
                <vehicle id="0" pos="400.00" speed="10.00"/>
            </lane>
        </edge>
    </timestep>
    <timestep time="111.00">
        <edge id="1/1to0/1">
            <lane id="1/1to0/1_0">
                <vehicle id="0" pos="10.00" speed="10.00"/>
            </lane>
        </edge>
    </timestep>
    <timestep time="112.00">
        <edge id="1/1to0/1">
            <lane id="1/1to0/1_0">
                <vehicle id="0" pos="20.00" speed="10.00"/>
            </lane>
        </edge>
    </timestep>
    <timestep time="113.00">
        <edge id="1/1to0/1">
            <lane id="1/1to0/1_0">
                <vehicle id="0" pos="30.00" speed="10.00"/>
            </lane>
        </edge>
    </timestep>
    <timestep time="114.00">
        <edge id="1/1to0/1">
            <lane id="1/1to0/1_0">
                <vehicle id="0" pos="40.00" speed="10.00"/>
            </lane>
        </edge>
    </timestep>
    <timestep time="115.00">
        <edge id="1/1to0/1">
            <lane id="1/1to0/1_0">
                <vehicle id="0" pos="50.00" speed="10.00"/>
            </lane>
        </edge>
    </timestep>
    <timestep time="116.00">
        <edge id="1/1to0/1">
            <lane id="1/1to0/1_0">
                <vehicle id="0" pos="60.00" speed="10.00"/>
            </lane>
        </edge>
    </timestep>
    <timestep time="117.00">
        <edge id="1/1to0/1">
            <lane id="1/1to0/1_0">
                <vehicle id="0" pos="70.00" speed="10.00"/>
            </lane>
        </edge>
    </timestep>
    <timestep time="118.00">
        <edge id="1/1to0/1">
            <lane id="1/1to0/1_0">
                <vehicle id="0" pos="80.00" speed="10.00"/>
            </lane>
        </edge>
    </timestep>
    <timestep time="119.00">
        <edge id="1/1to0/1">
            <lane id="1/1to0/1_0">
                <vehicle id="0" pos="90.00" speed="10.00"/>
            </lane>
        </edge>
    </timestep>
    <timestep time="120.00">
        <edge id="1/1to0/1">
            <lane id="1/1to0/1_0">
                <vehicle id="0" pos="100.00" speed="10.00"/>
            </lane>
        </edge>
    </timestep>
    <timestep time="121.00">
        <edge id="1/1to0/1">
            <lane id="1/1to0/1_0">
                <vehicle id="0" pos="110.00" speed="10.00"/>
            </lane>
        </edge>
    </timestep>
    <timestep time="122.00">
        <edge id="1/1to0/1">
            <lane id="1/1to0/1_0">
                <vehicle id="0" pos="120.00" speed="10.00"/>
            </lane>
        </edge>
    </timestep>
    <timestep time="123.00">
        <edge id="1/1to0/1">
            <lane id="1/1to0/1_0">
                <vehicle id="0" pos="130.00" speed="10.00"/>
            </lane>
        </edge>
    </timestep>
    <timestep time="124.00">
        <edge id="1/1to0/1">
            <lane id="1/1to0/1_0">
                <vehicle id="0" pos="140.00" speed="10.00"/>
            </lane>
        </edge>
    </timestep>
    <timestep time="125.00">
        <edge id="1/1to0/1">
            <lane id="1/1to0/1_0">
                <vehicle id="0" pos="150.00" speed="10.00"/>
            </lane>
        </edge>
    </timestep>
    <timestep time="126.00">
        <edge id="1/1to0/1">
            <lane id="1/1to0/1_0">
                <vehicle id="0" pos="160.00" speed="10.00"/>
            </lane>
        </edge>
    </timestep>
    <timestep time="127.00">
        <edge id="1/1to0/1">
            <lane id="1/1to0/1_0">
                <vehicle id="0" pos="170.00" speed="10.00"/>
            </lane>
        </edge>
    </timestep>
    <timestep time="128.00">
        <edge id="1/1to0/1">
            <lane id="1/1to0/1_0">
                <vehicle id="0" pos="180.00" speed="10.00"/>
            </lane>
        </edge>
    </timestep>
    <timestep time="129.00">
        <edge id="1/1to0/1">
            <lane id="1/1to0/1_0">
                <vehicle id="0" pos="190.00" speed="10.00"/>
            </lane>
        </edge>
    </timestep>
    <timestep time="130.00">
        <edge id="1/1to0/1">
            <lane id="1/1to0/1_0">
                <vehicle id="0" pos="200.00" speed="10.00"/>
            </lane>
        </edge>
    </timestep>
    <timestep time="131.00">
        <edge id="1/1to0/1">
            <lane id="1/1to0/1_0">
                <vehicle id="0" pos="210.00" speed="10.00"/>
            </lane>
        </edge>
    </timestep>
    <timestep time="132.00">
        <edge id="1/1to0/1">
            <lane id="1/1to0/1_0">
                <vehicle id="0" pos="220.00" speed="10.00"/>
            </lane>
        </edge>
    </timestep>
    <timestep time="133.00">
        <edge id="1/1to0/1">
            <lane id="1/1to0/1_0">
                <vehicle id="0" pos="230.00" speed="10.00"/>
            </lane>
        </edge>
    </timestep>
    <timestep time="134.00">
        <edge id="1/1to0/1">
            <lane id="1/1to0/1_0">
                <vehicle id="0" pos="240.00" speed="10.00"/>
            </lane>
        </edge>
    </timestep>
    <timestep time="135.00">
        <edge id="1/1to0/1">
            <lane id="1/1to0/1_0">
                <vehicle id="0" pos="250.00" speed="10.00"/>
            </lane>
        </edge>
    </timestep>
    <timestep time="136.00">
        <edge id="1/1to0/1">
            <lane id="1/1to0/1_0">
                <vehicle id="0" pos="260.00" speed="10.00"/>
            </lane>
        </edge>
    </timestep>
    <timestep time="137.00">
        <edge id="1/1to0/1">
            <lane id="1/1to0/1_0">
                <vehicle id="0" pos="270.00" speed="10.00"/>
            </lane>
        </edge>
    </timestep>
    <timestep time="138.00">
        <edge id="1/1to0/1">
            <lane id="1/1to0/1_0">
                <vehicle id="0" pos="280.00" speed="10.00"/>
            </lane>
        </edge>
    </timestep>
    <timestep time="139.00">
        <edge id="1/1to0/1">
            <lane id="1/1to0/1_0">
                <vehicle id="0" pos="290.00" speed="10.00"/>
            </lane>
        </edge>
    </timestep>
    <timestep time="140.00">
        <edge id="1/1to0/1">
            <lane id="1/1to0/1_0">
                <vehicle id="0" pos="300.00" speed="10.00"/>
            </lane>
        </edge>
    </timestep>
    <timestep time="141.00">
        <edge id="1/1to0/1">
            <lane id="1/1to0/1_0">
                <vehicle id="0" pos="310.00" speed="10.00"/>
            </lane>