<?xml version="1.0" encoding="UTF-8"?>

<!-- generated on 2022-04-22 10:58:13 by Eclipse SUMO sumo Version v1_12_0+2232-c4797f9
This data file and the accompanying materials
are made available under the terms of the Eclipse Public License v2.0
which accompanies this distribution, and is available at
http://www.eclipse.org/legal/epl-v20.html
This file may also be made available under the following Secondary
Licenses when the conditions for such availability set forth in the Eclipse
Public License 2.0 are satisfied: GNU General Public License, version 2
or later which is available at
https://www.gnu.org/licenses/old-licenses/gpl-2.0-standalone.html
SPDX-License-Identifier: EPL-2.0 OR GPL-2.0-or-later
<configuration xmlns:xsi="http://www.w3.org/2001/XMLSchema-instance" xsi:noNamespaceSchemaLocation="http://sumo.dlr.de/xsd/sumoConfiguration.xsd">

    <input>
        <net-file value="net.net.xml"/>
        <additional-files value="input_routes.rou.xml,input_additional2.add.xml"/>
    </input>

    <output>
        <write-license value="true"/>
        <vehroute-output value="vehroutes.xml"/>
        <vehroute-output.write-unfinished value="true"/>
    </output>

    <time>
        <begin value="0"/>
        <end value="150"/>
    </time>

    <processing>
        <default.speeddev value="0"/>
    </processing>

    <report>
        <xml-validation value="never"/>
        <xml-validation.routes value="never"/>
        <duration-log.disable value="true"/>
        <no-step-log value="true"/>
    </report>

</configuration>
-->

<routes xmlns:xsi="http://www.w3.org/2001/XMLSchema-instance" xsi:noNamespaceSchemaLocation="http://sumo.dlr.de/xsd/routes_file.xsd">
    <vehicle id="0" type="t1" depart="0.00" departPos="100.00" departSpeed="10.00" speedFactor="1.0000">
        <route edges="4/1to3/1 3/1to2/1 2/1to1/1 1/1to0/1"/>
        <stop edge="4/1to3/1" duration="10.00"/>
    </vehicle>

    <vehicle id="1" type="t2" depart="5.00" departPos="100.00" departSpeed="9.00" speedFactor="1.0000">
        <route edges="4/1to3/1 3/1to2/1 2/1to1/1 1/1to0/1"/>
        <stop edge="4/1to3/1" duration="200.00"/>
    </vehicle>

</routes>
