<?xml version="1.0" encoding="UTF-8"?>

<!-- generated on 2026-04-09T23:59:32.437327+01:00 by Eclipse SUMO sumo v1_26_0+1063-474b3a0336b
<sumoConfiguration xmlns:xsi="http://www.w3.org/2001/XMLSchema-instance" xsi:noNamespaceSchemaLocation="http://sumo.dlr.de/xsd/sumoConfiguration.xsd">

    <input>
        <net-file value="input_net2.net.xml"/>
        <additional-files value="input_routes.rou.xml"/>
        <load-state value="state.xml"/>
    </input>

    <output>
        <vehroute-output value="vehroutes2.xml"/>
    </output>

    <time>
        <begin value="20"/>
    </time>

    <processing>
        <default.speeddev value="0"/>
    </processing>

    <report>
        <verbose value="true"/>
        <duration-log.disable value="true"/>
        <no-step-log value="true"/>
    </report>

    <mesoscopic>
        <mesosim value="true"/>
    </mesoscopic>

</sumoConfiguration>
-->

<routes xmlns:xsi="http://www.w3.org/2001/XMLSchema-instance" xsi:noNamespaceSchemaLocation="http://sumo.dlr.de/xsd/routes_file.xsd">
    <vehicle id="v0" type="t0" depart="30.00" arrival="224.00">
        <route edges="SC CN NC CS SC CN"/>
        <stop edge="SC" duration="50.00"/>
        <stop edge="NC" duration="50.00"/>
        <stop edge="SC" duration="50.00"/>
    </vehicle>

</routes>
