<?xml version="1.0" encoding="UTF-8"?>

<!-- generated on Thu Apr 11 08:24:56 2019 by Eclipse SUMO Version v1_0_1+0645-93703db
This data file and the accompanying materials
are made available under the terms of the Eclipse Public License v2.0
which accompanies this distribution, and is available at
http://www.eclipse.org/legal/epl-v20.html
SPDX-License-Identifier: EPL-2.0
<configuration xmlns:xsi="http://www.w3.org/2001/XMLSchema-instance" xsi:noNamespaceSchemaLocation="http://sumo.dlr.de/xsd/sumoConfiguration.xsd">

    <input>
        <net-file value="motorway.net.xml"/>
        <route-files value="input_routes.rou.xml"/>
    </input>

    <output>
        <write-license value="true"/>
        <tripinfo-output value="tripinfos.xml"/>
    </output>

    <processing>
        <ignore-route-errors value="true"/>
        <default.speeddev value="0"/>
    </processing>

    <report>
        <verbose value="true"/>
        <xml-validation value="never"/>
        <duration-log.statistics value="true"/>
        <no-step-log value="true"/>
    </report>

</configuration>
-->

<tripinfos xmlns:xsi="http://www.w3.org/2001/XMLSchema-instance" xsi:noNamespaceSchemaLocation="http://sumo.dlr.de/xsd/tripinfo_file.xsd">
    <tripinfo id="v.0" depart="0.00" departLane="end2_0" departPos="5.10" departSpeed="36.00" departDelay="0.00" arrival="84.00" arrivalLane="end2_0" arrivalPos="2998.50" arrivalSpeed="36.00" duration="84.00" routeLength="2993.40" waitingTime="0.00" waitingCount="0" stopTime="0.00" timeLoss="0.00" rerouteNo="0" devices="tripinfo_v.0" vType="t0" speedFactor="1.00" vaporized=""/>
    <tripinfo id="v.1" depart="1.00" departLane="end2_0" departPos="5.10" departSpeed="36.00" departDelay="-0.50" arrival="85.00" arrivalLane="end2_0" arrivalPos="2998.50" arrivalSpeed="36.00" duration="84.00" routeLength="2993.40" waitingTime="0.00" waitingCount="0" stopTime="0.00" timeLoss="0.21" rerouteNo="0" devices="tripinfo_v.1" vType="t0" speedFactor="1.00" vaporized=""/>
    <tripinfo id="v.2" depart="3.00" departLane="end2_0" departPos="5.10" departSpeed="36.00" departDelay="0.00" arrival="87.00" arrivalLane="end2_0" arrivalPos="2998.50" arrivalSpeed="36.00" duration="84.00" routeLength="2993.40" waitingTime="0.00" waitingCount="0" stopTime="0.00" timeLoss="0.00" rerouteNo="0" devices="tripinfo_v.2" vType="t0" speedFactor="1.00" vaporized=""/>
    <tripinfo id="v.3" depart="4.00" departLane="end2_0" departPos="5.10" departSpeed="36.00" departDelay="-0.50" arrival="88.00" arrivalLane="end2_0" arrivalPos="2998.50" arrivalSpeed="36.00" duration="84.00" routeLength="2993.40" waitingTime="0.00" waitingCount="0" stopTime="0.00" timeLoss="0.21" rerouteNo="0" devices="tripinfo_v.3" vType="t0" speedFactor="1.00" vaporized=""/>
    <tripinfo id="v.4" depart="6.00" departLane="end2_0" departPos="5.10" departSpeed="36.00" departDelay="0.00" arrival="90.00" arrivalLane="end2_0" arrivalPos="2998.50" arrivalSpeed="36.00" duration="84.00" routeLength="2993.40" waitingTime="0.00" waitingCount="0" stopTime="0.00" timeLoss="0.00" rerouteNo="0" devices="tripinfo_v.4" vType="t0" speedFactor="1.00" vaporized=""/>
    <tripinfo id="v.5" depart="7.00" departLane="end2_0" departPos="5.10" departSpeed="36.00" departDelay="-0.50" arrival="91.00" arrivalLane="end2_0" arrivalPos="2998.50" arrivalSpeed="36.00" duration="84.00" routeLength="2993.40" waitingTime="0.00" waitingCount="0" stopTime="0.00" timeLoss="0.21" rerouteNo="0" devices="tripinfo_v.5" vType="t0" speedFactor="1.00" vaporized=""/>
    <tripinfo id="v.6" depart="9.00" departLane="end2_0" departPos="5.10" departSpeed="36.00" departDelay="0.00" arrival="93.00" arrivalLane="end2_0" arrivalPos="2998.50" arrivalSpeed="36.00" duration="84.00" routeLength="2993.40" waitingTime="0.00" waitingCount="0" stopTime="0.00" timeLoss="0.00" rerouteNo="0" devices="tripinfo_v.6" vType="t0" speedFactor="1.00" vaporized=""/>
    <tripinfo id="v.7" depart="10.00" departLane="end2_0" departPos="5.10" departSpeed="36.00" departDelay="-0.50" arrival="94.00" arrivalLane="end2_0" arrivalPos="2998.50" arrivalSpeed="36.00" duration="84.00" routeLength="2993.40" waitingTime="0.00" waitingCount="0" stopTime="0.00" timeLoss="0.21" rerouteNo="0" devices="tripinfo_v.7" vType="t0" speedFactor="1.00" vaporized=""/>
    <tripinfo id="v.8" depart="12.00" departLane="end2_0" departPos="5.10" departSpeed="36.00" departDelay="0.00" arrival="96.00" arrivalLane="end2_0" arrivalPos="2998.50" arrivalSpeed="36.00" duration="84.00" routeLength="2993.40" waitingTime="0.00" waitingCount="0" stopTime="0.00" timeLoss="0.00" rerouteNo="0" devices="tripinfo_v.8" vType="t0" speedFactor="1.00" vaporized=""/>
    <tripinfo id="v.9" depart="13.00" departLane="end2_0" departPos="5.10" departSpeed="36.00" departDelay="-0.50" arrival="97.00" arrivalLane="end2_0" arrivalPos="2998.50" arrivalSpeed="36.00" duration="84.00" routeLength="2993.40" waitingTime="0.00" waitingCount="0" stopTime="0.00" timeLoss="0.21" rerouteNo="0" devices="tripinfo_v.9" vType="t0" speedFactor="1.00" vaporized=""/>
</tripinfos>
