<?xml version="1.0" encoding="UTF-8"?>

<!-- generated on 2021-08-23 12:03:09 by Eclipse SUMO sumo Version v1_10_0+0129-6ada7b0
<configuration xmlns:xsi="http://www.w3.org/2001/XMLSchema-instance" xsi:noNamespaceSchemaLocation="http://sumo.dlr.de/xsd/sumoConfiguration.xsd">

    <input>
        <net-file value="input_net.net.xml"/>
        <route-files value="input_routes.rou.xml"/>
        <additional-files value="input_additional.add.xml,input_additional2.add.xml"/>
    </input>

    <output>
        <tripinfo-output value="tripinfo.xml"/>
        <tripinfo-output.write-unfinished value="true"/>
        <tripinfo-output.write-undeparted value="true"/>
        <vehroute-output value="vehroutes.xml"/>
    </output>

    <processing>
        <ignore-route-errors value="true"/>
        <time-to-teleport value="-1"/>
        <default.speeddev value="0"/>
        <pedestrian.model value="nonInteracting"/>
    </processing>

    <report>
        <duration-log.disable value="true"/>
        <no-step-log value="true"/>
    </report>

    <traci_server>
        <remote-port value="42621"/>
    </traci_server>

    <mesoscopic>
        <mesosim value="true"/>
        <meso-junction-control value="true"/>
    </mesoscopic>

    <gui_only>
        <window-size value="500,500"/>
        <window-pos value="50,50"/>
    </gui_only>

</configuration>
-->

<tripinfos xmlns:xsi="http://www.w3.org/2001/XMLSchema-instance" xsi:noNamespaceSchemaLocation="http://sumo.dlr.de/xsd/tripinfo_file.xsd">
    <tripinfo id="1" depart="6.00" departLane="" departPos="0.00" departSpeed="9.80" departDelay="0.00" arrival="19.00" arrivalLane="" arrivalPos="83.33" arrivalSpeed="11.11" duration="13.00" routeLength="83.33" waitingTime="0.00" waitingCount="0" stopTime="1.00" timeLoss="1.00" rerouteNo="1" devices="vehroute_1 tripinfo_1" vType="DEFAULT_VEHTYPE" speedFactor="1.00" vaporized="traci"/>
    <tripinfo id="failVeh" depart="128.00" departLane="" departPos="0.00" departSpeed="11.11" departDelay="0.00" arrival="161.00" arrivalLane="" arrivalPos="134.00" arrivalSpeed="13.89" duration="33.00" routeLength="384.00" waitingTime="0.00" waitingCount="0" stopTime="0.00" timeLoss="0.00" rerouteNo="0" devices="vehroute_failVeh tripinfo_failVeh routing_failVeh" vType="DEFAULT_VEHTYPE" speedFactor="1.00" vaporized=""/>
    <tripinfo id="horiz" depart="0.00" departLane="" departPos="0.00" departSpeed="11.11" departDelay="0.00" arrival="-1.00" arrivalLane="" arrivalPos="-1.00" arrivalSpeed="-1.00" duration="165.00" routeLength="1416.67" waitingTime="0.00" waitingCount="0" stopTime="0.00" timeLoss="-1.76" rerouteNo="0" devices="vehroute_horiz tripinfo_horiz" vType="DEFAULT_VEHTYPE@horiz" speedFactor="1.10" vaporized="end"/>
    <tripinfo id="2" depart="7.00" departLane="" departPos="0.00" departSpeed="8.95" departDelay="0.00" arrival="-1.00" arrivalLane="" arrivalPos="-1.00" arrivalSpeed="-1.00" duration="158.00" routeLength="1416.67" waitingTime="1.75" waitingCount="0" stopTime="0.00" timeLoss="29.92" rerouteNo="0" devices="vehroute_2 tripinfo_2" vType="DEFAULT_VEHTYPE" speedFactor="1.00" vaporized="end"/>
    <tripinfo id="departInThePast" depart="23.00" departLane="" departPos="0.00" departSpeed="11.11" departDelay="0.00" arrival="-1.00" arrivalLane="" arrivalPos="-1.00" arrivalSpeed="-1.00" duration="142.00" routeLength="1416.67" waitingTime="1.11" waitingCount="0" stopTime="0.00" timeLoss="15.58" rerouteNo="0" devices="vehroute_departInThePast tripinfo_departInThePast" vType="DEFAULT_VEHTYPE" speedFactor="1.00" vaporized="end"/>
    <tripinfo id="departInTheFuture" depart="30.00" departLane="" departPos="0.00" departSpeed="11.11" departDelay="0.00" arrival="-1.00" arrivalLane="" arrivalPos="-1.00" arrivalSpeed="-1.00" duration="135.00" routeLength="1416.67" waitingTime="1.11" waitingCount="0" stopTime="0.00" timeLoss="10.25" rerouteNo="0" devices="vehroute_departInTheFuture tripinfo_departInTheFuture" vType="DEFAULT_VEHTYPE" speedFactor="1.00" vaporized="end"/>
    <tripinfo id="departTriggered" depart="-1" departLane="" departPos="-1.00" departSpeed="-1.00" departDelay="165.00" arrival="-1.00" arrivalLane="" arrivalPos="-1.00" arrivalSpeed="-1.00" duration="0.00" routeLength="0.00" waitingTime="0.00" waitingCount="0" stopTime="0.00" timeLoss="0.00" rerouteNo="0" devices="vehroute_departTriggered tripinfo_departTriggered" vType="DEFAULT_VEHTYPE" speedFactor="1.00" vaporized="end"/>
    <tripinfo id="routeTest" depart="34.00" departLane="" departPos="0.00" departSpeed="11.11" departDelay="0.00" arrival="-1.00" arrivalLane="" arrivalPos="-1.00" arrivalSpeed="-1.00" duration="131.00" routeLength="1416.67" waitingTime="1.11" waitingCount="0" stopTime="0.00" timeLoss="7.92" rerouteNo="1" devices="vehroute_routeTest tripinfo_routeTest" vType="DEFAULT_VEHTYPE" speedFactor="1.00" vaporized="end"/>
    <tripinfo id="routeTest2" depart="50.00" departLane="" departPos="0.00" departSpeed="7.94" departDelay="0.00" arrival="-1.00" arrivalLane="" arrivalPos="-1.00" arrivalSpeed="-1.00" duration="115.00" routeLength="800.00" waitingTime="41.00" waitingCount="0" stopTime="3.00" timeLoss="44.00" rerouteNo="0" devices="vehroute_routeTest2 tripinfo_routeTest2" vType="DEFAULT_VEHTYPE" speedFactor="1.00" vaporized="end"/>
    <tripinfo id="bus" depart="64.00" departLane="" departPos="0.00" departSpeed="8.77" departDelay="0.00" arrival="-1.00" arrivalLane="" arrivalPos="-1.00" arrivalSpeed="-1.00" duration="101.00" routeLength="800.00" waitingTime="0.14" waitingCount="0" stopTime="2.00" timeLoss="31.81" rerouteNo="0" devices="vehroute_bus tripinfo_bus" vType="DEFAULT_VEHTYPE" speedFactor="1.00" vaporized="end"/>
    <tripinfo id="triptest" depart="78.00" departLane="" departPos="0.00" departSpeed="13.89" departDelay="0.00" arrival="-1.00" arrivalLane="" arrivalPos="-1.00" arrivalSpeed="-1.00" duration="87.00" routeLength="1000.00" waitingTime="0.00" waitingCount="0" stopTime="0.00" timeLoss="0.00" rerouteNo="2" devices="vehroute_triptest tripinfo_triptest" vType="DEFAULT_VEHTYPE" speedFactor="1.00" vaporized="end"/>
    <tripinfo id="parking" depart="78.00" departLane="" departPos="0.00" departSpeed="4.76" departDelay="0.00" arrival="-1.00" arrivalLane="" arrivalPos="-1.00" arrivalSpeed="-1.00" duration="87.00" routeLength="700.00" waitingTime="0.14" waitingCount="0" stopTime="10.00" timeLoss="19.61" rerouteNo="0" devices="vehroute_parking tripinfo_parking" vType="DEFAULT_VEHTYPE" speedFactor="1.00" vaporized="end"/>
    <tripinfo id="parking2" depart="98.00" departLane="" departPos="0.00" departSpeed="4.76" departDelay="0.00" arrival="-1.00" arrivalLane="" arrivalPos="-1.00" arrivalSpeed="-1.00" duration="67.00" routeLength="600.00" waitingTime="0.00" waitingCount="0" stopTime="10.00" timeLoss="10.00" rerouteNo="0" devices="vehroute_parking2 tripinfo_parking2" vType="DEFAULT_VEHTYPE" speedFactor="1.00" vaporized="end"/>
    <tripinfo id="blocker" depart="114.00" departLane="" departPos="0.00" departSpeed="11.11" departDelay="0.00" arrival="-1.00" arrivalLane="" arrivalPos="-1.00" arrivalSpeed="-1.00" duration="51.00" routeLength="600.00" waitingTime="0.00" waitingCount="0" stopTime="0.00" timeLoss="0.00" rerouteNo="0" devices="vehroute_blocker tripinfo_blocker" vType="DEFAULT_VEHTYPE" speedFactor="1.00" vaporized="end"/>
    <tripinfo id="offRoad" depart="114.00" departLane="" departPos="0.00" departSpeed="8.95" departDelay="0.00" arrival="-1.00" arrivalLane="" arrivalPos="-1.00" arrivalSpeed="-1.00" duration="51.00" routeLength="500.00" waitingTime="1.09" waitingCount="0" stopTime="0.00" timeLoss="5.49" rerouteNo="0" devices="vehroute_offRoad tripinfo_offRoad" vType="DEFAULT_VEHTYPE" speedFactor="1.10" vaporized="end"/>
    <tripinfo id="victim" depart="117.00" departLane="" departPos="0.00" departSpeed="4.76" departDelay="0.00" arrival="-1.00" arrivalLane="" arrivalPos="-1.00" arrivalSpeed="-1.00" duration="48.00" routeLength="416.67" waitingTime="0.00" waitingCount="0" stopTime="10.00" timeLoss="10.00" rerouteNo="0" devices="vehroute_victim tripinfo_victim" vType="DEFAULT_VEHTYPE" speedFactor="1.00" vaporized="end"/>
    <tripinfo id="block_2si" depart="149.00" departLane="" departPos="0.00" departSpeed="11.11" departDelay="32.00" arrival="-1.00" arrivalLane="" arrivalPos="-1.00" arrivalSpeed="-1.00" duration="16.00" routeLength="83.33" waitingTime="0.00" waitingCount="0" stopTime="0.00" timeLoss="0.00" rerouteNo="0" devices="vehroute_block_2si tripinfo_block_2si" vType="DEFAULT_VEHTYPE@block_2si" speedFactor="1.00" vaporized="end"/>
    <tripinfo id="collider" depart="127.00" departLane="" departPos="0.00" departSpeed="8.95" departDelay="10.00" arrival="-1.00" arrivalLane="" arrivalPos="-1.00" arrivalSpeed="-1.00" duration="38.00" routeLength="416.67" waitingTime="0.00" waitingCount="0" stopTime="0.00" timeLoss="1.81" rerouteNo="0" devices="vehroute_collider tripinfo_collider" vType="DEFAULT_VEHTYPE" speedFactor="1.00" vaporized="end"/>
    <tripinfo id="movedVeh" depart="125.00" departLane="" departPos="0.00" departSpeed="11.11" departDelay="0.00" arrival="-1.00" arrivalLane="" arrivalPos="-1.00" arrivalSpeed="-1.00" duration="40.00" routeLength="416.67" waitingTime="0.00" waitingCount="0" stopTime="0.00" timeLoss="0.00" rerouteNo="0" devices="vehroute_movedVeh tripinfo_movedVeh" vType="DEFAULT_VEHTYPE" speedFactor="1.00" vaporized="end"/>
    <tripinfo id="tazVeh" depart="127.00" departLane="" departPos="0.00" departSpeed="11.11" departDelay="0.00" arrival="-1.00" arrivalLane="" arrivalPos="-1.00" arrivalSpeed="-1.00" duration="38.00" routeLength="416.67" waitingTime="0.00" waitingCount="0" stopTime="0.00" timeLoss="0.00" rerouteNo="1" devices="vehroute_tazVeh tripinfo_tazVeh routing_tazVeh" vType="DEFAULT_VEHTYPE" speedFactor="1.00" vaporized="end"/>
    <tripinfo id="rerouteTT" depart="133.00" departLane="" departPos="0.00" departSpeed="11.11" departDelay="0.00" arrival="-1.00" arrivalLane="" arrivalPos="-1.00" arrivalSpeed="-1.00" duration="32.00" routeLength="333.33" waitingTime="0.00" waitingCount="0" stopTime="0.00" timeLoss="0.00" rerouteNo="1" devices="vehroute_rerouteTT tripinfo_rerouteTT" vType="DEFAULT_VEHTYPE" speedFactor="1.00" vaporized="end"/>
    <tripinfo id="rerouteEffort" depart="133.00" departLane="" departPos="0.00" departSpeed="8.95" departDelay="0.00" arrival="-1.00" arrivalLane="" arrivalPos="-1.00" arrivalSpeed="-1.00" duration="32.00" routeLength="333.33" waitingTime="0.00" waitingCount="0" stopTime="0.00" timeLoss="1.81" rerouteNo="1" devices="vehroute_rerouteEffort tripinfo_rerouteEffort" vType="DEFAULT_VEHTYPE" speedFactor="1.00" vaporized="end"/>
    <tripinfo id="pav" depart="134.00" departLane="" departPos="0.00" departSpeed="8.24" departDelay="0.00" arrival="-1.00" arrivalLane="" arrivalPos="-1.00" arrivalSpeed="-1.00" duration="31.00" routeLength="250.00" waitingTime="0.00" waitingCount="0" stopTime="2.00" timeLoss="2.61" rerouteNo="0" devices="vehroute_pav tripinfo_pav" vType="DEFAULT_VEHTYPE" speedFactor="1.00" vaporized="end"/>
    <tripinfo id="elVeh" depart="157.00" departLane="" departPos="0.00" departSpeed="4.42" departDelay="5.00" arrival="-1.00" arrivalLane="" arrivalPos="-1.00" arrivalSpeed="-1.00" duration="8.00" routeLength="0.00" waitingTime="0.00" waitingCount="0" stopTime="0.00" timeLoss="0.00" rerouteNo="0" devices="vehroute_elVeh tripinfo_elVeh battery_elVeh routing_elVeh" vType="long@elVeh" speedFactor="1.00" vaporized="end"/>
    <tripinfo id="triptest2" depart="162.00" departLane="" departPos="0.00" departSpeed="13.89" departDelay="0.00" arrival="-1.00" arrivalLane="" arrivalPos="-1.00" arrivalSpeed="-1.00" duration="3.00" routeLength="0.00" waitingTime="0.00" waitingCount="0" stopTime="0.00" timeLoss="0.00" rerouteNo="1" devices="vehroute_triptest2 tripinfo_triptest2 routing_triptest2" vType="reroutingType" speedFactor="1.00" vaporized="end"/>
    <tripinfo id="noRouteGiven" depart="163.00" departLane="" departPos="0.00" departSpeed="11.11" departDelay="0.00" arrival="-1.00" arrivalLane="" arrivalPos="-1.00" arrivalSpeed="-1.00" duration="2.00" routeLength="0.00" waitingTime="0.00" waitingCount="0" stopTime="0.00" timeLoss="0.00" rerouteNo="0" devices="vehroute_noRouteGiven tripinfo_noRouteGiven" vType="DEFAULT_VEHTYPE" speedFactor="1.00" vaporized=""/>
    <tripinfo id="vehDepartLane" depart="164.00" departLane="" departPos="0.00" departSpeed="5.98" departDelay="0.00" arrival="-1.00" arrivalLane="" arrivalPos="-1.00" arrivalSpeed="-1.00" duration="1.00" routeLength="0.00" waitingTime="0.00" waitingCount="0" stopTime="0.00" timeLoss="0.00" rerouteNo="0" devices="vehroute_vehDepartLane tripinfo_vehDepartLane" vType="DEFAULT_VEHTYPE" speedFactor="1.00" vaporized="end"/>
</tripinfos>
