<?xml version="1.0" encoding="UTF-8"?>

<!-- generated on 2025-02-15 16:52:49 by Eclipse SUMO sumo Version v1_22_0+0250-bcae56543c3
<sumoConfiguration xmlns:xsi="http://www.w3.org/2001/XMLSchema-instance" xsi:noNamespaceSchemaLocation="http://sumo.dlr.de/xsd/sumoConfiguration.xsd">

    <input>
        <net-file value="input_net.net.xml"/>
        <route-files value="input_routes.rou.xml"/>
        <additional-files value="input_additional.add.xml,input_additional2.add.xml"/>
    </input>

    <output>
        <tripinfo-output value="tripinfo.xml"/>
        <tripinfo-output.write-undeparted value="true"/>
        <vehroute-output value="vehroutes.xml"/>
    </output>

    <processing>
        <ignore-route-errors value="true"/>
        <time-to-teleport value="-1"/>
        <default.speeddev value="0"/>
    </processing>

    <report>
        <duration-log.disable value="true"/>
        <no-step-log value="true"/>
    </report>

    <traci_server>
        <remote-port value="46529"/>
    </traci_server>

    <mesoscopic>
        <mesosim value="true"/>
        <meso-junction-control value="true"/>
    </mesoscopic>

    <gui_only>
        <window-size value="500,500"/>
        <window-pos value="50,50"/>
    </gui_only>

</sumoConfiguration>
-->

<routes xmlns:xsi="http://www.w3.org/2001/XMLSchema-instance" xsi:noNamespaceSchemaLocation="http://sumo.dlr.de/xsd/routes_file.xsd">
    <vehicle id="1" depart="6.00" departPos="0.00" arrival="19.00">
        <routeDistribution>
            <route replacedOnEdge="" reason="traci:changeTarget" replacedAtTime="6.00" probability="0" edges="2fi 2si 1o 1fi 1si 3o 3fi 3si 4o 4fi 4si"/>
            <route edges="2fi 2si 4o 4fi"/>
        </routeDistribution>
        <stop lane="2fi_0" startPos="49.90" endPos="50.00" duration="1.00" parking="1"/>
    </vehicle>

</routes>
