<?xml version="1.0"?>

<!-- generated on 03/25/10 08:20:33 by SUMO sumo Version dev-SVN-r8511
<configuration>

    <input>
        <net-file value="three_split.net.xml"/>
        <additional-files value="input_routes.rou.xml,input_additional.add.xml"/>
    </input>

    <output>
        <vehroute-output value="vehroutes.xml"/>
    </output>

    <report>
        <no-duration-log value="true"/>
        <no-step-log value="true"/>
    </report>

    <mesoscopic>
        <mesosim value="true"/>
    </mesoscopic>

</configuration>
-->

<routes>
    <vehicle id="0.0" depart="0" arrival="126.00">
        <routeDistribution>
            <route replacedOnEdge="beg" replacedAtTime="0.00" probability="0" edges="beg middle end rend"/>
            <route edges="beg beg2right right right2end"/>
        </routeDistribution>
    </vehicle>

    <vehicle id="0.1" depart="20" arrival="145.00">
        <routeDistribution>
            <route replacedOnEdge="beg" replacedAtTime="20.00" probability="0" edges="beg middle end rend"/>
            <route edges="beg beg2left left left2end"/>
        </routeDistribution>
    </vehicle>

    <vehicle id="0.2" depart="40" arrival="165.00">
        <routeDistribution>
            <route replacedOnEdge="beg" replacedAtTime="40.00" probability="0" edges="beg middle end rend"/>
            <route edges="beg beg2left left left2end"/>
        </routeDistribution>
    </vehicle>

    <vehicle id="0.3" depart="60" arrival="185.00">
        <routeDistribution>
            <route replacedOnEdge="beg" replacedAtTime="60.00" probability="0" edges="beg middle end rend"/>
            <route edges="beg beg2left left left2end"/>
        </routeDistribution>
    </vehicle>

    <vehicle id="0.4" depart="80" arrival="206.00">
        <routeDistribution>
            <route replacedOnEdge="beg" replacedAtTime="80.00" probability="0" edges="beg middle end rend"/>
            <route edges="beg beg2right right right2end"/>
        </routeDistribution>
    </vehicle>

    <vehicle id="0.5" depart="100" arrival="226.00">
        <routeDistribution>
            <route replacedOnEdge="beg" replacedAtTime="100.00" probability="0" edges="beg middle end rend"/>
            <route edges="beg beg2right right right2end"/>
        </routeDistribution>
    </vehicle>

    <vehicle id="0.6" depart="120" arrival="245.00">
        <routeDistribution>
            <route replacedOnEdge="beg" replacedAtTime="120.00" probability="0" edges="beg middle end rend"/>
            <route edges="beg beg2left left left2end"/>
        </routeDistribution>
    </vehicle>

    <vehicle id="0.7" depart="140" arrival="265.00">
        <routeDistribution>
            <route replacedOnEdge="beg" replacedAtTime="140.00" probability="0" edges="beg middle end rend"/>
            <route edges="beg beg2left left left2end"/>
        </routeDistribution>
    </vehicle>

    <vehicle id="0.8" depart="160" arrival="286.00">
        <routeDistribution>
            <route replacedOnEdge="beg" replacedAtTime="160.00" probability="0" edges="beg middle end rend"/>
            <route edges="beg beg2right right right2end"/>
        </routeDistribution>
    </vehicle>

    <vehicle id="0.9" depart="180" arrival="306.00">
        <routeDistribution>
            <route replacedOnEdge="beg" replacedAtTime="180.00" probability="0" edges="beg middle end rend"/>
            <route edges="beg beg2right right right2end"/>
        </routeDistribution>
    </vehicle>

    <vehicle id="0.10" depart="200" arrival="326.00">
        <routeDistribution>
            <route replacedOnEdge="beg" replacedAtTime="200.00" probability="0" edges="beg middle end rend"/>
            <route edges="beg beg2right right right2end"/>
        </routeDistribution>
    </vehicle>

</routes>
