<?xml version="1.0" encoding="UTF-8"?>

<!-- generated on 05/02/13 15:11:21 by SUMO sumo Version 0.17.0
<?xml version="1.0" encoding="UTF-8"?>

<configuration xmlns:xsi="http://www.w3.org/2001/XMLSchema-instance" xsi:noNamespaceSchemaLocation="http://sumo-sim.org/xsd/sumoConfiguration.xsd">

    <input>
        <net-file value="three_split.net.xml"/>
        <additional-files value="input_routes.rou.xml,input_additional2.add.xml"/>
    </input>

    <output>
        <tripinfo-output value="tripinfos.xml"/>
    </output>

    <time>
        <begin value="0"/>
    </time>

    <report>
        <no-duration-log value="true"/>
        <no-step-log value="true"/>
    </report>

    <mesoscopic>
        <mesosim value="true"/>
    </mesoscopic>

</configuration>
-->

<tripinfos>
    <tripinfo id="0.0" depart="0.00" departLane="" departPos="0.00" departSpeed="27.81" departDelay="0.00" arrival="90.00" arrivalLane="" arrivalPos="500.00" arrivalSpeed="27.80" duration="90.00" routeLength="2481.00" waitSteps="0" rerouteNo="0" devices="tripinfo_0.0" vType="DEFAULT_VEHTYPE" vaporized=""/>
    <tripinfo id="0.1" depart="20.00" departLane="" departPos="0.00" departSpeed="27.81" departDelay="0.00" arrival="110.00" arrivalLane="" arrivalPos="500.00" arrivalSpeed="27.80" duration="90.00" routeLength="2481.00" waitSteps="0" rerouteNo="0" devices="tripinfo_0.1" vType="DEFAULT_VEHTYPE" vaporized=""/>
    <tripinfo id="0.5" depart="100.00" departLane="" departPos="0.00" departSpeed="27.81" departDelay="0.00" arrival="118.00" arrivalLane="" arrivalPos="500.00" arrivalSpeed="27.81" duration="18.00" routeLength="2481.00" waitSteps="0" rerouteNo="0" devices="tripinfo_0.5" vType="DEFAULT_VEHTYPE" vaporized="0"/>
    <tripinfo id="0.2" depart="40.00" departLane="" departPos="0.00" departSpeed="27.81" departDelay="0.00" arrival="130.00" arrivalLane="" arrivalPos="500.00" arrivalSpeed="27.80" duration="90.00" routeLength="2481.00" waitSteps="0" rerouteNo="0" devices="tripinfo_0.2" vType="DEFAULT_VEHTYPE" vaporized=""/>
    <tripinfo id="0.6" depart="120.00" departLane="" departPos="0.00" departSpeed="27.81" departDelay="0.00" arrival="138.00" arrivalLane="" arrivalPos="500.00" arrivalSpeed="27.81" duration="18.00" routeLength="2481.00" waitSteps="0" rerouteNo="0" devices="tripinfo_0.6" vType="DEFAULT_VEHTYPE" vaporized="0"/>
    <tripinfo id="0.3" depart="60.00" departLane="" departPos="0.00" departSpeed="27.81" departDelay="0.00" arrival="150.00" arrivalLane="" arrivalPos="500.00" arrivalSpeed="27.80" duration="90.00" routeLength="2481.00" waitSteps="0" rerouteNo="0" devices="tripinfo_0.3" vType="DEFAULT_VEHTYPE" vaporized=""/>
    <tripinfo id="0.7" depart="140.00" departLane="" departPos="0.00" departSpeed="27.81" departDelay="0.00" arrival="158.00" arrivalLane="" arrivalPos="500.00" arrivalSpeed="27.81" duration="18.00" routeLength="2481.00" waitSteps="0" rerouteNo="0" devices="tripinfo_0.7" vType="DEFAULT_VEHTYPE" vaporized="0"/>
    <tripinfo id="0.4" depart="80.00" departLane="" departPos="0.00" departSpeed="27.81" departDelay="0.00" arrival="170.00" arrivalLane="" arrivalPos="500.00" arrivalSpeed="27.80" duration="90.00" routeLength="2481.00" waitSteps="0" rerouteNo="0" devices="tripinfo_0.4" vType="DEFAULT_VEHTYPE" vaporized=""/>
    <tripinfo id="0.8" depart="160.00" departLane="" departPos="0.00" departSpeed="27.81" departDelay="0.00" arrival="178.00" arrivalLane="" arrivalPos="500.00" arrivalSpeed="27.81" duration="18.00" routeLength="2481.00" waitSteps="0" rerouteNo="0" devices="tripinfo_0.8" vType="DEFAULT_VEHTYPE" vaporized="0"/>
    <tripinfo id="0.9" depart="180.00" departLane="" departPos="0.00" departSpeed="27.81" departDelay="0.00" arrival="198.00" arrivalLane="" arrivalPos="500.00" arrivalSpeed="27.81" duration="18.00" routeLength="2481.00" waitSteps="0" rerouteNo="0" devices="tripinfo_0.9" vType="DEFAULT_VEHTYPE" vaporized="0"/>
    <tripinfo id="0.10" depart="200.00" departLane="" departPos="0.00" departSpeed="27.81" departDelay="0.00" arrival="218.00" arrivalLane="" arrivalPos="500.00" arrivalSpeed="27.81" duration="18.00" routeLength="2481.00" waitSteps="0" rerouteNo="0" devices="tripinfo_0.10" vType="DEFAULT_VEHTYPE" vaporized="0"/>
</tripinfos>
