<?xml version="1.0" encoding="UTF-8"?>

<!-- generated on Wed Jan 29 16:43:45 2020 by Eclipse SUMO Version v1_4_0+0840-ff01890
This data file and the accompanying materials
are made available under the terms of the Eclipse Public License v2.0
which accompanies this distribution, and is available at
http://www.eclipse.org/legal/epl-v20.html
SPDX-License-Identifier: EPL-2.0
<configuration xmlns:xsi="http://www.w3.org/2001/XMLSchema-instance" xsi:noNamespaceSchemaLocation="http://sumo.dlr.de/xsd/sumoConfiguration.xsd">

    <input>
        <net-file value="net.net.xml"/>
        <route-files value="input_routes.rou.xml"/>
    </input>

    <output>
        <write-license value="true"/>
        <fcd-output value="fcd.xml"/>
    </output>

    <time>
        <end value="10"/>
        <step-length value="0.1"/>
    </time>

    <processing>
        <lateral-resolution value="0.4"/>
        <default.speeddev value="0"/>
    </processing>

    <report>
        <xml-validation value="never"/>
        <no-step-log value="true"/>
    </report>

    <gui_only>
        <tracker-interval value="0.1"/>
    </gui_only>

</configuration>
-->

<fcd-export xmlns:xsi="http://www.w3.org/2001/XMLSchema-instance" xsi:noNamespaceSchemaLocation="http://sumo.dlr.de/xsd/fcd_file.xsd">
    <timestep time="0.00">
        <vehicle id="N_left_cyc" x="34.68" y="96.56" angle="179.24" type="DEFAULT_BIKETYPE" speed="0.00" pos="59.89" lane="gneE4.18_0" slope="0.00"/>
    </timestep>
    <timestep time="0.10">
        <vehicle id="N_left_cyc" x="34.68" y="96.55" angle="179.24" type="DEFAULT_BIKETYPE" speed="0.11" pos="59.90" lane="gneE4.18_0" slope="0.00"/>
    </timestep>
    <timestep time="0.20">
        <vehicle id="N_left_cyc" x="34.68" y="96.53" angle="179.24" type="DEFAULT_BIKETYPE" speed="0.23" pos="59.92" lane="gneE4.18_0" slope="0.00"/>
    </timestep>
    <timestep time="0.30">
        <vehicle id="N_left_cyc" x="34.68" y="96.49" angle="179.24" type="DEFAULT_BIKETYPE" speed="0.35" pos="59.96" lane="gneE4.18_0" slope="0.00"/>
    </timestep>
    <timestep time="0.40">
        <vehicle id="N_left_cyc" x="34.68" y="96.44" angle="179.24" type="DEFAULT_BIKETYPE" speed="0.46" pos="60.01" lane="gneE4.18_0" slope="0.00"/>
    </timestep>
    <timestep time="0.50">
        <vehicle id="N_left_cyc" x="34.68" y="96.39" angle="179.24" type="DEFAULT_BIKETYPE" speed="0.56" pos="60.06" lane="gneE4.18_0" slope="0.00"/>
    </timestep>
    <timestep time="0.60">
        <vehicle id="N_left_cyc" x="34.68" y="96.32" angle="179.24" type="DEFAULT_BIKETYPE" speed="0.67" pos="60.13" lane="gneE4.18_0" slope="0.00"/>
    </timestep>
    <timestep time="0.70">
        <vehicle id="N_left_cyc" x="34.68" y="96.25" angle="179.24" type="DEFAULT_BIKETYPE" speed="0.76" pos="60.20" lane="gneE4.18_0" slope="0.00"/>
    </timestep>
    <timestep time="0.80">
        <vehicle id="N_left_cyc" x="34.68" y="96.16" angle="179.24" type="DEFAULT_BIKETYPE" speed="0.86" pos="60.29" lane="gneE4.18_0" slope="0.00"/>
    </timestep>
    <timestep time="0.90">
        <vehicle id="N_left_cyc" x="34.68" y="96.06" angle="179.24" type="DEFAULT_BIKETYPE" speed="0.95" pos="60.39" lane="gneE4.18_0" slope="0.00"/>
    </timestep>
    <timestep time="1.00">
        <vehicle id="N_left_cyc" x="34.68" y="95.96" angle="179.24" type="DEFAULT_BIKETYPE" speed="1.07" pos="60.49" lane="gneE4.18_0" slope="0.00"/>
    </timestep>
    <timestep time="1.10">
        <vehicle id="N_left_cyc" x="34.69" y="95.84" angle="179.24" type="DEFAULT_BIKETYPE" speed="1.17" pos="60.61" lane="gneE4.18_0" slope="0.00"/>
    </timestep>
    <timestep time="1.20">
        <vehicle id="N_left_cyc" x="34.69" y="95.72" angle="179.24" type="DEFAULT_BIKETYPE" speed="1.26" pos="60.73" lane="gneE4.18_0" slope="0.00"/>
    </timestep>
    <timestep time="1.30">
        <vehicle id="N_left_cyc" x="34.69" y="95.58" angle="179.24" type="DEFAULT_BIKETYPE" speed="1.34" pos="60.87" lane="gneE4.18_0" slope="0.00"/>
    </timestep>
    <timestep time="1.40">
        <vehicle id="N_left_cyc" x="34.69" y="95.44" angle="179.24" type="DEFAULT_BIKETYPE" speed="1.44" pos="0.12" lane=":gneJ5_0_0" slope="0.00"/>
    </timestep>
    <timestep time="1.50">
        <vehicle id="N_left_cyc" x="34.69" y="95.28" angle="179.24" type="DEFAULT_BIKETYPE" speed="1.54" pos="0.28" lane=":gneJ5_0_0" slope="0.00"/>
    </timestep>
    <timestep time="1.60">
        <vehicle id="N_left_cyc" x="34.70" y="95.12" angle="179.24" type="DEFAULT_BIKETYPE" speed="1.63" pos="0.44" lane=":gneJ5_0_0" slope="0.00"/>
    </timestep>
    <timestep time="1.70">
        <vehicle id="N_left_cyc" x="34.70" y="94.95" angle="179.24" type="DEFAULT_BIKETYPE" speed="1.75" pos="0.61" lane=":gneJ5_0_0" slope="0.00"/>
    </timestep>
    <timestep time="1.80">
        <vehicle id="N_left_cyc" x="34.70" y="94.76" angle="179.24" type="DEFAULT_BIKETYPE" speed="1.83" pos="0.80" lane=":gneJ5_0_0" slope="0.00"/>
    </timestep>
    <timestep time="1.90">
        <vehicle id="N_left_cyc" x="34.70" y="94.57" angle="179.24" type="DEFAULT_BIKETYPE" speed="1.89" pos="0.99" lane=":gneJ5_0_0" slope="0.00"/>
    </timestep>
    <timestep time="2.00">
        <vehicle id="N_left_cyc" x="34.71" y="94.38" angle="179.24" type="DEFAULT_BIKETYPE" speed="1.97" pos="1.18" lane=":gneJ5_0_0" slope="0.00"/>
    </timestep>
    <timestep time="2.10">
        <vehicle id="N_left_cyc" x="34.71" y="94.17" angle="179.24" type="DEFAULT_BIKETYPE" speed="2.05" pos="1.39" lane=":gneJ5_0_0" slope="0.00"/>
    </timestep>
    <timestep time="2.20">
        <vehicle id="N_left_cyc" x="34.71" y="93.96" angle="179.24" type="DEFAULT_BIKETYPE" speed="2.11" pos="1.60" lane=":gneJ5_0_0" slope="0.00"/>
    </timestep>
    <timestep time="2.30">
        <vehicle id="N_left_cyc" x="34.71" y="93.74" angle="179.24" type="DEFAULT_BIKETYPE" speed="2.19" pos="1.82" lane=":gneJ5_0_0" slope="0.00"/>
    </timestep>
    <timestep time="2.40">
        <vehicle id="N_left_cyc" x="34.72" y="93.51" angle="179.24" type="DEFAULT_BIKETYPE" speed="2.29" pos="2.05" lane=":gneJ5_0_0" slope="0.00"/>
    </timestep>
    <timestep time="2.50">
        <vehicle id="N_left_cyc" x="34.72" y="93.28" angle="179.24" type="DEFAULT_BIKETYPE" speed="2.35" pos="2.28" lane=":gneJ5_0_0" slope="0.00"/>
    </timestep>
    <timestep time="2.60">
        <vehicle id="N_left_cyc" x="34.72" y="93.03" angle="179.24" type="DEFAULT_BIKETYPE" speed="2.44" pos="2.53" lane=":gneJ5_0_0" slope="0.00"/>
    </timestep>
    <timestep time="2.70">
        <vehicle id="N_left_cyc" x="34.73" y="92.78" angle="179.24" type="DEFAULT_BIKETYPE" speed="2.53" pos="2.78" lane=":gneJ5_0_0" slope="0.00"/>
    </timestep>
    <timestep time="2.80">
        <vehicle id="N_left_cyc" x="34.72" y="92.53" angle="179.55" type="DEFAULT_BIKETYPE" speed="2.59" pos="0.04" lane="gneE4.85_0" slope="0.00"/>
    </timestep>
    <timestep time="2.90">
        <vehicle id="N_left_cyc" x="34.70" y="92.26" angle="179.85" type="DEFAULT_BIKETYPE" speed="2.67" pos="0.30" lane="gneE4.85_0" slope="0.00"/>
    </timestep>
    <timestep time="3.00">
        <vehicle id="N_left_cyc" x="34.68" y="91.98" angle="180.15" type="DEFAULT_BIKETYPE" speed="2.78" pos="0.58" lane="gneE4.85_0" slope="0.00"/>
    </timestep>
    <timestep time="3.10">
        <vehicle id="N_left_cyc" x="34.64" y="91.69" angle="180.45" type="DEFAULT_BIKETYPE" speed="2.90" pos="0.87" lane="gneE4.85_0" slope="0.00"/>
    </timestep>
    <timestep time="3.20">
        <vehicle id="N_left_cyc" x="34.60" y="91.39" angle="180.75" type="DEFAULT_BIKETYPE" speed="3.01" pos="1.17" lane="gneE4.85_0" slope="0.00"/>
    </timestep>
    <timestep time="3.30">
        <vehicle id="N_left_cyc" x="34.54" y="91.08" angle="181.04" type="DEFAULT_BIKETYPE" speed="3.12" pos="1.48" lane="gneE4.85_0" slope="0.00"/>
    </timestep>
    <timestep time="3.40">
        <vehicle id="N_left_cyc" x="34.47" y="90.76" angle="181.33" type="DEFAULT_BIKETYPE" speed="3.19" pos="1.80" lane="gneE4.85_0" slope="0.00"/>
    </timestep>
    <timestep time="3.50">
        <vehicle id="N_left_cyc" x="34.40" y="90.43" angle="181.61" type="DEFAULT_BIKETYPE" speed="3.30" pos="2.13" lane="gneE4.85_0" slope="0.00"/>
    </timestep>
    <timestep time="3.60">
        <vehicle id="N_left_cyc" x="34.31" y="90.08" angle="181.89" type="DEFAULT_BIKETYPE" speed="3.41" pos="2.47" lane="gneE4.85_0" slope="0.00"/>
    </timestep>
    <timestep time="3.70">
        <vehicle id="N_left_cyc" x="34.22" y="89.73" angle="182.17" type="DEFAULT_BIKETYPE" speed="3.51" pos="2.82" lane="gneE4.85_0" slope="0.00"/>
    </timestep>
    <timestep time="3.80">
        <vehicle id="N_left_cyc" x="34.12" y="89.37" angle="182.16" type="DEFAULT_BIKETYPE" speed="3.61" pos="3.19" lane="gneE4.85_0" slope="0.00"/>
    </timestep>
    <timestep time="3.90">
        <vehicle id="N_left_cyc" x="34.03" y="88.99" angle="182.14" type="DEFAULT_BIKETYPE" speed="3.73" pos="3.56" lane="gneE4.85_0" slope="0.00"/>
    </timestep>
    <timestep time="4.00">
        <vehicle id="N_left_cyc" x="33.93" y="88.61" angle="182.13" type="DEFAULT_BIKETYPE" speed="3.83" pos="3.94" lane="gneE4.85_0" slope="0.00"/>
    </timestep>
    <timestep time="4.10">
        <vehicle id="N_left_cyc" x="33.84" y="88.22" angle="182.11" type="DEFAULT_BIKETYPE" speed="3.91" pos="4.33" lane="gneE4.85_0" slope="0.00"/>
    </timestep>
    <timestep time="4.20">
        <vehicle id="N_left_cyc" x="33.74" y="87.81" angle="182.10" type="DEFAULT_BIKETYPE" speed="4.02" pos="4.73" lane="gneE4.85_0" slope="0.00"/>
    </timestep>
    <timestep time="4.30">
        <vehicle id="N_left_cyc" x="33.65" y="87.40" angle="182.08" type="DEFAULT_BIKETYPE" speed="4.13" pos="5.15" lane="gneE4.85_0" slope="0.00"/>
    </timestep>
    <timestep time="4.40">
        <vehicle id="N_left_cyc" x="33.55" y="86.98" angle="182.07" type="DEFAULT_BIKETYPE" speed="4.23" pos="5.57" lane="gneE4.85_0" slope="0.00"/>
    </timestep>
    <timestep time="4.50">
        <vehicle id="N_left_cyc" x="33.46" y="86.54" angle="182.06" type="DEFAULT_BIKETYPE" speed="4.31" pos="6.00" lane="gneE4.85_0" slope="0.00"/>
    </timestep>
    <timestep time="4.60">
        <vehicle id="N_left_cyc" x="33.37" y="86.10" angle="182.05" type="DEFAULT_BIKETYPE" speed="4.39" pos="6.44" lane="gneE4.85_0" slope="0.00"/>
    </timestep>
    <timestep time="4.70">
        <vehicle id="N_left_cyc" x="33.27" y="85.65" angle="182.03" type="DEFAULT_BIKETYPE" speed="4.50" pos="6.89" lane="gneE4.85_0" slope="0.00"/>
    </timestep>
    <timestep time="4.80">
        <vehicle id="N_left_cyc" x="33.18" y="85.19" angle="182.02" type="DEFAULT_BIKETYPE" speed="4.59" pos="7.35" lane="gneE4.85_0" slope="0.00"/>
    </timestep>
    <timestep time="4.90">
        <vehicle id="N_left_cyc" x="33.08" y="84.72" angle="182.01" type="DEFAULT_BIKETYPE" speed="4.70" pos="7.82" lane="gneE4.85_0" slope="0.00"/>
    </timestep>
    <timestep time="5.00">
        <vehicle id="N_left_cyc" x="32.99" y="84.24" angle="181.99" type="DEFAULT_BIKETYPE" speed="4.80" pos="8.30" lane="gneE4.85_0" slope="0.00"/>
    </timestep>
    <timestep time="5.10">
        <vehicle id="N_left_cyc" x="32.90" y="83.75" angle="181.98" type="DEFAULT_BIKETYPE" speed="4.86" pos="8.79" lane="gneE4.85_0" slope="0.00"/>
    </timestep>
    <timestep time="5.20">
        <vehicle id="N_left_cyc" x="32.80" y="83.25" angle="181.97" type="DEFAULT_BIKETYPE" speed="4.96" pos="9.28" lane="gneE4.85_0" slope="0.00"/>
    </timestep>
    <timestep time="5.30">
        <vehicle id="N_left_cyc" x="32.71" y="82.75" angle="181.96" type="DEFAULT_BIKETYPE" speed="5.04" pos="9.79" lane="gneE4.85_0" slope="0.00"/>
    </timestep>
    <timestep time="5.40">
        <vehicle id="N_left_cyc" x="32.62" y="82.23" angle="181.95" type="DEFAULT_BIKETYPE" speed="5.15" pos="10.30" lane="gneE4.85_0" slope="0.00"/>
    </timestep>
    <timestep time="5.50">
        <vehicle id="N_left_cyc" x="32.52" y="81.70" angle="181.93" type="DEFAULT_BIKETYPE" speed="5.25" pos="10.83" lane="gneE4.85_0" slope="0.00"/>
    </timestep>
    <timestep time="5.60">
        <vehicle id="N_left_cyc" x="32.43" y="81.17" angle="181.92" type="DEFAULT_BIKETYPE" speed="5.35" pos="11.36" lane="gneE4.85_0" slope="0.00"/>
    </timestep>
    <timestep time="5.70">
        <vehicle id="N_left_cyc" x="32.34" y="80.62" angle="181.91" type="DEFAULT_BIKETYPE" speed="5.46" pos="11.91" lane="gneE4.85_0" slope="0.00"/>
    </timestep>
    <timestep time="5.80">
        <vehicle id="N_left_cyc" x="32.25" y="80.06" angle="181.90" type="DEFAULT_BIKETYPE" speed="5.55" pos="12.46" lane="gneE4.85_0" slope="0.00"/>
    </timestep>
    <timestep time="5.90">
        <vehicle id="N_left_cyc" x="32.19" y="79.63" angle="168.11" type="DEFAULT_BIKETYPE" speed="5.51" pos="0.21" lane=":gneJ1_0_0" slope="0.00"/>
    </timestep>
    <timestep time="6.00">
        <vehicle id="N_left_cyc" x="32.24" y="79.07" angle="167.85" type="DEFAULT_BIKETYPE" speed="5.50" pos="0.76" lane=":gneJ1_0_0" slope="0.00"/>
    </timestep>
    <timestep time="6.10">
        <vehicle id="N_left_cyc" x="32.30" y="78.52" angle="167.58" type="DEFAULT_BIKETYPE" speed="5.51" pos="1.32" lane=":gneJ1_0_0" slope="0.00"/>
    </timestep>
    <timestep time="6.20">
        <vehicle id="N_left_cyc" x="32.43" y="78.13" angle="135.86" type="DEFAULT_BIKETYPE" speed="5.55" pos="1.87" lane=":gneJ1_0_0" slope="0.00"/>
    </timestep>
    <timestep time="6.30">
        <vehicle id="N_left_cyc" x="32.78" y="77.70" angle="135.60" type="DEFAULT_BIKETYPE" speed="5.53" pos="2.42" lane=":gneJ1_0_0" slope="0.00"/>
    </timestep>
    <timestep time="6.40">
        <vehicle id="N_left_cyc" x="33.14" y="77.28" angle="135.33" type="DEFAULT_BIKETYPE" speed="5.52" pos="2.98" lane=":gneJ1_0_0" slope="0.00"/>
    </timestep>
    <timestep time="6.50">
        <vehicle id="N_left_cyc" x="33.55" y="76.98" angle="110.38" type="DEFAULT_BIKETYPE" speed="5.55" pos="3.53" lane=":gneJ1_0_0" slope="0.00"/>
    </timestep>
    <timestep time="6.60">
        <vehicle id="N_left_cyc" x="34.06" y="76.77" angle="110.12" type="DEFAULT_BIKETYPE" speed="5.51" pos="4.08" lane=":gneJ1_0_0" slope="0.00"/>
    </timestep>
    <timestep time="6.70">
        <vehicle id="N_left_cyc" x="34.58" y="76.57" angle="109.85" type="DEFAULT_BIKETYPE" speed="5.54" pos="4.64" lane=":gneJ1_0_0" slope="0.00"/>
    </timestep>
    <timestep time="6.80">
        <vehicle id="N_left_cyc" x="35.10" y="76.37" angle="109.58" type="DEFAULT_BIKETYPE" speed="5.52" pos="5.19" lane=":gneJ1_0_0" slope="0.00"/>
    </timestep>
    <timestep time="6.90">
        <vehicle id="N_left_cyc" x="35.64" y="76.30" angle="94.43" type="DEFAULT_BIKETYPE" speed="5.51" pos="5.74" lane=":gneJ1_0_0" slope="0.00"/>
    </timestep>
    <timestep time="7.00">
        <vehicle id="N_left_cyc" x="36.19" y="76.25" angle="94.43" type="DEFAULT_BIKETYPE" speed="5.56" pos="6.30" lane=":gneJ1_0_0" slope="0.00"/>
    </timestep>
    <timestep time="7.10">
        <vehicle id="N_left_cyc" x="36.74" y="76.21" angle="95.10" type="DEFAULT_BIKETYPE" speed="5.52" pos="6.85" lane=":gneJ1_0_0" slope="0.00"/>
    </timestep>
    <timestep time="7.20">
        <vehicle id="N_left_cyc" x="37.29" y="76.17" angle="94.43" type="DEFAULT_BIKETYPE" speed="5.53" pos="7.40" lane=":gneJ1_0_0" slope="0.00"/>
    </timestep>
    <timestep time="7.30">
        <vehicle id="N_left_cyc" x="37.84" y="76.13" angle="94.43" type="DEFAULT_BIKETYPE" speed="5.53" pos="7.95" lane=":gneJ1_0_0" slope="0.00"/>
    </timestep>
    <timestep time="7.40">
        <vehicle id="N_left_cyc" x="38.39" y="76.12" angle="93.09" type="DEFAULT_BIKETYPE" speed="5.52" pos="0.46" lane="gneE2_0" slope="0.00"/>
    </timestep>
    <timestep time="7.50">
        <vehicle id="N_left_cyc" x="38.95" y="76.12" angle="91.49" type="DEFAULT_BIKETYPE" speed="5.51" pos="1.02" lane="gneE2_0" slope="0.00"/>
    </timestep>
    <timestep time="7.60">
        <vehicle id="N_left_cyc" x="39.50" y="76.13" angle="89.89" type="DEFAULT_BIKETYPE" speed="5.54" pos="1.57" lane="gneE2_0" slope="0.00"/>
    </timestep>
    <timestep time="7.70">
        <vehicle id="N_left_cyc" x="40.05" y="76.13" angle="89.80" type="DEFAULT_BIKETYPE" speed="5.50" pos="2.12" lane="gneE2_0" slope="0.00"/>
    </timestep>
    <timestep time="7.80">
        <vehicle id="N_left_cyc" x="40.60" y="76.13" angle="89.80" type="DEFAULT_BIKETYPE" speed="5.50" pos="2.67" lane="gneE2_0" slope="0.00"/>
    </timestep>
    <timestep time="7.90">
        <vehicle id="N_left_cyc" x="41.16" y="76.13" angle="89.80" type="DEFAULT_BIKETYPE" speed="5.55" pos="3.23" lane="gneE2_0" slope="0.00"/>
    </timestep>
    <timestep time="8.00">
        <vehicle id="N_left_cyc" x="41.71" y="76.13" angle="89.80" type="DEFAULT_BIKETYPE" speed="5.55" pos="3.78" lane="gneE2_0" slope="0.00"/>
    </timestep>
    <timestep time="8.10">
        <vehicle id="N_left_cyc" x="42.26" y="76.14" angle="89.80" type="DEFAULT_BIKETYPE" speed="5.50" pos="4.33" lane="gneE2_0" slope="0.00"/>
    </timestep>
    <timestep time="8.20">
        <vehicle id="N_left_cyc" x="42.81" y="76.14" angle="89.80" type="DEFAULT_BIKETYPE" speed="5.51" pos="4.88" lane="gneE2_0" slope="0.00"/>
    </timestep>
    <timestep time="8.30">
        <vehicle id="N_left_cyc" x="43.37" y="76.14" angle="89.80" type="DEFAULT_BIKETYPE" speed="5.54" pos="5.44" lane="gneE2_0" slope="0.00"/>
    </timestep>
    <timestep time="8.40">
        <vehicle id="N_left_cyc" x="43.92" y="76.14" angle="89.80" type="DEFAULT_BIKETYPE" speed="5.52" pos="5.99" lane="gneE2_0" slope="0.00"/>
    </timestep>
    <timestep time="8.50">
        <vehicle id="N_left_cyc" x="44.47" y="76.14" angle="89.80" type="DEFAULT_BIKETYPE" speed="5.50" pos="6.54" lane="gneE2_0" slope="0.00"/>
    </timestep>
    <timestep time="8.60">
        <vehicle id="N_left_cyc" x="45.02" y="76.14" angle="89.80" type="DEFAULT_BIKETYPE" speed="5.54" pos="7.09" lane="gneE2_0" slope="0.00"/>
    </timestep>
    <timestep time="8.70">
        <vehicle id="N_left_cyc" x="45.58" y="76.15" angle="89.80" type="DEFAULT_BIKETYPE" speed="5.55" pos="7.65" lane="gneE2_0" slope="0.00"/>
    </timestep>
    <timestep time="8.80">
        <vehicle id="N_left_cyc" x="46.13" y="76.15" angle="89.80" type="DEFAULT_BIKETYPE" speed="5.55" pos="8.20" lane="gneE2_0" slope="0.00"/>
    </timestep>
    <timestep time="8.90">
        <vehicle id="N_left_cyc" x="46.69" y="76.15" angle="89.80" type="DEFAULT_BIKETYPE" speed="5.55" pos="8.76" lane="gneE2_0" slope="0.00"/>
    </timestep>
    <timestep time="9.00">
        <vehicle id="N_left_cyc" x="47.24" y="76.15" angle="89.80" type="DEFAULT_BIKETYPE" speed="5.55" pos="9.31" lane="gneE2_0" slope="0.00"/>
    </timestep>
    <timestep time="9.10">
        <vehicle id="N_left_cyc" x="47.79" y="76.15" angle="89.80" type="DEFAULT_BIKETYPE" speed="5.51" pos="9.86" lane="gneE2_0" slope="0.00"/>
    </timestep>
    <timestep time="9.20">
        <vehicle id="N_left_cyc" x="48.34" y="76.16" angle="89.80" type="DEFAULT_BIKETYPE" speed="5.52" pos="10.41" lane="gneE2_0" slope="0.00"/>
    </timestep>
    <timestep time="9.30">
        <vehicle id="N_left_cyc" x="48.90" y="76.16" angle="89.80" type="DEFAULT_BIKETYPE" speed="5.53" pos="10.97" lane="gneE2_0" slope="0.00"/>
    </timestep>
    <timestep time="9.40">
        <vehicle id="N_left_cyc" x="49.45" y="76.16" angle="89.80" type="DEFAULT_BIKETYPE" speed="5.50" pos="11.52" lane="gneE2_0" slope="0.00"/>
    </timestep>
    <timestep time="9.50">
        <vehicle id="N_left_cyc" x="50.00" y="76.16" angle="89.80" type="DEFAULT_BIKETYPE" speed="5.51" pos="12.07" lane="gneE2_0" slope="0.00"/>
    </timestep>
    <timestep time="9.60">
        <vehicle id="N_left_cyc" x="50.55" y="76.16" angle="89.80" type="DEFAULT_BIKETYPE" speed="5.54" pos="12.62" lane="gneE2_0" slope="0.00"/>
    </timestep>
    <timestep time="9.70">
        <vehicle id="N_left_cyc" x="51.10" y="76.17" angle="89.80" type="DEFAULT_BIKETYPE" speed="5.50" pos="13.17" lane="gneE2_0" slope="0.00"/>
    </timestep>
    <timestep time="9.80">
        <vehicle id="N_left_cyc" x="51.65" y="76.17" angle="89.80" type="DEFAULT_BIKETYPE" speed="5.52" pos="13.72" lane="gneE2_0" slope="0.00"/>
    </timestep>
    <timestep time="9.90">
        <vehicle id="N_left_cyc" x="52.21" y="76.17" angle="89.80" type="DEFAULT_BIKETYPE" speed="5.52" pos="14.28" lane="gneE2_0" slope="0.00"/>
    </timestep>
</fcd-export>
