<?xml version="1.0" encoding="UTF-8"?>

<!-- generated on Fri Nov 10 09:30:39 2017 by SUMO Version v0_31_0-1056-gab55b65
<?xml version="1.0" encoding="UTF-8"?>

<configuration xmlns:xsi="http://www.w3.org/2001/XMLSchema-instance" xsi:noNamespaceSchemaLocation="http://sumo.dlr.de/xsd/sumoConfiguration.xsd">

    <input>
        <net-file value="net3.net.xml"/>
        <additional-files value="input_additional.add.xml,input_additional2.add.xml"/>
    </input>

    <output>
        <netstate-dump value="rawdump.xml"/>
    </output>

    <processing>
        <pedestrian.model value="nonInteracting"/>
    </processing>

    <report>
        <xml-validation value="never"/>
        <no-step-log value="true"/>
    </report>

</configuration>
-->

<netstate xmlns:xsi="http://www.w3.org/2001/XMLSchema-instance" xsi:noNamespaceSchemaLocation="http://sumo.dlr.de/xsd/netstate_file.xsd">
    <timestep time="0.00">
        <edge id="SC">
            <person id="p0" pos="65.40" angle="180.00" stage="walking"/>
        </edge>
    </timestep>
    <timestep time="1.00">
        <edge id="SC">
            <person id="p0" pos="64.04" angle="180.00" stage="walking"/>
        </edge>
    </timestep>
    <timestep time="2.00">
        <edge id="SC">
            <person id="p0" pos="62.68" angle="180.00" stage="walking"/>
        </edge>
    </timestep>
    <timestep time="3.00">
        <edge id="SC">
            <person id="p0" pos="61.32" angle="180.00" stage="walking"/>
        </edge>
    </timestep>
    <timestep time="4.00">
        <edge id="SC">
            <person id="p0" pos="59.96" angle="180.00" stage="walking"/>
        </edge>
    </timestep>
    <timestep time="5.00">
        <edge id="SC">
            <person id="p0" pos="58.60" angle="180.00" stage="walking"/>
        </edge>
    </timestep>
    <timestep time="6.00">
        <edge id="SC">
            <person id="p0" pos="57.24" angle="180.00" stage="walking"/>
        </edge>
    </timestep>
    <timestep time="7.00">
        <edge id="SC">
            <person id="p0" pos="55.88" angle="180.00" stage="walking"/>
        </edge>
    </timestep>
    <timestep time="8.00">
        <edge id="SC">
            <person id="p0" pos="54.52" angle="180.00" stage="walking"/>
        </edge>
    </timestep>
    <timestep time="9.00">
        <edge id="SC">
            <person id="p0" pos="53.16" angle="180.00" stage="walking"/>
        </edge>
    </timestep>
    <timestep time="10.00">
        <edge id="SC">
            <person id="p0" pos="51.80" angle="180.00" stage="walking"/>
        </edge>
    </timestep>
    <timestep time="11.00">
        <edge id="SC">
            <person id="p0" pos="50.44" angle="180.00" stage="walking"/>
        </edge>
    </timestep>
    <timestep time="12.00">
        <edge id="SC">
            <person id="p0" pos="49.08" angle="180.00" stage="walking"/>
        </edge>
    </timestep>
    <timestep time="13.00">
        <edge id="SC">
            <person id="p0" pos="47.72" angle="180.00" stage="walking"/>
        </edge>
    </timestep>
    <timestep time="14.00">
        <edge id="SC">
            <person id="p0" pos="46.36" angle="180.00" stage="walking"/>
        </edge>
    </timestep>
    <timestep time="15.00">
        <edge id="SC">
            <person id="p0" pos="45.00" angle="180.00" stage="walking"/>
        </edge>
    </timestep>
    <timestep time="16.00">
        <edge id="SC">
            <person id="p0" pos="43.64" angle="180.00" stage="walking"/>
        </edge>
    </timestep>
    <timestep time="17.00">
        <edge id="SC">
            <person id="p0" pos="42.28" angle="180.00" stage="walking"/>
        </edge>
    </timestep>
    <timestep time="18.00">
        <edge id="SC">
            <person id="p0" pos="40.92" angle="180.00" stage="walking"/>
        </edge>
    </timestep>
    <timestep time="19.00">
        <edge id="SC">
            <person id="p0" pos="39.56" angle="180.00" stage="walking"/>
        </edge>
    </timestep>
    <timestep time="20.00">
        <edge id="SC">
            <person id="p0" pos="38.20" angle="180.00" stage="walking"/>
        </edge>
    </timestep>
    <timestep time="21.00">
        <edge id="SC">
            <person id="p0" pos="36.84" angle="180.00" stage="walking"/>
        </edge>
    </timestep>
    <timestep time="22.00">
        <edge id="SC">
            <person id="p0" pos="35.48" angle="180.00" stage="walking"/>
        </edge>
    </timestep>
    <timestep time="23.00">
        <edge id="SC">
            <person id="p0" pos="34.12" angle="180.00" stage="walking"/>
        </edge>
    </timestep>
    <timestep time="24.00">
        <edge id="SC">
            <person id="p0" pos="32.76" angle="180.00" stage="walking"/>
        </edge>
    </timestep>
    <timestep time="25.00">
        <edge id="SC">
            <person id="p0" pos="31.40" angle="180.00" stage="walking"/>
        </edge>
    </timestep>
    <timestep time="26.00">
        <edge id="SC">
            <person id="p0" pos="30.04" angle="180.00" stage="walking"/>
        </edge>
    </timestep>
    <timestep time="27.00">
        <edge id="SC">
            <person id="p0" pos="28.68" angle="180.00" stage="walking"/>
        </edge>
    </timestep>
    <timestep time="28.00">
        <edge id="SC">
            <person id="p0" pos="27.32" angle="180.00" stage="walking"/>
        </edge>
    </timestep>
    <timestep time="29.00">
        <edge id="SC">
            <person id="p0" pos="25.96" angle="180.00" stage="walking"/>
        </edge>
    </timestep>
    <timestep time="30.00">
        <edge id="SC">
            <person id="p0" pos="24.60" angle="180.00" stage="walking"/>
        </edge>
    </timestep>
    <timestep time="31.00">
        <edge id="SC">
            <person id="p0" pos="23.24" angle="180.00" stage="walking"/>
        </edge>
    </timestep>
    <timestep time="32.00">
        <edge id="SC">
            <person id="p0" pos="21.88" angle="180.00" stage="walking"/>
        </edge>
    </timestep>
    <timestep time="33.00">
        <edge id="SC">
            <person id="p0" pos="20.52" angle="180.00" stage="walking"/>
        </edge>
    </timestep>
    <timestep time="34.00">
        <edge id="SC">
            <person id="p0" pos="19.16" angle="180.00" stage="walking"/>
        </edge>
    </timestep>
    <timestep time="35.00">
        <edge id="SC">
            <person id="p0" pos="17.80" angle="180.00" stage="walking"/>
        </edge>
    </timestep>
    <timestep time="36.00">
        <edge id="SC">
            <person id="p0" pos="16.44" angle="180.00" stage="walking"/>
        </edge>
    </timestep>
    <timestep time="37.00">
        <edge id="SC">
            <person id="p0" pos="15.08" angle="180.00" stage="walking"/>
        </edge>
    </timestep>
    <timestep time="38.00">
        <edge id="SC">
            <person id="p0" pos="13.72" angle="180.00" stage="walking"/>
        </edge>
    </timestep>
    <timestep time="39.00">
        <edge id="SC">
            <person id="p0" pos="12.36" angle="180.00" stage="walking"/>
        </edge>
    </timestep>
    <timestep time="40.00">
        <edge id="SC">
            <person id="p0" pos="11.00" angle="180.00" stage="walking"/>
        </edge>
    </timestep>
    <timestep time="41.00">
        <edge id="SC">
            <person id="p0" pos="9.64" angle="180.00" stage="walking"/>
        </edge>
    </timestep>
    <timestep time="42.00">
        <edge id="SC">
            <person id="p0" pos="8.28" angle="180.00" stage="walking"/>
        </edge>
    </timestep>
    <timestep time="43.00">
        <edge id="SC">
            <person id="p0" pos="6.92" angle="180.00" stage="walking"/>
        </edge>
    </timestep>
    <timestep time="44.00">
        <edge id="SC">
            <person id="p0" pos="5.56" angle="180.00" stage="walking"/>
        </edge>
    </timestep>
    <timestep time="45.00">
        <edge id="SC">
            <person id="p0" pos="4.20" angle="180.00" stage="walking"/>
        </edge>
    </timestep>
    <timestep time="46.00">
        <edge id="SC">
            <person id="p0" pos="2.84" angle="180.00" stage="walking"/>
        </edge>
    </timestep>
    <timestep time="47.00">
        <edge id="SC">
            <person id="p0" pos="1.48" angle="180.00" stage="walking"/>
        </edge>
    </timestep>
    <timestep time="48.00">
        <edge id="CS">
            <person id="p0" pos="85.40" angle="0.00" stage="walking"/>
        </edge>
    </timestep>
    <timestep time="49.00">
        <edge id="CS">
            <person id="p0" pos="84.04" angle="0.00" stage="walking"/>
        </edge>
    </timestep>
    <timestep time="50.00">
        <edge id="CS">
            <person id="p0" pos="82.68" angle="0.00" stage="walking"/>
        </edge>
    </timestep>
    <timestep time="51.00">
        <edge id="CS">
            <person id="p0" pos="81.32" angle="0.00" stage="walking"/>
        </edge>
    </timestep>
    <timestep time="52.00">
        <edge id="CS">
            <person id="p0" pos="79.96" angle="0.00" stage="walking"/>
        </edge>
    </timestep>
    <timestep time="53.00">
        <edge id="CS">
            <person id="p0" pos="78.60" angle="0.00" stage="walking"/>
        </edge>
    </timestep>
    <timestep time="54.00">
        <edge id="CS">
            <person id="p0" pos="77.24" angle="0.00" stage="walking"/>
        </edge>
    </timestep>
    <timestep time="55.00">
        <edge id="CS">
            <person id="p0" pos="75.88" angle="0.00" stage="walking"/>
        </edge>
    </timestep>
    <timestep time="56.00">
        <edge id="CS">
            <person id="p0" pos="74.52" angle="0.00" stage="walking"/>
        </edge>
    </timestep>
    <timestep time="57.00">
        <edge id="CS">
            <person id="p0" pos="73.16" angle="0.00" stage="walking"/>
        </edge>
    </timestep>
    <timestep time="58.00">
        <edge id="CS">
            <person id="p0" pos="71.80" angle="0.00" stage="walking"/>
        </edge>
    </timestep>
    <timestep time="59.00">
        <edge id="CS">
            <person id="p0" pos="70.44" angle="0.00" stage="walking"/>
        </edge>
    </timestep>
    <timestep time="60.00">
        <edge id="CS">
            <person id="p0" pos="69.08" angle="0.00" stage="walking"/>
        </edge>
    </timestep>
    <timestep time="61.00">
        <edge id="CS">
            <person id="p0" pos="67.72" angle="0.00" stage="walking"/>
        </edge>
    </timestep>
    <timestep time="62.00">
        <edge id="CS">
            <person id="p0" pos="66.36" angle="0.00" stage="walking"/>
        </edge>
    </timestep>
    <timestep time="63.00">
        <edge id="CS">
            <person id="p0" pos="65.00" angle="0.00" stage="walking"/>
        </edge>
    </timestep>
    <timestep time="64.00">
        <edge id="CS">
            <person id="p0" pos="63.64" angle="0.00" stage="walking"/>
        </edge>
    </timestep>
    <timestep time="65.00">
        <edge id="CS">
            <person id="p0" pos="62.28" angle="0.00" stage="walking"/>
        </edge>
    </timestep>
    <timestep time="66.00">
        <edge id="CS">
            <person id="p0" pos="60.92" angle="0.00" stage="walking"/>
        </edge>
    </timestep>
    <timestep time="67.00">
        <edge id="CS">
            <person id="p0" pos="59.56" angle="0.00" stage="walking"/>
        </edge>
    </timestep>
    <timestep time="68.00">
        <edge id="CS">
            <person id="p0" pos="58.20" angle="0.00" stage="walking"/>
        </edge>
    </timestep>
    <timestep time="69.00">
        <edge id="CS">
            <person id="p0" pos="56.84" angle="0.00" stage="walking"/>
        </edge>
    </timestep>
    <timestep time="70.00">
        <edge id="CS">
            <person id="p0" pos="55.48" angle="0.00" stage="walking"/>
        </edge>
    </timestep>
    <timestep time="71.00">
        <edge id="CS">
            <person id="p0" pos="54.12" angle="0.00" stage="walking"/>
        </edge>
    </timestep>
    <timestep time="72.00">
        <edge id="CS">
            <person id="p0" pos="52.76" angle="0.00" stage="walking"/>
        </edge>
    </timestep>
    <timestep time="73.00">
        <edge id="CS">
            <person id="p0" pos="51.40" angle="0.00" stage="walking"/>
        </edge>
    </timestep>
    <timestep time="74.00">
        <edge id="CS">
            <person id="p0" pos="50.04" angle="0.00" stage="walking"/>
        </edge>
    </timestep>
    <timestep time="75.00">
        <edge id="CS">
            <person id="p0" pos="48.68" angle="0.00" stage="walking"/>
        </edge>
    </timestep>
    <timestep time="76.00">
        <edge id="CS">
            <person id="p0" pos="47.32" angle="0.00" stage="walking"/>
        </edge>
    </timestep>
    <timestep time="77.00">
        <edge id="CS">
            <person id="p0" pos="45.96" angle="0.00" stage="walking"/>
        </edge>
    </timestep>
    <timestep time="78.00">
        <edge id="CS">
            <person id="p0" pos="44.60" angle="0.00" stage="walking"/>
        </edge>
    </timestep>
    <timestep time="79.00">
        <edge id="CS">
            <person id="p0" pos="43.24" angle="0.00" stage="walking"/>
        </edge>
    </timestep>
    <timestep time="80.00">
        <edge id="CS">
            <person id="p0" pos="41.88" angle="0.00" stage="walking"/>
        </edge>
    </timestep>
    <timestep time="81.00">
        <edge id="CS">
            <person id="p0" pos="40.52" angle="0.00" stage="walking"/>
        </edge>
    </timestep>
    <timestep time="82.00">
        <edge id="CS">
            <person id="p0" pos="39.16" angle="0.00" stage="walking"/>
        </edge>
    </timestep>
    <timestep time="83.00">
        <edge id="CS">
            <person id="p0" pos="37.80" angle="0.00" stage="walking"/>
        </edge>
    </timestep>
    <timestep time="84.00">
        <edge id="CS">
            <person id="p0" pos="36.44" angle="0.00" stage="walking"/>
        </edge>
    </timestep>
    <timestep time="85.00">
        <edge id="CS">
            <person id="p0" pos="35.08" angle="0.00" stage="walking"/>
        </edge>
    </timestep>
    <timestep time="86.00">
        <edge id="CS">
            <person id="p0" pos="33.72" angle="0.00" stage="walking"/>
        </edge>
    </timestep>
    <timestep time="87.00">
        <edge id="CS">
            <person id="p0" pos="32.36" angle="0.00" stage="walking"/>
        </edge>
    </timestep>
    <timestep time="88.00">
        <edge id="CS">
            <person id="p0" pos="31.00" angle="0.00" stage="walking"/>
        </edge>
    </timestep>
    <timestep time="89.00">
        <edge id="CS">
            <person id="p0" pos="29.64" angle="0.00" stage="walking"/>
        </edge>
    </timestep>
    <timestep time="90.00">
        <edge id="CS">
            <person id="p0" pos="28.28" angle="0.00" stage="walking"/>
        </edge>
    </timestep>
    <timestep time="91.00">
        <edge id="CS">
            <person id="p0" pos="26.92" angle="0.00" stage="walking"/>
        </edge>
    </timestep>
    <timestep time="92.00">
        <edge id="CS">
            <person id="p0" pos="25.56" angle="0.00" stage="walking"/>
        </edge>
    </timestep>
    <timestep time="93.00">
        <edge id="CS">
            <person id="p0" pos="24.20" angle="0.00" stage="walking"/>
        </edge>
    </timestep>
    <timestep time="94.00">
        <edge id="CS">
            <person id="p0" pos="22.84" angle="0.00" stage="walking"/>
        </edge>
    </timestep>
    <timestep time="95.00">
        <edge id="CS">
            <person id="p0" pos="21.48" angle="0.00" stage="walking"/>
        </edge>
    </timestep>
    <timestep time="96.00"/>
</netstate>
