<?xml version="1.0" encoding="UTF-8"?>

<!-- generated on Wed May 30 09:51:45 2018 by Eclipse SUMO Version b2daee9
This data file and the accompanying materials
are made available under the terms of the Eclipse Public License v2.0
which accompanies this distribution, and is available at
http://www.eclipse.org/legal/epl-v20.html
SPDX-License-Identifier: EPL-2.0
<configuration xmlns:xsi="http://www.w3.org/2001/XMLSchema-instance" xsi:noNamespaceSchemaLocation="http://sumo.dlr.de/xsd/sumoConfiguration.xsd">

    <input>
        <net-file value="net.net.xml"/>
        <route-files value="input_routes.rou.xml"/>
    </input>

    <output>
        <write-license value="true"/>
        <fcd-output value="fcd.xml"/>
    </output>

    <time>
        <end value="10"/>
        <step-length value="0.5"/>
    </time>

    <processing>
        <lateral-resolution value="0.8"/>
        <lanechange.duration value="6"/>
    </processing>

    <report>
        <xml-validation value="never"/>
        <duration-log.disable value="true"/>
        <no-step-log value="true"/>
    </report>

    <gui_only>
        <tracker-interval value="0.5"/>
    </gui_only>

</configuration>
-->

<fcd-export xmlns:xsi="http://www.w3.org/2001/XMLSchema-instance" xsi:noNamespaceSchemaLocation="http://sumo.dlr.de/xsd/fcd_file.xsd">
    <timestep time="0.00">
        <vehicle id="v0" x="476.32" y="491.75" angle="90.00" type="DEFAULT_VEHTYPE" speed="0.00" pos="237.00" lane="1si_0" slope="0.00"/>
    </timestep>
    <timestep time="0.50">
        <vehicle id="v0" x="476.93" y="492.00" angle="87.47" type="DEFAULT_VEHTYPE" speed="1.30" pos="237.65" lane="1si_0" slope="0.00"/>
    </timestep>
    <timestep time="1.00">
        <vehicle id="v0" x="478.17" y="492.50" angle="85.46" type="DEFAULT_VEHTYPE" speed="2.60" pos="238.95" lane="1si_0" slope="0.00"/>
    </timestep>
    <timestep time="1.50">
        <vehicle id="v0" x="480.02" y="493.00" angle="85.89" type="DEFAULT_VEHTYPE" speed="3.90" pos="240.90" lane="1si_0" slope="0.00"/>
    </timestep>
    <timestep time="2.00">
        <vehicle id="v0" x="482.18" y="491.75" angle="86.07" type="DEFAULT_VEHTYPE" speed="4.55" pos="243.18" lane="1si_0" slope="0.00"/>
    </timestep>
    <timestep time="2.50">
        <vehicle id="v0" x="484.33" y="492.25" angle="86.07" type="DEFAULT_VEHTYPE" speed="4.55" pos="245.45" lane="1si_0" slope="0.00"/>
    </timestep>
    <timestep time="3.00">
        <vehicle id="v0" x="486.13" y="492.75" angle="85.85" type="DEFAULT_VEHTYPE" speed="3.78" pos="247.34" lane="1si_0" slope="0.00"/>
    </timestep>
    <timestep time="3.50">
        <vehicle id="v0" x="487.32" y="493.25" angle="85.43" type="DEFAULT_VEHTYPE" speed="2.52" pos="248.60" lane="1si_0" slope="0.00"/>
    </timestep>
    <timestep time="4.00">
        <vehicle id="v0" x="487.66" y="491.75" angle="84.66" type="DEFAULT_VEHTYPE" speed="0.70" pos="248.95" lane="1si_0" slope="0.00"/>
    </timestep>
    <timestep time="4.50">
        <vehicle id="v0" x="487.99" y="491.75" angle="90.00" type="DEFAULT_VEHTYPE" speed="0.70" pos="249.30" lane="1si_0" slope="0.00"/>
    </timestep>
    <timestep time="5.00">
        <vehicle id="v0" x="488.65" y="491.75" angle="90.00" type="DEFAULT_VEHTYPE" speed="1.40" pos="250.00" lane="1si_0" slope="0.00"/>
    </timestep>
    <timestep time="5.50">
        <vehicle id="v0" x="488.65" y="491.75" angle="90.00" type="DEFAULT_VEHTYPE" speed="0.00" pos="250.00" lane="1si_0" slope="0.00"/>
    </timestep>
    <timestep time="6.00">
        <vehicle id="v0" x="488.65" y="491.75" angle="90.00" type="DEFAULT_VEHTYPE" speed="0.00" pos="250.00" lane="1si_0" slope="0.00"/>
    </timestep>
    <timestep time="6.50">
        <vehicle id="v0" x="488.65" y="491.75" angle="90.00" type="DEFAULT_VEHTYPE" speed="0.00" pos="250.00" lane="1si_0" slope="0.00"/>
    </timestep>
    <timestep time="7.00">
        <vehicle id="v0" x="488.65" y="491.75" angle="90.00" type="DEFAULT_VEHTYPE" speed="0.00" pos="250.00" lane="1si_0" slope="0.00"/>
    </timestep>
    <timestep time="7.50">
        <vehicle id="v0" x="488.65" y="491.75" angle="90.00" type="DEFAULT_VEHTYPE" speed="0.00" pos="250.00" lane="1si_0" slope="0.00"/>
    </timestep>
    <timestep time="8.00">
        <vehicle id="v0" x="488.65" y="491.75" angle="90.00" type="DEFAULT_VEHTYPE" speed="0.00" pos="250.00" lane="1si_0" slope="0.00"/>
    </timestep>
    <timestep time="8.50">
        <vehicle id="v0" x="488.65" y="491.75" angle="90.00" type="DEFAULT_VEHTYPE" speed="0.00" pos="250.00" lane="1si_0" slope="0.00"/>
    </timestep>
    <timestep time="9.00">
        <vehicle id="v0" x="488.65" y="491.75" angle="90.00" type="DEFAULT_VEHTYPE" speed="0.00" pos="250.00" lane="1si_0" slope="0.00"/>
    </timestep>
    <timestep time="9.50">
        <vehicle id="v0" x="488.65" y="491.75" angle="90.00" type="DEFAULT_VEHTYPE" speed="0.00" pos="250.00" lane="1si_0" slope="0.00"/>
    </timestep>
</fcd-export>
