<?xml version="1.0"?>

<!-- generated on 04/26/10 10:10:46 by SUMO sumo Version dev-SVN-r8163
<configuration>

    <input>
        <net-file value="net.net.xml"/>
        <route-files value="input_routes.rou.xml"/>
    </input>

    <output>
        <vehroute-output value="vehroutes.xml"/>
    </output>

    <report>
        <no-duration-log value="true"/>
        <no-step-log value="true"/>
    </report>

</configuration>
-->

<routes>
    <vehicle id="veh0" depart="1.00" arrival="58.00">
        <route edges="1to2 out"/>
    </vehicle>

    <vehicle id="veh1" depart="10.00" arrival="60.00">
        <route edges="1to2 out"/>
    </vehicle>

</routes>
