<?xml version="1.0"?>

<!-- generated on 04/18/08 22:15:36 by SUMO sumo Version dev-SVN-r5456
<configuration>

   <input>
      <net-file>net.net.xml</net-file>
      <route-files>input_routes.rou.xml</route-files>
   </input>

   <output>
      <vehroute-output>vehroutes.xml</vehroute-output>
   </output>

   <processing>
      <no-duration-log>true</no-duration-log>
      <no-step-log>true</no-step-log>
   </processing>

</configuration>
-->

<routes>
   <vehicle id="veh0" depart="1" arrival="58">
      <route edges="1to2 out"/>
   </vehicle>

   <vehicle id="veh1" depart="10" arrival="60">
      <route edges="1to2 out"/>
   </vehicle>

</routes>
