<?xml version="1.0" encoding="UTF-8"?>

<!-- generated on 07/18/18 16:17:57 by Eclipse SUMO Version 1e67d2b1c5
This data file and the accompanying materials
are made available under the terms of the Eclipse Public License v2.0
which accompanies this distribution, and is available at
http://www.eclipse.org/legal/epl-v20.html
SPDX-License-Identifier: EPL-2.0
<configuration xmlns:xsi="http://www.w3.org/2001/XMLSchema-instance" xsi:noNamespaceSchemaLocation="http://sumo.dlr.de/xsd/sumoConfiguration.xsd">

    <input>
        <net-file value="net.net.xml"/>
        <additional-files value="input_routes.rou.xml,input_additional.add.xml"/>
    </input>

    <output>
        <write-license value="true"/>
        <tripinfo-output value="tripinfos.xml"/>
    </output>

    <report>
        <verbose value="true"/>
        <xml-validation value="never"/>
        <no-step-log value="true"/>
    </report>

</configuration>
-->

<tripinfos xmlns:xsi="http://www.w3.org/2001/XMLSchema-instance" xsi:noNamespaceSchemaLocation="http://sumo.dlr.de/xsd/tripinfo_file.xsd">
    <tripinfo id="f1.0" depart="102.00" departLane="beg_0" departPos="5.10" departSpeed="0.00" departDelay="0.00" arrival="143.00" arrivalLane="end_0" arrivalPos="500.00" arrivalSpeed="27.80" duration="41.00" routeLength="995.00" waitingTime="0.00" waitingCount="0" stopTime="0.00" timeLoss="4.86" rerouteNo="0" devices="tripinfo_f1.0" vType="DEFAULT_VEHTYPE" speedFactor="1.00" vaporized=""/>
    <tripinfo id="f1.1" depart="105.00" departLane="beg_0" departPos="5.10" departSpeed="0.00" departDelay="0.00" arrival="146.00" arrivalLane="end_0" arrivalPos="500.00" arrivalSpeed="27.80" duration="41.00" routeLength="995.00" waitingTime="0.00" waitingCount="0" stopTime="0.00" timeLoss="4.86" rerouteNo="0" devices="tripinfo_f1.1" vType="DEFAULT_VEHTYPE" speedFactor="1.00" vaporized=""/>
    <tripinfo id="f1.2" depart="110.00" departLane="beg_0" departPos="5.10" departSpeed="0.00" departDelay="0.00" arrival="151.00" arrivalLane="end_0" arrivalPos="500.00" arrivalSpeed="27.80" duration="41.00" routeLength="995.00" waitingTime="0.00" waitingCount="0" stopTime="0.00" timeLoss="4.86" rerouteNo="0" devices="tripinfo_f1.2" vType="DEFAULT_VEHTYPE" speedFactor="1.00" vaporized=""/>
    <tripinfo id="f1.3" depart="116.00" departLane="beg_0" departPos="5.10" departSpeed="0.00" departDelay="0.00" arrival="157.00" arrivalLane="end_0" arrivalPos="500.00" arrivalSpeed="27.80" duration="41.00" routeLength="995.00" waitingTime="0.00" waitingCount="0" stopTime="0.00" timeLoss="4.86" rerouteNo="0" devices="tripinfo_f1.3" vType="DEFAULT_VEHTYPE" speedFactor="1.00" vaporized=""/>
    <tripinfo id="f1.4" depart="120.00" departLane="beg_0" departPos="5.10" departSpeed="0.00" departDelay="0.00" arrival="161.00" arrivalLane="end_0" arrivalPos="500.00" arrivalSpeed="27.80" duration="41.00" routeLength="995.00" waitingTime="0.00" waitingCount="0" stopTime="0.00" timeLoss="4.86" rerouteNo="0" devices="tripinfo_f1.4" vType="DEFAULT_VEHTYPE" speedFactor="1.00" vaporized=""/>
    <tripinfo id="f1.5" depart="130.00" departLane="beg_0" departPos="5.10" departSpeed="0.00" departDelay="0.00" arrival="171.00" arrivalLane="end_0" arrivalPos="500.00" arrivalSpeed="27.80" duration="41.00" routeLength="995.00" waitingTime="0.00" waitingCount="0" stopTime="0.00" timeLoss="4.86" rerouteNo="0" devices="tripinfo_f1.5" vType="DEFAULT_VEHTYPE" speedFactor="1.00" vaporized=""/>
    <tripinfo id="f1.6" depart="135.00" departLane="beg_0" departPos="5.10" departSpeed="0.00" departDelay="0.00" arrival="176.00" arrivalLane="end_0" arrivalPos="500.00" arrivalSpeed="27.80" duration="41.00" routeLength="995.00" waitingTime="0.00" waitingCount="0" stopTime="0.00" timeLoss="4.86" rerouteNo="0" devices="tripinfo_f1.6" vType="DEFAULT_VEHTYPE" speedFactor="1.00" vaporized=""/>
    <tripinfo id="f1.7" depart="148.00" departLane="beg_0" departPos="5.10" departSpeed="0.00" departDelay="0.00" arrival="189.00" arrivalLane="end_0" arrivalPos="500.00" arrivalSpeed="27.80" duration="41.00" routeLength="995.00" waitingTime="0.00" waitingCount="0" stopTime="0.00" timeLoss="4.86" rerouteNo="0" devices="tripinfo_f1.7" vType="DEFAULT_VEHTYPE" speedFactor="1.00" vaporized=""/>
    <tripinfo id="f1.8" depart="163.00" departLane="beg_0" departPos="5.10" departSpeed="0.00" departDelay="0.00" arrival="204.00" arrivalLane="end_0" arrivalPos="500.00" arrivalSpeed="27.80" duration="41.00" routeLength="995.00" waitingTime="0.00" waitingCount="0" stopTime="0.00" timeLoss="4.86" rerouteNo="0" devices="tripinfo_f1.8" vType="DEFAULT_VEHTYPE" speedFactor="1.00" vaporized=""/>
    <tripinfo id="f1.9" depart="167.00" departLane="beg_0" departPos="5.10" departSpeed="0.00" departDelay="0.00" arrival="208.00" arrivalLane="end_0" arrivalPos="500.00" arrivalSpeed="27.80" duration="41.00" routeLength="995.00" waitingTime="0.00" waitingCount="0" stopTime="0.00" timeLoss="4.86" rerouteNo="0" devices="tripinfo_f1.9" vType="DEFAULT_VEHTYPE" speedFactor="1.00" vaporized=""/>
    <tripinfo id="f1.10" depart="172.00" departLane="beg_0" departPos="5.10" departSpeed="0.00" departDelay="0.00" arrival="213.00" arrivalLane="end_0" arrivalPos="500.00" arrivalSpeed="27.80" duration="41.00" routeLength="995.00" waitingTime="0.00" waitingCount="0" stopTime="0.00" timeLoss="4.86" rerouteNo="0" devices="tripinfo_f1.10" vType="DEFAULT_VEHTYPE" speedFactor="1.00" vaporized=""/>
    <tripinfo id="f1.11" depart="176.00" departLane="beg_0" departPos="5.10" departSpeed="0.00" departDelay="0.00" arrival="217.00" arrivalLane="end_0" arrivalPos="500.00" arrivalSpeed="27.80" duration="41.00" routeLength="995.00" waitingTime="0.00" waitingCount="0" stopTime="0.00" timeLoss="4.86" rerouteNo="0" devices="tripinfo_f1.11" vType="DEFAULT_VEHTYPE" speedFactor="1.00" vaporized=""/>
    <tripinfo id="f1.12" depart="178.00" departLane="beg_0" departPos="5.10" departSpeed="0.00" departDelay="1.00" arrival="220.00" arrivalLane="end_0" arrivalPos="500.00" arrivalSpeed="27.80" duration="42.00" routeLength="995.00" waitingTime="0.00" waitingCount="0" stopTime="0.00" timeLoss="5.46" rerouteNo="0" devices="tripinfo_f1.12" vType="DEFAULT_VEHTYPE" speedFactor="1.00" vaporized=""/>
    <tripinfo id="f1.13" depart="192.00" departLane="beg_0" departPos="5.10" departSpeed="0.00" departDelay="0.00" arrival="233.00" arrivalLane="end_0" arrivalPos="500.00" arrivalSpeed="27.80" duration="41.00" routeLength="995.00" waitingTime="0.00" waitingCount="0" stopTime="0.00" timeLoss="4.86" rerouteNo="0" devices="tripinfo_f1.13" vType="DEFAULT_VEHTYPE" speedFactor="1.00" vaporized=""/>
    <tripinfo id="f1.14" depart="221.00" departLane="beg_0" departPos="5.10" departSpeed="0.00" departDelay="0.00" arrival="262.00" arrivalLane="end_0" arrivalPos="500.00" arrivalSpeed="27.80" duration="41.00" routeLength="995.00" waitingTime="0.00" waitingCount="0" stopTime="0.00" timeLoss="4.86" rerouteNo="0" devices="tripinfo_f1.14" vType="DEFAULT_VEHTYPE" speedFactor="1.00" vaporized=""/>
    <tripinfo id="f1.15" depart="243.00" departLane="beg_0" departPos="5.10" departSpeed="0.00" departDelay="0.00" arrival="284.00" arrivalLane="end_0" arrivalPos="500.00" arrivalSpeed="27.80" duration="41.00" routeLength="995.00" waitingTime="0.00" waitingCount="0" stopTime="0.00" timeLoss="4.86" rerouteNo="0" devices="tripinfo_f1.15" vType="DEFAULT_VEHTYPE" speedFactor="1.00" vaporized=""/>
    <tripinfo id="f1.16" depart="253.00" departLane="beg_0" departPos="5.10" departSpeed="0.00" departDelay="0.00" arrival="294.00" arrivalLane="end_0" arrivalPos="500.00" arrivalSpeed="27.80" duration="41.00" routeLength="995.00" waitingTime="0.00" waitingCount="0" stopTime="0.00" timeLoss="4.86" rerouteNo="0" devices="tripinfo_f1.16" vType="DEFAULT_VEHTYPE" speedFactor="1.00" vaporized=""/>
    <tripinfo id="f1.17" depart="256.00" departLane="beg_0" departPos="5.10" departSpeed="0.00" departDelay="0.00" arrival="297.00" arrivalLane="end_0" arrivalPos="500.00" arrivalSpeed="27.80" duration="41.00" routeLength="995.00" waitingTime="0.00" waitingCount="0" stopTime="0.00" timeLoss="4.86" rerouteNo="0" devices="tripinfo_f1.17" vType="DEFAULT_VEHTYPE" speedFactor="1.00" vaporized=""/>
    <tripinfo id="f1.18" depart="284.00" departLane="beg_0" departPos="5.10" departSpeed="0.00" departDelay="0.00" arrival="325.00" arrivalLane="end_0" arrivalPos="500.00" arrivalSpeed="27.80" duration="41.00" routeLength="995.00" waitingTime="0.00" waitingCount="0" stopTime="0.00" timeLoss="4.86" rerouteNo="0" devices="tripinfo_f1.18" vType="DEFAULT_VEHTYPE" speedFactor="1.00" vaporized=""/>
    <tripinfo id="f1.19" depart="301.00" departLane="beg_0" departPos="5.10" departSpeed="0.00" departDelay="0.00" arrival="342.00" arrivalLane="end_0" arrivalPos="500.00" arrivalSpeed="27.80" duration="41.00" routeLength="995.00" waitingTime="0.00" waitingCount="0" stopTime="0.00" timeLoss="4.86" rerouteNo="0" devices="tripinfo_f1.19" vType="DEFAULT_VEHTYPE" speedFactor="1.00" vaporized=""/>
    <tripinfo id="f1.20" depart="303.00" departLane="beg_0" departPos="5.10" departSpeed="0.00" departDelay="0.00" arrival="345.00" arrivalLane="end_0" arrivalPos="500.00" arrivalSpeed="27.80" duration="42.00" routeLength="995.00" waitingTime="0.00" waitingCount="0" stopTime="0.00" timeLoss="5.46" rerouteNo="0" devices="tripinfo_f1.20" vType="DEFAULT_VEHTYPE" speedFactor="1.00" vaporized=""/>
    <tripinfo id="f1.21" depart="309.00" departLane="beg_0" departPos="5.10" departSpeed="0.00" departDelay="0.00" arrival="350.00" arrivalLane="end_0" arrivalPos="500.00" arrivalSpeed="27.80" duration="41.00" routeLength="995.00" waitingTime="0.00" waitingCount="0" stopTime="0.00" timeLoss="4.86" rerouteNo="0" devices="tripinfo_f1.21" vType="DEFAULT_VEHTYPE" speedFactor="1.00" vaporized=""/>
    <tripinfo id="f1.22" depart="311.00" departLane="beg_0" departPos="5.10" departSpeed="0.00" departDelay="0.00" arrival="353.00" arrivalLane="end_0" arrivalPos="500.00" arrivalSpeed="27.80" duration="42.00" routeLength="995.00" waitingTime="0.00" waitingCount="0" stopTime="0.00" timeLoss="5.46" rerouteNo="0" devices="tripinfo_f1.22" vType="DEFAULT_VEHTYPE" speedFactor="1.00" vaporized=""/>
    <tripinfo id="f1.23" depart="321.00" departLane="beg_0" departPos="5.10" departSpeed="0.00" departDelay="0.00" arrival="362.00" arrivalLane="end_0" arrivalPos="500.00" arrivalSpeed="27.80" duration="41.00" routeLength="995.00" waitingTime="0.00" waitingCount="0" stopTime="0.00" timeLoss="4.86" rerouteNo="0" devices="tripinfo_f1.23" vType="DEFAULT_VEHTYPE" speedFactor="1.00" vaporized=""/>
    <tripinfo id="f1.24" depart="340.00" departLane="beg_0" departPos="5.10" departSpeed="0.00" departDelay="0.00" arrival="381.00" arrivalLane="end_0" arrivalPos="500.00" arrivalSpeed="27.80" duration="41.00" routeLength="995.00" waitingTime="0.00" waitingCount="0" stopTime="0.00" timeLoss="4.86" rerouteNo="0" devices="tripinfo_f1.24" vType="DEFAULT_VEHTYPE" speedFactor="1.00" vaporized=""/>
    <tripinfo id="f1.25" depart="343.00" departLane="beg_0" departPos="5.10" departSpeed="0.00" departDelay="0.00" arrival="384.00" arrivalLane="end_0" arrivalPos="500.00" arrivalSpeed="27.80" duration="41.00" routeLength="995.00" waitingTime="0.00" waitingCount="0" stopTime="0.00" timeLoss="4.86" rerouteNo="0" devices="tripinfo_f1.25" vType="DEFAULT_VEHTYPE" speedFactor="1.00" vaporized=""/>
    <tripinfo id="f1.26" depart="345.00" departLane="beg_0" departPos="5.10" departSpeed="0.00" departDelay="1.00" arrival="387.00" arrivalLane="end_0" arrivalPos="500.00" arrivalSpeed="27.80" duration="42.00" routeLength="995.00" waitingTime="0.00" waitingCount="0" stopTime="0.00" timeLoss="5.46" rerouteNo="0" devices="tripinfo_f1.26" vType="DEFAULT_VEHTYPE" speedFactor="1.00" vaporized=""/>
    <tripinfo id="f1.27" depart="348.00" departLane="beg_0" departPos="5.10" departSpeed="0.00" departDelay="3.00" arrival="389.00" arrivalLane="end_0" arrivalPos="500.00" arrivalSpeed="27.80" duration="41.00" routeLength="995.00" waitingTime="0.00" waitingCount="0" stopTime="0.00" timeLoss="4.86" rerouteNo="0" devices="tripinfo_f1.27" vType="DEFAULT_VEHTYPE" speedFactor="1.00" vaporized=""/>
    <tripinfo id="f1.28" depart="350.00" departLane="beg_0" departPos="5.10" departSpeed="0.00" departDelay="0.00" arrival="392.00" arrivalLane="end_0" arrivalPos="500.00" arrivalSpeed="27.80" duration="42.00" routeLength="995.00" waitingTime="0.00" waitingCount="0" stopTime="0.00" timeLoss="5.46" rerouteNo="0" devices="tripinfo_f1.28" vType="DEFAULT_VEHTYPE" speedFactor="1.00" vaporized=""/>
    <tripinfo id="f1.29" depart="371.00" departLane="beg_0" departPos="5.10" departSpeed="0.00" departDelay="0.00" arrival="412.00" arrivalLane="end_0" arrivalPos="500.00" arrivalSpeed="27.80" duration="41.00" routeLength="995.00" waitingTime="0.00" waitingCount="0" stopTime="0.00" timeLoss="4.86" rerouteNo="0" devices="tripinfo_f1.29" vType="DEFAULT_VEHTYPE" speedFactor="1.00" vaporized=""/>
    <tripinfo id="f1.30" depart="374.00" departLane="beg_0" departPos="5.10" departSpeed="0.00" departDelay="0.00" arrival="415.00" arrivalLane="end_0" arrivalPos="500.00" arrivalSpeed="27.80" duration="41.00" routeLength="995.00" waitingTime="0.00" waitingCount="0" stopTime="0.00" timeLoss="4.86" rerouteNo="0" devices="tripinfo_f1.30" vType="DEFAULT_VEHTYPE" speedFactor="1.00" vaporized=""/>
    <tripinfo id="f1.31" depart="380.00" departLane="beg_0" departPos="5.10" departSpeed="0.00" departDelay="0.00" arrival="421.00" arrivalLane="end_0" arrivalPos="500.00" arrivalSpeed="27.80" duration="41.00" routeLength="995.00" waitingTime="0.00" waitingCount="0" stopTime="0.00" timeLoss="4.86" rerouteNo="0" devices="tripinfo_f1.31" vType="DEFAULT_VEHTYPE" speedFactor="1.00" vaporized=""/>
    <tripinfo id="f1.32" depart="403.00" departLane="beg_0" departPos="5.10" departSpeed="0.00" departDelay="0.00" arrival="444.00" arrivalLane="end_0" arrivalPos="500.00" arrivalSpeed="27.80" duration="41.00" routeLength="995.00" waitingTime="0.00" waitingCount="0" stopTime="0.00" timeLoss="4.86" rerouteNo="0" devices="tripinfo_f1.32" vType="DEFAULT_VEHTYPE" speedFactor="1.00" vaporized=""/>
    <tripinfo id="f1.33" depart="408.00" departLane="beg_0" departPos="5.10" departSpeed="0.00" departDelay="0.00" arrival="449.00" arrivalLane="end_0" arrivalPos="500.00" arrivalSpeed="27.80" duration="41.00" routeLength="995.00" waitingTime="0.00" waitingCount="0" stopTime="0.00" timeLoss="4.86" rerouteNo="0" devices="tripinfo_f1.33" vType="DEFAULT_VEHTYPE" speedFactor="1.00" vaporized=""/>
    <tripinfo id="f1.34" depart="411.00" departLane="beg_0" departPos="5.10" departSpeed="0.00" departDelay="0.00" arrival="452.00" arrivalLane="end_0" arrivalPos="500.00" arrivalSpeed="27.80" duration="41.00" routeLength="995.00" waitingTime="0.00" waitingCount="0" stopTime="0.00" timeLoss="4.86" rerouteNo="0" devices="tripinfo_f1.34" vType="DEFAULT_VEHTYPE" speedFactor="1.00" vaporized=""/>
    <tripinfo id="f1.35" depart="415.00" departLane="beg_0" departPos="5.10" departSpeed="0.00" departDelay="0.00" arrival="456.00" arrivalLane="end_0" arrivalPos="500.00" arrivalSpeed="27.80" duration="41.00" routeLength="995.00" waitingTime="0.00" waitingCount="0" stopTime="0.00" timeLoss="4.86" rerouteNo="0" devices="tripinfo_f1.35" vType="DEFAULT_VEHTYPE" speedFactor="1.00" vaporized=""/>
    <tripinfo id="f1.36" depart="417.00" departLane="beg_0" departPos="5.10" departSpeed="0.00" departDelay="1.00" arrival="459.00" arrivalLane="end_0" arrivalPos="500.00" arrivalSpeed="27.80" duration="42.00" routeLength="995.00" waitingTime="0.00" waitingCount="0" stopTime="0.00" timeLoss="5.46" rerouteNo="0" devices="tripinfo_f1.36" vType="DEFAULT_VEHTYPE" speedFactor="1.00" vaporized=""/>
    <tripinfo id="f1.37" depart="420.00" departLane="beg_0" departPos="5.10" departSpeed="0.00" departDelay="2.00" arrival="461.00" arrivalLane="end_0" arrivalPos="500.00" arrivalSpeed="27.80" duration="41.00" routeLength="995.00" waitingTime="0.00" waitingCount="0" stopTime="0.00" timeLoss="4.86" rerouteNo="0" devices="tripinfo_f1.37" vType="DEFAULT_VEHTYPE" speedFactor="1.00" vaporized=""/>
    <tripinfo id="f1.38" depart="435.00" departLane="beg_0" departPos="5.10" departSpeed="0.00" departDelay="0.00" arrival="476.00" arrivalLane="end_0" arrivalPos="500.00" arrivalSpeed="27.80" duration="41.00" routeLength="995.00" waitingTime="0.00" waitingCount="0" stopTime="0.00" timeLoss="4.86" rerouteNo="0" devices="tripinfo_f1.38" vType="DEFAULT_VEHTYPE" speedFactor="1.00" vaporized=""/>
    <tripinfo id="f1.39" depart="437.00" departLane="beg_0" departPos="5.10" departSpeed="0.00" departDelay="1.00" arrival="479.00" arrivalLane="end_0" arrivalPos="500.00" arrivalSpeed="27.80" duration="42.00" routeLength="995.00" waitingTime="0.00" waitingCount="0" stopTime="0.00" timeLoss="5.46" rerouteNo="0" devices="tripinfo_f1.39" vType="DEFAULT_VEHTYPE" speedFactor="1.00" vaporized=""/>
    <tripinfo id="f1.40" depart="442.00" departLane="beg_0" departPos="5.10" departSpeed="0.00" departDelay="0.00" arrival="483.00" arrivalLane="end_0" arrivalPos="500.00" arrivalSpeed="27.80" duration="41.00" routeLength="995.00" waitingTime="0.00" waitingCount="0" stopTime="0.00" timeLoss="4.86" rerouteNo="0" devices="tripinfo_f1.40" vType="DEFAULT_VEHTYPE" speedFactor="1.00" vaporized=""/>
    <tripinfo id="f1.41" depart="461.00" departLane="beg_0" departPos="5.10" departSpeed="0.00" departDelay="0.00" arrival="502.00" arrivalLane="end_0" arrivalPos="500.00" arrivalSpeed="27.80" duration="41.00" routeLength="995.00" waitingTime="0.00" waitingCount="0" stopTime="0.00" timeLoss="4.86" rerouteNo="0" devices="tripinfo_f1.41" vType="DEFAULT_VEHTYPE" speedFactor="1.00" vaporized=""/>
    <tripinfo id="f1.42" depart="469.00" departLane="beg_0" departPos="5.10" departSpeed="0.00" departDelay="0.00" arrival="510.00" arrivalLane="end_0" arrivalPos="500.00" arrivalSpeed="27.80" duration="41.00" routeLength="995.00" waitingTime="0.00" waitingCount="0" stopTime="0.00" timeLoss="4.86" rerouteNo="0" devices="tripinfo_f1.42" vType="DEFAULT_VEHTYPE" speedFactor="1.00" vaporized=""/>
    <tripinfo id="f1.43" depart="473.00" departLane="beg_0" departPos="5.10" departSpeed="0.00" departDelay="0.00" arrival="514.00" arrivalLane="end_0" arrivalPos="500.00" arrivalSpeed="27.80" duration="41.00" routeLength="995.00" waitingTime="0.00" waitingCount="0" stopTime="0.00" timeLoss="4.86" rerouteNo="0" devices="tripinfo_f1.43" vType="DEFAULT_VEHTYPE" speedFactor="1.00" vaporized=""/>
    <tripinfo id="f1.44" depart="475.00" departLane="beg_0" departPos="5.10" departSpeed="0.00" departDelay="0.00" arrival="517.00" arrivalLane="end_0" arrivalPos="500.00" arrivalSpeed="27.80" duration="42.00" routeLength="995.00" waitingTime="0.00" waitingCount="0" stopTime="0.00" timeLoss="5.46" rerouteNo="0" devices="tripinfo_f1.44" vType="DEFAULT_VEHTYPE" speedFactor="1.00" vaporized=""/>
    <tripinfo id="f1.45" depart="494.00" departLane="beg_0" departPos="5.10" departSpeed="0.00" departDelay="0.00" arrival="535.00" arrivalLane="end_0" arrivalPos="500.00" arrivalSpeed="27.80" duration="41.00" routeLength="995.00" waitingTime="0.00" waitingCount="0" stopTime="0.00" timeLoss="4.86" rerouteNo="0" devices="tripinfo_f1.45" vType="DEFAULT_VEHTYPE" speedFactor="1.00" vaporized=""/>
    <tripinfo id="f1.46" depart="502.00" departLane="beg_0" departPos="5.10" departSpeed="0.00" departDelay="0.00" arrival="543.00" arrivalLane="end_0" arrivalPos="500.00" arrivalSpeed="27.80" duration="41.00" routeLength="995.00" waitingTime="0.00" waitingCount="0" stopTime="0.00" timeLoss="4.86" rerouteNo="0" devices="tripinfo_f1.46" vType="DEFAULT_VEHTYPE" speedFactor="1.00" vaporized=""/>
    <tripinfo id="f1.47" depart="523.00" departLane="beg_0" departPos="5.10" departSpeed="0.00" departDelay="0.00" arrival="564.00" arrivalLane="end_0" arrivalPos="500.00" arrivalSpeed="27.80" duration="41.00" routeLength="995.00" waitingTime="0.00" waitingCount="0" stopTime="0.00" timeLoss="4.86" rerouteNo="0" devices="tripinfo_f1.47" vType="DEFAULT_VEHTYPE" speedFactor="1.00" vaporized=""/>
    <tripinfo id="f1.48" depart="546.00" departLane="beg_0" departPos="5.10" departSpeed="0.00" departDelay="0.00" arrival="587.00" arrivalLane="end_0" arrivalPos="500.00" arrivalSpeed="27.80" duration="41.00" routeLength="995.00" waitingTime="0.00" waitingCount="0" stopTime="0.00" timeLoss="4.86" rerouteNo="0" devices="tripinfo_f1.48" vType="DEFAULT_VEHTYPE" speedFactor="1.00" vaporized=""/>
    <tripinfo id="f1.49" depart="565.00" departLane="beg_0" departPos="5.10" departSpeed="0.00" departDelay="0.00" arrival="606.00" arrivalLane="end_0" arrivalPos="500.00" arrivalSpeed="27.80" duration="41.00" routeLength="995.00" waitingTime="0.00" waitingCount="0" stopTime="0.00" timeLoss="4.86" rerouteNo="0" devices="tripinfo_f1.49" vType="DEFAULT_VEHTYPE" speedFactor="1.00" vaporized=""/>
    <tripinfo id="f1.50" depart="573.00" departLane="beg_0" departPos="5.10" departSpeed="0.00" departDelay="0.00" arrival="614.00" arrivalLane="end_0" arrivalPos="500.00" arrivalSpeed="27.80" duration="41.00" routeLength="995.00" waitingTime="0.00" waitingCount="0" stopTime="0.00" timeLoss="4.86" rerouteNo="0" devices="tripinfo_f1.50" vType="DEFAULT_VEHTYPE" speedFactor="1.00" vaporized=""/>
    <tripinfo id="f1.51" depart="581.00" departLane="beg_0" departPos="5.10" departSpeed="0.00" departDelay="0.00" arrival="622.00" arrivalLane="end_0" arrivalPos="500.00" arrivalSpeed="27.80" duration="41.00" routeLength="995.00" waitingTime="0.00" waitingCount="0" stopTime="0.00" timeLoss="4.86" rerouteNo="0" devices="tripinfo_f1.51" vType="DEFAULT_VEHTYPE" speedFactor="1.00" vaporized=""/>
    <tripinfo id="f1.52" depart="594.00" departLane="beg_0" departPos="5.10" departSpeed="0.00" departDelay="0.00" arrival="635.00" arrivalLane="end_0" arrivalPos="500.00" arrivalSpeed="27.80" duration="41.00" routeLength="995.00" waitingTime="0.00" waitingCount="0" stopTime="0.00" timeLoss="4.86" rerouteNo="0" devices="tripinfo_f1.52" vType="DEFAULT_VEHTYPE" speedFactor="1.00" vaporized=""/>
    <tripinfo id="f1.53" depart="596.00" departLane="beg_0" departPos="5.10" departSpeed="0.00" departDelay="1.00" arrival="638.00" arrivalLane="end_0" arrivalPos="500.00" arrivalSpeed="27.80" duration="42.00" routeLength="995.00" waitingTime="0.00" waitingCount="0" stopTime="0.00" timeLoss="5.46" rerouteNo="0" devices="tripinfo_f1.53" vType="DEFAULT_VEHTYPE" speedFactor="1.00" vaporized=""/>
    <tripinfo id="f1.54" depart="610.00" departLane="beg_0" departPos="5.10" departSpeed="0.00" departDelay="0.00" arrival="651.00" arrivalLane="end_0" arrivalPos="500.00" arrivalSpeed="27.80" duration="41.00" routeLength="995.00" waitingTime="0.00" waitingCount="0" stopTime="0.00" timeLoss="4.86" rerouteNo="0" devices="tripinfo_f1.54" vType="DEFAULT_VEHTYPE" speedFactor="1.00" vaporized=""/>
    <tripinfo id="f1.55" depart="639.00" departLane="beg_0" departPos="5.10" departSpeed="0.00" departDelay="0.00" arrival="680.00" arrivalLane="end_0" arrivalPos="500.00" arrivalSpeed="27.80" duration="41.00" routeLength="995.00" waitingTime="0.00" waitingCount="0" stopTime="0.00" timeLoss="4.86" rerouteNo="0" devices="tripinfo_f1.55" vType="DEFAULT_VEHTYPE" speedFactor="1.00" vaporized=""/>
    <tripinfo id="f1.56" depart="661.00" departLane="beg_0" departPos="5.10" departSpeed="0.00" departDelay="0.00" arrival="702.00" arrivalLane="end_0" arrivalPos="500.00" arrivalSpeed="27.80" duration="41.00" routeLength="995.00" waitingTime="0.00" waitingCount="0" stopTime="0.00" timeLoss="4.86" rerouteNo="0" devices="tripinfo_f1.56" vType="DEFAULT_VEHTYPE" speedFactor="1.00" vaporized=""/>
    <tripinfo id="f1.57" depart="668.00" departLane="beg_0" departPos="5.10" departSpeed="0.00" departDelay="0.00" arrival="709.00" arrivalLane="end_0" arrivalPos="500.00" arrivalSpeed="27.80" duration="41.00" routeLength="995.00" waitingTime="0.00" waitingCount="0" stopTime="0.00" timeLoss="4.86" rerouteNo="0" devices="tripinfo_f1.57" vType="DEFAULT_VEHTYPE" speedFactor="1.00" vaporized=""/>
    <tripinfo id="f1.58" depart="693.00" departLane="beg_0" departPos="5.10" departSpeed="0.00" departDelay="0.00" arrival="734.00" arrivalLane="end_0" arrivalPos="500.00" arrivalSpeed="27.80" duration="41.00" routeLength="995.00" waitingTime="0.00" waitingCount="0" stopTime="0.00" timeLoss="4.86" rerouteNo="0" devices="tripinfo_f1.58" vType="DEFAULT_VEHTYPE" speedFactor="1.00" vaporized=""/>
    <tripinfo id="f1.59" depart="695.00" departLane="beg_0" departPos="5.10" departSpeed="0.00" departDelay="0.00" arrival="737.00" arrivalLane="end_0" arrivalPos="500.00" arrivalSpeed="27.80" duration="42.00" routeLength="995.00" waitingTime="0.00" waitingCount="0" stopTime="0.00" timeLoss="5.46" rerouteNo="0" devices="tripinfo_f1.59" vType="DEFAULT_VEHTYPE" speedFactor="1.00" vaporized=""/>
    <tripinfo id="f1.60" depart="698.00" departLane="beg_0" departPos="5.10" departSpeed="0.00" departDelay="2.00" arrival="739.00" arrivalLane="end_0" arrivalPos="500.00" arrivalSpeed="27.80" duration="41.00" routeLength="995.00" waitingTime="0.00" waitingCount="0" stopTime="0.00" timeLoss="4.86" rerouteNo="0" devices="tripinfo_f1.60" vType="DEFAULT_VEHTYPE" speedFactor="1.00" vaporized=""/>
    <tripinfo id="f1.61" depart="700.00" departLane="beg_0" departPos="5.10" departSpeed="0.00" departDelay="0.00" arrival="742.00" arrivalLane="end_0" arrivalPos="500.00" arrivalSpeed="27.80" duration="42.00" routeLength="995.00" waitingTime="0.00" waitingCount="0" stopTime="0.00" timeLoss="5.46" rerouteNo="0" devices="tripinfo_f1.61" vType="DEFAULT_VEHTYPE" speedFactor="1.00" vaporized=""/>
    <tripinfo id="f1.62" depart="703.00" departLane="beg_0" departPos="5.10" departSpeed="0.00" departDelay="0.00" arrival="744.00" arrivalLane="end_0" arrivalPos="500.00" arrivalSpeed="27.80" duration="41.00" routeLength="995.00" waitingTime="0.00" waitingCount="0" stopTime="0.00" timeLoss="4.86" rerouteNo="0" devices="tripinfo_f1.62" vType="DEFAULT_VEHTYPE" speedFactor="1.00" vaporized=""/>
    <tripinfo id="f1.63" depart="713.00" departLane="beg_0" departPos="5.10" departSpeed="0.00" departDelay="0.00" arrival="754.00" arrivalLane="end_0" arrivalPos="500.00" arrivalSpeed="27.80" duration="41.00" routeLength="995.00" waitingTime="0.00" waitingCount="0" stopTime="0.00" timeLoss="4.86" rerouteNo="0" devices="tripinfo_f1.63" vType="DEFAULT_VEHTYPE" speedFactor="1.00" vaporized=""/>
    <tripinfo id="f1.64" depart="745.00" departLane="beg_0" departPos="5.10" departSpeed="0.00" departDelay="0.00" arrival="786.00" arrivalLane="end_0" arrivalPos="500.00" arrivalSpeed="27.80" duration="41.00" routeLength="995.00" waitingTime="0.00" waitingCount="0" stopTime="0.00" timeLoss="4.86" rerouteNo="0" devices="tripinfo_f1.64" vType="DEFAULT_VEHTYPE" speedFactor="1.00" vaporized=""/>
    <tripinfo id="f1.65" depart="752.00" departLane="beg_0" departPos="5.10" departSpeed="0.00" departDelay="0.00" arrival="793.00" arrivalLane="end_0" arrivalPos="500.00" arrivalSpeed="27.80" duration="41.00" routeLength="995.00" waitingTime="0.00" waitingCount="0" stopTime="0.00" timeLoss="4.86" rerouteNo="0" devices="tripinfo_f1.65" vType="DEFAULT_VEHTYPE" speedFactor="1.00" vaporized=""/>
    <tripinfo id="f1.66" depart="755.00" departLane="beg_0" departPos="5.10" departSpeed="0.00" departDelay="0.00" arrival="796.00" arrivalLane="end_0" arrivalPos="500.00" arrivalSpeed="27.80" duration="41.00" routeLength="995.00" waitingTime="0.00" waitingCount="0" stopTime="0.00" timeLoss="4.86" rerouteNo="0" devices="tripinfo_f1.66" vType="DEFAULT_VEHTYPE" speedFactor="1.00" vaporized=""/>
    <tripinfo id="f1.67" depart="760.00" departLane="beg_0" departPos="5.10" departSpeed="0.00" departDelay="0.00" arrival="801.00" arrivalLane="end_0" arrivalPos="500.00" arrivalSpeed="27.80" duration="41.00" routeLength="995.00" waitingTime="0.00" waitingCount="0" stopTime="0.00" timeLoss="4.86" rerouteNo="0" devices="tripinfo_f1.67" vType="DEFAULT_VEHTYPE" speedFactor="1.00" vaporized=""/>
    <tripinfo id="f1.68" depart="772.00" departLane="beg_0" departPos="5.10" departSpeed="0.00" departDelay="0.00" arrival="813.00" arrivalLane="end_0" arrivalPos="500.00" arrivalSpeed="27.80" duration="41.00" routeLength="995.00" waitingTime="0.00" waitingCount="0" stopTime="0.00" timeLoss="4.86" rerouteNo="0" devices="tripinfo_f1.68" vType="DEFAULT_VEHTYPE" speedFactor="1.00" vaporized=""/>
    <tripinfo id="f1.69" depart="778.00" departLane="beg_0" departPos="5.10" departSpeed="0.00" departDelay="0.00" arrival="819.00" arrivalLane="end_0" arrivalPos="500.00" arrivalSpeed="27.80" duration="41.00" routeLength="995.00" waitingTime="0.00" waitingCount="0" stopTime="0.00" timeLoss="4.86" rerouteNo="0" devices="tripinfo_f1.69" vType="DEFAULT_VEHTYPE" speedFactor="1.00" vaporized=""/>
    <tripinfo id="f1.70" depart="802.00" departLane="beg_0" departPos="5.10" departSpeed="0.00" departDelay="0.00" arrival="843.00" arrivalLane="end_0" arrivalPos="500.00" arrivalSpeed="27.80" duration="41.00" routeLength="995.00" waitingTime="0.00" waitingCount="0" stopTime="0.00" timeLoss="4.86" rerouteNo="0" devices="tripinfo_f1.70" vType="DEFAULT_VEHTYPE" speedFactor="1.00" vaporized=""/>
    <tripinfo id="f1.71" depart="812.00" departLane="beg_0" departPos="5.10" departSpeed="0.00" departDelay="0.00" arrival="853.00" arrivalLane="end_0" arrivalPos="500.00" arrivalSpeed="27.80" duration="41.00" routeLength="995.00" waitingTime="0.00" waitingCount="0" stopTime="0.00" timeLoss="4.86" rerouteNo="0" devices="tripinfo_f1.71" vType="DEFAULT_VEHTYPE" speedFactor="1.00" vaporized=""/>
    <tripinfo id="f1.72" depart="819.00" departLane="beg_0" departPos="5.10" departSpeed="0.00" departDelay="0.00" arrival="860.00" arrivalLane="end_0" arrivalPos="500.00" arrivalSpeed="27.80" duration="41.00" routeLength="995.00" waitingTime="0.00" waitingCount="0" stopTime="0.00" timeLoss="4.86" rerouteNo="0" devices="tripinfo_f1.72" vType="DEFAULT_VEHTYPE" speedFactor="1.00" vaporized=""/>