<?xml version="1.0" encoding="UTF-8"?>

<!-- generated on 2023-01-05 09:59:50 by Eclipse SUMO sumo Version v1_15_0+1333-fd48121
This data file and the accompanying materials
are made available under the terms of the Eclipse Public License v2.0
which accompanies this distribution, and is available at
http://www.eclipse.org/legal/epl-v20.html
This file may also be made available under the following Secondary
Licenses when the conditions for such availability set forth in the Eclipse
Public License 2.0 are satisfied: GNU General Public License, version 2
or later which is available at
https://www.gnu.org/licenses/old-licenses/gpl-2.0-standalone.html
SPDX-License-Identifier: EPL-2.0 OR GPL-2.0-or-later
<configuration xmlns:xsi="http://www.w3.org/2001/XMLSchema-instance" xsi:noNamespaceSchemaLocation="http://sumo.dlr.de/xsd/sumoConfiguration.xsd">

    <input>
        <net-file value="three_split.net.xml"/>
        <route-files value="input_routes.rou.xml"/>
    </input>

    <output>
        <write-license value="true"/>
        <tripinfo-output value="tripinfos.xml"/>
    </output>

    <processing>
        <default.speeddev value="0"/>
    </processing>

    <report>
        <xml-validation value="never"/>
        <duration-log.disable value="true"/>
        <no-step-log value="true"/>
    </report>

</configuration>
-->

<tripinfos xmlns:xsi="http://www.w3.org/2001/XMLSchema-instance" xsi:noNamespaceSchemaLocation="http://sumo.dlr.de/xsd/tripinfo_file.xsd">
    <containerinfo id="c0" depart="0.00" type="DEFAULT_CONTAINERTYPE">
        <transport waitingTime="0.00" vehicle="v1" depart="0.00" arrival="17.00" arrivalPos="220.00" duration="17.00" routeLength="220.00" timeLoss="8.09"/>
    </containerinfo>
    <containerinfo id="c1" depart="10.00" type="DEFAULT_CONTAINERTYPE">
        <transport waitingTime="187.00" vehicle="v1" depart="197.00" arrival="378.00" arrivalPos="500.00" duration="181.00" routeLength="2792.36" timeLoss="8.36"/>
    </containerinfo>
    <tripinfo id="v1" depart="0.00" departLane="beg_0" departPos="0.00" departSpeed="0.00" departDelay="0.00" arrival="378.00" arrivalLane="end_0" arrivalPos="500.00" arrivalSpeed="27.80" duration="378.00" routeLength="3012.36" waitingTime="0.00" waitingCount="0" stopTime="180.00" timeLoss="16.45" rerouteNo="0" devices="tripinfo_v1 container_v1" vType="DEFAULT_VEHTYPE" speedFactor="1.00" vaporized=""/>
</tripinfos>
