<?xml version="1.0" encoding="UTF-8"?>

<!-- generated on Fri Sep  7 10:07:52 2018 by Eclipse SUMO Version v1_0_0+0051-5768965
This data file and the accompanying materials
are made available under the terms of the Eclipse Public License v2.0
which accompanies this distribution, and is available at
http://www.eclipse.org/legal/epl-v20.html
SPDX-License-Identifier: EPL-2.0
<configuration xmlns:xsi="http://www.w3.org/2001/XMLSchema-instance" xsi:noNamespaceSchemaLocation="http://sumo.dlr.de/xsd/sumoConfiguration.xsd">

    <input>
        <net-file value="net.net.xml"/>
        <route-files value="input_routes.rou.xml"/>
        <additional-files value="input_additional.add.xml,input_additional2.add.xml"/>
    </input>

    <output>
        <write-license value="true"/>
    </output>

    <time>
        <begin value="0"/>
        <end value="3000"/>
    </time>

    <processing>
        <default.speeddev value="0"/>
    </processing>

    <report>
        <verbose value="true"/>
        <xml-validation value="never"/>
        <duration-log.statistics value="true"/>
        <no-step-log value="true"/>
    </report>

</configuration>
-->

<meandata xmlns:xsi="http://www.w3.org/2001/XMLSchema-instance" xsi:noNamespaceSchemaLocation="http://sumo.dlr.de/xsd/meandata_file.xsd">
    <interval begin="0.00" end="60.00" id="dump_60">
        <edge id="1/1to2/1" sampledSeconds="824.62" traveltime="160.36" overlapTraveltime="158.06" density="14.03" occupancy="6.97" waitingTime="405.00" speed="6.23" departed="60" arrived="0" entered="0" left="34" laneChangedFrom="0" laneChangedTo="0"/>
        <edge id="2/1to3/1" sampledSeconds="939.70" traveltime="50.40" overlapTraveltime="50.65" density="15.98" occupancy="7.94" waitingTime="0.00" speed="19.44" departed="0" arrived="0" entered="34" left="4" laneChangedFrom="0" laneChangedTo="0"/>
        <edge id="3/1to4/1" sampledSeconds="10.22" traveltime="50.00" overlapTraveltime="50.25" density="0.17" occupancy="0.08" waitingTime="0.00" speed="19.60" departed="0" arrived="0" entered="4" left="0" laneChangedFrom="0" laneChangedTo="0"/>
    </interval>
    <interval begin="60.00" end="120.00" id="dump_60">
        <edge id="1/1to2/1" sampledSeconds="2266.75" traveltime="131.48" overlapTraveltime="131.28" density="38.55" occupancy="19.24" waitingTime="1219.00" speed="7.50" departed="60" arrived="0" entered="0" left="36" laneChangedFrom="0" laneChangedTo="0"/>
        <edge id="2/1to3/1" sampledSeconds="1818.08" traveltime="50.00" overlapTraveltime="50.25" density="30.92" occupancy="15.38" waitingTime="0.00" speed="19.60" departed="0" arrived="0" entered="36" left="36" laneChangedFrom="0" laneChangedTo="0"/>
        <edge id="3/1to4/1" sampledSeconds="1219.95" traveltime="50.00" overlapTraveltime="50.25" density="20.75" occupancy="10.33" waitingTime="0.00" speed="19.60" departed="0" arrived="0" entered="36" left="10" laneChangedFrom="0" laneChangedTo="0"/>
        <edge id="4/1to5/1" sampledSeconds="73.42" traveltime="50.00" overlapTraveltime="50.25" density="1.25" occupancy="0.61" waitingTime="0.00" speed="19.60" departed="0" arrived="0" entered="9" left="0" laneChangedFrom="0" laneChangedTo="0"/>
    </interval>
    <interval begin="120.00" end="180.00" id="dump_60">
        <edge id="1/1to2/1" sampledSeconds="2870.20" traveltime="97.38" overlapTraveltime="97.58" density="48.82" occupancy="24.20" waitingTime="1211.00" speed="10.09" departed="19" arrived="0" entered="0" left="36" laneChangedFrom="0" laneChangedTo="0"/>
        <edge id="2/1to3/1" sampledSeconds="1822.55" traveltime="50.00" overlapTraveltime="50.25" density="31.00" occupancy="15.42" waitingTime="0.00" speed="19.60" departed="0" arrived="0" entered="36" left="36" laneChangedFrom="0" laneChangedTo="0"/>
        <edge id="3/1to4/1" sampledSeconds="1819.49" traveltime="50.00" overlapTraveltime="50.25" density="30.95" occupancy="15.39" waitingTime="0.00" speed="19.60" departed="0" arrived="0" entered="36" left="36" laneChangedFrom="0" laneChangedTo="0"/>
        <edge id="4/1to5/1" sampledSeconds="1454.74" traveltime="50.00" overlapTraveltime="50.25" density="24.74" occupancy="12.32" waitingTime="0.00" speed="19.60" departed="0" arrived="0" entered="36" left="15" laneChangedFrom="0" laneChangedTo="0"/>
        <edge id="5/1to6/1" sampledSeconds="195.39" traveltime="50.00" overlapTraveltime="50.25" density="3.32" occupancy="1.65" waitingTime="0.00" speed="19.60" departed="0" arrived="0" entered="15" left="0" laneChangedFrom="0" laneChangedTo="0"/>
    </interval>
    <interval begin="180.00" end="240.00" id="dump_60">
        <edge id="1/1to2/1" sampledSeconds="1509.41" traveltime="53.52" overlapTraveltime="53.77" density="25.67" occupancy="12.66" waitingTime="21.00" speed="18.32" departed="21" arrived="0" entered="0" left="35" laneChangedFrom="0" laneChangedTo="0"/>
        <edge id="2/1to3/1" sampledSeconds="1817.40" traveltime="50.00" overlapTraveltime="50.25" density="30.91" occupancy="15.38" waitingTime="0.00" speed="19.60" departed="0" arrived="0" entered="35" left="36" laneChangedFrom="0" laneChangedTo="0"/>
        <edge id="3/1to4/1" sampledSeconds="1822.58" traveltime="50.00" overlapTraveltime="50.25" density="31.00" occupancy="15.42" waitingTime="0.00" speed="19.60" departed="0" arrived="0" entered="36" left="36" laneChangedFrom="0" laneChangedTo="0"/>
        <edge id="4/1to5/1" sampledSeconds="1820.41" traveltime="50.00" overlapTraveltime="50.25" density="30.96" occupancy="15.40" waitingTime="0.00" speed="19.60" departed="0" arrived="0" entered="37" left="37" laneChangedFrom="0" laneChangedTo="0"/>
        <edge id="5/1to6/1" sampledSeconds="1630.72" traveltime="50.00" overlapTraveltime="50.25" density="27.74" occupancy="13.80" waitingTime="0.00" speed="19.60" departed="0" arrived="0" entered="37" left="21" laneChangedFrom="0" laneChangedTo="0"/>
        <edge id="6/1to7/1" sampledSeconds="376.16" traveltime="50.00" overlapTraveltime="50.25" density="6.40" occupancy="3.18" waitingTime="0.00" speed="19.60" departed="0" arrived="0" entered="21" left="0" laneChangedFrom="0" laneChangedTo="0"/>
    </interval>
    <interval begin="240.00" end="300.00" id="dump_60">
        <edge id="1/1to2/1" sampledSeconds="1143.46" traveltime="54.54" overlapTraveltime="54.79" density="19.45" occupancy="9.57" waitingTime="21.00" speed="17.98" departed="21" arrived="0" entered="0" left="21" laneChangedFrom="0" laneChangedTo="0"/>
        <edge id="2/1to3/1" sampledSeconds="1295.33" traveltime="50.00" overlapTraveltime="50.25" density="22.03" occupancy="10.96" waitingTime="0.00" speed="19.60" departed="0" arrived="0" entered="21" left="32" laneChangedFrom="0" laneChangedTo="0"/>
        <edge id="3/1to4/1" sampledSeconds="1788.26" traveltime="50.00" overlapTraveltime="50.25" density="30.41" occupancy="15.13" waitingTime="0.00" speed="19.60" departed="0" arrived="0" entered="32" left="36" laneChangedFrom="0" laneChangedTo="0"/>
        <edge id="4/1to5/1" sampledSeconds="1823.11" traveltime="50.00" overlapTraveltime="50.25" density="31.01" occupancy="15.43" waitingTime="0.00" speed="19.60" departed="0" arrived="0" entered="36" left="36" laneChangedFrom="0" laneChangedTo="0"/>
        <edge id="5/1to6/1" sampledSeconds="1821.66" traveltime="50.00" overlapTraveltime="50.25" density="30.98" occupancy="15.41" waitingTime="0.00" speed="19.60" departed="0" arrived="0" entered="36" left="37" laneChangedFrom="0" laneChangedTo="0"/>
        <edge id="6/1to7/1" sampledSeconds="1747.97" traveltime="50.00" overlapTraveltime="50.25" density="29.73" occupancy="14.80" waitingTime="0.00" speed="19.60" departed="0" arrived="0" entered="36" left="27" laneChangedFrom="0" laneChangedTo="0"/>
        <edge id="7/1to8/1" sampledSeconds="615.10" traveltime="50.00" overlapTraveltime="50.25" density="10.46" occupancy="5.20" waitingTime="0.00" speed="19.60" departed="0" arrived="0" entered="27" left="0" laneChangedFrom="0" laneChangedTo="0"/>
    </interval>
    <interval begin="300.00" end="360.00" id="dump_60">
        <edge id="1/1to2/1" sampledSeconds="1144.37" traveltime="54.51" overlapTraveltime="54.77" density="19.46" occupancy="9.57" waitingTime="21.00" speed="17.98" departed="21" arrived="0" entered="0" left="21" laneChangedFrom="0" laneChangedTo="0"/>
        <edge id="2/1to3/1" sampledSeconds="1052.26" traveltime="50.00" overlapTraveltime="50.25" density="17.90" occupancy="8.90" waitingTime="0.00" speed="19.60" departed="0" arrived="0" entered="21" left="21" laneChangedFrom="0" laneChangedTo="0"/>
        <edge id="3/1to4/1" sampledSeconds="1198.09" traveltime="50.00" overlapTraveltime="50.25" density="20.38" occupancy="10.13" waitingTime="0.00" speed="19.60" departed="0" arrived="0" entered="21" left="30" laneChangedFrom="0" laneChangedTo="0"/>
        <edge id="4/1to5/1" sampledSeconds="1733.55" traveltime="50.00" overlapTraveltime="50.25" density="29.48" occupancy="14.67" waitingTime="0.00" speed="19.60" departed="0" arrived="0" entered="30" left="36" laneChangedFrom="0" laneChangedTo="0"/>
        <edge id="5/1to6/1" sampledSeconds="1823.39" traveltime="50.00" overlapTraveltime="50.25" density="31.01" occupancy="15.43" waitingTime="0.00" speed="19.60" departed="0" arrived="0" entered="36" left="36" laneChangedFrom="0" laneChangedTo="0"/>
        <edge id="6/1to7/1" sampledSeconds="1822.91" traveltime="50.00" overlapTraveltime="50.25" density="31.00" occupancy="15.42" waitingTime="0.00" speed="19.60" departed="0" arrived="0" entered="37" left="36" laneChangedFrom="0" laneChangedTo="0"/>
        <edge id="7/1to8/1" sampledSeconds="1808.07" traveltime="50.00" overlapTraveltime="50.25" density="30.75" occupancy="15.30" waitingTime="0.00" speed="19.60" departed="0" arrived="0" entered="36" left="33" laneChangedFrom="0" laneChangedTo="0"/>
        <edge id="8/1to9/1" sampledSeconds="904.71" traveltime="50.00" overlapTraveltime="50.25" density="15.39" occupancy="7.65" waitingTime="0.00" speed="19.60" departed="0" arrived="0" entered="33" left="3" laneChangedFrom="0" laneChangedTo="0"/>
        <edge id="9/1to10/1" sampledSeconds="7.45" traveltime="50.00" overlapTraveltime="50.25" density="0.13" occupancy="0.06" waitingTime="0.00" speed="19.60" departed="0" arrived="0" entered="3" left="0" laneChangedFrom="0" laneChangedTo="0"/>
    </interval>
    <interval begin="360.00" end="420.00" id="dump_60">
        <edge id="1/1to2/1" sampledSeconds="1143.54" traveltime="54.49" overlapTraveltime="54.75" density="19.45" occupancy="9.56" waitingTime="20.00" speed="17.99" departed="21" arrived="0" entered="0" left="21" laneChangedFrom="0" laneChangedTo="0"/>
        <edge id="10/1to1/1" sampledSeconds="65.24" traveltime="50.00" overlapTraveltime="50.25" density="1.11" occupancy="0.55" waitingTime="0.00" speed="19.60" departed="0" arrived="0" entered="9" left="0" laneChangedFrom="0" laneChangedTo="0"/>
        <edge id="2/1to3/1" sampledSeconds="1053.00" traveltime="50.00" overlapTraveltime="50.25" density="17.91" occupancy="8.91" waitingTime="0.00" speed="19.60" departed="0" arrived="0" entered="21" left="21" laneChangedFrom="0" laneChangedTo="0"/>
        <edge id="3/1to4/1" sampledSeconds="1051.57" traveltime="50.00" overlapTraveltime="50.25" density="17.88" occupancy="8.90" waitingTime="0.00" speed="19.60" departed="0" arrived="0" entered="21" left="21" laneChangedFrom="0" laneChangedTo="0"/>
        <edge id="4/1to5/1" sampledSeconds="1125.68" traveltime="50.00" overlapTraveltime="50.25" density="19.15" occupancy="9.52" waitingTime="0.00" speed="19.60" departed="0" arrived="0" entered="21" left="27" laneChangedFrom="0" laneChangedTo="0"/>
        <edge id="5/1to6/1" sampledSeconds="1655.25" traveltime="50.00" overlapTraveltime="50.25" density="28.15" occupancy="14.01" waitingTime="0.00" speed="19.60" departed="0" arrived="0" entered="27" left="36" laneChangedFrom="0" laneChangedTo="0"/>
        <edge id="6/1to7/1" sampledSeconds="1822.89" traveltime="50.00" overlapTraveltime="50.25" density="31.00" occupancy="15.42" waitingTime="0.00" speed="19.60" departed="0" arrived="0" entered="36" left="37" laneChangedFrom="0" laneChangedTo="0"/>
        <edge id="7/1to8/1" sampledSeconds="1823.23" traveltime="50.00" overlapTraveltime="50.25" density="31.01" occupancy="15.43" waitingTime="0.00" speed="19.60" departed="0" arrived="0" entered="37" left="36" laneChangedFrom="0" laneChangedTo="0"/>
        <edge id="8/1to9/1" sampledSeconds="1817.78" traveltime="50.00" overlapTraveltime="50.25" density="30.92" occupancy="15.38" waitingTime="0.00" speed="19.60" departed="0" arrived="0" entered="36" left="36" laneChangedFrom="0" laneChangedTo="0"/>
        <edge id="9/1to10/1" sampledSeconds="1195.34" traveltime="50.00" overlapTraveltime="50.25" density="20.33" occupancy="10.12" waitingTime="0.00" speed="19.60" departed="0" arrived="0" entered="36" left="9" laneChangedFrom="0" laneChangedTo="0"/>
    </interval>
    <interval begin="420.00" end="480.00" id="dump_60">
        <edge id="1/1to2/1" sampledSeconds="1145.17" traveltime="54.54" overlapTraveltime="54.79" density="19.48" occupancy="9.58" waitingTime="21.00" speed="17.98" departed="21" arrived="0" entered="3" left="21" laneChangedFrom="0" laneChangedTo="0"/>
        <edge id="10/1to1/1" sampledSeconds="1579.89" traveltime="59.15" overlapTraveltime="59.45" density="26.87" occupancy="13.40" waitingTime="0.00" speed="16.57" departed="0" arrived="0" entered="36" left="3" laneChangedFrom="0" laneChangedTo="0"/>
        <edge id="2/1to3/1" sampledSeconds="1050.79" traveltime="50.00" overlapTraveltime="50.25" density="17.87" occupancy="8.89" waitingTime="0.00" speed="19.60" departed="0" arrived="0" entered="21" left="21" laneChangedFrom="0" laneChangedTo="0"/>
        <edge id="3/1to4/1" sampledSeconds="1053.04" traveltime="50.00" overlapTraveltime="50.25" density="17.91" occupancy="8.91" waitingTime="0.00" speed="19.60" departed="0" arrived="0" entered="21" left="21" laneChangedFrom="0" laneChangedTo="0"/>
        <edge id="4/1to5/1" sampledSeconds="1053.00" traveltime="50.00" overlapTraveltime="50.25" density="17.91" occupancy="8.91" waitingTime="0.00" speed="19.60" departed="0" arrived="0" entered="21" left="21" laneChangedFrom="0" laneChangedTo="0"/>
        <edge id="5/1to6/1" sampledSeconds="1076.87" traveltime="50.00" overlapTraveltime="50.25" density="18.32" occupancy="9.11" waitingTime="0.00" speed="19.60" departed="0" arrived="0" entered="21" left="25" laneChangedFrom="0" laneChangedTo="0"/>
        <edge id="6/1to7/1" sampledSeconds="1552.07" traveltime="50.00" overlapTraveltime="50.25" density="26.40" occupancy="13.13" waitingTime="0.00" speed="19.60" departed="0" arrived="0" entered="24" left="36" laneChangedFrom="0" laneChangedTo="0"/>
        <edge id="7/1to8/1" sampledSeconds="1822.89" traveltime="50.00" overlapTraveltime="50.25" density="31.00" occupancy="15.42" waitingTime="0.00" speed="19.60" departed="0" arrived="0" entered="36" left="37" laneChangedFrom="0" laneChangedTo="0"/>
        <edge id="8/1to9/1" sampledSeconds="1822.86" traveltime="50.00" overlapTraveltime="50.25" density="31.00" occupancy="15.42" waitingTime="0.00" speed="19.60" departed="0" arrived="0" entered="37" left="36" laneChangedFrom="0" laneChangedTo="0"/>
        <edge id="9/1to10/1" sampledSeconds="1818.85" traveltime="50.00" overlapTraveltime="50.25" density="30.93" occupancy="15.39" waitingTime="0.00" speed="19.60" departed="0" arrived="0" entered="36" left="36" laneChangedFrom="0" laneChangedTo="0"/>
    </interval>
    <interval begin="480.00" end="540.00" id="dump_60">
        <edge id="1/1to2/1" sampledSeconds="1292.29" traveltime="53.90" overlapTraveltime="54.16" density="21.98" occupancy="10.89" waitingTime="11.00" speed="18.19" departed="16" arrived="0" entered="13" left="21" laneChangedFrom="0" laneChangedTo="0"/>
        <edge id="10/1to1/1" sampledSeconds="3261.11" traveltime="130.66" overlapTraveltime="131.51" density="55.46" occupancy="27.67" waitingTime="12.00" speed="7.49" departed="0" arrived="0" entered="36" left="13" laneChangedFrom="0" laneChangedTo="0"/>
        <edge id="2/1to3/1" sampledSeconds="1053.59" traveltime="50.00" overlapTraveltime="50.25" density="17.92" occupancy="8.91" waitingTime="0.00" speed="19.60" departed="0" arrived="0" entered="21" left="21" laneChangedFrom="0" laneChangedTo="0"/>
        <edge id="3/1to4/1" sampledSeconds="1052.30" traveltime="50.00" overlapTraveltime="50.25" density="17.90" occupancy="8.90" waitingTime="0.00" speed="19.60" departed="0" arrived="0" entered="21" left="21" laneChangedFrom="0" laneChangedTo="0"/>
        <edge id="4/1to5/1" sampledSeconds="1051.53" traveltime="50.00" overlapTraveltime="50.25" density="17.88" occupancy="8.90" waitingTime="0.00" speed="19.60" departed="0" arrived="0" entered="21" left="21" laneChangedFrom="0" laneChangedTo="0"/>
        <edge id="5/1to6/1" sampledSeconds="1053.00" traveltime="50.00" overlapTraveltime="50.25" density="17.91" occupancy="8.91" waitingTime="0.00" speed="19.60" departed="0" arrived="0" entered="21" left="21" laneChangedFrom="0" laneChangedTo="0"/>
        <edge id="6/1to7/1" sampledSeconds="1054.34" traveltime="50.00" overlapTraveltime="50.25" density="17.93" occupancy="8.92" waitingTime="0.00" speed="19.60" departed="0" arrived="0" entered="21" left="22" laneChangedFrom="0" laneChangedTo="0"/>
        <edge id="7/1to8/1" sampledSeconds="1427.76" traveltime="50.00" overlapTraveltime="50.25" density="24.28" occupancy="12.08" waitingTime="0.00" speed="19.60" departed="0" arrived="0" entered="22" left="34" laneChangedFrom="0" laneChangedTo="0"/>
        <edge id="8/1to9/1" sampledSeconds="1818.93" traveltime="50.00" overlapTraveltime="50.25" density="30.94" occupancy="15.39" waitingTime="0.00" speed="19.60" departed="0" arrived="0" entered="34" left="37" laneChangedFrom="0" laneChangedTo="0"/>
        <edge id="9/1to10/1" sampledSeconds="1822.87" traveltime="50.00" overlapTraveltime="50.25" density="31.00" occupancy="15.42" waitingTime="0.00" speed="19.60" departed="0" arrived="0" entered="37" left="36" laneChangedFrom="0" laneChangedTo="0"/>
    </interval>
    <interval begin="540.00" end="600.00" id="dump_60">
        <edge id="1/1to2/1" sampledSeconds="1519.98" traveltime="53.29" overlapTraveltime="53.54" density="25.85" occupancy="12.84" waitingTime="12.00" speed="18.40" departed="17" arrived="0" entered="13" left="30" laneChangedFrom="0" laneChangedTo="0"/>
        <edge id="10/1to1/1" sampledSeconds="4576.09" traveltime="308.94" overlapTraveltime="310.41" density="77.83" occupancy="38.85" waitingTime="3.00" speed="3.17" departed="0" arrived="0" entered="36" left="13" laneChangedFrom="0" laneChangedTo="0"/>
        <edge id="2/1to3/1" sampledSeconds="1274.76" traveltime="50.00" overlapTraveltime="50.25" density="21.68" occupancy="10.79" waitingTime="0.00" speed="19.60" departed="0" arrived="0" entered="29" left="22" laneChangedFrom="0" laneChangedTo="0"/>
        <edge id="3/1to4/1" sampledSeconds="1063.66" traveltime="50.00" overlapTraveltime="50.25" density="18.09" occupancy="9.00" waitingTime="0.00" speed="19.60" departed="0" arrived="0" entered="22" left="21" laneChangedFrom="0" laneChangedTo="0"/>
        <edge id="4/1to5/1" sampledSeconds="1051.53" traveltime="50.00" overlapTraveltime="50.25" density="17.88" occupancy="8.90" waitingTime="0.00" speed="19.60" departed="0" arrived="0" entered="21" left="21" laneChangedFrom="0" laneChangedTo="0"/>
        <edge id="5/1to6/1" sampledSeconds="1052.26" traveltime="50.00" overlapTraveltime="50.25" density="17.90" occupancy="8.90" waitingTime="0.00" speed="19.60" departed="0" arrived="0" entered="21" left="20" laneChangedFrom="0" laneChangedTo="0"/>
        <edge id="6/1to7/1" sampledSeconds="1053.04" traveltime="50.00" overlapTraveltime="50.25" density="17.91" occupancy="8.91" waitingTime="0.00" speed="19.60" departed="0" arrived="0" entered="21" left="21" laneChangedFrom="0" laneChangedTo="0"/>
        <edge id="7/1to8/1" sampledSeconds="1051.53" traveltime="50.00" overlapTraveltime="50.25" density="17.88" occupancy="8.90" waitingTime="0.00" speed="19.60" departed="0" arrived="0" entered="21" left="21" laneChangedFrom="0" laneChangedTo="0"/>
        <edge id="8/1to9/1" sampledSeconds="1305.38" traveltime="50.00" overlapTraveltime="50.25" density="22.20" occupancy="11.04" waitingTime="0.00" speed="19.60" departed="0" arrived="0" entered="21" left="32" laneChangedFrom="0" laneChangedTo="0"/>
        <edge id="9/1to10/1" sampledSeconds="1792.22" traveltime="50.00" overlapTraveltime="50.25" density="30.48" occupancy="15.17" waitingTime="0.00" speed="19.60" departed="0" arrived="0" entered="32" left="37" laneChangedFrom="0" laneChangedTo="0"/>
    </interval>
    <interval begin="600.00" end="660.00" id="dump_60">
        <edge id="1/1to2/1" sampledSeconds="1506.75" traveltime="52.54" overlapTraveltime="52.83" density="25.63" occupancy="12.72" waitingTime="4.00" speed="18.65" departed="7" arrived="0" entered="22" left="30" laneChangedFrom="0" laneChangedTo="0"/>
        <edge id="10/1to1/1" sampledSeconds="5472.32" traveltime="639.74" overlapTraveltime="636.41" density="93.07" occupancy="46.41" waitingTime="4.00" speed="1.55" departed="0" arrived="0" entered="17" left="22" laneChangedFrom="0" laneChangedTo="0"/>
        <edge id="2/1to3/1" sampledSeconds="1530.21" traveltime="50.26" overlapTraveltime="50.51" density="26.03" occupancy="12.95" waitingTime="0.00" speed="19.50" departed="0" arrived="0" entered="31" left="30" laneChangedFrom="0" laneChangedTo="0"/>
        <edge id="3/1to4/1" sampledSeconds="1339.25" traveltime="50.00" overlapTraveltime="50.25" density="22.78" occupancy="11.33" waitingTime="0.00" speed="19.60" departed="0" arrived="0" entered="29" left="23" laneChangedFrom="0" laneChangedTo="0"/>
        <edge id="4/1to5/1" sampledSeconds="1077.38" traveltime="50.00" overlapTraveltime="50.25" density="18.32" occupancy="9.11" waitingTime="0.00" speed="19.60" departed="0" arrived="0" entered="22" left="21" laneChangedFrom="0" laneChangedTo="0"/>
        <edge id="5/1to6/1" sampledSeconds="1052.26" traveltime="50.00" overlapTraveltime="50.25" density="17.90" occupancy="8.90" waitingTime="0.00" speed="19.60" departed="0" arrived="0" entered="21" left="21" laneChangedFrom="0" laneChangedTo="0"/>
        <edge id="6/1to7/1" sampledSeconds="1051.57" traveltime="50.00" overlapTraveltime="50.25" density="17.88" occupancy="8.90" waitingTime="0.00" speed="19.60" departed="0" arrived="0" entered="21" left="21" laneChangedFrom="0" laneChangedTo="0"/>
        <edge id="7/1to8/1" sampledSeconds="1053.00" traveltime="50.00" overlapTraveltime="50.25" density="17.91" occupancy="8.91" waitingTime="0.00" speed="19.60" departed="0" arrived="0" entered="21" left="21" laneChangedFrom="0" laneChangedTo="0"/>
        <edge id="8/1to9/1" sampledSeconds="1052.31" traveltime="50.00" overlapTraveltime="50.25" density="17.90" occupancy="8.90" waitingTime="0.00" speed="19.60" departed="0" arrived="0" entered="21" left="21" laneChangedFrom="0" laneChangedTo="0"/>
        <edge id="9/1to10/1" sampledSeconds="1614.45" traveltime="73.16" overlapTraveltime="74.18" density="27.46" occupancy="13.62" waitingTime="2.00" speed="13.28" departed="0" arrived="0" entered="21" left="16" laneChangedFrom="0" laneChangedTo="0"/>
    </interval>
    <interval begin="660.00" end="720.00" id="dump_60">
        <edge id="1/1to2/1" sampledSeconds="1835.71" traveltime="50.09" overlapTraveltime="50.35" density="31.22" occupancy="15.53" waitingTime="0.00" speed="19.56" departed="0" arrived="0" entered="37" left="35" laneChangedFrom="0" laneChangedTo="0"/>
        <edge id="10/1to1/1" sampledSeconds="4099.10" traveltime="206.43" overlapTraveltime="205.99" density="69.72" occupancy="34.70" waitingTime="0.00" speed="4.78" departed="0" arrived="0" entered="6" left="37" laneChangedFrom="0" laneChangedTo="0"/>
        <edge id="2/1to3/1" sampledSeconds="1646.01" traveltime="50.05" overlapTraveltime="50.31" density="28.00" occupancy="13.93" waitingTime="0.00" speed="19.58" departed="0" arrived="0" entered="35" left="31" laneChangedFrom="0" laneChangedTo="0"/>
        <edge id="3/1to4/1" sampledSeconds="1529.06" traveltime="50.00" overlapTraveltime="50.25" density="26.01" occupancy="12.94" waitingTime="0.00" speed="19.60" departed="0" arrived="0" entered="32" left="29" laneChangedFrom="0" laneChangedTo="0"/>
        <edge id="4/1to5/1" sampledSeconds="1404.93" traveltime="50.00" overlapTraveltime="50.25" density="23.89" occupancy="11.89" waitingTime="0.00" speed="19.60" departed="0" arrived="0" entered="30" left="24" laneChangedFrom="0" laneChangedTo="0"/>
        <edge id="5/1to6/1" sampledSeconds="1103.12" traveltime="50.00" overlapTraveltime="50.25" density="18.76" occupancy="9.33" waitingTime="0.00" speed="19.60" departed="0" arrived="0" entered="24" left="21" laneChangedFrom="0" laneChangedTo="0"/>
        <edge id="6/1to7/1" sampledSeconds="1051.57" traveltime="50.00" overlapTraveltime="50.25" density="17.88" occupancy="8.90" waitingTime="0.00" speed="19.60" departed="0" arrived="0" entered="21" left="21" laneChangedFrom="0" laneChangedTo="0"/>
        <edge id="7/1to8/1" sampledSeconds="1052.26" traveltime="50.00" overlapTraveltime="50.25" density="17.90" occupancy="8.90" waitingTime="0.00" speed="19.60" departed="0" arrived="0" entered="21" left="21" laneChangedFrom="0" laneChangedTo="0"/>
        <edge id="8/1to9/1" sampledSeconds="1053.04" traveltime="50.00" overlapTraveltime="50.25" density="17.91" occupancy="8.91" waitingTime="0.00" speed="19.60" departed="0" arrived="0" entered="21" left="21" laneChangedFrom="0" laneChangedTo="0"/>
        <edge id="9/1to10/1" sampledSeconds="2289.36" traveltime="132.16" overlapTraveltime="134.25" density="38.94" occupancy="19.33" waitingTime="0.00" speed="7.34" departed="0" arrived="0" entered="21" left="7" laneChangedFrom="0" laneChangedTo="0"/>
    </interval>
    <interval begin="720.00" end="780.00" id="dump_60">
        <edge id="1/1to2/1" sampledSeconds="1873.38" traveltime="50.00" overlapTraveltime="50.25" density="31.86" occupancy="15.85" waitingTime="0.00" speed="19.60" departed="0" arrived="0" entered="37" left="37" laneChangedFrom="0" laneChangedTo="0"/>
        <edge id="10/1to1/1" sampledSeconds="2321.62" traveltime="68.33" overlapTraveltime="68.58" density="39.49" occupancy="19.60" waitingTime="0.00" speed="14.36" departed="0" arrived="0" entered="16" left="37" laneChangedFrom="0" laneChangedTo="0"/>
        <edge id="2/1to3/1" sampledSeconds="1862.73" traveltime="50.00" overlapTraveltime="50.25" density="31.68" occupancy="15.76" waitingTime="0.00" speed="19.60" departed="0" arrived="0" entered="37" left="36" laneChangedFrom="0" laneChangedTo="0"/>
        <edge id="3/1to4/1" sampledSeconds="1691.30" traveltime="50.00" overlapTraveltime="50.25" density="28.77" occupancy="14.31" waitingTime="0.00" speed="19.60" departed="0" arrived="0" entered="36" left="32" laneChangedFrom="0" laneChangedTo="0"/>
        <edge id="4/1to5/1" sampledSeconds="1536.89" traveltime="50.00" overlapTraveltime="50.25" density="26.14" occupancy="13.00" waitingTime="0.00" speed="19.60" departed="0" arrived="0" entered="32" left="31" laneChangedFrom="0" laneChangedTo="0"/>
        <edge id="5/1to6/1" sampledSeconds="1453.53" traveltime="50.00" overlapTraveltime="50.25" density="24.72" occupancy="12.30" waitingTime="0.00" speed="19.60" departed="0" arrived="0" entered="31" left="26" laneChangedFrom="0" laneChangedTo="0"/>
        <edge id="6/1to7/1" sampledSeconds="1145.30" traveltime="50.00" overlapTraveltime="50.25" density="19.48" occupancy="9.69" waitingTime="0.00" speed="19.60" departed="0" arrived="0" entered="26" left="21" laneChangedFrom="0" laneChangedTo="0"/>
        <edge id="7/1to8/1" sampledSeconds="1053.00" traveltime="50.00" overlapTraveltime="50.25" density="17.91" occupancy="8.91" waitingTime="0.00" speed="19.60" departed="0" arrived="0" entered="21" left="21" laneChangedFrom="0" laneChangedTo="0"/>
        <edge id="8/1to9/1" sampledSeconds="1050.84" traveltime="50.00" overlapTraveltime="50.25" density="17.87" occupancy="8.89" waitingTime="0.00" speed="19.60" departed="0" arrived="0" entered="21" left="21" laneChangedFrom="0" laneChangedTo="0"/>
        <edge id="9/1to10/1" sampledSeconds="3087.60" traveltime="203.15" overlapTraveltime="204.69" density="52.51" occupancy="26.13" waitingTime="0.00" speed="4.81" departed="0" arrived="0" entered="21" left="15" laneChangedFrom="0" laneChangedTo="0"/>
    </interval>
    <interval begin="780.00" end="840.00" id="dump_60">
        <edge id="1/1to2/1" sampledSeconds="1876.48" traveltime="50.00" overlapTraveltime="50.25" density="31.91" occupancy="15.88" waitingTime="0.00" speed="19.60" departed="0" arrived="0" entered="37" left="37" laneChangedFrom="0" laneChangedTo="0"/>
        <edge id="10/1to1/1" sampledSeconds="1876.57" traveltime="50.01" overlapTraveltime="50.26" density="31.92" occupancy="15.88" waitingTime="0.00" speed="19.60" departed="0" arrived="0" entered="37" left="37" laneChangedFrom="0" laneChangedTo="0"/>
        <edge id="2/1to3/1" sampledSeconds="1874.06" traveltime="50.00" overlapTraveltime="50.25" density="31.87" occupancy="15.86" waitingTime="0.00" speed="19.60" departed="0" arrived="0" entered="37" left="37" laneChangedFrom="0" laneChangedTo="0"/>
        <edge id="3/1to4/1" sampledSeconds="1869.12" traveltime="50.00" overlapTraveltime="50.25" density="31.79" occupancy="15.81" waitingTime="0.00" speed="19.60" departed="0" arrived="0" entered="37" left="37" laneChangedFrom="0" laneChangedTo="0"/>
        <edge id="4/1to5/1" sampledSeconds="1739.55" traveltime="50.00" overlapTraveltime="50.25" density="29.59" occupancy="14.72" waitingTime="0.00" speed="19.60" departed="0" arrived="0" entered="37" left="32" laneChangedFrom="0" laneChangedTo="0"/>