<?xml version="1.0" encoding="UTF-8"?>

<!-- generated on Wed Sep 12 14:59:10 2018 by Eclipse SUMO Version v1_0_0+0145-c48616d
This data file and the accompanying materials
are made available under the terms of the Eclipse Public License v2.0
which accompanies this distribution, and is available at
http://www.eclipse.org/legal/epl-v20.html
SPDX-License-Identifier: EPL-2.0
<configuration xmlns:xsi="http://www.w3.org/2001/XMLSchema-instance" xsi:noNamespaceSchemaLocation="http://sumo.dlr.de/xsd/sumoConfiguration.xsd">

    <input>
        <net-file value="net.net.xml"/>
        <route-files value="input_routes.rou.xml"/>
        <additional-files value="input_additional.add.xml,input_additional2.add.xml"/>
    </input>

    <output>
        <write-license value="true"/>
    </output>

    <time>
        <begin value="0"/>
        <end value="3000"/>
    </time>

    <processing>
        <default.speeddev value="0"/>
    </processing>

    <report>
        <verbose value="true"/>
        <xml-validation value="never"/>
        <duration-log.statistics value="true"/>
        <no-step-log value="true"/>
    </report>

</configuration>
-->

<meandata xmlns:xsi="http://www.w3.org/2001/XMLSchema-instance" xsi:noNamespaceSchemaLocation="http://sumo.dlr.de/xsd/meandata_file.xsd">
    <interval begin="0.00" end="60.00" id="dump_60">
        <edge id="1/1to2/1" sampledSeconds="824.62" traveltime="160.36" overlapTraveltime="158.06" density="14.03" occupancy="6.97" waitingTime="405.00" speed="6.23" departed="60" arrived="0" entered="0" left="34" laneChangedFrom="0" laneChangedTo="0"/>
        <edge id="2/1to3/1" sampledSeconds="939.70" traveltime="50.40" overlapTraveltime="50.65" density="15.98" occupancy="7.94" waitingTime="0.00" speed="19.44" departed="0" arrived="0" entered="34" left="4" laneChangedFrom="0" laneChangedTo="0"/>
        <edge id="3/1to4/1" sampledSeconds="10.22" traveltime="50.00" overlapTraveltime="50.25" density="0.17" occupancy="0.08" waitingTime="0.00" speed="19.60" departed="0" arrived="0" entered="4" left="0" laneChangedFrom="0" laneChangedTo="0"/>
    </interval>
    <interval begin="60.00" end="120.00" id="dump_60">
        <edge id="1/1to2/1" sampledSeconds="2266.75" traveltime="131.48" overlapTraveltime="131.28" density="38.55" occupancy="19.24" waitingTime="1219.00" speed="7.50" departed="60" arrived="0" entered="0" left="36" laneChangedFrom="0" laneChangedTo="0"/>
        <edge id="2/1to3/1" sampledSeconds="1818.08" traveltime="50.00" overlapTraveltime="50.25" density="30.92" occupancy="15.38" waitingTime="0.00" speed="19.60" departed="0" arrived="0" entered="36" left="36" laneChangedFrom="0" laneChangedTo="0"/>
        <edge id="3/1to4/1" sampledSeconds="1219.95" traveltime="50.00" overlapTraveltime="50.25" density="20.75" occupancy="10.33" waitingTime="0.00" speed="19.60" departed="0" arrived="0" entered="36" left="10" laneChangedFrom="0" laneChangedTo="0"/>
        <edge id="4/1to5/1" sampledSeconds="73.42" traveltime="50.00" overlapTraveltime="50.25" density="1.25" occupancy="0.61" waitingTime="0.00" speed="19.60" departed="0" arrived="0" entered="9" left="0" laneChangedFrom="0" laneChangedTo="0"/>
    </interval>
    <interval begin="120.00" end="180.00" id="dump_60">
        <edge id="1/1to2/1" sampledSeconds="2870.20" traveltime="97.38" overlapTraveltime="97.58" density="48.82" occupancy="24.20" waitingTime="1211.00" speed="10.09" departed="19" arrived="0" entered="0" left="36" laneChangedFrom="0" laneChangedTo="0"/>
        <edge id="2/1to3/1" sampledSeconds="1822.55" traveltime="50.00" overlapTraveltime="50.25" density="31.00" occupancy="15.42" waitingTime="0.00" speed="19.60" departed="0" arrived="0" entered="36" left="36" laneChangedFrom="0" laneChangedTo="0"/>
        <edge id="3/1to4/1" sampledSeconds="1819.49" traveltime="50.00" overlapTraveltime="50.25" density="30.95" occupancy="15.39" waitingTime="0.00" speed="19.60" departed="0" arrived="0" entered="36" left="36" laneChangedFrom="0" laneChangedTo="0"/>
        <edge id="4/1to5/1" sampledSeconds="1454.74" traveltime="50.00" overlapTraveltime="50.25" density="24.74" occupancy="12.32" waitingTime="0.00" speed="19.60" departed="0" arrived="0" entered="36" left="15" laneChangedFrom="0" laneChangedTo="0"/>
        <edge id="5/1to6/1" sampledSeconds="195.39" traveltime="50.00" overlapTraveltime="50.25" density="3.32" occupancy="1.65" waitingTime="0.00" speed="19.60" departed="0" arrived="0" entered="15" left="0" laneChangedFrom="0" laneChangedTo="0"/>
    </interval>
    <interval begin="180.00" end="240.00" id="dump_60">
        <edge id="1/1to2/1" sampledSeconds="1509.41" traveltime="53.52" overlapTraveltime="53.77" density="25.67" occupancy="12.66" waitingTime="21.00" speed="18.32" departed="21" arrived="0" entered="0" left="35" laneChangedFrom="0" laneChangedTo="0"/>
        <edge id="2/1to3/1" sampledSeconds="1817.40" traveltime="50.00" overlapTraveltime="50.25" density="30.91" occupancy="15.38" waitingTime="0.00" speed="19.60" departed="0" arrived="0" entered="35" left="36" laneChangedFrom="0" laneChangedTo="0"/>
        <edge id="3/1to4/1" sampledSeconds="1822.58" traveltime="50.00" overlapTraveltime="50.25" density="31.00" occupancy="15.42" waitingTime="0.00" speed="19.60" departed="0" arrived="0" entered="36" left="36" laneChangedFrom="0" laneChangedTo="0"/>
        <edge id="4/1to5/1" sampledSeconds="1820.41" traveltime="50.00" overlapTraveltime="50.25" density="30.96" occupancy="15.40" waitingTime="0.00" speed="19.60" departed="0" arrived="0" entered="37" left="37" laneChangedFrom="0" laneChangedTo="0"/>
        <edge id="5/1to6/1" sampledSeconds="1630.72" traveltime="50.00" overlapTraveltime="50.25" density="27.74" occupancy="13.80" waitingTime="0.00" speed="19.60" departed="0" arrived="0" entered="37" left="21" laneChangedFrom="0" laneChangedTo="0"/>
        <edge id="6/1to7/1" sampledSeconds="376.16" traveltime="50.00" overlapTraveltime="50.25" density="6.40" occupancy="3.18" waitingTime="0.00" speed="19.60" departed="0" arrived="0" entered="21" left="0" laneChangedFrom="0" laneChangedTo="0"/>
    </interval>
    <interval begin="240.00" end="300.00" id="dump_60">
        <edge id="1/1to2/1" sampledSeconds="1143.46" traveltime="54.54" overlapTraveltime="54.79" density="19.45" occupancy="9.57" waitingTime="21.00" speed="17.98" departed="21" arrived="0" entered="0" left="21" laneChangedFrom="0" laneChangedTo="0"/>
        <edge id="2/1to3/1" sampledSeconds="1295.33" traveltime="50.00" overlapTraveltime="50.25" density="22.03" occupancy="10.96" waitingTime="0.00" speed="19.60" departed="0" arrived="0" entered="21" left="32" laneChangedFrom="0" laneChangedTo="0"/>
        <edge id="3/1to4/1" sampledSeconds="1788.26" traveltime="50.00" overlapTraveltime="50.25" density="30.41" occupancy="15.13" waitingTime="0.00" speed="19.60" departed="0" arrived="0" entered="32" left="36" laneChangedFrom="0" laneChangedTo="0"/>
        <edge id="4/1to5/1" sampledSeconds="1823.11" traveltime="50.00" overlapTraveltime="50.25" density="31.01" occupancy="15.43" waitingTime="0.00" speed="19.60" departed="0" arrived="0" entered="36" left="36" laneChangedFrom="0" laneChangedTo="0"/>
        <edge id="5/1to6/1" sampledSeconds="1821.66" traveltime="50.00" overlapTraveltime="50.25" density="30.98" occupancy="15.41" waitingTime="0.00" speed="19.60" departed="0" arrived="0" entered="36" left="37" laneChangedFrom="0" laneChangedTo="0"/>
        <edge id="6/1to7/1" sampledSeconds="1747.97" traveltime="50.00" overlapTraveltime="50.25" density="29.73" occupancy="14.80" waitingTime="0.00" speed="19.60" departed="0" arrived="0" entered="36" left="27" laneChangedFrom="0" laneChangedTo="0"/>
        <edge id="7/1to8/1" sampledSeconds="615.10" traveltime="50.00" overlapTraveltime="50.25" density="10.46" occupancy="5.20" waitingTime="0.00" speed="19.60" departed="0" arrived="0" entered="27" left="0" laneChangedFrom="0" laneChangedTo="0"/>
    </interval>
    <interval begin="300.00" end="360.00" id="dump_60">
        <edge id="1/1to2/1" sampledSeconds="1144.37" traveltime="54.51" overlapTraveltime="54.77" density="19.46" occupancy="9.57" waitingTime="21.00" speed="17.98" departed="21" arrived="0" entered="0" left="21" laneChangedFrom="0" laneChangedTo="0"/>
        <edge id="2/1to3/1" sampledSeconds="1052.26" traveltime="50.00" overlapTraveltime="50.25" density="17.90" occupancy="8.90" waitingTime="0.00" speed="19.60" departed="0" arrived="0" entered="21" left="21" laneChangedFrom="0" laneChangedTo="0"/>
        <edge id="3/1to4/1" sampledSeconds="1198.09" traveltime="50.00" overlapTraveltime="50.25" density="20.38" occupancy="10.13" waitingTime="0.00" speed="19.60" departed="0" arrived="0" entered="21" left="30" laneChangedFrom="0" laneChangedTo="0"/>
        <edge id="4/1to5/1" sampledSeconds="1733.55" traveltime="50.00" overlapTraveltime="50.25" density="29.48" occupancy="14.67" waitingTime="0.00" speed="19.60" departed="0" arrived="0" entered="30" left="36" laneChangedFrom="0" laneChangedTo="0"/>
        <edge id="5/1to6/1" sampledSeconds="1823.39" traveltime="50.00" overlapTraveltime="50.25" density="31.01" occupancy="15.43" waitingTime="0.00" speed="19.60" departed="0" arrived="0" entered="36" left="36" laneChangedFrom="0" laneChangedTo="0"/>
        <edge id="6/1to7/1" sampledSeconds="1822.91" traveltime="50.00" overlapTraveltime="50.25" density="31.00" occupancy="15.42" waitingTime="0.00" speed="19.60" departed="0" arrived="0" entered="37" left="36" laneChangedFrom="0" laneChangedTo="0"/>
        <edge id="7/1to8/1" sampledSeconds="1808.07" traveltime="50.00" overlapTraveltime="50.25" density="30.75" occupancy="15.30" waitingTime="0.00" speed="19.60" departed="0" arrived="0" entered="36" left="33" laneChangedFrom="0" laneChangedTo="0"/>
        <edge id="8/1to9/1" sampledSeconds="904.71" traveltime="50.00" overlapTraveltime="50.25" density="15.39" occupancy="7.65" waitingTime="0.00" speed="19.60" departed="0" arrived="0" entered="33" left="3" laneChangedFrom="0" laneChangedTo="0"/>
        <edge id="9/1to10/1" sampledSeconds="7.45" traveltime="50.00" overlapTraveltime="50.25" density="0.13" occupancy="0.06" waitingTime="0.00" speed="19.60" departed="0" arrived="0" entered="3" left="0" laneChangedFrom="0" laneChangedTo="0"/>
    </interval>
    <interval begin="360.00" end="420.00" id="dump_60">
        <edge id="1/1to2/1" sampledSeconds="1143.54" traveltime="54.49" overlapTraveltime="54.75" density="19.45" occupancy="9.56" waitingTime="20.00" speed="17.99" departed="21" arrived="0" entered="0" left="21" laneChangedFrom="0" laneChangedTo="0"/>
        <edge id="10/1to1/1" sampledSeconds="65.24" traveltime="50.00" overlapTraveltime="50.25" density="1.11" occupancy="0.55" waitingTime="0.00" speed="19.60" departed="0" arrived="0" entered="9" left="0" laneChangedFrom="0" laneChangedTo="0"/>
        <edge id="2/1to3/1" sampledSeconds="1053.00" traveltime="50.00" overlapTraveltime="50.25" density="17.91" occupancy="8.91" waitingTime="0.00" speed="19.60" departed="0" arrived="0" entered="21" left="21" laneChangedFrom="0" laneChangedTo="0"/>
        <edge id="3/1to4/1" sampledSeconds="1051.57" traveltime="50.00" overlapTraveltime="50.25" density="17.88" occupancy="8.90" waitingTime="0.00" speed="19.60" departed="0" arrived="0" entered="21" left="21" laneChangedFrom="0" laneChangedTo="0"/>
        <edge id="4/1to5/1" sampledSeconds="1125.68" traveltime="50.00" overlapTraveltime="50.25" density="19.15" occupancy="9.52" waitingTime="0.00" speed="19.60" departed="0" arrived="0" entered="21" left="27" laneChangedFrom="0" laneChangedTo="0"/>
        <edge id="5/1to6/1" sampledSeconds="1655.25" traveltime="50.00" overlapTraveltime="50.25" density="28.15" occupancy="14.01" waitingTime="0.00" speed="19.60" departed="0" arrived="0" entered="27" left="36" laneChangedFrom="0" laneChangedTo="0"/>
        <edge id="6/1to7/1" sampledSeconds="1822.89" traveltime="50.00" overlapTraveltime="50.25" density="31.00" occupancy="15.42" waitingTime="0.00" speed="19.60" departed="0" arrived="0" entered="36" left="37" laneChangedFrom="0" laneChangedTo="0"/>
        <edge id="7/1to8/1" sampledSeconds="1823.23" traveltime="50.00" overlapTraveltime="50.25" density="31.01" occupancy="15.43" waitingTime="0.00" speed="19.60" departed="0" arrived="0" entered="37" left="36" laneChangedFrom="0" laneChangedTo="0"/>
        <edge id="8/1to9/1" sampledSeconds="1817.78" traveltime="50.00" overlapTraveltime="50.25" density="30.92" occupancy="15.38" waitingTime="0.00" speed="19.60" departed="0" arrived="0" entered="36" left="36" laneChangedFrom="0" laneChangedTo="0"/>
        <edge id="9/1to10/1" sampledSeconds="1195.34" traveltime="50.00" overlapTraveltime="50.25" density="20.33" occupancy="10.12" waitingTime="0.00" speed="19.60" departed="0" arrived="0" entered="36" left="9" laneChangedFrom="0" laneChangedTo="0"/>
    </interval>
    <interval begin="420.00" end="480.00" id="dump_60">
        <edge id="1/1to2/1" sampledSeconds="1145.17" traveltime="54.54" overlapTraveltime="54.79" density="19.48" occupancy="9.58" waitingTime="21.00" speed="17.98" departed="21" arrived="0" entered="0" left="21" laneChangedFrom="0" laneChangedTo="0"/>
        <edge id="10/1to1/1" sampledSeconds="1615.89" traveltime="62.11" overlapTraveltime="62.43" density="27.48" occupancy="13.70" waitingTime="0.00" speed="15.78" departed="0" arrived="0" entered="36" left="0" laneChangedFrom="0" laneChangedTo="0"/>
        <edge id="2/1to3/1" sampledSeconds="1050.79" traveltime="50.00" overlapTraveltime="50.25" density="17.87" occupancy="8.89" waitingTime="0.00" speed="19.60" departed="0" arrived="0" entered="21" left="21" laneChangedFrom="0" laneChangedTo="0"/>
        <edge id="3/1to4/1" sampledSeconds="1053.04" traveltime="50.00" overlapTraveltime="50.25" density="17.91" occupancy="8.91" waitingTime="0.00" speed="19.60" departed="0" arrived="0" entered="21" left="21" laneChangedFrom="0" laneChangedTo="0"/>
        <edge id="4/1to5/1" sampledSeconds="1053.00" traveltime="50.00" overlapTraveltime="50.25" density="17.91" occupancy="8.91" waitingTime="0.00" speed="19.60" departed="0" arrived="0" entered="21" left="21" laneChangedFrom="0" laneChangedTo="0"/>
        <edge id="5/1to6/1" sampledSeconds="1076.87" traveltime="50.00" overlapTraveltime="50.25" density="18.32" occupancy="9.11" waitingTime="0.00" speed="19.60" departed="0" arrived="0" entered="21" left="25" laneChangedFrom="0" laneChangedTo="0"/>
        <edge id="6/1to7/1" sampledSeconds="1552.07" traveltime="50.00" overlapTraveltime="50.25" density="26.40" occupancy="13.13" waitingTime="0.00" speed="19.60" departed="0" arrived="0" entered="24" left="36" laneChangedFrom="0" laneChangedTo="0"/>
        <edge id="7/1to8/1" sampledSeconds="1822.89" traveltime="50.00" overlapTraveltime="50.25" density="31.00" occupancy="15.42" waitingTime="0.00" speed="19.60" departed="0" arrived="0" entered="36" left="37" laneChangedFrom="0" laneChangedTo="0"/>
        <edge id="8/1to9/1" sampledSeconds="1822.86" traveltime="50.00" overlapTraveltime="50.25" density="31.00" occupancy="15.42" waitingTime="0.00" speed="19.60" departed="0" arrived="0" entered="37" left="36" laneChangedFrom="0" laneChangedTo="0"/>
        <edge id="9/1to10/1" sampledSeconds="1818.85" traveltime="50.00" overlapTraveltime="50.25" density="30.93" occupancy="15.39" waitingTime="0.00" speed="19.60" departed="0" arrived="0" entered="36" left="36" laneChangedFrom="0" laneChangedTo="0"/>
    </interval>
    <interval begin="480.00" end="540.00" id="dump_60">
        <edge id="1/1to2/1" sampledSeconds="1180.43" traveltime="54.09" overlapTraveltime="54.34" density="20.08" occupancy="9.89" waitingTime="13.00" speed="18.12" departed="17" arrived="0" entered="5" left="20" laneChangedFrom="0" laneChangedTo="0"/>
        <edge id="10/1to1/1" sampledSeconds="3621.56" traveltime="165.96" overlapTraveltime="166.83" density="61.59" occupancy="30.74" waitingTime="2.00" speed="5.90" departed="0" arrived="0" entered="35" left="5" laneChangedFrom="0" laneChangedTo="0"/>
        <edge id="2/1to3/1" sampledSeconds="1052.68" traveltime="50.00" overlapTraveltime="50.25" density="17.90" occupancy="8.91" waitingTime="0.00" speed="19.60" departed="0" arrived="0" entered="20" left="21" laneChangedFrom="0" laneChangedTo="0"/>
        <edge id="3/1to4/1" sampledSeconds="1052.30" traveltime="50.00" overlapTraveltime="50.25" density="17.90" occupancy="8.90" waitingTime="0.00" speed="19.60" departed="0" arrived="0" entered="21" left="21" laneChangedFrom="0" laneChangedTo="0"/>
        <edge id="4/1to5/1" sampledSeconds="1051.53" traveltime="50.00" overlapTraveltime="50.25" density="17.88" occupancy="8.90" waitingTime="0.00" speed="19.60" departed="0" arrived="0" entered="21" left="21" laneChangedFrom="0" laneChangedTo="0"/>
        <edge id="5/1to6/1" sampledSeconds="1053.00" traveltime="50.00" overlapTraveltime="50.25" density="17.91" occupancy="8.91" waitingTime="0.00" speed="19.60" departed="0" arrived="0" entered="21" left="21" laneChangedFrom="0" laneChangedTo="0"/>
        <edge id="6/1to7/1" sampledSeconds="1054.34" traveltime="50.00" overlapTraveltime="50.25" density="17.93" occupancy="8.92" waitingTime="0.00" speed="19.60" departed="0" arrived="0" entered="21" left="22" laneChangedFrom="0" laneChangedTo="0"/>
        <edge id="7/1to8/1" sampledSeconds="1427.76" traveltime="50.00" overlapTraveltime="50.25" density="24.28" occupancy="12.08" waitingTime="0.00" speed="19.60" departed="0" arrived="0" entered="22" left="34" laneChangedFrom="0" laneChangedTo="0"/>
        <edge id="8/1to9/1" sampledSeconds="1818.93" traveltime="50.00" overlapTraveltime="50.25" density="30.94" occupancy="15.39" waitingTime="0.00" speed="19.60" departed="0" arrived="0" entered="34" left="37" laneChangedFrom="0" laneChangedTo="0"/>
        <edge id="9/1to10/1" sampledSeconds="1846.63" traveltime="50.86" overlapTraveltime="51.13" density="31.41" occupancy="15.62" waitingTime="0.00" speed="19.26" departed="0" arrived="0" entered="37" left="35" laneChangedFrom="0" laneChangedTo="0"/>
    </interval>
    <interval begin="540.00" end="600.00" id="dump_60">
        <edge id="1/1to2/1" sampledSeconds="1191.41" traveltime="53.85" overlapTraveltime="54.10" density="20.26" occupancy="9.94" waitingTime="10.00" speed="18.21" departed="16" arrived="0" entered="6" left="23" laneChangedFrom="0" laneChangedTo="0"/>
        <edge id="10/1to1/1" sampledSeconds="5304.84" traveltime="533.94" overlapTraveltime="535.59" density="90.22" occupancy="45.02" waitingTime="0.00" speed="1.84" departed="0" arrived="0" entered="27" left="6" laneChangedFrom="0" laneChangedTo="0"/>
        <edge id="2/1to3/1" sampledSeconds="1109.19" traveltime="50.00" overlapTraveltime="50.25" density="18.86" occupancy="9.38" waitingTime="0.00" speed="19.60" departed="0" arrived="0" entered="23" left="21" laneChangedFrom="0" laneChangedTo="0"/>
        <edge id="3/1to4/1" sampledSeconds="1053.88" traveltime="50.00" overlapTraveltime="50.25" density="17.92" occupancy="8.92" waitingTime="0.00" speed="19.60" departed="0" arrived="0" entered="21" left="21" laneChangedFrom="0" laneChangedTo="0"/>
        <edge id="4/1to5/1" sampledSeconds="1051.53" traveltime="50.00" overlapTraveltime="50.25" density="17.88" occupancy="8.90" waitingTime="0.00" speed="19.60" departed="0" arrived="0" entered="21" left="21" laneChangedFrom="0" laneChangedTo="0"/>
        <edge id="5/1to6/1" sampledSeconds="1052.26" traveltime="50.00" overlapTraveltime="50.25" density="17.90" occupancy="8.90" waitingTime="0.00" speed="19.60" departed="0" arrived="0" entered="21" left="20" laneChangedFrom="0" laneChangedTo="0"/>
        <edge id="6/1to7/1" sampledSeconds="1053.04" traveltime="50.00" overlapTraveltime="50.25" density="17.91" occupancy="8.91" waitingTime="0.00" speed="19.60" departed="0" arrived="0" entered="21" left="21" laneChangedFrom="0" laneChangedTo="0"/>
        <edge id="7/1to8/1" sampledSeconds="1051.53" traveltime="50.00" overlapTraveltime="50.25" density="17.88" occupancy="8.90" waitingTime="0.00" speed="19.60" departed="0" arrived="0" entered="21" left="21" laneChangedFrom="0" laneChangedTo="0"/>
        <edge id="8/1to9/1" sampledSeconds="1305.38" traveltime="50.00" overlapTraveltime="50.25" density="22.20" occupancy="11.04" waitingTime="0.00" speed="19.60" departed="0" arrived="0" entered="21" left="32" laneChangedFrom="0" laneChangedTo="0"/>
        <edge id="9/1to10/1" sampledSeconds="1979.30" traveltime="56.79" overlapTraveltime="57.31" density="33.66" occupancy="16.73" waitingTime="0.00" speed="17.18" departed="0" arrived="0" entered="32" left="27" laneChangedFrom="0" laneChangedTo="0"/>
    </interval>
    <interval begin="600.00" end="660.00" id="dump_60">
        <edge id="1/1to2/1" sampledSeconds="1181.23" traveltime="53.90" overlapTraveltime="54.16" density="20.09" occupancy="9.86" waitingTime="11.00" speed="18.19" departed="17" arrived="0" entered="5" left="22" laneChangedFrom="0" laneChangedTo="0"/>
        <edge id="10/1to1/1" sampledSeconds="5843.67" traveltime="1023.88" overlapTraveltime="1025.35" density="99.39" occupancy="49.55" waitingTime="0.00" speed="0.96" departed="0" arrived="0" entered="7" left="5" laneChangedFrom="0" laneChangedTo="0"/>
        <edge id="2/1to3/1" sampledSeconds="1101.45" traveltime="50.00" overlapTraveltime="50.25" density="18.73" occupancy="9.32" waitingTime="0.00" speed="19.60" departed="0" arrived="0" entered="22" left="23" laneChangedFrom="0" laneChangedTo="0"/>
        <edge id="3/1to4/1" sampledSeconds="1119.68" traveltime="50.00" overlapTraveltime="50.25" density="19.04" occupancy="9.47" waitingTime="0.00" speed="19.60" departed="0" arrived="0" entered="23" left="21" laneChangedFrom="0" laneChangedTo="0"/>
        <edge id="4/1to5/1" sampledSeconds="1057.83" traveltime="50.00" overlapTraveltime="50.25" density="17.99" occupancy="8.95" waitingTime="0.00" speed="19.60" departed="0" arrived="0" entered="21" left="21" laneChangedFrom="0" laneChangedTo="0"/>
        <edge id="5/1to6/1" sampledSeconds="1052.26" traveltime="50.00" overlapTraveltime="50.25" density="17.90" occupancy="8.90" waitingTime="0.00" speed="19.60" departed="0" arrived="0" entered="21" left="21" laneChangedFrom="0" laneChangedTo="0"/>
        <edge id="6/1to7/1" sampledSeconds="1051.57" traveltime="50.00" overlapTraveltime="50.25" density="17.88" occupancy="8.90" waitingTime="0.00" speed="19.60" departed="0" arrived="0" entered="21" left="21" laneChangedFrom="0" laneChangedTo="0"/>
        <edge id="7/1to8/1" sampledSeconds="1053.00" traveltime="50.00" overlapTraveltime="50.25" density="17.91" occupancy="8.91" waitingTime="0.00" speed="19.60" departed="0" arrived="0" entered="21" left="21" laneChangedFrom="0" laneChangedTo="0"/>
        <edge id="8/1to9/1" sampledSeconds="1052.31" traveltime="50.00" overlapTraveltime="50.25" density="17.90" occupancy="8.90" waitingTime="0.00" speed="19.60" departed="0" arrived="0" entered="21" left="21" laneChangedFrom="0" laneChangedTo="0"/>
        <edge id="9/1to10/1" sampledSeconds="2624.82" traveltime="148.89" overlapTraveltime="150.94" density="44.64" occupancy="22.18" waitingTime="0.00" speed="6.53" departed="0" arrived="0" entered="21" left="7" laneChangedFrom="0" laneChangedTo="0"/>
    </interval>
    <interval begin="660.00" end="720.00" id="dump_60">
        <edge id="1/1to2/1" sampledSeconds="1178.99" traveltime="53.90" overlapTraveltime="54.15" density="20.05" occupancy="9.86" waitingTime="11.00" speed="18.19" departed="16" arrived="0" entered="6" left="22" laneChangedFrom="0" laneChangedTo="0"/>
        <edge id="10/1to1/1" sampledSeconds="5881.48" traveltime="1073.61" overlapTraveltime="1074.14" density="100.03" occupancy="49.87" waitingTime="0.00" speed="0.92" departed="0" arrived="0" entered="6" left="6" laneChangedFrom="0" laneChangedTo="0"/>
        <edge id="2/1to3/1" sampledSeconds="1097.26" traveltime="50.00" overlapTraveltime="50.25" density="18.66" occupancy="9.28" waitingTime="0.00" speed="19.60" departed="0" arrived="0" entered="22" left="21" laneChangedFrom="0" laneChangedTo="0"/>
        <edge id="3/1to4/1" sampledSeconds="1095.95" traveltime="50.00" overlapTraveltime="50.25" density="18.64" occupancy="9.27" waitingTime="0.00" speed="19.60" departed="0" arrived="0" entered="21" left="22" laneChangedFrom="0" laneChangedTo="0"/>
        <edge id="4/1to5/1" sampledSeconds="1124.29" traveltime="50.00" overlapTraveltime="50.25" density="19.12" occupancy="9.51" waitingTime="0.00" speed="19.60" departed="0" arrived="0" entered="22" left="22" laneChangedFrom="0" laneChangedTo="0"/>
        <edge id="5/1to6/1" sampledSeconds="1068.10" traveltime="50.00" overlapTraveltime="50.25" density="18.17" occupancy="9.04" waitingTime="0.00" speed="19.60" departed="0" arrived="0" entered="22" left="21" laneChangedFrom="0" laneChangedTo="0"/>
        <edge id="6/1to7/1" sampledSeconds="1051.57" traveltime="50.00" overlapTraveltime="50.25" density="17.88" occupancy="8.90" waitingTime="0.00" speed="19.60" departed="0" arrived="0" entered="21" left="21" laneChangedFrom="0" laneChangedTo="0"/>
        <edge id="7/1to8/1" sampledSeconds="1052.26" traveltime="50.00" overlapTraveltime="50.25" density="17.90" occupancy="8.90" waitingTime="0.00" speed="19.60" departed="0" arrived="0" entered="21" left="21" laneChangedFrom="0" laneChangedTo="0"/>
        <edge id="8/1to9/1" sampledSeconds="1053.04" traveltime="50.00" overlapTraveltime="50.25" density="17.91" occupancy="8.91" waitingTime="0.00" speed="19.60" departed="0" arrived="0" entered="21" left="21" laneChangedFrom="0" laneChangedTo="0"/>
        <edge id="9/1to10/1" sampledSeconds="3518.21" traveltime="264.78" overlapTraveltime="267.98" density="59.84" occupancy="29.76" waitingTime="0.00" speed="3.68" departed="0" arrived="0" entered="21" left="6" laneChangedFrom="0" laneChangedTo="0"/>
    </interval>
    <interval begin="720.00" end="780.00" id="dump_60">
        <edge id="1/1to2/1" sampledSeconds="1181.59" traveltime="53.95" overlapTraveltime="54.20" density="20.10" occupancy="9.88" waitingTime="11.00" speed="18.17" departed="16" arrived="0" entered="5" left="21" laneChangedFrom="0" laneChangedTo="0"/>
        <edge id="10/1to1/1" sampledSeconds="5882.31" traveltime="1075.13" overlapTraveltime="1076.48" density="100.05" occupancy="49.87" waitingTime="0.00" speed="0.91" departed="0" arrived="0" entered="5" left="5" laneChangedFrom="0" laneChangedTo="0"/>
        <edge id="2/1to3/1" sampledSeconds="1095.80" traveltime="50.00" overlapTraveltime="50.25" density="18.64" occupancy="9.27" waitingTime="0.00" speed="19.60" departed="0" arrived="0" entered="21" left="22" laneChangedFrom="0" laneChangedTo="0"/>
        <edge id="3/1to4/1" sampledSeconds="1097.10" traveltime="50.00" overlapTraveltime="50.25" density="18.66" occupancy="9.28" waitingTime="0.00" speed="19.60" departed="0" arrived="0" entered="22" left="22" laneChangedFrom="0" laneChangedTo="0"/>
        <edge id="4/1to5/1" sampledSeconds="1096.23" traveltime="50.00" overlapTraveltime="50.25" density="18.64" occupancy="9.27" waitingTime="0.00" speed="19.60" departed="0" arrived="0" entered="22" left="22" laneChangedFrom="0" laneChangedTo="0"/>
        <edge id="5/1to6/1" sampledSeconds="1120.19" traveltime="50.00" overlapTraveltime="50.25" density="19.05" occupancy="9.48" waitingTime="0.00" speed="19.60" departed="0" arrived="0" entered="22" left="22" laneChangedFrom="0" laneChangedTo="0"/>
        <edge id="6/1to7/1" sampledSeconds="1080.25" traveltime="50.00" overlapTraveltime="50.25" density="18.37" occupancy="9.14" waitingTime="0.00" speed="19.60" departed="0" arrived="0" entered="22" left="21" laneChangedFrom="0" laneChangedTo="0"/>
        <edge id="7/1to8/1" sampledSeconds="1053.00" traveltime="50.00" overlapTraveltime="50.25" density="17.91" occupancy="8.91" waitingTime="0.00" speed="19.60" departed="0" arrived="0" entered="21" left="21" laneChangedFrom="0" laneChangedTo="0"/>
        <edge id="8/1to9/1" sampledSeconds="1067.26" traveltime="50.84" overlapTraveltime="51.17" density="18.15" occupancy="9.02" waitingTime="0.00" speed="19.25" departed="0" arrived="0" entered="21" left="20" laneChangedFrom="0" laneChangedTo="0"/>
        <edge id="9/1to10/1" sampledSeconds="4429.85" traveltime="427.25" overlapTraveltime="431.17" density="75.34" occupancy="37.51" waitingTime="0.00" speed="2.28" departed="0" arrived="0" entered="20" left="5" laneChangedFrom="0" laneChangedTo="0"/>
    </interval>
    <interval begin="780.00" end="840.00" id="dump_60">
        <edge id="1/1to2/1" sampledSeconds="1179.01" traveltime="53.91" overlapTraveltime="54.16" density="20.05" occupancy="9.87" waitingTime="11.00" speed="18.18" departed="16" arrived="0" entered="6" left="22" laneChangedFrom="0" laneChangedTo="0"/>
        <edge id="10/1to1/1" sampledSeconds="5883.49" traveltime="1075.21" overlapTraveltime="1075.92" density="100.07" occupancy="49.89" waitingTime="0.00" speed="0.92" departed="0" arrived="0" entered="6" left="6" laneChangedFrom="0" laneChangedTo="0"/>
        <edge id="2/1to3/1" sampledSeconds="1097.10" traveltime="50.00" overlapTraveltime="50.25" density="18.66" occupancy="9.28" waitingTime="0.00" speed="19.60" departed="0" arrived="0" entered="22" left="22" laneChangedFrom="0" laneChangedTo="0"/>
        <edge id="3/1to4/1" sampledSeconds="1096.25" traveltime="50.00" overlapTraveltime="50.25" density="18.64" occupancy="9.27" waitingTime="0.00" speed="19.60" departed="0" arrived="0" entered="22" left="22" laneChangedFrom="0" laneChangedTo="0"/>
        <edge id="4/1to5/1" sampledSeconds="1096.98" traveltime="50.00" overlapTraveltime="50.25" density="18.66" occupancy="9.28" waitingTime="0.00" speed="19.60" departed="0" arrived="0" entered="22" left="22" laneChangedFrom="0" laneChangedTo="0"/>