<?xml version="1.0" encoding="UTF-8"?>

<!-- generated on Fri Nov 23 13:15:40 2018 by Eclipse SUMO Version v1_0_1+0645-93703db
<configuration xmlns:xsi="http://www.w3.org/2001/XMLSchema-instance" xsi:noNamespaceSchemaLocation="http://sumo.dlr.de/xsd/sumoConfiguration.xsd">

    <input>
        <net-file value="net.net.xml"/>
        <route-files value="input_trips.trips.xml"/>
    </input>

    <output>
        <vehroute-output value="vehroutes.xml"/>
        <vehroute-output.cost value="true"/>
    </output>

    <routing>
        <device.rerouting.period value="120"/>
        <device.rerouting.adaptation-steps value="60"/>
        <device.rerouting.adaptation-interval value="3"/>
    </routing>

    <report>
        <verbose value="true"/>
        <duration-log.statistics value="true"/>
        <no-step-log value="true"/>
    </report>

</configuration>
-->

<routes xmlns:xsi="http://www.w3.org/2001/XMLSchema-instance" xsi:noNamespaceSchemaLocation="http://sumo.dlr.de/xsd/routes_file.xsd">
    <vehicle id="6" depart="24.00" arrival="286.00">
        <routeDistribution>
            <route cost="0.00" savings="0.00" replacedOnEdge="" reason="device.rerouting" replacedAtTime="24.00" probability="0" edges="-2669 1623"/>
            <route cost="209.39" savings="0.00" edges="-2669 -1780 -1627 -814 -658 -278 -262 264 493 1338 1575 1623"/>
        </routeDistribution>
    </vehicle>

    <vehicle id="17" depart="68.00" arrival="346.00">
        <routeDistribution>
            <route cost="0.00" savings="0.00" replacedOnEdge="" reason="device.rerouting" replacedAtTime="68.00" probability="0" edges="-1892 2058"/>
            <route cost="159.44" savings="0.00" edges="-1892 -829 833 2386 -2370 1903 2058"/>
        </routeDistribution>
    </vehicle>

    <vehicle id="10" depart="40.00" arrival="359.00">
        <routeDistribution>
            <route cost="0.00" savings="0.00" replacedOnEdge="" reason="device.rerouting" replacedAtTime="40.00" probability="0" edges="-1784 2438"/>
            <route cost="176.83" savings="0.00" edges="-1784 1784 -1892 -829 833 2386 -2370 1903 2058 2438"/>
        </routeDistribution>
    </vehicle>

    <vehicle id="13" depart="52.00" arrival="362.00">
        <routeDistribution>
            <route cost="0.00" savings="0.00" replacedOnEdge="" reason="device.rerouting" replacedAtTime="52.00" probability="0" edges="-2440 1342"/>
            <route cost="233.75" savings="0.00" edges="-2440 -2438 -2058 2066 -2175 -1605 1611 -1613 -1575 -1314 1312 1342"/>
        </routeDistribution>
    </vehicle>

    <vehicle id="4" depart="16.00" arrival="363.00">
        <routeDistribution>
            <route cost="0.00" savings="0.00" replacedOnEdge="" reason="device.rerouting" replacedAtTime="16.00" probability="0" edges="-222 2438"/>
            <route cost="253.86" savings="0.00" edges="-222 222 240 254 278 652 662 833 2386 -2370 1903 2058 2438"/>
        </routeDistribution>
    </vehicle>

    <vehicle id="11" depart="44.00" arrival="390.00">
        <routeDistribution>
            <route cost="0.00" savings="0.00" replacedOnEdge="" reason="device.rerouting" replacedAtTime="44.00" probability="0" edges="-1780 -2440"/>
            <route cost="216.04" savings="0.00" edges="-1780 1784 -1892 -829 833 2386 -2370 1903 2072 -2440"/>
        </routeDistribution>
    </vehicle>

    <vehicle id="0" depart="0.00" arrival="396.00">
        <routeDistribution>
            <route cost="0.00" savings="0.00" replacedOnEdge="" reason="device.rerouting" replacedAtTime="0.00" probability="0" edges="1617 -1458"/>
            <route cost="286.44" savings="0.00" edges="1617 -1617 -1575 -1338 -493 -264 -250 -232 -222 36 1329 -1458"/>
        </routeDistribution>
    </vehicle>

    <vehicle id="2" depart="8.00" arrival="399.00">
        <routeDistribution>
            <route cost="0.00" savings="0.00" replacedOnEdge="" reason="device.rerouting" replacedAtTime="8.00" probability="0" edges="-21 1903"/>
            <route cost="241.68" savings="0.00" edges="-21 5 222 240 254 278 652 662 833 2386 -2370 1903"/>
        </routeDistribution>
    </vehicle>

    <vehicle id="18" depart="72.00" arrival="404.00">
        <routeDistribution>
            <route cost="0.00" savings="0.00" replacedOnEdge="" reason="device.rerouting" replacedAtTime="72.00" probability="0" edges="2450 2196"/>
            <route cost="247.42" savings="0.00" edges="2450 -2450 -2072 2066 -2175 -1605 1611 -1613 1623 1917 2196"/>
        </routeDistribution>
    </vehicle>

    <vehicle id="19" depart="76.00" arrival="414.00">
        <routeDistribution>
            <route cost="0.00" savings="0.00" replacedOnEdge="" reason="device.rerouting" replacedAtTime="76.00" probability="0" edges="-51 2427"/>
            <route cost="272.01" savings="0.00" replacedOnEdge="240" reason="device.rerouting" replacedAtTime="196.00" probability="0" edges="-51 -39 -9 5 222 240 254 278 652 662 833 1454 1586 2427"/>
            <route cost="160.36" savings="0.63" edges="-51 -39 -9 5 222 240 254 278 652 662 831 1579 1586 2427"/>
        </routeDistribution>
    </vehicle>

    <vehicle id="44" depart="176.00" arrival="423.00">
        <routeDistribution>
            <route cost="0.00" savings="0.00" replacedOnEdge="" reason="device.rerouting" replacedAtTime="176.00" probability="0" edges="-2194 1627"/>
            <route cost="200.96" savings="0.00" edges="-2194 -2187 2188 -1931 -1625 1312 -1316 -274 262 278 658 814 1627"/>
        </routeDistribution>
    </vehicle>

    <vehicle id="35" depart="140.00" arrival="434.00">
        <routeDistribution>
            <route cost="0.00" savings="0.00" replacedOnEdge="" reason="device.rerouting" replacedAtTime="140.00" probability="0" edges="-814 320"/>
            <route cost="194.17" savings="0.00" edges="-814 -658 -278 -254 -240 -228 -197 205 320"/>
        </routeDistribution>
    </vehicle>

    <vehicle id="30" depart="120.00" arrival="444.00">
        <routeDistribution>
            <route cost="0.00" savings="0.00" replacedOnEdge="" reason="device.rerouting" replacedAtTime="120.00" probability="0" edges="-1329 2454"/>
            <route cost="237.47" savings="0.00" edges="-1329 -36 222 240 254 278 652 662 833 2386 2411 2454"/>
        </routeDistribution>
    </vehicle>

    <vehicle id="22" depart="88.00" arrival="447.00">
        <routeDistribution>
            <route cost="0.00" savings="0.00" replacedOnEdge="" reason="device.rerouting" replacedAtTime="88.00" probability="0" edges="212 2472"/>
            <route cost="250.67" savings="0.00" edges="212 -205 197 228 240 254 278 658 814 1627 1782 2472"/>
        </routeDistribution>
    </vehicle>

    <vehicle id="62" depart="248.00" arrival="447.00">
        <routeDistribution>
            <route cost="0.00" savings="0.00" replacedOnEdge="" reason="device.rerouting" replacedAtTime="248.00" probability="0" edges="-1892 1617"/>
            <route cost="188.66" savings="0.00" edges="-1892 -664 -540 301 493 1338 1575 1617"/>
        </routeDistribution>
    </vehicle>

    <vehicle id="16" depart="64.00" arrival="456.00">
        <routeDistribution>
            <route cost="0.00" savings="0.00" replacedOnEdge="" reason="device.rerouting" replacedAtTime="64.00" probability="0" edges="-2472 -2405"/>
            <route cost="246.25" savings="0.00" edges="-2472 -1782 1784 -1892 -829 833 2386 -2370 2319 2321 2365 -2405"/>
        </routeDistribution>
    </vehicle>

    <vehicle id="56" depart="224.00" arrival="457.00">
        <routeDistribution>
            <route cost="0.00" savings="0.00" replacedOnEdge="" reason="device.rerouting" replacedAtTime="224.00" probability="0" edges="1458 664"/>
            <route cost="220.56" savings="0.00" edges="1458 1466 2403 2436 -1941 -828 -658 652 664"/>
        </routeDistribution>
    </vehicle>

    <vehicle id="3" depart="12.00" arrival="464.00">
        <routeDistribution>
            <route cost="0.00" savings="0.00" replacedOnEdge="" reason="device.rerouting" replacedAtTime="12.00" probability="0" edges="-1586 -320"/>
            <route cost="294.22" savings="0.00" edges="-1586 -1579 -831 -662 -652 -278 -254 -240 -228 -197 205 320 -320"/>
        </routeDistribution>
    </vehicle>

    <vehicle id="52" depart="208.00" arrival="469.00">
        <routeDistribution>
            <route cost="0.00" savings="0.00" replacedOnEdge="" reason="device.rerouting" replacedAtTime="208.00" probability="0" edges="-1941 -2588"/>
            <route cost="215.88" savings="0.00" edges="-1941 -828 -658 652 662 833 2386 2411 2454 -2588"/>
        </routeDistribution>
    </vehicle>

    <vehicle id="1" depart="4.00" arrival="471.00">
        <routeDistribution>
            <route cost="0.00" savings="0.00" replacedOnEdge="" reason="device.rerouting" replacedAtTime="4.00" probability="0" edges="-2614 951"/>
            <route cost="334.86" savings="0.00" edges="-2614 2588 -2454 -2411 -2386 -833 -662 -652 -278 -254 -240 -222 -5 9 802 951"/>
        </routeDistribution>
    </vehicle>

    <vehicle id="21" depart="84.00" arrival="474.00">
        <routeDistribution>
            <route cost="0.00" savings="0.00" replacedOnEdge="" reason="device.rerouting" replacedAtTime="84.00" probability="0" edges="240 -2440"/>
            <route cost="249.42" savings="0.00" edges="240 254 278 652 662 833 2386 -2370 1903 2072 -2440"/>
        </routeDistribution>
    </vehicle>

    <vehicle id="28" depart="112.00" arrival="480.00">
        <routeDistribution>
            <route cost="0.00" savings="0.00" replacedOnEdge="" reason="device.rerouting" replacedAtTime="112.00" probability="0" edges="1579 214"/>
            <route cost="258.17" savings="0.00" edges="1579 -1454 -833 -662 -652 -278 -254 -240 -228 -215 214"/>
        </routeDistribution>
    </vehicle>

    <vehicle id="37" depart="148.00" arrival="487.00">
        <routeDistribution>
            <route cost="0.00" savings="0.00" replacedOnEdge="" reason="device.rerouting" replacedAtTime="148.00" probability="0" edges="-67 -2183"/>
            <route cost="240.74" savings="0.00" edges="-67 -3 5 222 240 254 278 652 662 833 2386 -2370 2319 -2183"/>
        </routeDistribution>
    </vehicle>

    <vehicle id="29" depart="116.00" arrival="487.00">
        <routeDistribution>
            <route cost="0.00" savings="0.00" replacedOnEdge="" reason="device.rerouting" replacedAtTime="116.00" probability="0" edges="-339 2386"/>
            <route cost="283.75" savings="0.00" edges="-339 -320 -205 197 228 240 254 278 652 662 833 2386"/>
        </routeDistribution>
    </vehicle>

    <vehicle id="68" depart="272.00" arrival="493.00">
        <routeDistribution>
            <route cost="0.00" savings="0.00" replacedOnEdge="" reason="device.rerouting" replacedAtTime="272.00" probability="0" edges="-2192 -658"/>
            <route cost="191.06" savings="0.00" edges="-2192 -2187 2188 -1931 -1625 1312 -1316 -274 262 278 658 -658"/>
        </routeDistribution>
    </vehicle>

    <vehicle id="31" depart="124.00" arrival="518.00">
        <routeDistribution>
            <route cost="0.00" savings="0.00" replacedOnEdge="" reason="device.rerouting" replacedAtTime="124.00" probability="0" edges="-1617 -47"/>
            <route cost="252.61" savings="0.00" replacedOnEdge="-5" reason="device.rerouting" replacedAtTime="364.00" probability="0" edges="-1617 -1575 -1338 -493 -264 -250 -232 -222 -5 9 39 47 -47"/>
            <route cost="77.09" savings="1.11" edges="-1617 -1575 -1338 -493 -264 -250 -232 -222 -5 3 -45 47 -47"/>
        </routeDistribution>
    </vehicle>

    <vehicle id="33" depart="132.00" arrival="521.00">
        <routeDistribution>
            <route cost="0.00" savings="0.00" replacedOnEdge="" reason="device.rerouting" replacedAtTime="132.00" probability="0" edges="-2322 2442"/>
            <route cost="285.07" savings="0.00" edges="-2322 2322 -2196 -1917 -1623 1613 -1611 1605 2175 -2066 2058 2438 2442"/>
        </routeDistribution>
    </vehicle>

    <vehicle id="27" depart="108.00" arrival="527.00">
        <routeDistribution>
            <route cost="0.00" savings="0.00" replacedOnEdge="" reason="device.rerouting" replacedAtTime="108.00" probability="0" edges="664 330"/>
            <route cost="247.56" savings="0.00" edges="664 -664 -652 -278 -254 -240 -222 -5 9 39 51 330"/>
        </routeDistribution>
    </vehicle>

    <vehicle id="36" depart="144.00" arrival="527.00">
        <routeDistribution>
            <route cost="0.00" savings="0.00" replacedOnEdge="" reason="device.rerouting" replacedAtTime="144.00" probability="0" edges="-1887 330"/>
            <route cost="221.15" savings="0.00" edges="-1887 1941 -2436 -2403 -1466 -1329 55 -47 51 330"/>
        </routeDistribution>
    </vehicle>

    <vehicle id="42" depart="168.00" arrival="534.00">
        <routeDistribution>
            <route cost="0.00" savings="0.00" replacedOnEdge="" reason="device.rerouting" replacedAtTime="168.00" probability="0" edges="-1579 333"/>
            <route cost="270.11" savings="0.00" edges="-1579 -831 -662 -652 -278 -254 -240 -228 -197 205 320 333"/>
        </routeDistribution>
    </vehicle>

    <vehicle id="73" depart="292.00" arrival="543.00">
        <routeDistribution>
            <route cost="0.00" savings="0.00" replacedOnEdge="" reason="device.rerouting" replacedAtTime="292.00" probability="0" edges="1935 1667"/>
            <route cost="210.50" savings="0.00" edges="1935 -814 -658 -278 -262 264 493 1338 1575 1617 1667"/>
        </routeDistribution>
    </vehicle>

    <vehicle id="5" depart="20.00" arrival="543.00">
        <routeDistribution>
            <route cost="0.00" savings="0.00" replacedOnEdge="" reason="device.rerouting" replacedAtTime="20.00" probability="0" edges="212 2405"/>
            <route cost="405.08" savings="0.00" edges="212 -205 197 228 240 254 278 652 662 833 2386 -2370 1903 2058 2405"/>
        </routeDistribution>
    </vehicle>

    <vehicle id="15" depart="60.00" arrival="547.00">
        <routeDistribution>
            <route cost="0.00" savings="0.00" replacedOnEdge="" reason="device.rerouting" replacedAtTime="60.00" probability="0" edges="-39 2588"/>
            <route cost="329.97" savings="0.00" edges="-39 -9 5 222 240 254 278 652 662 833 2386 2411 2454 -2588 2588"/>
        </routeDistribution>
    </vehicle>

    <vehicle id="41" depart="164.00" arrival="549.00">
        <routeDistribution>
            <route cost="0.00" savings="0.00" replacedOnEdge="" reason="device.rerouting" replacedAtTime="164.00" probability="0" edges="-2691 1342"/>
            <route cost="287.93" savings="0.00" edges="-2691 -2614 -2450 -2072 2066 -2175 -1605 1611 -1613 -1575 -1314 1312 1342"/>
        </routeDistribution>
    </vehicle>

    <vehicle id="43" depart="172.00" arrival="550.00">
        <routeDistribution>
            <route cost="0.00" savings="0.00" replacedOnEdge="" reason="device.rerouting" replacedAtTime="172.00" probability="0" edges="-1649 -36"/>
            <route cost="266.71" savings="0.00" replacedOnEdge="-1575" reason="device.rerouting" replacedAtTime="292.00" probability="0" edges="-1649 -1613 -1575 -1338 -493 -264 -250 -232 -222 36 -36"/>
            <route cost="227.71" savings="6.51" edges="-1649 -1613 -1575 -1338 -469 -448 -274 -250 -232 -222 36 -36"/>
        </routeDistribution>
    </vehicle>

    <vehicle id="12" depart="48.00" arrival="553.00">
        <routeDistribution>
            <route cost="0.00" savings="0.00" replacedOnEdge="" reason="device.rerouting" replacedAtTime="48.00" probability="0" edges="-2688 2436"/>
            <route cost="294.03" savings="0.00" edges="-2688 -2442 -2438 -2058 -1903 2370 -2386 -833 -662 -652 658 828 1941 -2436 2436"/>
        </routeDistribution>
    </vehicle>

    <vehicle id="32" depart="128.00" arrival="555.00">
        <routeDistribution>
            <route cost="0.00" savings="0.00" replacedOnEdge="" reason="device.rerouting" replacedAtTime="128.00" probability="0" edges="2326 -2436"/>
            <route cost="264.81" savings="0.00" replacedOnEdge="-1917" reason="device.rerouting" replacedAtTime="248.00" probability="0" edges="2326 -2194 -1917 -1623 -1575 -1338 -493 -264 262 278 658 828 1941 -2436"/>
            <route cost="268.36" savings="0.88" edges="2326 -2194 -1917 1915 2188 -1931 -1625 1312 -1316 -274 262 278 658 828 1941 -2436"/>
        </routeDistribution>
    </vehicle>

    <vehicle id="50" depart="200.00" arrival="570.00">
        <routeDistribution>
            <route cost="0.00" savings="0.00" replacedOnEdge="" reason="device.rerouting" replacedAtTime="200.00" probability="0" edges="-831 -2326"/>
            <route cost="228.38" savings="0.00" edges="-831 833 1320 -1309 1338 1575 1623 1917 2194 -2326"/>
        </routeDistribution>
    </vehicle>

    <vehicle id="23" depart="92.00" arrival="571.00">
        <routeDistribution>
            <route cost="0.00" savings="0.00" replacedOnEdge="" reason="device.rerouting" replacedAtTime="92.00" probability="0" edges="-2403 -2440"/>
            <route cost="338.78" savings="0.00" edges="-2403 2403 2436 -1941 -828 -658 652 662 833 2386 -2370 1903 2072 -2440"/>
        </routeDistribution>
    </vehicle>

    <vehicle id="55" depart="220.00" arrival="573.00">
        <routeDistribution>
            <route cost="0.00" savings="0.00" replacedOnEdge="" reason="device.rerouting" replacedAtTime="220.00" probability="0" edges="2440 2342"/>
            <route cost="259.56" savings="0.00" replacedOnEdge="-2175" reason="device.rerouting" replacedAtTime="340.00" probability="0" edges="2440 -2072 2066 -2175 -1605 1611 -1613 1623 1917 2196 2342"/>
            <route cost="201.62" savings="1.89" edges="2440 -2072 2066 -2175 -1605 1611 -1613 1623 1915 2188 -2342 2342"/>
        </routeDistribution>
    </vehicle>

    <vehicle id="9" depart="36.00" arrival="576.00">
        <routeDistribution>
            <route cost="0.00" savings="0.00" replacedOnEdge="" reason="device.rerouting" replacedAtTime="36.00" probability="0" edges="-2335 1468"/>
            <route cost="316.06" savings="0.00" edges="-2335 -2194 -1917 -1623 -1575 -1338 -493 -264 -250 -232 -222 36 1329 1468"/>
        </routeDistribution>
    </vehicle>

    <vehicle id="34" depart="136.00" arrival="584.00">
        <routeDistribution>
            <route cost="0.00" savings="0.00" replacedOnEdge="" reason="device.rerouting" replacedAtTime="136.00" probability="0" edges="2614 -222"/>
            <route cost="287.99" savings="0.00" replacedOnEdge="2588" reason="device.rerouting" replacedAtTime="256.00" probability="0" edges="2614 -2614 2588 -2454 -2411 -2386 -833 -662 -652 -278 -254 -240 -222"/>
            <route cost="247.39" savings="0.22" replacedOnEdge="-662" reason="device.rerouting" replacedAtTime="376.00" probability="0" edges="2614 -2614 2588 -2454 -2411 -2386 -833 -662 -540 301 -264 -250 -232 -222"/>
            <route cost="135.27" savings="5.75" edges="2614 -2614 2588 -2454 -2411 -2386 -833 -662 -540 -290 -254 -240 -222"/>
        </routeDistribution>
    </vehicle>

    <vehicle id="8" depart="32.00" arrival="593.00">
        <routeDistribution>
            <route cost="0.00" savings="0.00" replacedOnEdge="" reason="device.rerouting" replacedAtTime="32.00" probability="0" edges="214 -2614"/>
            <route cost="411.99" savings="0.00" edges="214 -205 197 228 240 254 278 652 662 833 2386 2411 2454 -2588 2614 -2614"/>
        </routeDistribution>
    </vehicle>

    <vehicle id="57" depart="228.00" arrival="597.00">
        <routeDistribution>
            <route cost="0.00" savings="0.00" replacedOnEdge="" reason="device.rerouting" replacedAtTime="228.00" probability="0" edges="2066 222"/>
            <route cost="248.50" savings="0.00" replacedOnEdge="-833" reason="device.rerouting" replacedAtTime="348.00" probability="0" edges="2066 -2321 -2319 2370 -2386 -833 -662 -652 -278 -254 -240 -222 222"/>
            <route cost="161.93" savings="3.60" edges="2066 -2321 -2319 2370 -2386 -833 -662 -540 -290 -254 -240 -222 222"/>
        </routeDistribution>
    </vehicle>

    <vehicle id="40" depart="160.00" arrival="599.00">
        <routeDistribution>
            <route cost="0.00" savings="0.00" replacedOnEdge="" reason="device.rerouting" replacedAtTime="160.00" probability="0" edges="-1090 -2066"/>
            <route cost="298.19" savings="0.00" edges="-1090 -951 -802 -9 5 222 240 254 278 652 662 833 2386 -2370 2319 2321 -2066"/>
        </routeDistribution>
    </vehicle>

    <vehicle id="60" depart="240.00" arrival="602.00">
        <routeDistribution>
            <route cost="0.00" savings="0.00" replacedOnEdge="" reason="device.rerouting" replacedAtTime="240.00" probability="0" edges="-2196 1780"/>
            <route cost="246.10" savings="0.00" edges="-2196 -2187 2188 -1931 -1625 1312 -1316 -274 262 278 658 814 1627 1780"/>
        </routeDistribution>
    </vehicle>

    <vehicle id="14" depart="56.00" arrival="610.00">
        <routeDistribution>
            <route cost="0.00" savings="0.00" replacedOnEdge="" reason="device.rerouting" replacedAtTime="56.00" probability="0" edges="-792 2411"/>
            <route cost="288.36" savings="0.00" replacedOnEdge="-51" reason="device.rerouting" replacedAtTime="176.00" probability="0" edges="-792 -51 -39 -9 5 222 240 254 278 652 662 833 2386 2411"/>
            <route cost="281.36" savings="1.99" edges="-792 -51 45 -3 5 222 232 250 264 -301 540 662 833 2386 2411"/>
        </routeDistribution>
    </vehicle>

    <vehicle id="76" depart="304.00" arrival="614.00">
        <routeDistribution>
            <route cost="0.00" savings="0.00" replacedOnEdge="" reason="device.rerouting" replacedAtTime="304.00" probability="0" edges="-1941 -2321"/>
            <route cost="241.87" savings="0.00" edges="-1941 -828 -658 652 662 833 2386 -2370 2319 2321 -2321"/>
        </routeDistribution>
    </vehicle>

    <vehicle id="7" depart="28.00" arrival="617.00">
        <routeDistribution>
            <route cost="0.00" savings="0.00" replacedOnEdge="" reason="device.rerouting" replacedAtTime="28.00" probability="0" edges="792 2058"/>
            <route cost="400.99" savings="0.00" edges="792 -792 -51 -39 -9 5 222 240 254 278 652 662 833 2386 -2370 1903 2058"/>
        </routeDistribution>
    </vehicle>

    <vehicle id="53" depart="213.00" arrival="618.00">
        <routeDistribution>
            <route cost="0.00" savings="0.00" replacedOnEdge="" reason="device.rerouting" replacedAtTime="212.00" probability="0" edges="-1613 -55"/>
            <route cost="260.98" savings="0.00" replacedOnEdge="-5" reason="device.rerouting" replacedAtTime="453.00" probability="0" edges="-1613 -1575 -1338 -493 -264 -250 -232 -222 -5 9 39 47 -55"/>
            <route cost="97.69" savings="1.66" edges="-1613 -1575 -1338 -493 -264 -250 -232 -222 -5 3 -45 47 -55"/>
        </routeDistribution>
    </vehicle>

    <vehicle id="47" depart="188.00" arrival="618.00">
        <routeDistribution>
            <route cost="0.00" savings="0.00" replacedOnEdge="" reason="device.rerouting" replacedAtTime="188.00" probability="0" edges="2472 2442"/>
            <route cost="267.77" savings="0.00" edges="2472 -2472 -1782 1784 -1892 -829 833 2386 -2370 1903 2058 2438 2442"/>
        </routeDistribution>
    </vehicle>

    <vehicle id="77" depart="308.00" arrival="622.00">
        <routeDistribution>
            <route cost="0.00" savings="0.00" replacedOnEdge="" reason="device.rerouting" replacedAtTime="308.00" probability="0" edges="2405 1627"/>
            <route cost="208.90" savings="0.00" edges="2405 -2365 -2321 -2319 2370 -2386 -833 829 1892 1935 1627"/>
        </routeDistribution>
    </vehicle>

    <vehicle id="24" depart="96.00" arrival="625.00">
        <routeDistribution>
            <route cost="0.00" savings="0.00" replacedOnEdge="" reason="device.rerouting" replacedAtTime="96.00" probability="0" edges="2408 3"/>
            <route cost="327.50" savings="0.00" edges="2408 -2438 -2058 -1903 2370 -2386 -833 -662 -652 -278 -254 -240 -222 -5 3"/>
        </routeDistribution>
    </vehicle>

    <vehicle id="88" depart="352.00" arrival="625.00">
        <routeDistribution>
            <route cost="0.00" savings="0.00" replacedOnEdge="" reason="device.rerouting" replacedAtTime="352.00" probability="0" edges="-1935 2405"/>
            <route cost="206.64" savings="0.00" edges="-1935 -1892 -829 833 2386 -2370 1903 2058 2405"/>
        </routeDistribution>
    </vehicle>

    <vehicle id="20" depart="80.00" arrival="625.00">
        <routeDistribution>
            <route cost="0.00" savings="0.00" replacedOnEdge="" reason="device.rerouting" replacedAtTime="80.00" probability="0" edges="-2656 333"/>
            <route cost="344.56" savings="0.00" replacedOnEdge="-652" reason="device.rerouting" replacedAtTime="320.00" probability="0" edges="-2656 2588 -2454 -2411 -2386 -833 -662 -652 -278 -254 -240 -228 -197 205 320 333"/>
            <route cost="235.55" savings="3.58" replacedOnEdge="-254" reason="device.rerouting" replacedAtTime="440.00" probability="0" edges="-2656 2588 -2454 -2411 -2386 -833 -662 -652 -278 -254 -240 -222 -5 9 189 205 320 333"/>
            <route cost="164.24" savings="0.32" edges="-2656 2588 -2454 -2411 -2386 -833 -662 -652 -278 -254 -240 -222 -5 3 -45 51 330 333"/>
        </routeDistribution>
    </vehicle>

    <vehicle id="71" depart="284.00" arrival="632.00">
        <routeDistribution>
            <route cost="0.00" savings="0.00" replacedOnEdge="" reason="device.rerouting" replacedAtTime="284.00" probability="0" edges="-2194 2688"/>
            <route cost="235.84" savings="0.00" edges="-2194 -1917 -1623 1613 -1611 1605 2175 -2066 2058 2438 2442 2688"/>
        </routeDistribution>
    </vehicle>

    <vehicle id="90" depart="360.00" arrival="636.00">
        <routeDistribution>
            <route cost="0.00" savings="0.00" replacedOnEdge="" reason="device.rerouting" replacedAtTime="360.00" probability="0" edges="2194 1935"/>
            <route cost="225.09" savings="0.00" edges="2194 -2194 -2187 2188 -1931 -1625 1312 -1316 -274 262 278 658 814 -1935 1935"/>
        </routeDistribution>
    </vehicle>

    <vehicle id="103" depart="412.00" arrival="638.00">
        <routeDistribution>
            <route cost="0.00" savings="0.00" replacedOnEdge="" reason="device.rerouting" replacedAtTime="412.00" probability="0" edges="-1649 -222"/>
            <route cost="224.04" savings="0.00" edges="-1649 -1613 -1575 -1338 -493 -264 -250 -232 -222"/>
        </routeDistribution>
    </vehicle>

    <vehicle id="49" depart="196.00" arrival="651.00">
        <routeDistribution>
            <route cost="0.00" savings="0.00" replacedOnEdge="" reason="device.rerouting" replacedAtTime="196.00" probability="0" edges="1623 1458"/>
            <route cost="338.48" savings="0.00" replacedOnEdge="-232" reason="device.rerouting" replacedAtTime="436.00" probability="0" edges="1623 -1623 -1575 -1338 -493 -264 -250 -232 -222 -5 9 39 47 790 1458"/>
            <route cost="182.02" savings="1.45" edges="1623 -1623 -1575 -1338 -493 -264 -250 -232 -222 -5 3 -45 47 790 1458"/>
        </routeDistribution>
    </vehicle>

    <vehicle id="51" depart="204.00" arrival="651.00">
        <routeDistribution>
            <route cost="0.00" savings="0.00" replacedOnEdge="" reason="device.rerouting" replacedAtTime="204.00" probability="0" edges="2408 -250"/>
            <route cost="225.50" savings="0.00" edges="2408 -2438 -2058 -1903 2370 -2386 -833 -662 -540 301 -264 -250"/>
        </routeDistribution>
    </vehicle>

    <vehicle id="81" depart="324.00" arrival="656.00">
        <routeDistribution>
            <route cost="0.00" savings="0.00" replacedOnEdge="" reason="device.rerouting" replacedAtTime="324.00" probability="0" edges="-51 -829"/>
            <route cost="238.97" savings="0.00" edges="-51 -39 -9 5 222 232 250 264 -301 540 664 -829"/>
        </routeDistribution>
    </vehicle>

    <vehicle id="46" depart="187.00" arrival="656.00">
        <routeDistribution>
            <route cost="0.00" savings="0.00" replacedOnEdge="" reason="device.rerouting" replacedAtTime="184.00" probability="0" edges="-1903 1090"/>
            <route cost="283.21" savings="0.00" replacedOnEdge="-2386" reason="device.rerouting" replacedAtTime="307.00" probability="0" edges="-1903 2370 -2386 -833 -662 -652 -278 -254 -240 -222 -5 9 802 951 1090"/>
            <route cost="240.61" savings="3.25" replacedOnEdge="-540" reason="device.rerouting" replacedAtTime="427.00" probability="0" edges="-1903 2370 -2386 -833 -662 -540 301 -264 -250 -232 -222 -5 9 802 951 1090"/>
            <route cost="195.64" savings="12.14" edges="-1903 2370 -2386 -833 -662 -540 -290 -254 -240 -222 -5 9 802 951 1090"/>
        </routeDistribution>
    </vehicle>

    <vehicle id="70" depart="280.00" arrival="668.00">
        <routeDistribution>
            <route cost="0.00" savings="0.00" replacedOnEdge="" reason="device.rerouting" replacedAtTime="280.00" probability="0" edges="1907 1595"/>
            <route cost="314.43" savings="0.00" edges="1907 -1675 -1617 -1575 -1338 -469 -448 -274 -250 -232 -222 36 1329 1466 1595"/>
        </routeDistribution>
    </vehicle>

    <vehicle id="82" depart="328.00" arrival="670.00">
        <routeDistribution>
            <route cost="0.00" savings="0.00" replacedOnEdge="" reason="device.rerouting" replacedAtTime="328.00" probability="0" edges="-662 2341"/>
            <route cost="200.08" savings="0.00" edges="-662 -540 301 493 1338 1575 1623 1917 2194 2341"/>
        </routeDistribution>
    </vehicle>

    <vehicle id="66" depart="264.00" arrival="675.00">
        <routeDistribution>
            <route cost="0.00" savings="0.00" replacedOnEdge="" reason="device.rerouting" replacedAtTime="264.00" probability="0" edges="-2663 2424"/>
            <route cost="341.36" savings="0.00" edges="-2663 -2333 -2194 -2187 2188 -1931 -1625 1312 -1316 -274 262 278 658 828 1943 2424"/>
        </routeDistribution>
    </vehicle>
