<?xml version="1.0" encoding="UTF-8"?>

<!-- generated on Sun Dec 23 15:20:35 2018 by Eclipse SUMO Version v1_0_1+1015-8e01b2d
<configuration xmlns:xsi="http://www.w3.org/2001/XMLSchema-instance" xsi:noNamespaceSchemaLocation="http://sumo.dlr.de/xsd/sumoConfiguration.xsd">

    <input>
        <net-file value="net.net.xml"/>
        <route-files value="input_trips.trips.xml"/>
    </input>

    <output>
        <vehroute-output value="vehroutes.xml"/>
        <vehroute-output.cost value="true"/>
    </output>

    <routing>
        <device.rerouting.period value="120"/>
        <device.rerouting.adaptation-steps value="60"/>
        <device.rerouting.adaptation-interval value="3"/>
    </routing>

    <report>
        <verbose value="true"/>
        <duration-log.statistics value="true"/>
        <no-step-log value="true"/>
    </report>

</configuration>
-->

<routes xmlns:xsi="http://www.w3.org/2001/XMLSchema-instance" xsi:noNamespaceSchemaLocation="http://sumo.dlr.de/xsd/routes_file.xsd">
    <vehicle id="6" depart="24.00" arrival="335.00">
        <routeDistribution>
            <route cost="0.00" savings="0.00" replacedOnEdge="" reason="device.rerouting" replacedAtTime="24.00" probability="0" edges="-2669 1623"/>
            <route cost="211.78" savings="0.00" edges="-2669 -1780 -1627 -814 -658 -278 -262 264 493 1338 1575 1623"/>
        </routeDistribution>
    </vehicle>

    <vehicle id="17" depart="68.00" arrival="345.00">
        <routeDistribution>
            <route cost="0.00" savings="0.00" replacedOnEdge="" reason="device.rerouting" replacedAtTime="68.00" probability="0" edges="-1892 2058"/>
            <route cost="159.44" savings="0.00" edges="-1892 -829 833 2386 -2370 1903 2058"/>
        </routeDistribution>
    </vehicle>

    <vehicle id="10" depart="40.00" arrival="358.00">
        <routeDistribution>
            <route cost="0.00" savings="0.00" replacedOnEdge="" reason="device.rerouting" replacedAtTime="40.00" probability="0" edges="-1784 2438"/>
            <route cost="177.47" savings="0.00" edges="-1784 1784 -1892 -829 833 2386 -2370 1903 2058 2438"/>
        </routeDistribution>
    </vehicle>

    <vehicle id="13" depart="52.00" arrival="361.00">
        <routeDistribution>
            <route cost="0.00" savings="0.00" replacedOnEdge="" reason="device.rerouting" replacedAtTime="52.00" probability="0" edges="-2440 1342"/>
            <route cost="237.47" savings="0.00" edges="-2440 -2438 -2058 2066 -2175 -1605 1611 -1613 -1575 -1314 1312 1342"/>
        </routeDistribution>
    </vehicle>

    <vehicle id="4" depart="16.00" arrival="362.00">
        <routeDistribution>
            <route cost="0.00" savings="0.00" replacedOnEdge="" reason="device.rerouting" replacedAtTime="16.00" probability="0" edges="-222 2438"/>
            <route cost="254.50" savings="0.00" edges="-222 222 240 254 278 652 662 833 2386 -2370 1903 2058 2438"/>
        </routeDistribution>
    </vehicle>

    <vehicle id="11" depart="44.00" arrival="387.00">
        <routeDistribution>
            <route cost="0.00" savings="0.00" replacedOnEdge="" reason="device.rerouting" replacedAtTime="44.00" probability="0" edges="-1780 -2440"/>
            <route cost="216.04" savings="0.00" edges="-1780 1784 -1892 -829 833 2386 -2370 1903 2072 -2440"/>
        </routeDistribution>
    </vehicle>

    <vehicle id="19" depart="76.00" arrival="394.00">
        <routeDistribution>
            <route cost="0.00" savings="0.00" replacedOnEdge="" reason="device.rerouting" replacedAtTime="76.00" probability="0" edges="-51 2427"/>
            <route cost="273.05" savings="0.00" replacedOnEdge="222" reason="device.rerouting" replacedAtTime="196.00" probability="0" edges="-51 45 -3 5 222 240 254 278 652 662 833 1454 1586 2427"/>
            <route cost="204.71" savings="1.43" edges="-51 45 -3 5 222 232 250 264 -301 540 662 831 1579 1586 2427"/>
        </routeDistribution>
    </vehicle>

    <vehicle id="0" depart="0.00" arrival="396.00">
        <routeDistribution>
            <route cost="0.00" savings="0.00" replacedOnEdge="" reason="device.rerouting" replacedAtTime="0.00" probability="0" edges="1617 -1458"/>
            <route cost="289.48" savings="0.00" edges="1617 -1617 -1575 -1338 -493 -264 -250 -232 -222 36 1329 -1458"/>
        </routeDistribution>
    </vehicle>

    <vehicle id="2" depart="8.00" arrival="399.00">
        <routeDistribution>
            <route cost="0.00" savings="0.00" replacedOnEdge="" reason="device.rerouting" replacedAtTime="8.00" probability="0" edges="-21 1903"/>
            <route cost="243.01" savings="0.00" edges="-21 5 222 240 254 278 652 662 833 2386 -2370 1903"/>
        </routeDistribution>
    </vehicle>

    <vehicle id="18" depart="72.00" arrival="404.00">
        <routeDistribution>
            <route cost="0.00" savings="0.00" replacedOnEdge="" reason="device.rerouting" replacedAtTime="72.00" probability="0" edges="2450 2196"/>
            <route cost="252.99" savings="0.00" edges="2450 -2450 -2072 2066 -2175 -1605 1611 -1613 1623 1917 2196"/>
        </routeDistribution>
    </vehicle>

    <vehicle id="44" depart="176.00" arrival="423.00">
        <routeDistribution>
            <route cost="0.00" savings="0.00" replacedOnEdge="" reason="device.rerouting" replacedAtTime="176.00" probability="0" edges="-2194 1627"/>
            <route cost="202.95" savings="0.00" edges="-2194 -2187 2188 -1931 -1650 -1342 -1316 -274 262 278 658 814 1627"/>
        </routeDistribution>
    </vehicle>

    <vehicle id="35" depart="140.00" arrival="434.00">
        <routeDistribution>
            <route cost="0.00" savings="0.00" replacedOnEdge="" reason="device.rerouting" replacedAtTime="140.00" probability="0" edges="-814 320"/>
            <route cost="196.19" savings="0.00" edges="-814 -658 -278 -254 -240 -228 -197 205 320"/>
        </routeDistribution>
    </vehicle>

    <vehicle id="27" depart="108.00" arrival="436.00">
        <routeDistribution>
            <route cost="0.00" savings="0.00" replacedOnEdge="" reason="device.rerouting" replacedAtTime="108.00" probability="0" edges="664 330"/>
            <route cost="251.71" savings="0.00" replacedOnEdge="-278" reason="device.rerouting" replacedAtTime="228.00" probability="0" edges="664 -664 -652 -278 -254 -240 -222 -5 9 39 51 330"/>
            <route cost="200.53" savings="0.00" edges="664 -664 -652 -278 -254 -240 -222 -5 3 -45 51 330"/>
        </routeDistribution>
    </vehicle>

    <vehicle id="22" depart="88.00" arrival="444.00">
        <routeDistribution>
            <route cost="0.00" savings="0.00" replacedOnEdge="" reason="device.rerouting" replacedAtTime="88.00" probability="0" edges="212 2472"/>
            <route cost="251.99" savings="0.00" edges="212 -205 197 228 240 254 278 658 814 1627 1782 2472"/>
        </routeDistribution>
    </vehicle>

    <vehicle id="30" depart="120.00" arrival="446.00">
        <routeDistribution>
            <route cost="0.00" savings="0.00" replacedOnEdge="" reason="device.rerouting" replacedAtTime="120.00" probability="0" edges="-1329 2454"/>
            <route cost="237.53" savings="0.00" edges="-1329 -36 222 240 254 278 652 662 833 2386 2411 2454"/>
        </routeDistribution>
    </vehicle>

    <vehicle id="62" depart="248.00" arrival="450.00">
        <routeDistribution>
            <route cost="0.00" savings="0.00" replacedOnEdge="" reason="device.rerouting" replacedAtTime="248.00" probability="0" edges="-1892 1617"/>
            <route cost="188.65" savings="0.00" edges="-1892 -664 -540 301 493 1338 1575 1617"/>
        </routeDistribution>
    </vehicle>

    <vehicle id="56" depart="224.00" arrival="457.00">
        <routeDistribution>
            <route cost="0.00" savings="0.00" replacedOnEdge="" reason="device.rerouting" replacedAtTime="224.00" probability="0" edges="1458 664"/>
            <route cost="213.72" savings="0.00" edges="1458 1466 2403 2436 -1941 -828 -658 652 664"/>
        </routeDistribution>
    </vehicle>

    <vehicle id="3" depart="12.00" arrival="465.00">
        <routeDistribution>
            <route cost="0.00" savings="0.00" replacedOnEdge="" reason="device.rerouting" replacedAtTime="12.00" probability="0" edges="-1586 -320"/>
            <route cost="297.22" savings="0.00" edges="-1586 -1454 -833 -662 -652 -278 -254 -240 -228 -197 205 320 -320"/>
        </routeDistribution>
    </vehicle>

    <vehicle id="16" depart="64.00" arrival="465.00">
        <routeDistribution>
            <route cost="0.00" savings="0.00" replacedOnEdge="" reason="device.rerouting" replacedAtTime="64.00" probability="0" edges="-2472 -2405"/>
            <route cost="245.98" savings="0.00" edges="-2472 -1782 1784 -1892 -829 833 2386 -2370 1903 2058 2405 -2405"/>
        </routeDistribution>
    </vehicle>

    <vehicle id="28" depart="112.00" arrival="471.00">
        <routeDistribution>
            <route cost="0.00" savings="0.00" replacedOnEdge="" reason="device.rerouting" replacedAtTime="112.00" probability="0" edges="1579 214"/>
            <route cost="257.53" savings="0.00" edges="1579 -1579 -831 -662 -652 -278 -254 -240 -228 -215 214"/>
        </routeDistribution>
    </vehicle>

    <vehicle id="52" depart="208.00" arrival="471.00">
        <routeDistribution>
            <route cost="0.00" savings="0.00" replacedOnEdge="" reason="device.rerouting" replacedAtTime="208.00" probability="0" edges="-1941 -2588"/>
            <route cost="215.99" savings="0.00" edges="-1941 -828 -658 652 662 833 2386 2411 2454 -2588"/>
        </routeDistribution>
    </vehicle>

    <vehicle id="1" depart="4.00" arrival="472.00">
        <routeDistribution>
            <route cost="0.00" savings="0.00" replacedOnEdge="" reason="device.rerouting" replacedAtTime="4.00" probability="0" edges="-2614 951"/>
            <route cost="335.52" savings="0.00" edges="-2614 2588 -2454 -2411 -2386 -833 -662 -652 -278 -254 -240 -222 -5 9 802 951"/>
        </routeDistribution>
    </vehicle>

    <vehicle id="21" depart="84.00" arrival="476.00">
        <routeDistribution>
            <route cost="0.00" savings="0.00" replacedOnEdge="" reason="device.rerouting" replacedAtTime="84.00" probability="0" edges="240 -2440"/>
            <route cost="249.41" savings="0.00" edges="240 254 278 652 662 833 2386 -2370 1903 2072 -2440"/>
        </routeDistribution>
    </vehicle>

    <vehicle id="32" depart="128.00" arrival="482.00">
        <routeDistribution>
            <route cost="0.00" savings="0.00" replacedOnEdge="" reason="device.rerouting" replacedAtTime="128.00" probability="0" edges="2326 -2436"/>
            <route cost="267.22" savings="0.00" edges="2326 -2194 -2187 2188 -1931 -1650 -1342 -1316 -274 262 278 658 828 1941 -2436"/>
        </routeDistribution>
    </vehicle>

    <vehicle id="29" depart="116.00" arrival="485.00">
        <routeDistribution>
            <route cost="0.00" savings="0.00" replacedOnEdge="" reason="device.rerouting" replacedAtTime="116.00" probability="0" edges="-339 2386"/>
            <route cost="283.75" savings="0.00" edges="-339 -320 -205 197 228 240 254 278 652 662 833 2386"/>
        </routeDistribution>
    </vehicle>

    <vehicle id="36" depart="144.00" arrival="486.00">
        <routeDistribution>
            <route cost="0.00" savings="0.00" replacedOnEdge="" reason="device.rerouting" replacedAtTime="144.00" probability="0" edges="-1887 330"/>
            <route cost="223.24" savings="0.00" replacedOnEdge="-2403" reason="device.rerouting" replacedAtTime="264.00" probability="0" edges="-1887 1941 -2436 -2403 -1466 -1329 55 -47 51 330"/>
            <route cost="169.40" savings="3.90" edges="-1887 1941 -2436 -2403 -1466 -1458 937 -792 330"/>
        </routeDistribution>
    </vehicle>

    <vehicle id="68" depart="272.00" arrival="487.00">
        <routeDistribution>
            <route cost="0.00" savings="0.00" replacedOnEdge="" reason="device.rerouting" replacedAtTime="272.00" probability="0" edges="-2192 -658"/>
            <route cost="192.74" savings="0.00" edges="-2192 -2187 2188 -1931 -1650 -1342 -1316 -274 262 278 658 -658"/>
        </routeDistribution>
    </vehicle>

    <vehicle id="37" depart="148.00" arrival="487.00">
        <routeDistribution>
            <route cost="0.00" savings="0.00" replacedOnEdge="" reason="device.rerouting" replacedAtTime="148.00" probability="0" edges="-67 -2183"/>
            <route cost="241.30" savings="0.00" edges="-67 -3 5 222 240 254 278 652 662 833 2386 -2370 2319 -2183"/>
        </routeDistribution>
    </vehicle>

    <vehicle id="14" depart="56.00" arrival="509.00">
        <routeDistribution>
            <route cost="0.00" savings="0.00" replacedOnEdge="" reason="device.rerouting" replacedAtTime="56.00" probability="0" edges="-792 2411"/>
            <route cost="289.71" savings="0.00" edges="-792 -51 -39 -9 5 222 240 254 278 652 662 833 2386 2411"/>
        </routeDistribution>
    </vehicle>

    <vehicle id="31" depart="124.00" arrival="514.00">
        <routeDistribution>
            <route cost="0.00" savings="0.00" replacedOnEdge="" reason="device.rerouting" replacedAtTime="124.00" probability="0" edges="-1617 -47"/>
            <route cost="255.60" savings="0.00" edges="-1617 -1575 -1338 -493 -264 -250 -232 -222 -5 9 39 47 -47"/>
        </routeDistribution>
    </vehicle>

    <vehicle id="33" depart="132.00" arrival="521.00">
        <routeDistribution>
            <route cost="0.00" savings="0.00" replacedOnEdge="" reason="device.rerouting" replacedAtTime="132.00" probability="0" edges="-2322 2442"/>
            <route cost="286.42" savings="0.00" edges="-2322 2322 -2196 -1917 -1623 1613 -1611 1605 2175 -2066 2058 2438 2442"/>
        </routeDistribution>
    </vehicle>

    <vehicle id="42" depart="168.00" arrival="534.00">
        <routeDistribution>
            <route cost="0.00" savings="0.00" replacedOnEdge="" reason="device.rerouting" replacedAtTime="168.00" probability="0" edges="-1579 333"/>
            <route cost="269.69" savings="0.00" edges="-1579 -831 -662 -652 -278 -254 -240 -228 -197 205 320 333"/>
        </routeDistribution>
    </vehicle>

    <vehicle id="73" depart="292.00" arrival="543.00">
        <routeDistribution>
            <route cost="0.00" savings="0.00" replacedOnEdge="" reason="device.rerouting" replacedAtTime="292.00" probability="0" edges="1935 1667"/>
            <route cost="209.07" savings="0.00" edges="1935 -814 -658 -278 -262 264 493 1338 1575 1617 1667"/>
        </routeDistribution>
    </vehicle>

    <vehicle id="5" depart="20.00" arrival="545.00">
        <routeDistribution>
            <route cost="0.00" savings="0.00" replacedOnEdge="" reason="device.rerouting" replacedAtTime="20.00" probability="0" edges="212 2405"/>
            <route cost="405.08" savings="0.00" edges="212 -205 197 228 240 254 278 652 662 833 2386 -2370 1903 2058 2405"/>
        </routeDistribution>
    </vehicle>

    <vehicle id="15" depart="60.00" arrival="548.00">
        <routeDistribution>
            <route cost="0.00" savings="0.00" replacedOnEdge="" reason="device.rerouting" replacedAtTime="60.00" probability="0" edges="-39 2588"/>
            <route cost="329.97" savings="0.00" edges="-39 -9 5 222 240 254 278 652 662 833 2386 2411 2454 -2588 2588"/>
        </routeDistribution>
    </vehicle>

    <vehicle id="12" depart="48.00" arrival="551.00">
        <routeDistribution>
            <route cost="0.00" savings="0.00" replacedOnEdge="" reason="device.rerouting" replacedAtTime="48.00" probability="0" edges="-2688 2436"/>
            <route cost="294.63" savings="0.00" edges="-2688 -2442 -2438 -2058 -1903 2370 -2386 -833 -662 -652 658 828 1941 -2436 2436"/>
        </routeDistribution>
    </vehicle>

    <vehicle id="41" depart="164.00" arrival="569.00">
        <routeDistribution>
            <route cost="0.00" savings="0.00" replacedOnEdge="" reason="device.rerouting" replacedAtTime="164.00" probability="0" edges="-2691 1342"/>
            <route cost="290.94" savings="0.00" edges="-2691 -2614 2588 -2454 -2411 -2386 -833 -662 -540 301 460 481 1312 1342"/>
        </routeDistribution>
    </vehicle>

    <vehicle id="50" depart="200.00" arrival="570.00">
        <routeDistribution>
            <route cost="0.00" savings="0.00" replacedOnEdge="" reason="device.rerouting" replacedAtTime="200.00" probability="0" edges="-831 -2326"/>
            <route cost="232.48" savings="0.00" edges="-831 833 1320 -1309 1338 1575 1623 1917 2194 -2326"/>
        </routeDistribution>
    </vehicle>

    <vehicle id="55" depart="220.00" arrival="572.00">
        <routeDistribution>
            <route cost="0.00" savings="0.00" replacedOnEdge="" reason="device.rerouting" replacedAtTime="220.00" probability="0" edges="2440 2342"/>
            <route cost="263.26" savings="0.00" edges="2440 -2072 2066 -2175 -1605 1611 -1613 1623 1915 2188 -2342 2342"/>
        </routeDistribution>
    </vehicle>

    <vehicle id="9" depart="36.00" arrival="574.00">
        <routeDistribution>
            <route cost="0.00" savings="0.00" replacedOnEdge="" reason="device.rerouting" replacedAtTime="36.00" probability="0" edges="-2335 1468"/>
            <route cost="320.47" savings="0.00" edges="-2335 -2194 -1917 -1623 -1575 -1338 -493 -264 -250 -232 -222 36 1329 1468"/>
        </routeDistribution>
    </vehicle>

    <vehicle id="23" depart="92.00" arrival="575.00">
        <routeDistribution>
            <route cost="0.00" savings="0.00" replacedOnEdge="" reason="device.rerouting" replacedAtTime="92.00" probability="0" edges="-2403 -2440"/>
            <route cost="339.50" savings="0.00" edges="-2403 2403 2436 -1941 -828 -658 652 662 833 2386 -2370 1903 2072 -2440"/>
        </routeDistribution>
    </vehicle>

    <vehicle id="34" depart="136.00" arrival="583.00">
        <routeDistribution>
            <route cost="0.00" savings="0.00" replacedOnEdge="" reason="device.rerouting" replacedAtTime="136.00" probability="0" edges="2614 -222"/>
            <route cost="288.69" savings="0.00" replacedOnEdge="2588" reason="device.rerouting" replacedAtTime="256.00" probability="0" edges="2614 -2614 2588 -2454 -2411 -2386 -833 -662 -652 -278 -254 -240 -222"/>
            <route cost="248.04" savings="0.31" replacedOnEdge="-662" reason="device.rerouting" replacedAtTime="376.00" probability="0" edges="2614 -2614 2588 -2454 -2411 -2386 -833 -662 -540 301 -264 -250 -232 -222"/>
            <route cost="137.06" savings="5.88" edges="2614 -2614 2588 -2454 -2411 -2386 -833 -662 -540 -290 -254 -240 -222"/>
        </routeDistribution>
    </vehicle>

    <vehicle id="8" depart="32.00" arrival="593.00">
        <routeDistribution>
            <route cost="0.00" savings="0.00" replacedOnEdge="" reason="device.rerouting" replacedAtTime="32.00" probability="0" edges="214 -2614"/>
            <route cost="414.70" savings="0.00" edges="214 -205 197 228 240 254 278 652 662 833 2386 2411 2454 -2588 2614 -2614"/>
        </routeDistribution>
    </vehicle>

    <vehicle id="43" depart="172.00" arrival="593.00">
        <routeDistribution>
            <route cost="0.00" savings="0.00" replacedOnEdge="" reason="device.rerouting" replacedAtTime="172.00" probability="0" edges="-1649 -36"/>
            <route cost="270.62" savings="0.00" replacedOnEdge="-1575" reason="device.rerouting" replacedAtTime="292.00" probability="0" edges="-1649 -1613 -1575 -1338 -493 -264 -250 -232 -222 36 -36"/>
            <route cost="229.55" savings="7.11" edges="-1649 -1613 -1575 -1338 -469 -460 -264 -250 -232 -222 36 -36"/>
        </routeDistribution>
    </vehicle>

    <vehicle id="57" depart="228.00" arrival="597.00">
        <routeDistribution>
            <route cost="0.00" savings="0.00" replacedOnEdge="" reason="device.rerouting" replacedAtTime="228.00" probability="0" edges="2066 222"/>
            <route cost="251.41" savings="0.00" replacedOnEdge="-833" reason="device.rerouting" replacedAtTime="348.00" probability="0" edges="2066 -2321 -2319 2370 -2386 -833 -662 -652 -278 -254 -240 -222 222"/>
            <route cost="165.07" savings="3.02" edges="2066 -2321 -2319 2370 -2386 -833 -662 -540 -290 -254 -240 -222 222"/>
        </routeDistribution>
    </vehicle>

    <vehicle id="40" depart="160.00" arrival="599.00">
        <routeDistribution>
            <route cost="0.00" savings="0.00" replacedOnEdge="" reason="device.rerouting" replacedAtTime="160.00" probability="0" edges="-1090 -2066"/>
            <route cost="299.43" savings="0.00" edges="-1090 -951 -802 -9 5 222 240 254 278 652 662 833 2386 -2370 2319 2321 -2066"/>
        </routeDistribution>
    </vehicle>

    <vehicle id="60" depart="240.00" arrival="603.00">
        <routeDistribution>
            <route cost="0.00" savings="0.00" replacedOnEdge="" reason="device.rerouting" replacedAtTime="240.00" probability="0" edges="-2196 1780"/>
            <route cost="248.02" savings="0.00" edges="-2196 -2187 2188 -1931 -1650 -1342 -1316 -274 262 278 658 814 1627 1780"/>
        </routeDistribution>
    </vehicle>

    <vehicle id="76" depart="304.00" arrival="614.00">
        <routeDistribution>
            <route cost="0.00" savings="0.00" replacedOnEdge="" reason="device.rerouting" replacedAtTime="304.00" probability="0" edges="-1941 -2321"/>
            <route cost="244.75" savings="0.00" edges="-1941 -828 -658 652 662 833 2386 -2370 2319 2321 -2321"/>
        </routeDistribution>
    </vehicle>

    <vehicle id="77" depart="308.00" arrival="618.00">
        <routeDistribution>
            <route cost="0.00" savings="0.00" replacedOnEdge="" reason="device.rerouting" replacedAtTime="308.00" probability="0" edges="2405 1627"/>
            <route cost="209.08" savings="0.00" edges="2405 -2365 -2321 -2319 2370 -2386 -833 829 1892 1935 1627"/>
        </routeDistribution>
    </vehicle>

    <vehicle id="39" depart="156.00" arrival="618.00">
        <routeDistribution>
            <route cost="0.00" savings="0.00" replacedOnEdge="" reason="device.rerouting" replacedAtTime="156.00" probability="0" edges="-262 2442"/>
            <route cost="267.54" savings="0.00" edges="-262 264 -301 540 662 833 2386 -2370 1903 2058 2438 2442"/>
        </routeDistribution>
    </vehicle>

    <vehicle id="90" depart="360.00" arrival="619.00">
        <routeDistribution>
            <route cost="0.00" savings="0.00" replacedOnEdge="" reason="device.rerouting" replacedAtTime="360.00" probability="0" edges="2194 1935"/>
            <route cost="228.75" savings="0.00" edges="2194 -2194 -2187 2188 -1931 -1650 -1342 -1316 -274 262 278 658 814 -1935 1935"/>
        </routeDistribution>
    </vehicle>

    <vehicle id="47" depart="188.00" arrival="620.00">
        <routeDistribution>
            <route cost="0.00" savings="0.00" replacedOnEdge="" reason="device.rerouting" replacedAtTime="188.00" probability="0" edges="2472 2442"/>
            <route cost="267.78" savings="0.00" edges="2472 -2472 -1782 1784 -1892 -829 833 2386 -2370 1903 2058 2438 2442"/>
        </routeDistribution>
    </vehicle>

    <vehicle id="88" depart="352.00" arrival="623.00">
        <routeDistribution>
            <route cost="0.00" savings="0.00" replacedOnEdge="" reason="device.rerouting" replacedAtTime="352.00" probability="0" edges="-1935 2405"/>
            <route cost="208.19" savings="0.00" edges="-1935 -1892 -829 833 2386 -2370 1903 2058 2405"/>
        </routeDistribution>
    </vehicle>

    <vehicle id="24" depart="96.00" arrival="625.00">
        <routeDistribution>
            <route cost="0.00" savings="0.00" replacedOnEdge="" reason="device.rerouting" replacedAtTime="96.00" probability="0" edges="2408 3"/>
            <route cost="329.47" savings="0.00" edges="2408 -2438 -2058 -1903 2370 -2386 -833 -662 -652 -278 -254 -240 -222 -5 3"/>
        </routeDistribution>
    </vehicle>

    <vehicle id="20" depart="80.00" arrival="628.00">
        <routeDistribution>
            <route cost="0.00" savings="0.00" replacedOnEdge="" reason="device.rerouting" replacedAtTime="80.00" probability="0" edges="-2656 333"/>
            <route cost="345.18" savings="0.00" replacedOnEdge="-652" reason="device.rerouting" replacedAtTime="320.00" probability="0" edges="-2656 2588 -2454 -2411 -2386 -833 -662 -652 -278 -254 -240 -228 -197 205 320 333"/>
            <route cost="238.69" savings="2.67" edges="-2656 2588 -2454 -2411 -2386 -833 -662 -652 -278 -254 -240 -222 -5 9 189 205 320 333"/>
        </routeDistribution>
    </vehicle>

    <vehicle id="71" depart="284.00" arrival="634.00">
        <routeDistribution>
            <route cost="0.00" savings="0.00" replacedOnEdge="" reason="device.rerouting" replacedAtTime="284.00" probability="0" edges="-2194 2688"/>
            <route cost="233.27" savings="0.00" edges="-2194 -1917 -1623 1613 -1611 1605 2175 -2066 2058 2438 2442 2688"/>
        </routeDistribution>
    </vehicle>

    <vehicle id="103" depart="412.00" arrival="635.00">
        <routeDistribution>
            <route cost="0.00" savings="0.00" replacedOnEdge="" reason="device.rerouting" replacedAtTime="412.00" probability="0" edges="-1649 -222"/>
            <route cost="226.09" savings="0.00" edges="-1649 -1613 -1575 -1338 -493 -264 -250 -232 -222"/>
        </routeDistribution>
    </vehicle>

    <vehicle id="53" depart="213.00" arrival="636.00">
        <routeDistribution>
            <route cost="0.00" savings="0.00" replacedOnEdge="" reason="device.rerouting" replacedAtTime="212.00" probability="0" edges="-1613 -55"/>
            <route cost="265.86" savings="0.00" edges="-1613 -1575 -1338 -493 -264 -250 -232 -222 -5 9 39 47 -55"/>
        </routeDistribution>
    </vehicle>

    <vehicle id="51" depart="204.00" arrival="651.00">
        <routeDistribution>
            <route cost="0.00" savings="0.00" replacedOnEdge="" reason="device.rerouting" replacedAtTime="204.00" probability="0" edges="2408 -250"/>
            <route cost="226.41" savings="0.00" edges="2408 -2438 -2058 -1903 2370 -2386 -833 -662 -540 301 -264 -250"/>
        </routeDistribution>
    </vehicle>

    <vehicle id="46" depart="187.00" arrival="654.00">
        <routeDistribution>
            <route cost="0.00" savings="0.00" replacedOnEdge="" reason="device.rerouting" replacedAtTime="184.00" probability="0" edges="-1903 1090"/>
            <route cost="283.71" savings="0.00" replacedOnEdge="-2386" reason="device.rerouting" replacedAtTime="307.00" probability="0" edges="-1903 2370 -2386 -833 -662 -652 -278 -254 -240 -222 -5 9 802 951 1090"/>
            <route cost="242.29" savings="3.85" replacedOnEdge="-540" reason="device.rerouting" replacedAtTime="427.00" probability="0" edges="-1903 2370 -2386 -833 -662 -540 301 -264 -250 -232 -222 -5 9 802 951 1090"/>
            <route cost="196.35" savings="12.50" edges="-1903 2370 -2386 -833 -662 -540 -290 -254 -240 -222 -5 9 802 951 1090"/>
        </routeDistribution>
    </vehicle>

    <vehicle id="81" depart="324.00" arrival="656.00">
        <routeDistribution>
            <route cost="0.00" savings="0.00" replacedOnEdge="" reason="device.rerouting" replacedAtTime="324.00" probability="0" edges="-51 -829"/>
            <route cost="238.42" savings="0.00" edges="-51 -39 -9 5 222 232 250 264 -301 540 664 -829"/>
        </routeDistribution>
    </vehicle>

    <vehicle id="82" depart="329.00" arrival="661.00">
        <routeDistribution>
            <route cost="0.00" savings="0.00" replacedOnEdge="" reason="device.rerouting" replacedAtTime="328.00" probability="0" edges="-662 2341"/>
            <route cost="205.40" savings="0.00" edges="-662 -540 301 460 481 1625 1931 -2188 2187 2194 2341"/>
        </routeDistribution>
    </vehicle>

    <vehicle id="70" depart="280.00" arrival="668.00">
        <routeDistribution>
            <route cost="0.00" savings="0.00" replacedOnEdge="" reason="device.rerouting" replacedAtTime="280.00" probability="0" edges="1907 1595"/>
            <route cost="316.34" savings="0.00" replacedOnEdge="-1617" reason="device.rerouting" replacedAtTime="400.00" probability="0" edges="1907 -1675 -1617 -1575 -1338 -469 -460 -264 -250 -232 -222 36 1329 1466 1595"/>
            <route cost="277.64" savings="13.20" edges="1907 -1675 -1617 -1575 -1314 1312 -1316 -274 -250 -232 -222 36 1329 1466 1595"/>
        </routeDistribution>
    </vehicle>

    <vehicle id="49" depart="196.00" arrival="672.00">
        <routeDistribution>
            <route cost="0.00" savings="0.00" replacedOnEdge="" reason="device.rerouting" replacedAtTime="196.00" probability="0" edges="1623 1458"/>
            <route cost="341.43" savings="0.00" replacedOnEdge="-232" reason="device.rerouting" replacedAtTime="436.00" probability="0" edges="1623 -1623 -1575 -1338 -493 -264 -250 -232 -222 36 1329 -1458 1458"/>
            <route cost="184.15" savings="1.12" edges="1623 -1623 -1575 -1338 -493 -264 -250 -232 -222 -5 9 39 47 790 1458"/>
        </routeDistribution>
    </vehicle>

    <vehicle id="66" depart="264.00" arrival="673.00">
        <routeDistribution>
            <route cost="0.00" savings="0.00" replacedOnEdge="" reason="device.rerouting" replacedAtTime="264.00" probability="0" edges="-2663 2424"/>
            <route cost="343.04" savings="0.00" edges="-2663 -2333 -2194 -2187 2188 -1931 -1650 -1342 -1316 -274 262 278 658 828 1943 2424"/>
        </routeDistribution>
    </vehicle>

    <vehicle id="96" depart="384.00" arrival="689.00">
        <routeDistribution>
            <route cost="0.00" savings="0.00" replacedOnEdge="" reason="device.rerouting" replacedAtTime="384.00" probability="0" edges="-937 540"/>
            <route cost="246.03" savings="0.00" replacedOnEdge="1458" reason="device.rerouting" replacedAtTime="504.00" probability="0" edges="-937 1458 -1329 -36 222 232 250 264 -301 540"/>
            <route cost="191.23" savings="2.92" edges="-937 1458 -1329 -36 222 240 254 290 540"/>
        </routeDistribution>
    </vehicle>

    <vehicle id="87" depart="348.00" arrival="701.00">
        <routeDistribution>