<?xml version="1.0" encoding="UTF-8"?>

<!-- generated on 2022-05-18 13:35:39 by Eclipse SUMO sumo Version v1_13_0+0324-c5e9788
This data file and the accompanying materials
are made available under the terms of the Eclipse Public License v2.0
which accompanies this distribution, and is available at
http://www.eclipse.org/legal/epl-v20.html
This file may also be made available under the following Secondary
Licenses when the conditions for such availability set forth in the Eclipse
Public License 2.0 are satisfied: GNU General Public License, version 2
or later which is available at
https://www.gnu.org/licenses/old-licenses/gpl-2.0-standalone.html
SPDX-License-Identifier: EPL-2.0 OR GPL-2.0-or-later
<configuration xmlns:xsi="http://www.w3.org/2001/XMLSchema-instance" xsi:noNamespaceSchemaLocation="http://sumo.dlr.de/xsd/sumoConfiguration.xsd">

    <input>
        <net-file value="net.net.xml"/>
        <route-files value="input_routes.rou.xml"/>
    </input>

    <output>
        <write-license value="true"/>
        <fcd-output value="fcd.xml"/>
    </output>

    <processing>
        <default.carfollowmodel value="IDM"/>
        <default.speeddev value="0"/>
    </processing>

    <report>
        <xml-validation value="never"/>
        <no-step-log value="true"/>
    </report>

</configuration>
-->

<fcd-export xmlns:xsi="http://www.w3.org/2001/XMLSchema-instance" xsi:noNamespaceSchemaLocation="http://sumo.dlr.de/xsd/fcd_file.xsd">
    <timestep time="0.00">
        <vehicle id="0" x="100.00" y="0.00" angle="90.00" type="default" speed="0.00" pos="100.00" lane="gneE0_0" slope="0.00"/>
    </timestep>
    <timestep time="1.00">
        <vehicle id="0" x="102.60" y="0.00" angle="90.00" type="default" speed="2.60" pos="102.60" lane="gneE0_0" slope="0.00"/>
    </timestep>
    <timestep time="2.00">
        <vehicle id="0" x="107.78" y="0.00" angle="90.00" type="default" speed="5.18" pos="107.78" lane="gneE0_0" slope="0.00"/>
    </timestep>
    <timestep time="3.00">
        <vehicle id="0" x="115.42" y="0.00" angle="90.00" type="default" speed="7.64" pos="115.42" lane="gneE0_0" slope="0.00"/>
    </timestep>
    <timestep time="4.00">
        <vehicle id="0" x="125.20" y="0.00" angle="90.00" type="default" speed="9.78" pos="125.20" lane="gneE0_0" slope="0.00"/>
    </timestep>
    <timestep time="5.00">
        <vehicle id="0" x="136.52" y="0.00" angle="90.00" type="default" speed="11.33" pos="136.52" lane="gneE0_0" slope="0.00"/>
    </timestep>
    <timestep time="6.00">
        <vehicle id="0" x="148.71" y="0.00" angle="90.00" type="default" speed="12.19" pos="148.71" lane="gneE0_0" slope="0.00"/>
    </timestep>
    <timestep time="7.00">
        <vehicle id="0" x="161.18" y="0.00" angle="90.00" type="default" speed="12.47" pos="161.18" lane="gneE0_0" slope="0.00"/>
    </timestep>
    <timestep time="8.00">
        <vehicle id="0" x="173.47" y="0.00" angle="90.00" type="default" speed="12.30" pos="173.47" lane="gneE0_0" slope="0.00"/>
    </timestep>
    <timestep time="9.00">
        <vehicle id="0" x="185.18" y="0.00" angle="90.00" type="default" speed="11.71" pos="185.18" lane="gneE0_0" slope="0.00"/>
    </timestep>
    <timestep time="10.00">
        <vehicle id="0" x="195.76" y="0.00" angle="90.00" type="default" speed="10.58" pos="195.76" lane="gneE0_0" slope="0.00"/>
    </timestep>
    <timestep time="11.00">
        <vehicle id="0" x="204.47" y="0.00" angle="90.00" type="default" speed="8.71" pos="204.47" lane="gneE0_0" slope="0.00"/>
    </timestep>
    <timestep time="12.00">
        <vehicle id="0" x="210.71" y="0.00" angle="90.00" type="default" speed="6.24" pos="210.71" lane="gneE0_0" slope="0.00"/>
    </timestep>
    <timestep time="13.00">
        <vehicle id="0" x="214.63" y="0.00" angle="90.00" type="default" speed="3.91" pos="214.63" lane="gneE0_0" slope="0.00"/>
    </timestep>
    <timestep time="14.00">
        <vehicle id="0" x="216.90" y="0.00" angle="90.00" type="default" speed="2.28" pos="216.90" lane="gneE0_0" slope="0.00"/>
    </timestep>
    <timestep time="15.00">
        <vehicle id="0" x="218.20" y="0.00" angle="90.00" type="default" speed="1.29" pos="218.20" lane="gneE0_0" slope="0.00"/>
    </timestep>
    <timestep time="16.00">
        <vehicle id="0" x="218.90" y="0.00" angle="90.00" type="default" speed="0.70" pos="218.90" lane="gneE0_0" slope="0.00"/>
    </timestep>
    <timestep time="17.00">
        <vehicle id="0" x="218.90" y="0.00" angle="90.00" type="default" speed="0.00" pos="218.90" lane="gneE0_0" slope="0.00"/>
    </timestep>
    <timestep time="18.00">
        <vehicle id="0" x="219.66" y="0.00" angle="90.00" type="default" speed="0.76" pos="219.66" lane="gneE0_0" slope="0.00"/>
    </timestep>
    <timestep time="19.00">
        <vehicle id="0" x="220.31" y="0.00" angle="90.00" type="default" speed="0.65" pos="220.31" lane="gneE0_0" slope="0.00"/>
    </timestep>
    <timestep time="20.00">
        <vehicle id="0" x="220.31" y="0.00" angle="90.00" type="default" speed="0.00" pos="220.31" lane="gneE0_0" slope="0.00"/>
    </timestep>
    <timestep time="21.00">
        <vehicle id="0" x="220.31" y="0.00" angle="90.00" type="default" speed="0.00" pos="220.31" lane="gneE0_0" slope="0.00"/>
    </timestep>
    <timestep time="22.00">
        <vehicle id="0" x="220.31" y="0.00" angle="90.00" type="default" speed="0.00" pos="220.31" lane="gneE0_0" slope="0.00"/>
    </timestep>
    <timestep time="23.00">
        <vehicle id="0" x="220.31" y="0.00" angle="90.00" type="default" speed="0.00" pos="220.31" lane="gneE0_0" slope="0.00"/>
    </timestep>
    <timestep time="24.00">
        <vehicle id="0" x="220.31" y="0.00" angle="90.00" type="default" speed="0.00" pos="220.31" lane="gneE0_0" slope="0.00"/>
    </timestep>
    <timestep time="25.00">
        <vehicle id="0" x="220.31" y="0.00" angle="90.00" type="default" speed="0.00" pos="220.31" lane="gneE0_0" slope="0.00"/>
    </timestep>
    <timestep time="26.00">
        <vehicle id="0" x="220.31" y="0.00" angle="90.00" type="default" speed="0.00" pos="220.31" lane="gneE0_0" slope="0.00"/>
    </timestep>
    <timestep time="27.00">
        <vehicle id="0" x="220.31" y="0.00" angle="90.00" type="default" speed="0.00" pos="220.31" lane="gneE0_0" slope="0.00"/>
    </timestep>
    <timestep time="28.00">
        <vehicle id="0" x="220.31" y="0.00" angle="90.00" type="default" speed="0.00" pos="220.31" lane="gneE0_0" slope="0.00"/>
    </timestep>
    <timestep time="29.00">
        <vehicle id="0" x="220.31" y="0.00" angle="90.00" type="default" speed="0.00" pos="220.31" lane="gneE0_0" slope="0.00"/>
    </timestep>
    <timestep time="30.00">
        <vehicle id="0" x="222.91" y="0.00" angle="90.00" type="default" speed="2.60" pos="222.91" lane="gneE0_0" slope="0.00"/>
    </timestep>
    <timestep time="31.00">
        <vehicle id="0" x="228.09" y="0.00" angle="90.00" type="default" speed="5.19" pos="228.09" lane="gneE0_0" slope="0.00"/>
    </timestep>
    <timestep time="32.00">
        <vehicle id="0" x="235.77" y="0.00" angle="90.00" type="default" speed="7.68" pos="235.77" lane="gneE0_0" slope="0.00"/>
    </timestep>
    <timestep time="33.00">
        <vehicle id="0" x="245.67" y="0.00" angle="90.00" type="default" speed="9.89" pos="245.67" lane="gneE0_0" slope="0.00"/>
    </timestep>
    <timestep time="34.00">
        <vehicle id="0" x="257.28" y="0.00" angle="90.00" type="default" speed="11.61" pos="257.28" lane="gneE0_0" slope="0.00"/>
    </timestep>
    <timestep time="35.00">
        <vehicle id="0" x="269.99" y="0.00" angle="90.00" type="default" speed="12.72" pos="269.99" lane="gneE0_0" slope="0.00"/>
    </timestep>
    <timestep time="36.00">
        <vehicle id="0" x="283.33" y="0.00" angle="90.00" type="default" speed="13.33" pos="283.33" lane="gneE0_0" slope="0.00"/>
    </timestep>
    <timestep time="37.00">
        <vehicle id="0" x="296.96" y="0.00" angle="90.00" type="default" speed="13.64" pos="296.96" lane="gneE0_0" slope="0.00"/>
    </timestep>
    <timestep time="38.00"/>
</fcd-export>
