<?xml version="1.0" encoding="UTF-8"?>

<!-- generated on 2021-12-17 09:09:04 by Eclipse SUMO sumo Version v1_11_0+0602-e03e66a
This data file and the accompanying materials
are made available under the terms of the Eclipse Public License v2.0
which accompanies this distribution, and is available at
http://www.eclipse.org/legal/epl-v20.html
SPDX-License-Identifier: EPL-2.0
<configuration xmlns:xsi="http://www.w3.org/2001/XMLSchema-instance" xsi:noNamespaceSchemaLocation="http://sumo.dlr.de/xsd/sumoConfiguration.xsd">

    <input>
        <net-file value="net2.net.xml"/>
        <route-files value="input_routes.rou.xml"/>
    </input>

    <output>
        <write-license value="true"/>
        <tripinfo-output value="tripinfos.xml"/>
        <tripinfo-output.write-unfinished value="true"/>
    </output>

    <processing>
        <default.speeddev value="0"/>
    </processing>

    <report>
        <verbose value="true"/>
        <xml-validation value="never"/>
        <xml-validation.routes value="never"/>
        <duration-log.statistics value="true"/>
        <no-step-log value="true"/>
    </report>

</configuration>
-->

<tripinfos xmlns:xsi="http://www.w3.org/2001/XMLSchema-instance" xsi:noNamespaceSchemaLocation="http://sumo.dlr.de/xsd/tripinfo_file.xsd">
    <personinfo id="0" depart="0.00" type="DEFAULT_PEDTYPE">
        <ride waitingTime="3.00" vehicle="NULL" depart="-1" arrival="-1" arrivalPos="91.95" duration="-1" routeLength="-1.00" timeLoss="-1"/>
    </personinfo>
    <tripinfo id="trip_A" depart="0.00" departLane="SC_0" departPos="5.00" departSpeed="0.00" departDelay="0.00" arrival="-1.00" arrivalLane="" arrivalPos="-1.00" arrivalSpeed="-1.00" duration="3.00" routeLength="0.00" waitingTime="0.00" waitingCount="0" stopTime="3.00" timeLoss="0.00" rerouteNo="0" devices="tripinfo_trip_A routing_trip_A" vType="special" speedFactor="1.00" vaporized="end"/>
</tripinfos>
