<?xml version="1.0"?>

<!-- generated on Fri Nov  9 17:01:33 2012 by SUMO sumo Version dev-SVN-r12945
<?xml version="1.0" encoding="UTF-8"?>

<configuration xmlns:xsi="http://www.w3.org/2001/XMLSchema-instance" xsi:noNamespaceSchemaLocation="http://sumo.sf.net/xsd/sumoConfiguration.xsd">

    <input>
        <net-file value="three_split.net.xml"/>
        <route-files value="input_routes.rou.xml"/>
    </input>

    <output>
        <tripinfo-output value="tripinfos.xml"/>
    </output>

    <report>
        <no-duration-log value="true"/>
        <no-step-log value="true"/>
    </report>

</configuration>
-->

<tripinfos>
    <tripinfo id="v1" depart="0.00" departLane="beg_0" departPos="0.00" departSpeed="0.00" departDelay="0.00" arrival="200.00" arrivalLane="end_0" arrivalPos="514.91" arrivalSpeed="26.77" duration="200.00" routeLength="2994.26" waitSteps="0" rerouteNo="0" devices="tripinfo_v1" vType="DEFAULT_VEHTYPE" vaporized=""/>
    <personinfo id="p1" depart="0.00">
        <stop arrival="0.00"/>
        <ride depart="-0.00" arrival="-0.00"/>
    </personinfo>
</tripinfos>
