<?xml version="1.0" encoding="UTF-8"?>

<!-- generated on Thu May 18 12:32:02 2017 by SUMO Version dev-SVN-r24351
<?xml version="1.0" encoding="UTF-8"?>

<configuration xmlns:xsi="http://www.w3.org/2001/XMLSchema-instance" xsi:noNamespaceSchemaLocation="http://sumo.dlr.de/xsd/sumoConfiguration.xsd">

    <input>
        <net-file value="net.net.xml"/>
        <route-files value="input_routes.rou.xml"/>
    </input>

    <output>
        <tripinfo-output value="tripinfos.xml"/>
    </output>

    <processing>
        <lateral-resolution value="1.1"/>
    </processing>

    <report>
        <xml-validation value="never"/>
        <no-step-log value="true"/>
    </report>

</configuration>
-->

<tripinfos xmlns:xsi="http://www.w3.org/2001/XMLSchema-instance" xsi:noNamespaceSchemaLocation="http://sumo.dlr.de/xsd/tripinfo_file.xsd">
    <tripinfo id="moped.2" depart="2.00" departLane="beg_0" departPos="2.20" departPosLat="0.11" departSpeed="0.00" departDelay="0.00" arrival="204.00" arrivalLane="end_0" arrivalPos="10.00" arrivalPosLat="-1.20" arrivalSpeed="4.37" duration="202.00" routeLength="507.80" waitSteps="155" timeLoss="171.38" rerouteNo="0" devices="tripinfo_moped.2" vType="moped" speedFactor="1.39" vaporized=""/>
    <tripinfo id="moped.3" depart="4.00" departLane="beg_1" departPos="2.20" departPosLat="-0.43" departSpeed="0.00" departDelay="1.00" arrival="204.00" arrivalLane="end_0" arrivalPos="10.00" arrivalPosLat="1.10" arrivalSpeed="4.36" duration="200.00" routeLength="507.80" waitSteps="150" timeLoss="163.58" rerouteNo="0" devices="tripinfo_moped.3" vType="moped" speedFactor="1.01" vaporized=""/>
    <tripinfo id="moped.0" depart="0.00" departLane="beg_0" departPos="2.20" departPosLat="0.51" departSpeed="0.00" departDelay="0.00" arrival="204.00" arrivalLane="end_0" arrivalPos="10.00" arrivalPosLat="0.05" arrivalSpeed="4.15" duration="204.00" routeLength="507.80" waitSteps="148" timeLoss="161.03" rerouteNo="0" devices="tripinfo_moped.0" vType="moped" speedFactor="0.85" vaporized=""/>
    <tripinfo id="moped.5" depart="6.00" departLane="beg_0" departPos="2.20" departPosLat="1.10" departSpeed="0.00" departDelay="1.00" arrival="204.00" arrivalLane="end_1" arrivalPos="10.00" arrivalPosLat="-1.20" arrivalSpeed="4.79" duration="198.00" routeLength="507.80" waitSteps="142" timeLoss="160.59" rerouteNo="0" devices="tripinfo_moped.5" vType="moped" speedFactor="0.98" vaporized=""/>
    <tripinfo id="moped.8" depart="9.00" departLane="beg_0" departPos="2.20" departPosLat="-1.04" departSpeed="0.00" departDelay="1.00" arrival="204.00" arrivalLane="end_1" arrivalPos="10.00" arrivalPosLat="0.05" arrivalSpeed="4.65" duration="195.00" routeLength="507.80" waitSteps="144" timeLoss="160.82" rerouteNo="0" devices="tripinfo_moped.8" vType="moped" speedFactor="1.08" vaporized=""/>
    <tripinfo id="moped.1" depart="1.00" departLane="beg_1" departPos="2.20" departPosLat="0.22" departSpeed="0.00" departDelay="0.00" arrival="204.00" arrivalLane="end_1" arrivalPos="10.00" arrivalPosLat="1.20" arrivalSpeed="3.75" duration="203.00" routeLength="507.80" waitSteps="149" timeLoss="162.70" rerouteNo="0" devices="tripinfo_moped.1" vType="moped" speedFactor="0.91" vaporized=""/>
    <tripinfo id="moped.15" depart="18.00" departLane="beg_1" departPos="2.20" departPosLat="0.07" departSpeed="0.00" departDelay="3.00" arrival="206.00" arrivalLane="end_1" arrivalPos="10.00" arrivalPosLat="-0.10" arrivalSpeed="4.59" duration="188.00" routeLength="507.80" waitSteps="136" timeLoss="150.40" rerouteNo="0" devices="tripinfo_moped.15" vType="moped" speedFactor="0.98" vaporized=""/>
    <tripinfo id="moped.12" depart="13.00" departLane="beg_1" departPos="2.20" departPosLat="0.83" departSpeed="0.00" departDelay="1.00" arrival="206.00" arrivalLane="end_1" arrivalPos="10.00" arrivalPosLat="1.20" arrivalSpeed="4.94" duration="193.00" routeLength="507.80" waitSteps="145" timeLoss="162.46" rerouteNo="0" devices="tripinfo_moped.12" vType="moped" speedFactor="1.32" vaporized=""/>
    <tripinfo id="moped.4" depart="4.00" departLane="beg_0" departPos="2.20" departPosLat="-1.09" departSpeed="0.00" departDelay="0.00" arrival="206.00" arrivalLane="end_0" arrivalPos="10.00" arrivalPosLat="-1.20" arrivalSpeed="4.82" duration="202.00" routeLength="507.80" waitSteps="149" timeLoss="164.93" rerouteNo="0" devices="tripinfo_moped.4" vType="moped" speedFactor="0.99" vaporized=""/>
    <tripinfo id="moped.9" depart="9.00" departLane="beg_1" departPos="2.20" departPosLat="1.18" departSpeed="0.00" departDelay="0.00" arrival="206.00" arrivalLane="end_0" arrivalPos="10.00" arrivalPosLat="1.00" arrivalSpeed="4.77" duration="197.00" routeLength="507.80" waitSteps="143" timeLoss="156.00" rerouteNo="0" devices="tripinfo_moped.9" vType="moped" speedFactor="0.89" vaporized=""/>
    <tripinfo id="moped.16" depart="17.00" departLane="beg_0" departPos="2.20" departPosLat="-1.00" departSpeed="0.00" departDelay="1.00" arrival="207.00" arrivalLane="end_1" arrivalPos="10.00" arrivalPosLat="-1.20" arrivalSpeed="4.96" duration="190.00" routeLength="507.80" waitSteps="140" timeLoss="159.20" rerouteNo="0" devices="tripinfo_moped.16" vType="moped" speedFactor="1.28" vaporized=""/>
    <tripinfo id="moped.7" depart="8.00" departLane="beg_0" departPos="2.20" departPosLat="-0.46" departSpeed="0.00" departDelay="1.00" arrival="207.00" arrivalLane="end_0" arrivalPos="10.00" arrivalPosLat="-0.10" arrivalSpeed="4.51" duration="199.00" routeLength="507.80" waitSteps="146" timeLoss="160.94" rerouteNo="0" devices="tripinfo_moped.7" vType="moped" speedFactor="0.96" vaporized=""/>
    <tripinfo id="moped.6" depart="7.00" departLane="beg_1" departPos="2.20" departPosLat="-0.80" departSpeed="0.00" departDelay="1.00" arrival="208.00" arrivalLane="end_1" arrivalPos="10.00" arrivalPosLat="-1.20" arrivalSpeed="5.19" duration="201.00" routeLength="507.80" waitSteps="133" timeLoss="147.10" rerouteNo="0" devices="tripinfo_moped.6" vType="moped" speedFactor="0.68" vaporized=""/>
    <tripinfo id="moped.11" depart="12.00" departLane="beg_1" departPos="2.20" departPosLat="-0.96" departSpeed="0.00" departDelay="1.00" arrival="209.00" arrivalLane="end_0" arrivalPos="10.00" arrivalPosLat="1.00" arrivalSpeed="5.97" duration="197.00" routeLength="507.80" waitSteps="138" timeLoss="152.45" rerouteNo="0" devices="tripinfo_moped.11" vType="moped" speedFactor="0.83" vaporized=""/>
    <tripinfo id="moped.10" depart="12.00" departLane="beg_0" departPos="2.20" departPosLat="-0.38" departSpeed="0.00" departDelay="2.00" arrival="209.00" arrivalLane="end_0" arrivalPos="10.00" arrivalPosLat="-1.20" arrivalSpeed="5.45" duration="197.00" routeLength="507.80" waitSteps="141" timeLoss="156.41" rerouteNo="0" devices="tripinfo_moped.10" vType="moped" speedFactor="0.91" vaporized=""/>
    <tripinfo id="moped.17" depart="19.00" departLane="beg_1" departPos="2.20" departPosLat="-1.08" departSpeed="0.00" departDelay="2.00" arrival="209.00" arrivalLane="end_0" arrivalPos="10.00" arrivalPosLat="0.05" arrivalSpeed="5.45" duration="190.00" routeLength="507.80" waitSteps="140" timeLoss="159.43" rerouteNo="0" devices="tripinfo_moped.17" vType="moped" speedFactor="1.74" vaporized=""/>
    <tripinfo id="moped.20" depart="24.00" departLane="beg_1" departPos="2.20" departPosLat="-0.91" departSpeed="0.00" departDelay="4.00" arrival="209.00" arrivalLane="end_1" arrivalPos="10.00" arrivalPosLat="-0.19" arrivalSpeed="6.21" duration="185.00" routeLength="507.80" waitSteps="135" timeLoss="154.18" rerouteNo="0" devices="tripinfo_moped.20" vType="moped" speedFactor="1.30" vaporized=""/>
    <tripinfo id="moped.14" depart="16.00" departLane="beg_1" departPos="2.20" departPosLat="0.72" departSpeed="0.00" departDelay="2.00" arrival="209.00" arrivalLane="end_1" arrivalPos="10.00" arrivalPosLat="1.20" arrivalSpeed="5.60" duration="193.00" routeLength="507.80" waitSteps="140" timeLoss="157.23" rerouteNo="0" devices="tripinfo_moped.14" vType="moped" speedFactor="1.03" vaporized=""/>
    <tripinfo id="moped.23" depart="24.00" departLane="beg_0" departPos="2.20" departPosLat="0.75" departSpeed="0.00" departDelay="1.00" arrival="211.00" arrivalLane="end_1" arrivalPos="10.00" arrivalPosLat="0.20" arrivalSpeed="6.19" duration="187.00" routeLength="507.80" waitSteps="133" timeLoss="152.87" rerouteNo="0" devices="tripinfo_moped.23" vType="moped" speedFactor="1.08" vaporized=""/>
    <tripinfo id="moped.30" depart="33.00" departLane="beg_1" departPos="2.20" departPosLat="0.88" departSpeed="0.00" departDelay="3.00" arrival="211.00" arrivalLane="end_1" arrivalPos="10.00" arrivalPosLat="-1.20" arrivalSpeed="6.09" duration="178.00" routeLength="507.80" waitSteps="117" timeLoss="135.95" rerouteNo="0" devices="tripinfo_moped.30" vType="moped" speedFactor="0.88" vaporized=""/>
    <tripinfo id="moped.22" depart="22.00" departLane="beg_1" departPos="2.20" departPosLat="0.44" departSpeed="0.00" departDelay="0.00" arrival="211.00" arrivalLane="end_1" arrivalPos="10.00" arrivalPosLat="1.20" arrivalSpeed="5.96" duration="189.00" routeLength="507.80" waitSteps="129" timeLoss="145.02" rerouteNo="0" devices="tripinfo_moped.22" vType="moped" speedFactor="0.84" vaporized=""/>
    <tripinfo id="moped.19" depart="21.00" departLane="beg_0" departPos="2.20" departPosLat="0.02" departSpeed="0.00" departDelay="2.00" arrival="211.00" arrivalLane="end_0" arrivalPos="10.00" arrivalPosLat="-1.20" arrivalSpeed="6.07" duration="190.00" routeLength="507.80" waitSteps="139" timeLoss="156.84" rerouteNo="0" devices="tripinfo_moped.19" vType="moped" speedFactor="1.11" vaporized=""/>
    <tripinfo id="moped.18" depart="20.00" departLane="beg_0" departPos="2.20" departPosLat="0.37" departSpeed="0.00" departDelay="2.00" arrival="211.00" arrivalLane="end_0" arrivalPos="10.00" arrivalPosLat="1.10" arrivalSpeed="5.67" duration="191.00" routeLength="507.80" waitSteps="128" timeLoss="143.89" rerouteNo="0" devices="tripinfo_moped.18" vType="moped" speedFactor="0.78" vaporized=""/>
    <tripinfo id="moped.35" depart="40.00" departLane="beg_1" departPos="2.20" departPosLat="-0.23" departSpeed="0.00" departDelay="5.00" arrival="212.00" arrivalLane="end_1" arrivalPos="10.00" arrivalPosLat="-1.20" arrivalSpeed="6.29" duration="172.00" routeLength="507.80" waitSteps="109" timeLoss="129.46" rerouteNo="0" devices="tripinfo_moped.35" vType="moped" speedFactor="0.86" vaporized=""/>
    <tripinfo id="moped.21" depart="23.00" departLane="beg_0" departPos="2.20" departPosLat="-0.91" departSpeed="0.00" departDelay="2.00" arrival="212.00" arrivalLane="end_0" arrivalPos="10.00" arrivalPosLat="-0.10" arrivalSpeed="6.21" duration="189.00" routeLength="507.80" waitSteps="131" timeLoss="153.37" rerouteNo="0" devices="tripinfo_moped.21" vType="moped" speedFactor="1.04" vaporized=""/>
    <tripinfo id="moped.27" depart="28.00" departLane="beg_1" departPos="2.20" departPosLat="0.03" departSpeed="0.00" departDelay="1.00" arrival="213.00" arrivalLane="end_1" arrivalPos="10.00" arrivalPosLat="-0.10" arrivalSpeed="7.28" duration="185.00" routeLength="507.80" waitSteps="118" timeLoss="134.20" rerouteNo="0" devices="tripinfo_moped.27" vType="moped" speedFactor="0.73" vaporized=""/>
    <tripinfo id="moped.29" depart="36.00" departLane="beg_1" departPos="2.20" departPosLat="0.05" departSpeed="0.00" departDelay="7.00" arrival="213.00" arrivalLane="end_1" arrivalPos="10.00" arrivalPosLat="1.20" arrivalSpeed="6.99" duration="177.00" routeLength="507.80" waitSteps="125" timeLoss="145.52" rerouteNo="0" devices="tripinfo_moped.29" vType="moped" speedFactor="1.17" vaporized=""/>
    <tripinfo id="moped.24" depart="27.00" departLane="beg_0" departPos="2.20" departPosLat="0.34" departSpeed="0.00" departDelay="3.00" arrival="213.00" arrivalLane="end_0" arrivalPos="10.00" arrivalPosLat="-1.20" arrivalSpeed="6.63" duration="186.00" routeLength="507.80" waitSteps="129" timeLoss="146.55" rerouteNo="0" devices="tripinfo_moped.24" vType="moped" speedFactor="0.94" vaporized=""/>
    <tripinfo id="moped.28" depart="30.00" departLane="beg_0" departPos="2.20" departPosLat="0.72" departSpeed="0.00" departDelay="2.00" arrival="213.00" arrivalLane="end_0" arrivalPos="10.00" arrivalPosLat="1.10" arrivalSpeed="6.41" duration="183.00" routeLength="507.80" waitSteps="113" timeLoss="130.18" rerouteNo="0" devices="tripinfo_moped.28" vType="moped" speedFactor="0.69" vaporized=""/>
    <tripinfo id="moped.31" depart="37.00" departLane="beg_0" departPos="2.20" departPosLat="-0.89" departSpeed="0.00" departDelay="6.00" arrival="213.00" arrivalLane="end_0" arrivalPos="10.00" arrivalPosLat="0.05" arrivalSpeed="5.75" duration="176.00" routeLength="507.80" waitSteps="123" timeLoss="144.69" rerouteNo="0" devices="tripinfo_moped.31" vType="moped" speedFactor="1.17" vaporized=""/>
    <tripinfo id="moped.33" depart="44.00" departLane="beg_0" departPos="2.20" departPosLat="-0.91" departSpeed="0.00" departDelay="11.00" arrival="214.00" arrivalLane="end_0" arrivalPos="10.00" arrivalPosLat="-1.20" arrivalSpeed="6.86" duration="170.00" routeLength="507.80" waitSteps="122" timeLoss="139.48" rerouteNo="0" devices="tripinfo_moped.33" vType="moped" speedFactor="1.63" vaporized=""/>
    <tripinfo id="moped.36" depart="42.00" departLane="beg_0" departPos="2.20" departPosLat="-0.05" departSpeed="0.00" departDelay="6.00" arrival="214.00" arrivalLane="end_1" arrivalPos="10.00" arrivalPosLat="-1.20" arrivalSpeed="7.09" duration="172.00" routeLength="507.80" waitSteps="109" timeLoss="130.50" rerouteNo="0" devices="tripinfo_moped.36" vType="moped" speedFactor="0.88" vaporized=""/>
    <tripinfo id="moped.34" depart="44.00" departLane="beg_1" departPos="2.20" departPosLat="-0.95" departSpeed="0.00" departDelay="10.00" arrival="214.00" arrivalLane="end_1" arrivalPos="10.00" arrivalPosLat="0.20" arrivalSpeed="7.48" duration="170.00" routeLength="507.80" waitSteps="116" timeLoss="139.14" rerouteNo="0" devices="tripinfo_moped.34" vType="moped" speedFactor="1.19" vaporized=""/>
    <tripinfo id="moped.13" depart="16.00" departLane="beg_0" departPos="2.20" departPosLat="-0.13" departSpeed="0.00" departDelay="3.00" arrival="215.00" arrivalLane="end_0" arrivalPos="10.00" arrivalPosLat="1.10" arrivalSpeed="6.75" duration="199.00" routeLength="507.80" waitSteps="111" timeLoss="125.67" rerouteNo="0" devices="tripinfo_moped.13" vType="moped" speedFactor="0.50" vaporized=""/>
    <tripinfo id="moped.32" depart="40.00" departLane="beg_0" departPos="2.20" departPosLat="-0.51" departSpeed="0.00" departDelay="8.00" arrival="215.00" arrivalLane="end_0" arrivalPos="10.00" arrivalPosLat="0.05" arrivalSpeed="6.08" duration="175.00" routeLength="507.80" waitSteps="111" timeLoss="127.29" rerouteNo="0" devices="tripinfo_moped.32" vType="moped" speedFactor="0.77" vaporized=""/>
    <tripinfo id="moped.26" depart="34.00" departLane="beg_0" departPos="2.20" departPosLat="-0.26" departSpeed="0.00" departDelay="8.00" arrival="215.00" arrivalLane="end_1" arrivalPos="10.00" arrivalPosLat="1.00" arrivalSpeed="7.55" duration="181.00" routeLength="507.80" waitSteps="122" timeLoss="150.11" rerouteNo="0" devices="tripinfo_moped.26" vType="moped" speedFactor="1.42" vaporized=""/>
    <tripinfo id="moped.25" depart="30.00" departLane="beg_1" departPos="2.20" departPosLat="-0.23" departSpeed="0.00" departDelay="5.00" arrival="216.00" arrivalLane="end_1" arrivalPos="10.00" arrivalPosLat="-1.20" arrivalSpeed="6.88" duration="186.00" routeLength="507.80" waitSteps="108" timeLoss="125.87" rerouteNo="0" devices="tripinfo_moped.25" vType="moped" speedFactor="0.61" vaporized=""/>
    <tripinfo id="moped.45" depart="53.00" departLane="beg_0" departPos="2.20" departPosLat="-0.82" departSpeed="0.00" departDelay="8.00" arrival="216.00" arrivalLane="end_0" arrivalPos="10.00" arrivalPosLat="-1.20" arrivalSpeed="7.74" duration="163.00" routeLength="507.80" waitSteps="112" timeLoss="132.34" rerouteNo="0" devices="tripinfo_moped.45" vType="moped" speedFactor="1.28" vaporized=""/>
    <tripinfo id="moped.48" depart="56.00" departLane="beg_0" departPos="2.20" departPosLat="-0.24" departSpeed="0.00" departDelay="8.00" arrival="217.00" arrivalLane="end_0" arrivalPos="10.00" arrivalPosLat="1.20" arrivalSpeed="7.04" duration="161.00" routeLength="507.80" waitSteps="108" timeLoss="130.32" rerouteNo="0" devices="tripinfo_moped.48" vType="moped" speedFactor="1.37" vaporized=""/>
    <tripinfo id="moped.43" depart="50.00" departLane="beg_0" departPos="2.20" departPosLat="-0.74" departSpeed="0.00" departDelay="7.00" arrival="217.00" arrivalLane="end_0" arrivalPos="10.00" arrivalPosLat="0.05" arrivalSpeed="6.66" duration="167.00" routeLength="507.80" waitSteps="107" timeLoss="135.44" rerouteNo="0" devices="tripinfo_moped.43" vType="moped" speedFactor="1.16" vaporized=""/>
    <tripinfo id="moped.40" depart="49.00" departLane="beg_1" departPos="2.20" departPosLat="-0.72" departSpeed="0.00" departDelay="9.00" arrival="217.00" arrivalLane="end_1" arrivalPos="10.00" arrivalPosLat="-0.30" arrivalSpeed="7.80" duration="168.00" routeLength="507.80" waitSteps="114" timeLoss="132.94" rerouteNo="0" devices="tripinfo_moped.40" vType="moped" speedFactor="1.06" vaporized=""/>
    <tripinfo id="moped.37" depart="46.00" departLane="beg_0" departPos="2.20" departPosLat="0.73" departSpeed="0.00" departDelay="9.00" arrival="217.00" arrivalLane="end_1" arrivalPos="10.00" arrivalPosLat="1.20" arrivalSpeed="8.12" duration="171.00" routeLength="507.80" waitSteps="117" timeLoss="136.88" rerouteNo="0" devices="tripinfo_moped.37" vType="moped" speedFactor="1.09" vaporized=""/>
    <tripinfo id="moped.42" depart="47.00" departLane="beg_0" departPos="2.20" departPosLat="-0.15" departSpeed="0.00" departDelay="5.00" arrival="218.00" arrivalLane="end_1" arrivalPos="10.00" arrivalPosLat="-1.20" arrivalSpeed="7.88" duration="171.00" routeLength="507.80" waitSteps="103" timeLoss="117.08" rerouteNo="0" devices="tripinfo_moped.42" vType="moped" speedFactor="0.68" vaporized=""/>
    <tripinfo id="moped.38" depart="47.00" departLane="beg_1" departPos="2.20" departPosLat="-0.62" departSpeed="0.00" departDelay="9.00" arrival="218.00" arrivalLane="end_1" arrivalPos="10.00" arrivalPosLat="0.20" arrivalSpeed="7.61" duration="171.00" routeLength="507.80" waitSteps="115" timeLoss="137.08" rerouteNo="0" devices="tripinfo_moped.38" vType="moped" speedFactor="1.08" vaporized=""/>
    <tripinfo id="moped.46" depart="54.00" departLane="beg_0" departPos="2.20" departPosLat="1.09" departSpeed="0.00" departDelay="8.00" arrival="218.00" arrivalLane="end_0" arrivalPos="10.00" arrivalPosLat="-1.20" arrivalSpeed="8.23" duration="164.00" routeLength="507.80" waitSteps="107" timeLoss="126.58" rerouteNo="0" devices="tripinfo_moped.46" vType="moped" speedFactor="0.98" vaporized=""/>
    <tripinfo id="moped.47" depart="54.00" departLane="beg_1" departPos="2.20" departPosLat="0.10" departSpeed="0.00" departDelay="7.00" arrival="219.00" arrivalLane="end_1" arrivalPos="10.00" arrivalPosLat="1.00" arrivalSpeed="8.38" duration="165.00" routeLength="507.80" waitSteps="109" timeLoss="131.33" rerouteNo="0" devices="tripinfo_moped.47" vType="moped" speedFactor="1.10" vaporized=""/>
    <tripinfo id="moped.39" depart="50.00" departLane="beg_0" departPos="2.20" departPosLat="1.09" departSpeed="0.00" departDelay="11.00" arrival="219.00" arrivalLane="end_0" arrivalPos="10.00" arrivalPosLat="1.00" arrivalSpeed="8.07" duration="169.00" routeLength="507.80" waitSteps="103" timeLoss="117.10" rerouteNo="0" devices="tripinfo_moped.39" vType="moped" speedFactor="0.71" vaporized=""/>
    <tripinfo id="moped.57" depart="65.00" departLane="beg_0" departPos="2.20" departPosLat="1.08" departSpeed="0.00" departDelay="8.00" arrival="219.00" arrivalLane="end_0" arrivalPos="10.00" arrivalPosLat="0.05" arrivalSpeed="7.31" duration="154.00" routeLength="507.80" waitSteps="99" timeLoss="123.24" rerouteNo="0" devices="tripinfo_moped.57" vType="moped" speedFactor="1.34" vaporized=""/>
    <tripinfo id="moped.44" depart="52.00" departLane="beg_1" departPos="2.20" departPosLat="-0.66" departSpeed="0.00" departDelay="8.00" arrival="220.00" arrivalLane="end_0" arrivalPos="10.00" arrivalPosLat="1.00" arrivalSpeed="8.38" duration="168.00" routeLength="507.80" waitSteps="97" timeLoss="111.93" rerouteNo="0" devices="tripinfo_moped.44" vType="moped" speedFactor="0.65" vaporized=""/>
    <tripinfo id="moped.54" depart="64.00" departLane="beg_0" departPos="2.20" departPosLat="-0.32" departSpeed="0.00" departDelay="10.00" arrival="220.00" arrivalLane="end_0" arrivalPos="10.00" arrivalPosLat="-1.20" arrivalSpeed="8.48" duration="156.00" routeLength="507.80" waitSteps="99" timeLoss="125.39" rerouteNo="0" devices="tripinfo_moped.54" vType="moped" speedFactor="1.37" vaporized=""/>
    <tripinfo id="moped.58" depart="67.00" departLane="beg_1" departPos="2.20" departPosLat="0.22" departSpeed="0.00" departDelay="9.00" arrival="220.00" arrivalLane="end_1" arrivalPos="10.00" arrivalPosLat="-1.20" arrivalSpeed="8.34" duration="153.00" routeLength="507.80" waitSteps="99" timeLoss="122.29" rerouteNo="0" devices="tripinfo_moped.58" vType="moped" speedFactor="1.30" vaporized=""/>
    <tripinfo id="moped.71" depart="74.00" departLane="beg_1" departPos="2.20" departPosLat="-0.09" departSpeed="0.00" departDelay="3.00" arrival="220.00" arrivalLane="end_1" arrivalPos="10.00" arrivalPosLat="0.20" arrivalSpeed="7.67" duration="146.00" routeLength="507.80" waitSteps="93" timeLoss="115.34" rerouteNo="0" devices="tripinfo_moped.71" vType="moped" speedFactor="1.38" vaporized=""/>
    <tripinfo id="moped.52" depart="60.00" departLane="beg_0" departPos="2.20" departPosLat="-0.06" departSpeed="0.00" departDelay="8.00" arrival="221.00" arrivalLane="end_0" arrivalPos="10.00" arrivalPosLat="-0.10" arrivalSpeed="8.22" duration="161.00" routeLength="507.80" waitSteps="92" timeLoss="112.77" rerouteNo="0" devices="tripinfo_moped.52" vType="moped" speedFactor="0.77" vaporized=""/>
    <tripinfo id="moped.53" depart="60.00" departLane="beg_1" departPos="2.20" departPosLat="1.04" departSpeed="0.00" departDelay="7.00" arrival="221.00" arrivalLane="end_1" arrivalPos="10.00" arrivalPosLat="1.00" arrivalSpeed="8.40" duration="161.00" routeLength="507.80" waitSteps="99" timeLoss="116.22" rerouteNo="0" devices="tripinfo_moped.53" vType="moped" speedFactor="0.83" vaporized=""/>
    <tripinfo id="moped.41" depart="52.00" departLane="beg_1" departPos="2.20" departPosLat="1.12" departSpeed="0.00" departDelay="11.00" arrival="222.00" arrivalLane="end_1" arrivalPos="10.00" arrivalPosLat="-1.20" arrivalSpeed="7.89" duration="170.00" routeLength="507.80" waitSteps="94" timeLoss="108.29" rerouteNo="0" devices="tripinfo_moped.41" vType="moped" speedFactor="0.60" vaporized=""/>
    <tripinfo id="moped.60" depart="67.00" departLane="beg_1" departPos="2.20" departPosLat="-1.08" departSpeed="0.00" departDelay="7.00" arrival="222.00" arrivalLane="end_1" arrivalPos="10.00" arrivalPosLat="0.20" arrivalSpeed="8.10" duration="155.00" routeLength="507.80" waitSteps="93" timeLoss="124.18" rerouteNo="0" devices="tripinfo_moped.60" vType="moped" speedFactor="1.33" vaporized=""/>
    <tripinfo id="moped.56" depart="64.00" departLane="beg_1" departPos="2.20" departPosLat="1.14" departSpeed="0.00" departDelay="8.00" arrival="222.00" arrivalLane="end_1" arrivalPos="10.00" arrivalPosLat="1.20" arrivalSpeed="8.53" duration="158.00" routeLength="507.80" waitSteps="98" timeLoss="117.10" rerouteNo="0" devices="tripinfo_moped.56" vType="moped" speedFactor="0.90" vaporized=""/>
    <tripinfo id="moped.63" depart="71.00" departLane="beg_1" departPos="2.20" departPosLat="1.06" departSpeed="0.00" departDelay="8.00" arrival="222.00" arrivalLane="end_0" arrivalPos="10.00" arrivalPosLat="1.00" arrivalSpeed="8.91" duration="151.00" routeLength="507.80" waitSteps="92" timeLoss="118.66" rerouteNo="0" devices="tripinfo_moped.63" vType="moped" speedFactor="1.14" vaporized=""/>
    <tripinfo id="moped.62" depart="68.00" departLane="beg_0" departPos="2.20" departPosLat="-0.03" departSpeed="0.00" departDelay="6.00" arrival="222.00" arrivalLane="end_0" arrivalPos="10.00" arrivalPosLat="0.05" arrivalSpeed="8.15" duration="154.00" routeLength="507.80" waitSteps="90" timeLoss="123.33" rerouteNo="0" devices="tripinfo_moped.62" vType="moped" speedFactor="1.47" vaporized=""/>
    <tripinfo id="moped.49" depart="57.00" departLane="beg_0" departPos="2.20" departPosLat="-1.01" departSpeed="0.00" departDelay="8.00" arrival="222.00" arrivalLane="end_0" arrivalPos="10.00" arrivalPosLat="-1.20" arrivalSpeed="9.24" duration="165.00" routeLength="507.80" waitSteps="97" timeLoss="111.52" rerouteNo="0" devices="tripinfo_moped.49" vType="moped" speedFactor="0.69" vaporized=""/>
    <tripinfo id="moped.72" depart="82.00" departLane="beg_1" departPos="2.20" departPosLat="-1.06" departSpeed="0.00" departDelay="10.00" arrival="223.00" arrivalLane="end_1" arrivalPos="10.00" arrivalPosLat="-0.10" arrivalSpeed="8.18" duration="141.00" routeLength="507.80" waitSteps="89" timeLoss="110.47" rerouteNo="0" devices="tripinfo_moped.72" vType="moped" speedFactor="1.64" vaporized=""/>
    <tripinfo id="moped.50" depart="57.00" departLane="beg_1" departPos="2.20" departPosLat="-0.71" departSpeed="0.00" departDelay="7.00" arrival="224.00" arrivalLane="end_0" arrivalPos="10.00" arrivalPosLat="1.00" arrivalSpeed="7.09" duration="167.00" routeLength="507.80" waitSteps="87" timeLoss="99.30" rerouteNo="0" devices="tripinfo_moped.50" vType="moped" speedFactor="0.55" vaporized=""/>
    <tripinfo id="moped.61" depart="74.00" departLane="beg_0" departPos="2.20" departPosLat="-0.11" departSpeed="0.00" departDelay="13.00" arrival="224.00" arrivalLane="end_0" arrivalPos="10.00" arrivalPosLat="-1.20" arrivalSpeed="9.80" duration="150.00" routeLength="507.80" waitSteps="81" timeLoss="107.12" rerouteNo="0" devices="tripinfo_moped.61" vType="moped" speedFactor="0.86" vaporized=""/>
    <tripinfo id="moped.64" depart="71.00" departLane="beg_1" departPos="2.20" departPosLat="-0.09" departSpeed="0.00" departDelay="7.00" arrival="224.00" arrivalLane="end_0" arrivalPos="10.00" arrivalPosLat="0.05" arrivalSpeed="9.74" duration="153.00" routeLength="507.80" waitSteps="88" timeLoss="110.00" rerouteNo="0" devices="tripinfo_moped.64" vType="moped" speedFactor="0.86" vaporized=""/>
    <tripinfo id="moped.68" depart="80.00" departLane="beg_0" departPos="2.20" departPosLat="-0.80" departSpeed="0.00" departDelay="12.00" arrival="224.00" arrivalLane="end_1" arrivalPos="10.00" arrivalPosLat="-1.20" arrivalSpeed="9.94" duration="144.00" routeLength="507.80" waitSteps="84" timeLoss="112.90" rerouteNo="0" devices="tripinfo_moped.68" vType="moped" speedFactor="1.31" vaporized=""/>
    <tripinfo id="moped.55" depart="62.00" departLane="beg_1" departPos="2.20" departPosLat="-1.19" departSpeed="0.00" departDelay="7.00" arrival="224.00" arrivalLane="end_1" arrivalPos="10.00" arrivalPosLat="1.00" arrivalSpeed="8.84" duration="162.00" routeLength="507.80" waitSteps="95" timeLoss="117.11" rerouteNo="0" devices="tripinfo_moped.55" vType="moped" speedFactor="0.82" vaporized=""/>
    <tripinfo id="moped.70" depart="79.00" departLane="beg_0" departPos="2.20" departPosLat="0.16" departSpeed="0.00" departDelay="9.00" arrival="225.00" arrivalLane="end_1" arrivalPos="10.00" arrivalPosLat="-0.10" arrivalSpeed="9.83" duration="146.00" routeLength="507.80" waitSteps="94" timeLoss="115.21" rerouteNo="0" devices="tripinfo_moped.70" vType="moped" speedFactor="1.52" vaporized=""/>
    <tripinfo id="moped.77" depart="81.00" departLane="beg_1" departPos="2.20" departPosLat="0.17" departSpeed="0.00" departDelay="4.00" arrival="225.00" arrivalLane="end_1" arrivalPos="10.00" arrivalPosLat="-1.05" arrivalSpeed="8.96" duration="144.00" routeLength="507.80" waitSteps="82" timeLoss="113.38" rerouteNo="0" devices="tripinfo_moped.77" vType="moped" speedFactor="1.38" vaporized=""/>
    <tripinfo id="moped.78" depart="85.00" departLane="beg_1" departPos="2.20" departPosLat="-0.91" departSpeed="0.00" departDelay="7.00" arrival="225.00" arrivalLane="end_1" arrivalPos="10.00" arrivalPosLat="1.20" arrivalSpeed="9.83" duration="140.00" routeLength="507.80" waitSteps="80" timeLoss="101.63" rerouteNo="0" devices="tripinfo_moped.78" vType="moped" speedFactor="0.95" vaporized=""/>
    <tripinfo id="moped.65" depart="77.00" departLane="beg_1" departPos="2.20" departPosLat="-0.15" departSpeed="0.00" departDelay="12.00" arrival="225.00" arrivalLane="end_0" arrivalPos="10.00" arrivalPosLat="1.00" arrivalSpeed="9.13" duration="148.00" routeLength="507.80" waitSteps="83" timeLoss="97.77" rerouteNo="0" devices="tripinfo_moped.65" vType="moped" speedFactor="0.73" vaporized=""/>
    <tripinfo id="moped.73" depart="83.00" departLane="beg_0" departPos="2.20" departPosLat="1.20" departSpeed="0.00" departDelay="10.00" arrival="226.00" arrivalLane="end_0" arrivalPos="10.00" arrivalPosLat="-1.20" arrivalSpeed="9.69" duration="143.00" routeLength="507.80" waitSteps="79" timeLoss="112.04" rerouteNo="0" devices="tripinfo_moped.73" vType="moped" speedFactor="1.28" vaporized=""/>
    <tripinfo id="moped.66" depart="76.00" departLane="beg_0" departPos="2.20" departPosLat="-1.13" departSpeed="0.00" departDelay="10.00" arrival="226.00" arrivalLane="end_0" arrivalPos="10.00" arrivalPosLat="0.05" arrivalSpeed="10.09" duration="150.00" routeLength="507.80" waitSteps="86" timeLoss="105.16" rerouteNo="0" devices="tripinfo_moped.66" vType="moped" speedFactor="0.82" vaporized=""/>
    <tripinfo id="moped.82" depart="92.00" departLane="beg_1" departPos="2.20" departPosLat="-0.91" departSpeed="0.00" departDelay="10.00" arrival="227.00" arrivalLane="end_1" arrivalPos="10.00" arrivalPosLat="-0.10" arrivalSpeed="10.56" duration="135.00" routeLength="507.80" waitSteps="81" timeLoss="102.51" rerouteNo="0" devices="tripinfo_moped.82" vType="moped" speedFactor="1.15" vaporized=""/>