<?xml version="1.0" encoding="UTF-8"?>

<!-- generated on Fri Mar 10 09:19:18 2017 by SUMO Version dev-SVN-r23260
<?xml version="1.0" encoding="UTF-8"?>

<configuration xmlns:xsi="http://www.w3.org/2001/XMLSchema-instance" xsi:noNamespaceSchemaLocation="http://sumo.dlr.de/xsd/sumoConfiguration.xsd">

    <input>
        <net-file value="net.net.xml"/>
        <route-files value="input_routes.rou.xml"/>
    </input>

    <output>
        <tripinfo-output value="tripinfos.xml"/>
    </output>

    <processing>
        <lateral-resolution value="1.1"/>
    </processing>

    <report>
        <xml-validation value="never"/>
        <no-step-log value="true"/>
    </report>

</configuration>
-->

<tripinfos xmlns:xsi="http://www.w3.org/2001/XMLSchema-instance" xsi:noNamespaceSchemaLocation="http://sumo.dlr.de/xsd/tripinfo_file.xsd">
    <tripinfo id="moped.3" depart="4.00" departLane="beg_1" departPos="2.20" departPosLat="-0.43" departSpeed="0.00" departDelay="1.00" arrival="204.00" arrivalLane="end_1" arrivalPos="10.00" arrivalPosLat="-1.20" arrivalSpeed="4.88" duration="200.00" routeLength="507.80" waitSteps="147" timeLoss="169.26" rerouteNo="0" devices="tripinfo_moped.3" vType="moped" speedFactor="1.25" vaporized=""/>
    <tripinfo id="moped.6" depart="7.00" departLane="beg_1" departPos="2.20" departPosLat="-0.80" departSpeed="0.00" departDelay="1.00" arrival="204.00" arrivalLane="end_1" arrivalPos="10.00" arrivalPosLat="1.14" arrivalSpeed="4.88" duration="197.00" routeLength="507.80" waitSteps="149" timeLoss="164.64" rerouteNo="0" devices="tripinfo_moped.6" vType="moped" speedFactor="1.14" vaporized=""/>
    <tripinfo id="moped.1" depart="1.00" departLane="beg_1" departPos="2.20" departPosLat="0.22" departSpeed="0.00" departDelay="0.00" arrival="204.00" arrivalLane="end_1" arrivalPos="10.00" arrivalPosLat="0.02" arrivalSpeed="3.89" duration="203.00" routeLength="507.80" waitSteps="145" timeLoss="158.00" rerouteNo="0" devices="tripinfo_moped.1" vType="moped" speedFactor="0.81" vaporized=""/>
    <tripinfo id="moped.2" depart="2.00" departLane="beg_0" departPos="2.20" departPosLat="0.11" departSpeed="0.00" departDelay="0.00" arrival="204.00" arrivalLane="end_0" arrivalPos="10.00" arrivalPosLat="0.03" arrivalSpeed="4.42" duration="202.00" routeLength="507.80" waitSteps="151" timeLoss="166.32" rerouteNo="0" devices="tripinfo_moped.2" vType="moped" speedFactor="1.03" vaporized=""/>
    <tripinfo id="moped.4" depart="4.00" departLane="beg_0" departPos="2.20" departPosLat="-1.09" departSpeed="0.00" departDelay="0.00" arrival="204.00" arrivalLane="end_0" arrivalPos="10.00" arrivalPosLat="-1.20" arrivalSpeed="4.31" duration="200.00" routeLength="507.80" waitSteps="151" timeLoss="166.31" rerouteNo="0" devices="tripinfo_moped.4" vType="moped" speedFactor="1.09" vaporized=""/>
    <tripinfo id="moped.0" depart="0.00" departLane="beg_0" departPos="2.20" departPosLat="0.51" departSpeed="0.00" departDelay="0.00" arrival="204.00" arrivalLane="end_0" arrivalPos="10.00" arrivalPosLat="1.08" arrivalSpeed="4.14" duration="204.00" routeLength="507.80" waitSteps="159" timeLoss="172.92" rerouteNo="0" devices="tripinfo_moped.0" vType="moped" speedFactor="1.18" vaporized=""/>
    <tripinfo id="moped.7" depart="8.00" departLane="beg_0" departPos="2.20" departPosLat="-0.46" departSpeed="0.00" departDelay="1.00" arrival="206.00" arrivalLane="end_0" arrivalPos="10.00" arrivalPosLat="0.04" arrivalSpeed="4.89" duration="198.00" routeLength="507.80" waitSteps="130" timeLoss="142.31" rerouteNo="0" devices="tripinfo_moped.7" vType="moped" speedFactor="0.66" vaporized=""/>
    <tripinfo id="moped.10" depart="12.00" departLane="beg_0" departPos="2.20" departPosLat="0.48" departSpeed="0.00" departDelay="2.00" arrival="206.00" arrivalLane="end_1" arrivalPos="10.00" arrivalPosLat="-1.20" arrivalSpeed="4.85" duration="194.00" routeLength="507.80" waitSteps="141" timeLoss="163.38" rerouteNo="0" devices="tripinfo_moped.10" vType="moped" speedFactor="1.27" vaporized=""/>
    <tripinfo id="moped.8" depart="9.00" departLane="beg_0" departPos="2.20" departPosLat="-1.04" departSpeed="0.00" departDelay="1.00" arrival="207.00" arrivalLane="end_0" arrivalPos="10.00" arrivalPosLat="-1.20" arrivalSpeed="5.51" duration="198.00" routeLength="507.80" waitSteps="139" timeLoss="152.61" rerouteNo="0" devices="tripinfo_moped.8" vType="moped" speedFactor="0.81" vaporized=""/>
    <tripinfo id="moped.14" depart="16.00" departLane="beg_0" departPos="2.20" departPosLat="0.19" departSpeed="0.00" departDelay="2.00" arrival="207.00" arrivalLane="end_0" arrivalPos="10.00" arrivalPosLat="1.10" arrivalSpeed="5.04" duration="191.00" routeLength="507.80" waitSteps="130" timeLoss="153.12" rerouteNo="0" devices="tripinfo_moped.14" vType="moped" speedFactor="0.97" vaporized=""/>
    <tripinfo id="moped.12" depart="14.00" departLane="beg_1" departPos="2.20" departPosLat="1.15" departSpeed="0.00" departDelay="2.00" arrival="207.00" arrivalLane="end_1" arrivalPos="10.00" arrivalPosLat="1.16" arrivalSpeed="5.43" duration="193.00" routeLength="507.80" waitSteps="143" timeLoss="160.60" rerouteNo="0" devices="tripinfo_moped.12" vType="moped" speedFactor="1.14" vaporized=""/>
    <tripinfo id="moped.11" depart="14.00" departLane="beg_1" departPos="2.20" departPosLat="0.12" departSpeed="0.00" departDelay="3.00" arrival="207.00" arrivalLane="end_1" arrivalPos="10.00" arrivalPosLat="0.02" arrivalSpeed="4.93" duration="193.00" routeLength="507.80" waitSteps="136" timeLoss="158.79" rerouteNo="0" devices="tripinfo_moped.11" vType="moped" speedFactor="1.08" vaporized=""/>
    <tripinfo id="moped.18" depart="18.00" departLane="beg_0" departPos="2.20" departPosLat="1.06" departSpeed="0.00" departDelay="0.00" arrival="208.00" arrivalLane="end_0" arrivalPos="10.00" arrivalPosLat="0.04" arrivalSpeed="5.17" duration="190.00" routeLength="507.80" waitSteps="127" timeLoss="144.70" rerouteNo="0" devices="tripinfo_moped.18" vType="moped" speedFactor="0.81" vaporized=""/>
    <tripinfo id="moped.15" depart="18.00" departLane="beg_1" departPos="2.20" departPosLat="-1.17" departSpeed="0.00" departDelay="3.00" arrival="208.00" arrivalLane="end_1" arrivalPos="10.00" arrivalPosLat="-1.20" arrivalSpeed="5.43" duration="190.00" routeLength="507.80" waitSteps="129" timeLoss="143.02" rerouteNo="0" devices="tripinfo_moped.15" vType="moped" speedFactor="0.78" vaporized=""/>
    <tripinfo id="moped.16" depart="16.00" departLane="beg_0" departPos="2.20" departPosLat="-0.97" departSpeed="0.00" departDelay="0.00" arrival="209.00" arrivalLane="end_0" arrivalPos="10.00" arrivalPosLat="-1.20" arrivalSpeed="5.51" duration="193.00" routeLength="507.80" waitSteps="122" timeLoss="134.96" rerouteNo="0" devices="tripinfo_moped.16" vType="moped" speedFactor="0.64" vaporized=""/>
    <tripinfo id="moped.17" depart="19.00" departLane="beg_0" departPos="2.20" departPosLat="-1.12" departSpeed="0.00" departDelay="2.00" arrival="209.00" arrivalLane="end_0" arrivalPos="10.00" arrivalPosLat="1.09" arrivalSpeed="5.64" duration="190.00" routeLength="507.80" waitSteps="122" timeLoss="145.28" rerouteNo="0" devices="tripinfo_moped.17" vType="moped" speedFactor="0.82" vaporized=""/>
    <tripinfo id="moped.13" depart="13.00" departLane="beg_0" departPos="2.20" departPosLat="-0.37" departSpeed="0.00" departDelay="0.00" arrival="209.00" arrivalLane="end_1" arrivalPos="10.00" arrivalPosLat="0.02" arrivalSpeed="5.95" duration="196.00" routeLength="507.80" waitSteps="132" timeLoss="165.16" rerouteNo="0" devices="tripinfo_moped.13" vType="moped" speedFactor="1.37" vaporized=""/>
    <tripinfo id="moped.20" depart="20.00" departLane="beg_1" departPos="2.20" departPosLat="0.37" departSpeed="0.00" departDelay="0.00" arrival="209.00" arrivalLane="end_1" arrivalPos="10.00" arrivalPosLat="1.16" arrivalSpeed="5.47" duration="189.00" routeLength="507.80" waitSteps="136" timeLoss="154.10" rerouteNo="0" devices="tripinfo_moped.20" vType="moped" speedFactor="1.05" vaporized=""/>
    <tripinfo id="moped.23" depart="23.00" departLane="beg_0" departPos="2.20" departPosLat="-0.91" departSpeed="0.00" departDelay="0.00" arrival="210.00" arrivalLane="end_0" arrivalPos="10.00" arrivalPosLat="0.09" arrivalSpeed="6.12" duration="187.00" routeLength="507.80" waitSteps="119" timeLoss="132.10" rerouteNo="0" devices="tripinfo_moped.23" vType="moped" speedFactor="0.67" vaporized=""/>
    <tripinfo id="moped.21" depart="23.00" departLane="beg_0" departPos="2.20" departPosLat="1.14" departSpeed="0.00" departDelay="2.00" arrival="210.00" arrivalLane="end_1" arrivalPos="10.00" arrivalPosLat="-1.00" arrivalSpeed="6.30" duration="187.00" routeLength="507.80" waitSteps="126" timeLoss="151.34" rerouteNo="0" devices="tripinfo_moped.21" vType="moped" speedFactor="1.03" vaporized=""/>
    <tripinfo id="moped.28" depart="29.00" departLane="beg_1" departPos="2.20" departPosLat="-0.96" departSpeed="0.00" departDelay="1.00" arrival="210.00" arrivalLane="end_1" arrivalPos="10.00" arrivalPosLat="0.05" arrivalSpeed="5.82" duration="181.00" routeLength="507.80" waitSteps="129" timeLoss="150.49" rerouteNo="0" devices="tripinfo_moped.28" vType="moped" speedFactor="1.40" vaporized=""/>
    <tripinfo id="moped.26" depart="27.00" departLane="beg_0" departPos="2.20" departPosLat="-0.87" departSpeed="0.00" departDelay="1.00" arrival="211.00" arrivalLane="end_0" arrivalPos="10.00" arrivalPosLat="-1.20" arrivalSpeed="6.04" duration="184.00" routeLength="507.80" waitSteps="119" timeLoss="134.84" rerouteNo="0" devices="tripinfo_moped.26" vType="moped" speedFactor="0.75" vaporized=""/>
    <tripinfo id="moped.31" depart="34.00" departLane="beg_1" departPos="2.20" departPosLat="0.15" departSpeed="0.00" departDelay="3.00" arrival="211.00" arrivalLane="end_0" arrivalPos="10.00" arrivalPosLat="1.04" arrivalSpeed="6.29" duration="177.00" routeLength="507.80" waitSteps="122" timeLoss="146.32" rerouteNo="0" devices="tripinfo_moped.31" vType="moped" speedFactor="1.46" vaporized=""/>
    <tripinfo id="moped.19" depart="22.00" departLane="beg_1" departPos="2.20" departPosLat="-1.06" departSpeed="0.00" departDelay="3.00" arrival="211.00" arrivalLane="end_1" arrivalPos="10.00" arrivalPosLat="1.16" arrivalSpeed="6.34" duration="189.00" routeLength="507.80" waitSteps="135" timeLoss="158.26" rerouteNo="0" devices="tripinfo_moped.19" vType="moped" speedFactor="1.47" vaporized=""/>
    <tripinfo id="moped.40" depart="44.00" departLane="beg_0" departPos="2.20" departPosLat="1.12" departSpeed="0.00" departDelay="4.00" arrival="212.00" arrivalLane="end_0" arrivalPos="10.00" arrivalPosLat="0.12" arrivalSpeed="7.09" duration="168.00" routeLength="507.80" waitSteps="112" timeLoss="134.22" rerouteNo="0" devices="tripinfo_moped.40" vType="moped" speedFactor="1.09" vaporized=""/>
    <tripinfo id="moped.30" depart="31.00" departLane="beg_0" departPos="2.20" departPosLat="0.14" departSpeed="0.00" departDelay="1.00" arrival="212.00" arrivalLane="end_1" arrivalPos="10.00" arrivalPosLat="-1.20" arrivalSpeed="6.80" duration="181.00" routeLength="507.80" waitSteps="120" timeLoss="150.28" rerouteNo="0" devices="tripinfo_moped.30" vType="moped" speedFactor="1.54" vaporized=""/>
    <tripinfo id="moped.9" depart="10.00" departLane="beg_1" departPos="2.20" departPosLat="-0.50" departSpeed="0.00" departDelay="1.00" arrival="212.00" arrivalLane="end_1" arrivalPos="10.00" arrivalPosLat="0.04" arrivalSpeed="6.24" duration="202.00" routeLength="507.80" waitSteps="126" timeLoss="137.88" rerouteNo="0" devices="tripinfo_moped.9" vType="moped" speedFactor="0.57" vaporized=""/>
    <tripinfo id="moped.32" depart="34.00" departLane="beg_0" departPos="2.20" departPosLat="-0.01" departSpeed="0.00" departDelay="2.00" arrival="213.00" arrivalLane="end_0" arrivalPos="10.00" arrivalPosLat="-1.20" arrivalSpeed="7.07" duration="179.00" routeLength="507.80" waitSteps="118" timeLoss="142.49" rerouteNo="0" devices="tripinfo_moped.32" vType="moped" speedFactor="1.02" vaporized=""/>
    <tripinfo id="moped.5" depart="6.00" departLane="beg_0" departPos="2.20" departPosLat="1.10" departSpeed="0.00" departDelay="1.00" arrival="213.00" arrivalLane="end_0" arrivalPos="10.00" arrivalPosLat="1.16" arrivalSpeed="6.31" duration="207.00" routeLength="507.80" waitSteps="120" timeLoss="132.35" rerouteNo="0" devices="tripinfo_moped.5" vType="moped" speedFactor="0.49" vaporized=""/>
    <tripinfo id="moped.22" depart="25.00" departLane="beg_1" departPos="2.20" departPosLat="1.03" departSpeed="0.00" departDelay="3.00" arrival="213.00" arrivalLane="end_1" arrivalPos="10.00" arrivalPosLat="1.19" arrivalSpeed="6.75" duration="188.00" routeLength="507.80" waitSteps="131" timeLoss="148.06" rerouteNo="0" devices="tripinfo_moped.22" vType="moped" speedFactor="0.93" vaporized=""/>
    <tripinfo id="moped.35" depart="39.00" departLane="beg_0" departPos="2.20" departPosLat="-0.24" departSpeed="0.00" departDelay="4.00" arrival="214.00" arrivalLane="end_1" arrivalPos="10.00" arrivalPosLat="-1.20" arrivalSpeed="7.55" duration="175.00" routeLength="507.80" waitSteps="118" timeLoss="140.26" rerouteNo="0" devices="tripinfo_moped.35" vType="moped" speedFactor="1.06" vaporized=""/>
    <tripinfo id="moped.33" depart="37.00" departLane="beg_1" departPos="2.20" departPosLat="0.23" departSpeed="0.00" departDelay="4.00" arrival="214.00" arrivalLane="end_1" arrivalPos="10.00" arrivalPosLat="-0.02" arrivalSpeed="6.74" duration="177.00" routeLength="507.80" waitSteps="120" timeLoss="146.40" rerouteNo="0" devices="tripinfo_moped.33" vType="moped" speedFactor="1.52" vaporized=""/>
    <tripinfo id="moped.43" depart="51.00" departLane="beg_0" departPos="2.20" departPosLat="-1.13" departSpeed="0.00" departDelay="8.00" arrival="214.00" arrivalLane="end_0" arrivalPos="10.00" arrivalPosLat="0.05" arrivalSpeed="7.88" duration="163.00" routeLength="507.80" waitSteps="112" timeLoss="129.74" rerouteNo="0" devices="tripinfo_moped.43" vType="moped" speedFactor="1.11" vaporized=""/>
    <tripinfo id="moped.27" depart="29.00" departLane="beg_1" departPos="2.20" departPosLat="0.56" departSpeed="0.00" departDelay="2.00" arrival="215.00" arrivalLane="end_1" arrivalPos="10.00" arrivalPosLat="1.20" arrivalSpeed="7.83" duration="186.00" routeLength="507.80" waitSteps="125" timeLoss="142.11" rerouteNo="0" devices="tripinfo_moped.27" vType="moped" speedFactor="0.85" vaporized=""/>
    <tripinfo id="moped.36" depart="41.00" departLane="beg_0" departPos="2.20" departPosLat="-1.07" departSpeed="0.00" departDelay="5.00" arrival="215.00" arrivalLane="end_0" arrivalPos="10.00" arrivalPosLat="-1.20" arrivalSpeed="8.43" duration="174.00" routeLength="507.80" waitSteps="116" timeLoss="133.59" rerouteNo="0" devices="tripinfo_moped.36" vType="moped" speedFactor="0.92" vaporized=""/>
    <tripinfo id="moped.38" depart="44.00" departLane="beg_0" departPos="2.20" departPosLat="-0.62" departSpeed="0.00" departDelay="6.00" arrival="215.00" arrivalLane="end_0" arrivalPos="10.00" arrivalPosLat="1.02" arrivalSpeed="7.67" duration="171.00" routeLength="507.80" waitSteps="118" timeLoss="140.12" rerouteNo="0" devices="tripinfo_moped.38" vType="moped" speedFactor="1.31" vaporized=""/>
    <tripinfo id="moped.57" depart="58.00" departLane="beg_0" departPos="2.20" departPosLat="0.15" departSpeed="0.00" departDelay="1.00" arrival="216.00" arrivalLane="end_0" arrivalPos="10.00" arrivalPosLat="0.04" arrivalSpeed="7.45" duration="158.00" routeLength="507.80" waitSteps="107" timeLoss="127.34" rerouteNo="0" devices="tripinfo_moped.57" vType="moped" speedFactor="1.43" vaporized=""/>
    <tripinfo id="moped.44" depart="48.00" departLane="beg_0" departPos="2.20" departPosLat="-1.18" departSpeed="0.00" departDelay="4.00" arrival="216.00" arrivalLane="end_0" arrivalPos="10.00" arrivalPosLat="-1.20" arrivalSpeed="7.89" duration="168.00" routeLength="507.80" waitSteps="115" timeLoss="135.53" rerouteNo="0" devices="tripinfo_moped.44" vType="moped" speedFactor="1.13" vaporized=""/>
    <tripinfo id="moped.37" depart="44.00" departLane="beg_1" departPos="2.20" departPosLat="-1.00" departSpeed="0.00" departDelay="7.00" arrival="216.00" arrivalLane="end_1" arrivalPos="10.00" arrivalPosLat="-0.03" arrivalSpeed="7.14" duration="172.00" routeLength="507.80" waitSteps="114" timeLoss="141.34" rerouteNo="0" devices="tripinfo_moped.37" vType="moped" speedFactor="1.54" vaporized=""/>
    <tripinfo id="moped.29" depart="29.00" departLane="beg_0" departPos="2.20" departPosLat="1.11" departSpeed="0.00" departDelay="0.00" arrival="216.00" arrivalLane="end_1" arrivalPos="10.00" arrivalPosLat="1.20" arrivalSpeed="7.69" duration="187.00" routeLength="507.80" waitSteps="120" timeLoss="140.78" rerouteNo="0" devices="tripinfo_moped.29" vType="moped" speedFactor="0.79" vaporized=""/>
    <tripinfo id="moped.24" depart="26.00" departLane="beg_0" departPos="2.20" departPosLat="1.16" departSpeed="0.00" departDelay="2.00" arrival="217.00" arrivalLane="end_0" arrivalPos="10.00" arrivalPosLat="1.10" arrivalSpeed="6.54" duration="191.00" routeLength="507.80" waitSteps="100" timeLoss="113.65" rerouteNo="0" devices="tripinfo_moped.24" vType="moped" speedFactor="0.48" vaporized=""/>
    <tripinfo id="moped.25" depart="25.00" departLane="beg_1" departPos="2.20" departPosLat="-0.78" departSpeed="0.00" departDelay="0.00" arrival="217.00" arrivalLane="end_1" arrivalPos="10.00" arrivalPosLat="-1.20" arrivalSpeed="7.70" duration="192.00" routeLength="507.80" waitSteps="114" timeLoss="132.00" rerouteNo="0" devices="tripinfo_moped.25" vType="moped" speedFactor="0.62" vaporized=""/>
    <tripinfo id="moped.42" depart="49.00" departLane="beg_1" departPos="2.20" departPosLat="-0.54" departSpeed="0.00" departDelay="7.00" arrival="218.00" arrivalLane="end_1" arrivalPos="10.00" arrivalPosLat="1.20" arrivalSpeed="8.35" duration="169.00" routeLength="507.80" waitSteps="114" timeLoss="138.20" rerouteNo="0" devices="tripinfo_moped.42" vType="moped" speedFactor="1.28" vaporized=""/>
    <tripinfo id="moped.34" depart="41.00" departLane="beg_1" departPos="2.20" departPosLat="0.24" departSpeed="0.00" departDelay="7.00" arrival="218.00" arrivalLane="end_1" arrivalPos="10.00" arrivalPosLat="-0.04" arrivalSpeed="7.35" duration="177.00" routeLength="507.80" waitSteps="111" timeLoss="139.56" rerouteNo="0" devices="tripinfo_moped.34" vType="moped" speedFactor="0.98" vaporized=""/>
    <tripinfo id="moped.55" depart="63.00" departLane="beg_0" departPos="2.20" departPosLat="-0.11" departSpeed="0.00" departDelay="8.00" arrival="218.00" arrivalLane="end_0" arrivalPos="10.00" arrivalPosLat="0.05" arrivalSpeed="7.59" duration="155.00" routeLength="507.80" waitSteps="99" timeLoss="117.78" rerouteNo="0" devices="tripinfo_moped.55" vType="moped" speedFactor="0.99" vaporized=""/>
    <tripinfo id="moped.58" depart="62.00" departLane="beg_0" departPos="2.20" departPosLat="1.13" departSpeed="0.00" departDelay="4.00" arrival="218.00" arrivalLane="end_0" arrivalPos="10.00" arrivalPosLat="1.09" arrivalSpeed="7.11" duration="156.00" routeLength="507.80" waitSteps="95" timeLoss="121.81" rerouteNo="0" devices="tripinfo_moped.58" vType="moped" speedFactor="1.07" vaporized=""/>
    <tripinfo id="moped.45" depart="55.00" departLane="beg_0" departPos="2.20" departPosLat="-1.10" departSpeed="0.00" departDelay="10.00" arrival="218.00" arrivalLane="end_0" arrivalPos="10.00" arrivalPosLat="-1.20" arrivalSpeed="8.25" duration="163.00" routeLength="507.80" waitSteps="112" timeLoss="132.41" rerouteNo="0" devices="tripinfo_moped.45" vType="moped" speedFactor="1.26" vaporized=""/>
    <tripinfo id="moped.41" depart="48.00" departLane="beg_0" departPos="2.20" departPosLat="0.28" departSpeed="0.00" departDelay="7.00" arrival="219.00" arrivalLane="end_1" arrivalPos="10.00" arrivalPosLat="-1.20" arrivalSpeed="8.41" duration="171.00" routeLength="507.80" waitSteps="110" timeLoss="128.37" rerouteNo="0" devices="tripinfo_moped.41" vType="moped" speedFactor="0.87" vaporized=""/>
    <tripinfo id="moped.68" depart="71.00" departLane="beg_0" departPos="2.20" departPosLat="0.18" departSpeed="0.00" departDelay="3.00" arrival="220.00" arrivalLane="end_0" arrivalPos="10.00" arrivalPosLat="0.04" arrivalSpeed="8.91" duration="149.00" routeLength="507.80" waitSteps="92" timeLoss="115.96" rerouteNo="0" devices="tripinfo_moped.68" vType="moped" speedFactor="1.12" vaporized=""/>
    <tripinfo id="moped.51" depart="60.00" departLane="beg_0" departPos="2.20" departPosLat="-1.06" departSpeed="0.00" departDelay="9.00" arrival="220.00" arrivalLane="end_0" arrivalPos="10.00" arrivalPosLat="-1.20" arrivalSpeed="8.98" duration="160.00" routeLength="507.80" waitSteps="107" timeLoss="129.18" rerouteNo="0" devices="tripinfo_moped.51" vType="moped" speedFactor="1.51" vaporized=""/>
    <tripinfo id="moped.49" depart="57.00" departLane="beg_0" departPos="2.20" departPosLat="0.48" departSpeed="0.00" departDelay="8.00" arrival="220.00" arrivalLane="end_0" arrivalPos="10.00" arrivalPosLat="1.09" arrivalSpeed="7.31" duration="163.00" routeLength="507.80" waitSteps="83" timeLoss="96.25" rerouteNo="0" devices="tripinfo_moped.49" vType="moped" speedFactor="0.55" vaporized=""/>
    <tripinfo id="moped.53" depart="57.00" departLane="beg_1" departPos="2.20" departPosLat="1.18" departSpeed="0.00" departDelay="4.00" arrival="220.00" arrivalLane="end_1" arrivalPos="10.00" arrivalPosLat="-0.03" arrivalSpeed="7.87" duration="163.00" routeLength="507.80" waitSteps="109" timeLoss="132.13" rerouteNo="0" devices="tripinfo_moped.53" vType="moped" speedFactor="1.29" vaporized=""/>
    <tripinfo id="moped.46" depart="52.00" departLane="beg_1" departPos="2.20" departPosLat="1.12" departSpeed="0.00" departDelay="6.00" arrival="220.00" arrivalLane="end_1" arrivalPos="10.00" arrivalPosLat="1.20" arrivalSpeed="8.82" duration="168.00" routeLength="507.80" waitSteps="111" timeLoss="130.75" rerouteNo="0" devices="tripinfo_moped.46" vType="moped" speedFactor="0.99" vaporized=""/>
    <tripinfo id="moped.39" depart="46.00" departLane="beg_1" departPos="2.20" departPosLat="-0.79" departSpeed="0.00" departDelay="7.00" arrival="220.00" arrivalLane="end_1" arrivalPos="10.00" arrivalPosLat="-1.20" arrivalSpeed="8.38" duration="174.00" routeLength="507.80" waitSteps="106" timeLoss="121.61" rerouteNo="0" devices="tripinfo_moped.39" vType="moped" speedFactor="0.70" vaporized=""/>
    <tripinfo id="moped.47" depart="54.00" departLane="beg_1" departPos="2.20" departPosLat="-0.35" departSpeed="0.00" departDelay="7.00" arrival="221.00" arrivalLane="end_1" arrivalPos="10.00" arrivalPosLat="-0.05" arrivalSpeed="7.54" duration="167.00" routeLength="507.80" waitSteps="100" timeLoss="114.76" rerouteNo="0" devices="tripinfo_moped.47" vType="moped" speedFactor="0.70" vaporized=""/>
    <tripinfo id="moped.48" depart="51.00" departLane="beg_1" departPos="2.20" departPosLat="-1.02" departSpeed="0.00" departDelay="3.00" arrival="222.00" arrivalLane="end_1" arrivalPos="10.00" arrivalPosLat="-1.20" arrivalSpeed="8.63" duration="171.00" routeLength="507.80" waitSteps="99" timeLoss="112.38" rerouteNo="0" devices="tripinfo_moped.48" vType="moped" speedFactor="0.63" vaporized=""/>
    <tripinfo id="moped.54" depart="64.00" departLane="beg_1" departPos="2.20" departPosLat="0.74" departSpeed="0.00" departDelay="10.00" arrival="222.00" arrivalLane="end_1" arrivalPos="10.00" arrivalPosLat="1.20" arrivalSpeed="8.72" duration="158.00" routeLength="507.80" waitSteps="103" timeLoss="121.36" rerouteNo="0" devices="tripinfo_moped.54" vType="moped" speedFactor="1.01" vaporized=""/>
    <tripinfo id="moped.63" depart="75.00" departLane="beg_0" departPos="2.20" departPosLat="0.10" departSpeed="0.00" departDelay="12.00" arrival="222.00" arrivalLane="end_0" arrivalPos="10.00" arrivalPosLat="0.03" arrivalSpeed="8.89" duration="147.00" routeLength="507.80" waitSteps="89" timeLoss="108.30" rerouteNo="0" devices="tripinfo_moped.63" vType="moped" speedFactor="0.96" vaporized=""/>
    <tripinfo id="moped.56" depart="67.00" departLane="beg_0" departPos="2.20" departPosLat="-0.91" departSpeed="0.00" departDelay="11.00" arrival="222.00" arrivalLane="end_0" arrivalPos="10.00" arrivalPosLat="-1.20" arrivalSpeed="9.49" duration="155.00" routeLength="507.80" waitSteps="85" timeLoss="101.64" rerouteNo="0" devices="tripinfo_moped.56" vType="moped" speedFactor="0.70" vaporized=""/>
    <tripinfo id="moped.65" depart="67.00" departLane="beg_0" departPos="2.20" departPosLat="0.88" departSpeed="0.00" departDelay="2.00" arrival="222.00" arrivalLane="end_0" arrivalPos="10.00" arrivalPosLat="1.10" arrivalSpeed="8.48" duration="155.00" routeLength="507.80" waitSteps="84" timeLoss="97.98" rerouteNo="0" devices="tripinfo_moped.65" vType="moped" speedFactor="0.65" vaporized=""/>
    <tripinfo id="moped.73" depart="81.00" departLane="beg_0" departPos="2.20" departPosLat="0.25" departSpeed="0.00" departDelay="8.00" arrival="223.00" arrivalLane="end_0" arrivalPos="10.00" arrivalPosLat="0.20" arrivalSpeed="9.12" duration="142.00" routeLength="507.80" waitSteps="87" timeLoss="110.40" rerouteNo="0" devices="tripinfo_moped.73" vType="moped" speedFactor="1.17" vaporized=""/>
    <tripinfo id="moped.61" depart="66.00" departLane="beg_1" departPos="2.20" departPosLat="-1.07" departSpeed="0.00" departDelay="5.00" arrival="223.00" arrivalLane="end_1" arrivalPos="10.00" arrivalPosLat="-0.07" arrivalSpeed="9.29" duration="157.00" routeLength="507.80" waitSteps="99" timeLoss="126.14" rerouteNo="0" devices="tripinfo_moped.61" vType="moped" speedFactor="1.36" vaporized=""/>
    <tripinfo id="moped.52" depart="61.00" departLane="beg_1" departPos="2.20" departPosLat="-1.11" departSpeed="0.00" departDelay="9.00" arrival="223.00" arrivalLane="end_1" arrivalPos="10.00" arrivalPosLat="1.20" arrivalSpeed="8.58" duration="162.00" routeLength="507.80" waitSteps="100" timeLoss="127.13" rerouteNo="0" devices="tripinfo_moped.52" vType="moped" speedFactor="1.05" vaporized=""/>
    <tripinfo id="moped.72" depart="75.00" departLane="beg_0" departPos="2.20" departPosLat="-1.18" departSpeed="0.00" departDelay="3.00" arrival="224.00" arrivalLane="end_0" arrivalPos="10.00" arrivalPosLat="-1.20" arrivalSpeed="9.86" duration="149.00" routeLength="507.80" waitSteps="84" timeLoss="103.59" rerouteNo="0" devices="tripinfo_moped.72" vType="moped" speedFactor="0.82" vaporized=""/>
    <tripinfo id="moped.75" depart="85.00" departLane="beg_0" departPos="2.20" departPosLat="0.77" departSpeed="0.00" departDelay="10.00" arrival="224.00" arrivalLane="end_0" arrivalPos="10.00" arrivalPosLat="1.07" arrivalSpeed="9.25" duration="139.00" routeLength="507.80" waitSteps="83" timeLoss="100.09" rerouteNo="0" devices="tripinfo_moped.75" vType="moped" speedFactor="0.95" vaporized=""/>
    <tripinfo id="moped.59" depart="70.00" departLane="beg_1" departPos="2.20" departPosLat="-0.97" departSpeed="0.00" departDelay="11.00" arrival="224.00" arrivalLane="end_1" arrivalPos="10.00" arrivalPosLat="-1.20" arrivalSpeed="9.40" duration="154.00" routeLength="507.80" waitSteps="95" timeLoss="113.02" rerouteNo="0" devices="tripinfo_moped.59" vType="moped" speedFactor="0.91" vaporized=""/>
    <tripinfo id="moped.50" depart="58.00" departLane="beg_1" departPos="2.20" departPosLat="0.05" departSpeed="0.00" departDelay="8.00" arrival="225.00" arrivalLane="end_1" arrivalPos="10.00" arrivalPosLat="0.17" arrivalSpeed="7.52" duration="167.00" routeLength="507.80" waitSteps="88" timeLoss="101.63" rerouteNo="0" devices="tripinfo_moped.50" vType="moped" speedFactor="0.56" vaporized=""/>
    <tripinfo id="moped.64" depart="71.00" departLane="beg_0" departPos="2.20" departPosLat="1.18" departSpeed="0.00" departDelay="7.00" arrival="225.00" arrivalLane="end_1" arrivalPos="10.00" arrivalPosLat="-1.20" arrivalSpeed="9.20" duration="154.00" routeLength="507.80" waitSteps="91" timeLoss="108.68" rerouteNo="0" devices="tripinfo_moped.64" vType="moped" speedFactor="0.81" vaporized=""/>
    <tripinfo id="moped.60" depart="72.00" departLane="beg_1" departPos="2.20" departPosLat="-0.10" departSpeed="0.00" departDelay="12.00" arrival="225.00" arrivalLane="end_1" arrivalPos="10.00" arrivalPosLat="1.20" arrivalSpeed="9.72" duration="153.00" routeLength="507.80" waitSteps="94" timeLoss="122.26" rerouteNo="0" devices="tripinfo_moped.60" vType="moped" speedFactor="1.25" vaporized=""/>
    <tripinfo id="moped.76" depart="85.00" departLane="beg_0" departPos="2.20" departPosLat="-0.94" departSpeed="0.00" departDelay="9.00" arrival="225.00" arrivalLane="end_0" arrivalPos="10.00" arrivalPosLat="-0.12" arrivalSpeed="9.38" duration="140.00" routeLength="507.80" waitSteps="87" timeLoss="106.19" rerouteNo="0" devices="tripinfo_moped.76" vType="moped" speedFactor="1.10" vaporized=""/>
    <tripinfo id="moped.80" depart="92.00" departLane="beg_1" departPos="2.20" departPosLat="1.17" departSpeed="0.00" departDelay="12.00" arrival="225.00" arrivalLane="end_0" arrivalPos="10.00" arrivalPosLat="1.20" arrivalSpeed="9.58" duration="133.00" routeLength="507.80" waitSteps="73" timeLoss="99.64" rerouteNo="0" devices="tripinfo_moped.80" vType="moped" speedFactor="1.10" vaporized=""/>
    <tripinfo id="moped.81" depart="89.00" departLane="beg_0" departPos="2.20" departPosLat="-0.44" departSpeed="0.00" departDelay="8.00" arrival="226.00" arrivalLane="end_0" arrivalPos="10.00" arrivalPosLat="-0.29" arrivalSpeed="10.07" duration="137.00" routeLength="507.80" waitSteps="81" timeLoss="100.04" rerouteNo="0" devices="tripinfo_moped.81" vType="moped" speedFactor="0.99" vaporized=""/>
    <tripinfo id="moped.70" depart="78.00" departLane="beg_0" departPos="2.20" departPosLat="0.42" departSpeed="0.00" departDelay="8.00" arrival="226.00" arrivalLane="end_1" arrivalPos="10.00" arrivalPosLat="0.04" arrivalSpeed="8.53" duration="148.00" routeLength="507.80" waitSteps="88" timeLoss="113.76" rerouteNo="0" devices="tripinfo_moped.70" vType="moped" speedFactor="1.07" vaporized=""/>