<?xml version="1.0" encoding="UTF-8"?>

<!-- generated on Mon Apr  3 12:20:58 2017 by SUMO Version dev-SVN-r23771
<?xml version="1.0" encoding="UTF-8"?>

<configuration xmlns:xsi="http://www.w3.org/2001/XMLSchema-instance" xsi:noNamespaceSchemaLocation="http://sumo.dlr.de/xsd/sumoConfiguration.xsd">

    <input>
        <net-file value="net.net.xml"/>
        <route-files value="input_routes.rou.xml"/>
    </input>

    <output>
        <tripinfo-output value="tripinfos.xml"/>
    </output>

    <processing>
        <lateral-resolution value="1.1"/>
    </processing>

    <report>
        <xml-validation value="never"/>
        <no-step-log value="true"/>
    </report>

</configuration>
-->

<tripinfos xmlns:xsi="http://www.w3.org/2001/XMLSchema-instance" xsi:noNamespaceSchemaLocation="http://sumo.dlr.de/xsd/tripinfo_file.xsd">
    <tripinfo id="moped.2" depart="2.00" departLane="beg_0" departPos="2.20" departPosLat="0.11" departSpeed="0.00" departDelay="0.00" arrival="204.00" arrivalLane="end_0" arrivalPos="10.00" arrivalPosLat="-1.20" arrivalSpeed="4.66" duration="202.00" routeLength="507.80" waitSteps="154" timeLoss="171.26" rerouteNo="0" devices="tripinfo_moped.2" vType="moped" speedFactor="1.39" vaporized=""/>
    <tripinfo id="moped.5" depart="6.00" departLane="beg_0" departPos="2.20" departPosLat="1.10" departSpeed="0.00" departDelay="1.00" arrival="204.00" arrivalLane="end_0" arrivalPos="10.00" arrivalPosLat="1.00" arrivalSpeed="4.62" duration="198.00" routeLength="507.80" waitSteps="148" timeLoss="160.60" rerouteNo="0" devices="tripinfo_moped.5" vType="moped" speedFactor="0.98" vaporized=""/>
    <tripinfo id="moped.4" depart="4.00" departLane="beg_0" departPos="2.20" departPosLat="-1.09" departSpeed="0.00" departDelay="0.00" arrival="204.00" arrivalLane="end_0" arrivalPos="10.00" arrivalPosLat="0.05" arrivalSpeed="3.85" duration="200.00" routeLength="507.80" waitSteps="144" timeLoss="162.94" rerouteNo="0" devices="tripinfo_moped.4" vType="moped" speedFactor="0.99" vaporized=""/>
    <tripinfo id="moped.0" depart="0.00" departLane="beg_0" departPos="2.20" departPosLat="0.51" departSpeed="0.00" departDelay="0.00" arrival="204.00" arrivalLane="end_1" arrivalPos="10.00" arrivalPosLat="-1.20" arrivalSpeed="4.84" duration="204.00" routeLength="507.80" waitSteps="149" timeLoss="160.69" rerouteNo="0" devices="tripinfo_moped.0" vType="moped" speedFactor="0.85" vaporized=""/>
    <tripinfo id="moped.1" depart="1.00" departLane="beg_1" departPos="2.20" departPosLat="0.22" departSpeed="0.00" departDelay="0.00" arrival="204.00" arrivalLane="end_1" arrivalPos="10.00" arrivalPosLat="1.00" arrivalSpeed="3.97" duration="203.00" routeLength="507.80" waitSteps="149" timeLoss="162.61" rerouteNo="0" devices="tripinfo_moped.1" vType="moped" speedFactor="0.91" vaporized=""/>
    <tripinfo id="moped.3" depart="4.00" departLane="beg_1" departPos="2.20" departPosLat="-0.43" departSpeed="0.00" departDelay="1.00" arrival="204.00" arrivalLane="end_1" arrivalPos="10.00" arrivalPosLat="0.05" arrivalSpeed="3.78" duration="200.00" routeLength="507.80" waitSteps="149" timeLoss="163.68" rerouteNo="0" devices="tripinfo_moped.3" vType="moped" speedFactor="1.01" vaporized=""/>
    <tripinfo id="moped.9" depart="9.00" departLane="beg_1" departPos="2.20" departPosLat="1.18" departSpeed="0.00" departDelay="0.00" arrival="206.00" arrivalLane="end_1" arrivalPos="10.00" arrivalPosLat="1.00" arrivalSpeed="4.69" duration="197.00" routeLength="507.80" waitSteps="142" timeLoss="155.96" rerouteNo="0" devices="tripinfo_moped.9" vType="moped" speedFactor="0.89" vaporized=""/>
    <tripinfo id="moped.7" depart="8.00" departLane="beg_0" departPos="2.20" departPosLat="-0.46" departSpeed="0.00" departDelay="1.00" arrival="206.00" arrivalLane="end_0" arrivalPos="10.00" arrivalPosLat="1.00" arrivalSpeed="4.93" duration="198.00" routeLength="507.80" waitSteps="146" timeLoss="159.89" rerouteNo="0" devices="tripinfo_moped.7" vType="moped" speedFactor="0.96" vaporized=""/>
    <tripinfo id="moped.8" depart="9.00" departLane="beg_0" departPos="2.20" departPosLat="-1.04" departSpeed="0.00" departDelay="1.00" arrival="206.00" arrivalLane="end_0" arrivalPos="10.00" arrivalPosLat="-1.20" arrivalSpeed="4.41" duration="197.00" routeLength="507.80" waitSteps="143" timeLoss="162.93" rerouteNo="0" devices="tripinfo_moped.8" vType="moped" speedFactor="1.08" vaporized=""/>
    <tripinfo id="moped.12" depart="13.00" departLane="beg_1" departPos="2.20" departPosLat="0.83" departSpeed="0.00" departDelay="1.00" arrival="207.00" arrivalLane="end_1" arrivalPos="10.00" arrivalPosLat="-1.05" arrivalSpeed="5.15" duration="194.00" routeLength="507.80" waitSteps="143" timeLoss="163.24" rerouteNo="0" devices="tripinfo_moped.12" vType="moped" speedFactor="1.32" vaporized=""/>
    <tripinfo id="moped.16" depart="19.00" departLane="beg_1" departPos="2.20" departPosLat="0.18" departSpeed="0.00" departDelay="3.00" arrival="207.00" arrivalLane="end_1" arrivalPos="10.00" arrivalPosLat="0.20" arrivalSpeed="4.73" duration="188.00" routeLength="507.80" waitSteps="137" timeLoss="157.32" rerouteNo="0" devices="tripinfo_moped.16" vType="moped" speedFactor="1.28" vaporized=""/>
    <tripinfo id="moped.10" depart="12.00" departLane="beg_0" departPos="2.20" departPosLat="-0.38" departSpeed="0.00" departDelay="2.00" arrival="207.00" arrivalLane="end_0" arrivalPos="10.00" arrivalPosLat="-0.10" arrivalSpeed="5.16" duration="195.00" routeLength="507.80" waitSteps="140" timeLoss="154.42" rerouteNo="0" devices="tripinfo_moped.10" vType="moped" speedFactor="0.91" vaporized=""/>
    <tripinfo id="moped.14" depart="16.00" departLane="beg_1" departPos="2.20" departPosLat="0.72" departSpeed="0.00" departDelay="2.00" arrival="208.00" arrivalLane="end_1" arrivalPos="10.00" arrivalPosLat="1.00" arrivalSpeed="5.70" duration="192.00" routeLength="507.80" waitSteps="139" timeLoss="156.42" rerouteNo="0" devices="tripinfo_moped.14" vType="moped" speedFactor="1.03" vaporized=""/>
    <tripinfo id="moped.11" depart="12.00" departLane="beg_1" departPos="2.20" departPosLat="-0.96" departSpeed="0.00" departDelay="1.00" arrival="208.00" arrivalLane="end_0" arrivalPos="10.00" arrivalPosLat="1.00" arrivalSpeed="5.48" duration="196.00" routeLength="507.80" waitSteps="139" timeLoss="151.70" rerouteNo="0" devices="tripinfo_moped.11" vType="moped" speedFactor="0.83" vaporized=""/>
    <tripinfo id="moped.19" depart="21.00" departLane="beg_0" departPos="2.20" departPosLat="-0.22" departSpeed="0.00" departDelay="2.00" arrival="208.00" arrivalLane="end_0" arrivalPos="10.00" arrivalPosLat="-1.20" arrivalSpeed="5.22" duration="187.00" routeLength="507.80" waitSteps="138" timeLoss="154.03" rerouteNo="0" devices="tripinfo_moped.19" vType="moped" speedFactor="1.11" vaporized=""/>
    <tripinfo id="moped.20" depart="24.00" departLane="beg_1" departPos="2.20" departPosLat="-1.17" departSpeed="0.00" departDelay="4.00" arrival="209.00" arrivalLane="end_1" arrivalPos="10.00" arrivalPosLat="-1.05" arrivalSpeed="5.54" duration="185.00" routeLength="507.80" waitSteps="129" timeLoss="154.36" rerouteNo="0" devices="tripinfo_moped.20" vType="moped" speedFactor="1.30" vaporized=""/>
    <tripinfo id="moped.6" depart="7.00" departLane="beg_1" departPos="2.20" departPosLat="-0.80" departSpeed="0.00" departDelay="1.00" arrival="209.00" arrivalLane="end_1" arrivalPos="10.00" arrivalPosLat="0.05" arrivalSpeed="5.23" duration="202.00" routeLength="507.80" waitSteps="133" timeLoss="147.95" rerouteNo="0" devices="tripinfo_moped.6" vType="moped" speedFactor="0.68" vaporized=""/>
    <tripinfo id="moped.15" depart="18.00" departLane="beg_1" departPos="2.20" departPosLat="-0.94" departSpeed="0.00" departDelay="3.00" arrival="209.00" arrivalLane="end_0" arrivalPos="10.00" arrivalPosLat="-0.10" arrivalSpeed="5.32" duration="191.00" routeLength="507.80" waitSteps="133" timeLoss="153.26" rerouteNo="0" devices="tripinfo_moped.15" vType="moped" speedFactor="0.98" vaporized=""/>
    <tripinfo id="moped.24" depart="27.00" departLane="beg_1" departPos="2.20" departPosLat="0.50" departSpeed="0.00" departDelay="3.00" arrival="210.00" arrivalLane="end_1" arrivalPos="10.00" arrivalPosLat="1.00" arrivalSpeed="6.50" duration="183.00" routeLength="507.80" waitSteps="129" timeLoss="143.72" rerouteNo="0" devices="tripinfo_moped.24" vType="moped" speedFactor="0.94" vaporized=""/>
    <tripinfo id="moped.23" depart="28.00" departLane="beg_0" departPos="2.20" departPosLat="-0.82" departSpeed="0.00" departDelay="5.00" arrival="210.00" arrivalLane="end_0" arrivalPos="10.00" arrivalPosLat="-1.20" arrivalSpeed="6.34" duration="182.00" routeLength="507.80" waitSteps="132" timeLoss="148.10" rerouteNo="0" devices="tripinfo_moped.23" vType="moped" speedFactor="1.08" vaporized=""/>
    <tripinfo id="moped.26" depart="29.00" departLane="beg_0" departPos="2.20" departPosLat="1.11" departSpeed="0.00" departDelay="3.00" arrival="210.00" arrivalLane="end_0" arrivalPos="10.00" arrivalPosLat="1.00" arrivalSpeed="6.07" duration="181.00" routeLength="507.80" waitSteps="127" timeLoss="150.42" rerouteNo="0" devices="tripinfo_moped.26" vType="moped" speedFactor="1.42" vaporized=""/>
    <tripinfo id="moped.18" depart="19.00" departLane="beg_0" departPos="2.20" departPosLat="1.00" departSpeed="0.00" departDelay="1.00" arrival="211.00" arrivalLane="end_1" arrivalPos="10.00" arrivalPosLat="-1.20" arrivalSpeed="6.24" duration="192.00" routeLength="507.80" waitSteps="129" timeLoss="144.64" rerouteNo="0" devices="tripinfo_moped.18" vType="moped" speedFactor="0.78" vaporized=""/>
    <tripinfo id="moped.17" depart="22.00" departLane="beg_1" departPos="2.20" departPosLat="-1.05" departSpeed="0.00" departDelay="5.00" arrival="211.00" arrivalLane="end_1" arrivalPos="10.00" arrivalPosLat="0.05" arrivalSpeed="6.06" duration="189.00" routeLength="507.80" waitSteps="138" timeLoss="158.34" rerouteNo="0" devices="tripinfo_moped.17" vType="moped" speedFactor="1.74" vaporized=""/>
    <tripinfo id="moped.21" depart="24.00" departLane="beg_0" departPos="2.20" departPosLat="0.63" departSpeed="0.00" departDelay="3.00" arrival="211.00" arrivalLane="end_0" arrivalPos="10.00" arrivalPosLat="-0.10" arrivalSpeed="6.07" duration="187.00" routeLength="507.80" waitSteps="131" timeLoss="151.54" rerouteNo="0" devices="tripinfo_moped.21" vType="moped" speedFactor="1.04" vaporized=""/>
    <tripinfo id="moped.31" depart="37.00" departLane="beg_1" departPos="2.20" departPosLat="-0.48" departSpeed="0.00" departDelay="6.00" arrival="212.00" arrivalLane="end_0" arrivalPos="10.00" arrivalPosLat="1.00" arrivalSpeed="6.66" duration="175.00" routeLength="507.80" waitSteps="122" timeLoss="143.57" rerouteNo="0" devices="tripinfo_moped.31" vType="moped" speedFactor="1.17" vaporized=""/>
    <tripinfo id="moped.27" depart="33.00" departLane="beg_0" departPos="2.20" departPosLat="-1.06" departSpeed="0.00" departDelay="6.00" arrival="212.00" arrivalLane="end_0" arrivalPos="10.00" arrivalPosLat="-1.20" arrivalSpeed="6.25" duration="179.00" routeLength="507.80" waitSteps="116" timeLoss="128.78" rerouteNo="0" devices="tripinfo_moped.27" vType="moped" speedFactor="0.73" vaporized=""/>
    <tripinfo id="moped.33" depart="36.00" departLane="beg_1" departPos="2.20" departPosLat="0.25" departSpeed="0.00" departDelay="3.00" arrival="212.00" arrivalLane="end_1" arrivalPos="10.00" arrivalPosLat="1.00" arrivalSpeed="6.51" duration="176.00" routeLength="507.80" waitSteps="128" timeLoss="145.44" rerouteNo="0" devices="tripinfo_moped.33" vType="moped" speedFactor="1.63" vaporized=""/>
    <tripinfo id="moped.13" depart="16.00" departLane="beg_0" departPos="2.20" departPosLat="-0.13" departSpeed="0.00" departDelay="3.00" arrival="213.00" arrivalLane="end_0" arrivalPos="10.00" arrivalPosLat="-0.10" arrivalSpeed="6.66" duration="197.00" routeLength="507.80" waitSteps="112" timeLoss="123.17" rerouteNo="0" devices="tripinfo_moped.13" vType="moped" speedFactor="0.50" vaporized=""/>
    <tripinfo id="moped.29" depart="36.00" departLane="beg_0" departPos="2.20" departPosLat="0.71" departSpeed="0.00" departDelay="7.00" arrival="213.00" arrivalLane="end_1" arrivalPos="10.00" arrivalPosLat="-1.05" arrivalSpeed="6.94" duration="177.00" routeLength="507.80" waitSteps="124" timeLoss="145.55" rerouteNo="0" devices="tripinfo_moped.29" vType="moped" speedFactor="1.17" vaporized=""/>
    <tripinfo id="moped.22" depart="24.00" departLane="beg_0" departPos="2.20" departPosLat="-1.10" departSpeed="0.00" departDelay="2.00" arrival="213.00" arrivalLane="end_1" arrivalPos="10.00" arrivalPosLat="0.05" arrivalSpeed="6.69" duration="189.00" routeLength="507.80" waitSteps="127" timeLoss="144.90" rerouteNo="0" devices="tripinfo_moped.22" vType="moped" speedFactor="0.84" vaporized=""/>
    <tripinfo id="moped.34" depart="41.00" departLane="beg_1" departPos="2.20" departPosLat="1.16" departSpeed="0.00" departDelay="7.00" arrival="214.00" arrivalLane="end_1" arrivalPos="10.00" arrivalPosLat="1.00" arrivalSpeed="6.94" duration="173.00" routeLength="507.80" waitSteps="122" timeLoss="142.05" rerouteNo="0" devices="tripinfo_moped.34" vType="moped" speedFactor="1.19" vaporized=""/>
    <tripinfo id="moped.35" depart="41.00" departLane="beg_0" departPos="2.20" departPosLat="0.36" departSpeed="0.00" departDelay="6.00" arrival="214.00" arrivalLane="end_0" arrivalPos="10.00" arrivalPosLat="1.00" arrivalSpeed="7.84" duration="173.00" routeLength="507.80" waitSteps="114" timeLoss="130.16" rerouteNo="0" devices="tripinfo_moped.35" vType="moped" speedFactor="0.86" vaporized=""/>
    <tripinfo id="moped.36" depart="43.00" departLane="beg_0" departPos="2.20" departPosLat="-0.01" departSpeed="0.00" departDelay="7.00" arrival="214.00" arrivalLane="end_0" arrivalPos="10.00" arrivalPosLat="-1.20" arrivalSpeed="6.91" duration="171.00" routeLength="507.80" waitSteps="114" timeLoss="129.46" rerouteNo="0" devices="tripinfo_moped.36" vType="moped" speedFactor="0.88" vaporized=""/>
    <tripinfo id="moped.30" depart="37.00" departLane="beg_0" departPos="2.20" departPosLat="-1.00" departSpeed="0.00" departDelay="7.00" arrival="215.00" arrivalLane="end_1" arrivalPos="10.00" arrivalPosLat="-1.20" arrivalSpeed="7.90" duration="178.00" routeLength="507.80" waitSteps="119" timeLoss="135.85" rerouteNo="0" devices="tripinfo_moped.30" vType="moped" speedFactor="0.88" vaporized=""/>
    <tripinfo id="moped.37" depart="41.00" departLane="beg_1" departPos="2.20" departPosLat="-0.92" departSpeed="0.00" departDelay="4.00" arrival="215.00" arrivalLane="end_1" arrivalPos="10.00" arrivalPosLat="0.05" arrivalSpeed="7.65" duration="174.00" routeLength="507.80" waitSteps="121" timeLoss="139.93" rerouteNo="0" devices="tripinfo_moped.37" vType="moped" speedFactor="1.09" vaporized=""/>
    <tripinfo id="moped.32" depart="41.00" departLane="beg_0" departPos="2.20" departPosLat="-1.00" departSpeed="0.00" departDelay="9.00" arrival="215.00" arrivalLane="end_0" arrivalPos="10.00" arrivalPosLat="-0.10" arrivalSpeed="7.21" duration="174.00" routeLength="507.80" waitSteps="107" timeLoss="125.92" rerouteNo="0" devices="tripinfo_moped.32" vType="moped" speedFactor="0.77" vaporized=""/>
    <tripinfo id="moped.39" depart="46.00" departLane="beg_0" departPos="2.20" departPosLat="-0.24" departSpeed="0.00" departDelay="7.00" arrival="216.00" arrivalLane="end_0" arrivalPos="10.00" arrivalPosLat="-1.20" arrivalSpeed="7.35" duration="170.00" routeLength="507.80" waitSteps="104" timeLoss="118.32" rerouteNo="0" devices="tripinfo_moped.39" vType="moped" speedFactor="0.71" vaporized=""/>
    <tripinfo id="moped.43" depart="50.00" departLane="beg_0" departPos="2.20" departPosLat="0.09" departSpeed="0.00" departDelay="7.00" arrival="216.00" arrivalLane="end_0" arrivalPos="10.00" arrivalPosLat="1.00" arrivalSpeed="7.54" duration="166.00" routeLength="507.80" waitSteps="113" timeLoss="134.36" rerouteNo="0" devices="tripinfo_moped.43" vType="moped" speedFactor="1.16" vaporized=""/>
    <tripinfo id="moped.40" depart="47.00" departLane="beg_0" departPos="2.20" departPosLat="1.07" departSpeed="0.00" departDelay="7.00" arrival="216.00" arrivalLane="end_1" arrivalPos="10.00" arrivalPosLat="1.00" arrivalSpeed="7.19" duration="169.00" routeLength="507.80" waitSteps="114" timeLoss="134.16" rerouteNo="0" devices="tripinfo_moped.40" vType="moped" speedFactor="1.06" vaporized=""/>
    <tripinfo id="moped.45" depart="55.00" departLane="beg_0" departPos="2.20" departPosLat="-0.27" departSpeed="0.00" departDelay="10.00" arrival="217.00" arrivalLane="end_0" arrivalPos="10.00" arrivalPosLat="-0.10" arrivalSpeed="7.93" duration="162.00" routeLength="507.80" waitSteps="106" timeLoss="131.03" rerouteNo="0" devices="tripinfo_moped.45" vType="moped" speedFactor="1.28" vaporized=""/>
    <tripinfo id="moped.38" depart="46.00" departLane="beg_1" departPos="2.20" departPosLat="-1.12" departSpeed="0.00" departDelay="8.00" arrival="217.00" arrivalLane="end_1" arrivalPos="10.00" arrivalPosLat="0.05" arrivalSpeed="8.04" duration="171.00" routeLength="507.80" waitSteps="118" timeLoss="136.63" rerouteNo="0" devices="tripinfo_moped.38" vType="moped" speedFactor="1.08" vaporized=""/>
    <tripinfo id="moped.28" depart="32.00" departLane="beg_1" departPos="2.20" departPosLat="-0.68" departSpeed="0.00" departDelay="4.00" arrival="217.00" arrivalLane="end_1" arrivalPos="10.00" arrivalPosLat="-1.20" arrivalSpeed="8.22" duration="185.00" routeLength="507.80" waitSteps="115" timeLoss="131.47" rerouteNo="0" devices="tripinfo_moped.28" vType="moped" speedFactor="0.69" vaporized=""/>
    <tripinfo id="moped.25" depart="29.00" departLane="beg_1" departPos="2.20" departPosLat="-0.96" departSpeed="0.00" departDelay="4.00" arrival="218.00" arrivalLane="end_1" arrivalPos="10.00" arrivalPosLat="1.00" arrivalSpeed="7.98" duration="189.00" routeLength="507.80" waitSteps="113" timeLoss="128.21" rerouteNo="0" devices="tripinfo_moped.25" vType="moped" speedFactor="0.61" vaporized=""/>
    <tripinfo id="moped.46" depart="57.00" departLane="beg_1" departPos="2.20" departPosLat="-1.07" departSpeed="0.00" departDelay="11.00" arrival="218.00" arrivalLane="end_1" arrivalPos="10.00" arrivalPosLat="-0.90" arrivalSpeed="7.90" duration="161.00" routeLength="507.80" waitSteps="105" timeLoss="123.49" rerouteNo="0" devices="tripinfo_moped.46" vType="moped" speedFactor="0.98" vaporized=""/>
    <tripinfo id="moped.48" depart="57.00" departLane="beg_1" departPos="2.20" departPosLat="0.34" departSpeed="0.00" departDelay="9.00" arrival="218.00" arrivalLane="end_1" arrivalPos="10.00" arrivalPosLat="0.05" arrivalSpeed="7.95" duration="161.00" routeLength="507.80" waitSteps="106" timeLoss="130.47" rerouteNo="0" devices="tripinfo_moped.48" vType="moped" speedFactor="1.37" vaporized=""/>
    <tripinfo id="moped.57" depart="58.00" departLane="beg_0" departPos="2.20" departPosLat="-0.82" departSpeed="0.00" departDelay="1.00" arrival="218.00" arrivalLane="end_0" arrivalPos="10.00" arrivalPosLat="-1.20" arrivalSpeed="8.43" duration="160.00" routeLength="507.80" waitSteps="104" timeLoss="129.00" rerouteNo="0" devices="tripinfo_moped.57" vType="moped" speedFactor="1.34" vaporized=""/>
    <tripinfo id="moped.47" depart="53.00" departLane="beg_0" departPos="2.20" departPosLat="-0.62" departSpeed="0.00" departDelay="6.00" arrival="218.00" arrivalLane="end_0" arrivalPos="10.00" arrivalPosLat="1.00" arrivalSpeed="8.07" duration="165.00" routeLength="507.80" waitSteps="113" timeLoss="131.39" rerouteNo="0" devices="tripinfo_moped.47" vType="moped" speedFactor="1.10" vaporized=""/>
    <tripinfo id="moped.54" depart="67.00" departLane="beg_0" departPos="2.20" departPosLat="1.03" departSpeed="0.00" departDelay="13.00" arrival="219.00" arrivalLane="end_0" arrivalPos="10.00" arrivalPosLat="-0.10" arrivalSpeed="8.82" duration="152.00" routeLength="507.80" waitSteps="97" timeLoss="121.07" rerouteNo="0" devices="tripinfo_moped.54" vType="moped" speedFactor="1.37" vaporized=""/>
    <tripinfo id="moped.63" depart="77.00" departLane="beg_0" departPos="2.20" departPosLat="0.12" departSpeed="0.00" departDelay="14.00" arrival="219.00" arrivalLane="end_0" arrivalPos="10.00" arrivalPosLat="1.00" arrivalSpeed="8.00" duration="142.00" routeLength="507.80" waitSteps="90" timeLoss="109.97" rerouteNo="0" devices="tripinfo_moped.63" vType="moped" speedFactor="1.14" vaporized=""/>
    <tripinfo id="moped.53" depart="62.00" departLane="beg_0" departPos="2.20" departPosLat="0.91" departSpeed="0.00" departDelay="9.00" arrival="219.00" arrivalLane="end_0" arrivalPos="10.00" arrivalPosLat="-1.20" arrivalSpeed="8.85" duration="157.00" routeLength="507.80" waitSteps="96" timeLoss="112.83" rerouteNo="0" devices="tripinfo_moped.53" vType="moped" speedFactor="0.83" vaporized=""/>
    <tripinfo id="moped.42" depart="45.00" departLane="beg_1" departPos="2.20" departPosLat="0.63" departSpeed="0.00" departDelay="3.00" arrival="220.00" arrivalLane="end_1" arrivalPos="10.00" arrivalPosLat="1.00" arrivalSpeed="8.97" duration="175.00" routeLength="507.80" waitSteps="104" timeLoss="120.33" rerouteNo="0" devices="tripinfo_moped.42" vType="moped" speedFactor="0.68" vaporized=""/>
    <tripinfo id="moped.44" depart="52.00" departLane="beg_1" departPos="2.20" departPosLat="0.63" departSpeed="0.00" departDelay="8.00" arrival="220.00" arrivalLane="end_1" arrivalPos="10.00" arrivalPosLat="0.05" arrivalSpeed="8.82" duration="168.00" routeLength="507.80" waitSteps="97" timeLoss="111.66" rerouteNo="0" devices="tripinfo_moped.44" vType="moped" speedFactor="0.65" vaporized=""/>
    <tripinfo id="moped.60" depart="74.00" departLane="beg_1" departPos="2.20" departPosLat="-1.20" departSpeed="0.00" departDelay="14.00" arrival="220.00" arrivalLane="end_1" arrivalPos="10.00" arrivalPosLat="-1.05" arrivalSpeed="8.11" duration="146.00" routeLength="507.80" waitSteps="92" timeLoss="115.34" rerouteNo="0" devices="tripinfo_moped.60" vType="moped" speedFactor="1.33" vaporized=""/>
    <tripinfo id="moped.49" depart="61.00" departLane="beg_1" departPos="2.20" departPosLat="0.07" departSpeed="0.00" departDelay="12.00" arrival="221.00" arrivalLane="end_1" arrivalPos="10.00" arrivalPosLat="1.00" arrivalSpeed="8.82" duration="160.00" routeLength="507.80" waitSteps="89" timeLoss="106.58" rerouteNo="0" devices="tripinfo_moped.49" vType="moped" speedFactor="0.69" vaporized=""/>
    <tripinfo id="moped.52" depart="65.00" departLane="beg_0" departPos="2.20" departPosLat="-0.28" departSpeed="0.00" departDelay="13.00" arrival="221.00" arrivalLane="end_0" arrivalPos="10.00" arrivalPosLat="-0.10" arrivalSpeed="8.85" duration="156.00" routeLength="507.80" waitSteps="91" timeLoss="107.83" rerouteNo="0" devices="tripinfo_moped.52" vType="moped" speedFactor="0.77" vaporized=""/>
    <tripinfo id="moped.61" depart="71.00" departLane="beg_0" departPos="2.20" departPosLat="0.18" departSpeed="0.00" departDelay="10.00" arrival="221.00" arrivalLane="end_0" arrivalPos="10.00" arrivalPosLat="-1.20" arrivalSpeed="9.75" duration="150.00" routeLength="507.80" waitSteps="91" timeLoss="107.30" rerouteNo="0" devices="tripinfo_moped.61" vType="moped" speedFactor="0.86" vaporized=""/>
    <tripinfo id="moped.58" depart="74.00" departLane="beg_0" departPos="2.20" departPosLat="-0.45" departSpeed="0.00" departDelay="16.00" arrival="221.00" arrivalLane="end_0" arrivalPos="10.00" arrivalPosLat="1.20" arrivalSpeed="9.44" duration="147.00" routeLength="507.80" waitSteps="83" timeLoss="116.23" rerouteNo="0" devices="tripinfo_moped.58" vType="moped" speedFactor="1.30" vaporized=""/>
    <tripinfo id="moped.70" depart="80.00" departLane="beg_0" departPos="2.20" departPosLat="-0.80" departSpeed="0.00" departDelay="10.00" arrival="222.00" arrivalLane="end_0" arrivalPos="10.00" arrivalPosLat="-0.10" arrivalSpeed="8.71" duration="142.00" routeLength="507.80" waitSteps="84" timeLoss="111.39" rerouteNo="0" devices="tripinfo_moped.70" vType="moped" speedFactor="1.52" vaporized=""/>
    <tripinfo id="moped.56" depart="71.00" departLane="beg_1" departPos="2.20" departPosLat="-1.11" departSpeed="0.00" departDelay="15.00" arrival="222.00" arrivalLane="end_1" arrivalPos="10.00" arrivalPosLat="-1.20" arrivalSpeed="8.63" duration="151.00" routeLength="507.80" waitSteps="92" timeLoss="109.80" rerouteNo="0" devices="tripinfo_moped.56" vType="moped" speedFactor="0.90" vaporized=""/>
    <tripinfo id="moped.41" depart="48.00" departLane="beg_1" departPos="2.20" departPosLat="0.95" departSpeed="0.00" departDelay="7.00" arrival="223.00" arrivalLane="end_1" arrivalPos="10.00" arrivalPosLat="-0.10" arrivalSpeed="8.11" duration="175.00" routeLength="507.80" waitSteps="98" timeLoss="113.24" rerouteNo="0" devices="tripinfo_moped.41" vType="moped" speedFactor="0.60" vaporized=""/>
    <tripinfo id="moped.64" depart="72.00" departLane="beg_1" departPos="2.20" departPosLat="0.60" departSpeed="0.00" departDelay="8.00" arrival="223.00" arrivalLane="end_1" arrivalPos="10.00" arrivalPosLat="1.20" arrivalSpeed="9.27" duration="151.00" routeLength="507.80" waitSteps="88" timeLoss="107.89" rerouteNo="0" devices="tripinfo_moped.64" vType="moped" speedFactor="0.86" vaporized=""/>
    <tripinfo id="moped.68" depart="80.00" departLane="beg_0" departPos="2.20" departPosLat="1.15" departSpeed="0.00" departDelay="12.00" arrival="223.00" arrivalLane="end_0" arrivalPos="10.00" arrivalPosLat="-1.20" arrivalSpeed="9.91" duration="143.00" routeLength="507.80" waitSteps="87" timeLoss="112.22" rerouteNo="0" devices="tripinfo_moped.68" vType="moped" speedFactor="1.31" vaporized=""/>
    <tripinfo id="moped.71" depart="86.00" departLane="beg_0" departPos="2.20" departPosLat="1.09" departSpeed="0.00" departDelay="15.00" arrival="223.00" arrivalLane="end_0" arrivalPos="10.00" arrivalPosLat="1.00" arrivalSpeed="9.08" duration="137.00" routeLength="507.80" waitSteps="75" timeLoss="106.32" rerouteNo="0" devices="tripinfo_moped.71" vType="moped" speedFactor="1.38" vaporized=""/>
    <tripinfo id="moped.72" depart="84.00" departLane="beg_0" departPos="2.20" departPosLat="-1.09" departSpeed="0.00" departDelay="12.00" arrival="224.00" arrivalLane="end_0" arrivalPos="10.00" arrivalPosLat="-0.10" arrivalSpeed="9.79" duration="140.00" routeLength="507.80" waitSteps="84" timeLoss="109.21" rerouteNo="0" devices="tripinfo_moped.72" vType="moped" speedFactor="1.64" vaporized=""/>
    <tripinfo id="moped.62" depart="77.00" departLane="beg_0" departPos="2.20" departPosLat="1.12" departSpeed="0.00" departDelay="15.00" arrival="224.00" arrivalLane="end_1" arrivalPos="10.00" arrivalPosLat="-1.20" arrivalSpeed="9.20" duration="147.00" routeLength="507.80" waitSteps="77" timeLoss="115.94" rerouteNo="0" devices="tripinfo_moped.62" vType="moped" speedFactor="1.47" vaporized=""/>
    <tripinfo id="moped.55" depart="68.00" departLane="beg_1" departPos="2.20" departPosLat="1.19" departSpeed="0.00" departDelay="13.00" arrival="224.00" arrivalLane="end_1" arrivalPos="10.00" arrivalPosLat="-0.10" arrivalSpeed="8.72" duration="156.00" routeLength="507.80" waitSteps="90" timeLoss="111.43" rerouteNo="0" devices="tripinfo_moped.55" vType="moped" speedFactor="0.82" vaporized=""/>
    <tripinfo id="moped.65" depart="76.00" departLane="beg_1" departPos="2.20" departPosLat="0.62" departSpeed="0.00" departDelay="11.00" arrival="225.00" arrivalLane="end_1" arrivalPos="10.00" arrivalPosLat="1.00" arrivalSpeed="9.74" duration="149.00" routeLength="507.80" waitSteps="83" timeLoss="98.41" rerouteNo="0" devices="tripinfo_moped.65" vType="moped" speedFactor="0.73" vaporized=""/>
    <tripinfo id="moped.50" depart="67.00" departLane="beg_1" departPos="2.20" departPosLat="-0.35" departSpeed="0.00" departDelay="17.00" arrival="225.00" arrivalLane="end_1" arrivalPos="10.00" arrivalPosLat="-1.20" arrivalSpeed="7.45" duration="158.00" routeLength="507.80" waitSteps="73" timeLoss="90.82" rerouteNo="0" devices="tripinfo_moped.50" vType="moped" speedFactor="0.55" vaporized=""/>
    <tripinfo id="moped.59" depart="71.00" departLane="beg_0" departPos="2.20" departPosLat="1.18" departSpeed="0.00" departDelay="12.00" arrival="225.00" arrivalLane="end_0" arrivalPos="10.00" arrivalPosLat="1.00" arrivalSpeed="7.39" duration="154.00" routeLength="507.80" waitSteps="75" timeLoss="89.71" rerouteNo="0" devices="tripinfo_moped.59" vType="moped" speedFactor="0.57" vaporized=""/>
    <tripinfo id="moped.76" depart="88.00" departLane="beg_0" departPos="2.20" departPosLat="-0.59" departSpeed="0.00" departDelay="12.00" arrival="226.00" arrivalLane="end_0" arrivalPos="10.00" arrivalPosLat="-1.20" arrivalSpeed="9.82" duration="138.00" routeLength="507.80" waitSteps="84" timeLoss="106.95" rerouteNo="0" devices="tripinfo_moped.76" vType="moped" speedFactor="1.27" vaporized=""/>
    <tripinfo id="moped.77" depart="91.00" departLane="beg_0" departPos="2.20" departPosLat="-0.31" departSpeed="0.00" departDelay="14.00" arrival="226.00" arrivalLane="end_0" arrivalPos="10.00" arrivalPosLat="0.20" arrivalSpeed="9.63" duration="135.00" routeLength="507.80" waitSteps="76" timeLoss="104.09" rerouteNo="0" devices="tripinfo_moped.77" vType="moped" speedFactor="1.38" vaporized=""/>
    <tripinfo id="moped.66" depart="82.00" departLane="beg_1" departPos="2.20" departPosLat="1.04" departSpeed="0.00" departDelay="16.00" arrival="226.00" arrivalLane="end_1" arrivalPos="10.00" arrivalPosLat="-0.10" arrivalSpeed="9.66" duration="144.00" routeLength="507.80" waitSteps="77" timeLoss="99.42" rerouteNo="0" devices="tripinfo_moped.66" vType="moped" speedFactor="0.82" vaporized=""/>
    <tripinfo id="moped.73" depart="88.00" departLane="beg_1" departPos="2.20" departPosLat="-0.96" departSpeed="0.00" departDelay="15.00" arrival="227.00" arrivalLane="end_1" arrivalPos="10.00" arrivalPosLat="1.00" arrivalSpeed="10.59" duration="139.00" routeLength="507.80" waitSteps="78" timeLoss="108.02" rerouteNo="0" devices="tripinfo_moped.73" vType="moped" speedFactor="1.28" vaporized=""/>