<?xml version="1.0" encoding="UTF-8"?>

<!-- generated on Thu May 31 09:14:07 2018 by Eclipse SUMO Version 35e3bfd
This data file and the accompanying materials
are made available under the terms of the Eclipse Public License v2.0
which accompanies this distribution, and is available at
http://www.eclipse.org/legal/epl-v20.html
SPDX-License-Identifier: EPL-2.0
<configuration xmlns:xsi="http://www.w3.org/2001/XMLSchema-instance" xsi:noNamespaceSchemaLocation="http://sumo.dlr.de/xsd/sumoConfiguration.xsd">

    <input>
        <net-file value="motorway.net.xml"/>
        <route-files value="input_routes.rou.xml"/>
    </input>

    <output>
        <write-license value="true"/>
        <tripinfo-output value="tripinfos.xml"/>
    </output>

    <processing>
        <pedestrian.model value="nonInteracting"/>
    </processing>

    <report>
        <verbose value="true"/>
        <xml-validation value="never"/>
        <duration-log.statistics value="true"/>
        <no-step-log value="true"/>
    </report>

    <mesoscopic>
        <mesosim value="true"/>
        <meso-junction-control value="true"/>
    </mesoscopic>

</configuration>
-->

<tripinfos xmlns:xsi="http://www.w3.org/2001/XMLSchema-instance" xsi:noNamespaceSchemaLocation="http://sumo.dlr.de/xsd/tripinfo_file.xsd">
    <tripinfo id="blocker" depart="0.00" departLane="" departPos="0.00" departSpeed="0.96" departDelay="0.00" arrival="106.00" arrivalLane="" arrivalPos="197.00" arrivalSpeed="36.00" duration="106.00" routeLength="197.00" waitingTime="0.00" waitingCount="0" stopTime="100.00" timeLoss="100.00" rerouteNo="0" devices="tripinfo_blocker" vType="t0" speedFactor="1.00" vaporized=""/>
    <tripinfo id="backlogged" depart="0.00" departLane="" departPos="0.00" departSpeed="0.95" departDelay="0.00" arrival="107.00" arrivalLane="" arrivalPos="197.00" arrivalSpeed="36.00" duration="107.00" routeLength="197.00" waitingTime="0.00" waitingCount="0" stopTime="0.00" timeLoss="100.67" rerouteNo="0" devices="tripinfo_backlogged" vType="t0" speedFactor="1.00" vaporized=""/>
    <tripinfo id="unblocked.0" depart="0.00" departLane="" departPos="0.00" departSpeed="0.95" departDelay="0.00" arrival="107.00" arrivalLane="" arrivalPos="197.00" arrivalSpeed="36.00" duration="107.00" routeLength="197.00" waitingTime="0.00" waitingCount="0" stopTime="0.00" timeLoss="101.34" rerouteNo="0" devices="tripinfo_unblocked.0" vType="t0" speedFactor="1.00" vaporized=""/>
    <tripinfo id="unblocked.1" depart="10.00" departLane="" departPos="0.00" departSpeed="1.04" departDelay="0.00" arrival="108.00" arrivalLane="" arrivalPos="197.00" arrivalSpeed="36.00" duration="98.00" routeLength="197.00" waitingTime="0.00" waitingCount="0" stopTime="0.00" timeLoss="92.01" rerouteNo="0" devices="tripinfo_unblocked.1" vType="t0" speedFactor="1.00" vaporized=""/>
    <tripinfo id="unblocked.2" depart="20.00" departLane="" departPos="0.00" departSpeed="1.15" departDelay="0.00" arrival="109.00" arrivalLane="" arrivalPos="197.00" arrivalSpeed="36.00" duration="89.00" routeLength="197.00" waitingTime="0.00" waitingCount="0" stopTime="0.00" timeLoss="82.68" rerouteNo="0" devices="tripinfo_unblocked.2" vType="t0" speedFactor="1.00" vaporized=""/>
    <tripinfo id="unblocked.3" depart="103.00" departLane="" departPos="0.00" departSpeed="31.97" departDelay="73.00" arrival="109.00" arrivalLane="" arrivalPos="197.00" arrivalSpeed="36.00" duration="6.00" routeLength="197.00" waitingTime="0.00" waitingCount="0" stopTime="0.00" timeLoss="0.34" rerouteNo="0" devices="tripinfo_unblocked.3" vType="t0" speedFactor="1.00" vaporized=""/>
    <tripinfo id="unblocked.4" depart="104.00" departLane="" departPos="0.00" departSpeed="35.82" departDelay="64.00" arrival="110.00" arrivalLane="" arrivalPos="197.00" arrivalSpeed="36.00" duration="6.00" routeLength="197.00" waitingTime="0.00" waitingCount="0" stopTime="0.00" timeLoss="0.01" rerouteNo="0" devices="tripinfo_unblocked.4" vType="t0" speedFactor="1.00" vaporized=""/>
    <tripinfo id="unblocked.5" depart="105.00" departLane="" departPos="0.00" departSpeed="36.00" departDelay="55.00" arrival="111.00" arrivalLane="" arrivalPos="197.00" arrivalSpeed="36.00" duration="6.00" routeLength="197.00" waitingTime="0.00" waitingCount="0" stopTime="0.00" timeLoss="0.00" rerouteNo="0" devices="tripinfo_unblocked.5" vType="t0" speedFactor="1.00" vaporized=""/>
    <tripinfo id="unblocked.6" depart="105.00" departLane="" departPos="0.00" departSpeed="28.93" departDelay="45.00" arrival="112.00" arrivalLane="" arrivalPos="197.00" arrivalSpeed="36.00" duration="7.00" routeLength="197.00" waitingTime="0.00" waitingCount="0" stopTime="0.00" timeLoss="0.67" rerouteNo="0" devices="tripinfo_unblocked.6" vType="t0" speedFactor="1.00" vaporized=""/>
    <tripinfo id="unblocked.7" depart="106.00" departLane="" departPos="0.00" departSpeed="32.04" departDelay="36.00" arrival="112.00" arrivalLane="" arrivalPos="197.00" arrivalSpeed="36.00" duration="6.00" routeLength="197.00" waitingTime="0.00" waitingCount="0" stopTime="0.00" timeLoss="0.34" rerouteNo="0" devices="tripinfo_unblocked.7" vType="t0" speedFactor="1.00" vaporized=""/>
    <tripinfo id="unblocked.8" depart="107.00" departLane="" departPos="0.00" departSpeed="35.91" departDelay="27.00" arrival="113.00" arrivalLane="" arrivalPos="197.00" arrivalSpeed="36.00" duration="6.00" routeLength="197.00" waitingTime="0.00" waitingCount="0" stopTime="0.00" timeLoss="0.01" rerouteNo="0" devices="tripinfo_unblocked.8" vType="t0" speedFactor="1.00" vaporized=""/>
    <tripinfo id="unblocked.9" depart="107.00" departLane="" departPos="0.00" departSpeed="28.87" departDelay="17.00" arrival="114.00" arrivalLane="" arrivalPos="197.00" arrivalSpeed="36.00" duration="7.00" routeLength="197.00" waitingTime="0.00" waitingCount="0" stopTime="0.00" timeLoss="0.68" rerouteNo="0" devices="tripinfo_unblocked.9" vType="t0" speedFactor="1.00" vaporized=""/>
</tripinfos>
