<?xml version="1.0" encoding="UTF-8"?>

<!-- generated on 2022-02-11 11:28:56 by Eclipse SUMO sumo Version v1_12_0+0490-00f3a0f
This data file and the accompanying materials
are made available under the terms of the Eclipse Public License v2.0
which accompanies this distribution, and is available at
http://www.eclipse.org/legal/epl-v20.html
This file may also be made available under the following Secondary
Licenses when the conditions for such availability set forth in the Eclipse
Public License 2.0 are satisfied: GNU General Public License, version 2
or later which is available at
https://www.gnu.org/licenses/old-licenses/gpl-2.0-standalone.html
SPDX-License-Identifier: EPL-2.0 OR GPL-2.0-or-later
<configuration xmlns:xsi="http://www.w3.org/2001/XMLSchema-instance" xsi:noNamespaceSchemaLocation="http://sumo.dlr.de/xsd/sumoConfiguration.xsd">

    <input>
        <net-file value="net2.net.xml"/>
        <route-files value="input_routes.rou.xml"/>
        <additional-files value="input_additional.add.xml"/>
    </input>

    <output>
        <write-license value="true"/>
        <tripinfo-output value="tripinfos.xml"/>
        <vehroute-output.skip-ptlines value="true"/>
    </output>

    <processing>
        <default.speeddev value="0"/>
        <pedestrian.model value="nonInteracting"/>
    </processing>

    <report>
        <xml-validation value="never"/>
        <xml-validation.routes value="never"/>
        <no-step-log value="true"/>
    </report>

    <mesoscopic>
        <mesosim value="true"/>
    </mesoscopic>

</configuration>
-->

<tripinfos xmlns:xsi="http://www.w3.org/2001/XMLSchema-instance" xsi:noNamespaceSchemaLocation="http://sumo.dlr.de/xsd/tripinfo_file.xsd">
    <personinfo id="p0" depart="0.00" type="DEFAULT_PEDTYPE" speedFactor="1.00">
        <stop duration="1.00" arrival="1.00" arrivalPos="800.00" actType="waiting"/>
        <access stop="stopA_S" depart="1.00" arrival="13.00" duration="12.00" routeLength="17.52"/>
        <walk depart="13.00" departPos="111.92" arrival="32.00" arrivalPos="86.23" duration="19.00" routeLength="25.69" timeLoss="0.50" maxSpeed="1.39"/>
        <access stop="stopA_W" depart="32.00" arrival="103.00" duration="71.00" routeLength="98.62"/>
    </personinfo>
    <personinfo id="p1" depart="100.00" type="DEFAULT_PEDTYPE" speedFactor="1.00">
        <stop duration="1.00" arrival="101.00" arrivalPos="100.00" actType="waiting"/>
        <walk depart="101.00" departPos="100.00" arrival="110.00" arrivalPos="111.92" duration="9.00" routeLength="11.92" timeLoss="0.42" maxSpeed="1.39"/>
        <access stop="stopA_S" depart="110.00" arrival="122.00" duration="12.00" routeLength="17.52"/>
        <access stop="stopA_S" depart="122.00" arrival="134.00" duration="12.00" routeLength="17.52"/>
        <walk depart="134.00" departPos="111.92" arrival="153.00" arrivalPos="86.23" duration="19.00" routeLength="25.69" timeLoss="0.50" maxSpeed="1.39"/>
        <access stop="stopA_W" depart="153.00" arrival="224.00" duration="71.00" routeLength="98.62"/>
    </personinfo>
</tripinfos>
