<?xml version="1.0" encoding="UTF-8"?>

<!-- generated on 11/03/16 13:10:39 by SUMO Version dev-SVN-r21868
<?xml version="1.0" encoding="UTF-8"?>

<configuration xmlns:xsi="http://www.w3.org/2001/XMLSchema-instance" xsi:noNamespaceSchemaLocation="http://sumo.dlr.de/xsd/sumoConfiguration.xsd">

    <input>
        <net-file value="net.net.xml"/>
        <route-files value="input_routes.rou.xml"/>
    </input>

    <output>
        <vehroute-output value="vehroutes.xml"/>
    </output>

    <report>
        <xml-validation value="never"/>
        <duration-log.disable value="true"/>
        <no-step-log value="true"/>
    </report>

</configuration>
-->

<routes xmlns:xsi="http://www.w3.org/2001/XMLSchema-instance" xsi:noNamespaceSchemaLocation="http://sumo.dlr.de/xsd/routes_file.xsd">
    <vehicle id="veh1" type="Car" depart="10.00" arrival="14.00">
        <route edges="1to2 out"/>
    </vehicle>

    <person id="p1" depart="100.00" arrival="103.00">
        <ride from="1to2" to="out" lines="veh0"/>
    </person>

    <vehicle id="veh0" type="Car" depart="1.00" arrival="103.00">
        <route edges="1to2 out"/>
        <stop lane="1to2_0" endPos="4.00" triggered="1" expected="p1"/>
    </vehicle>

    <person id="p2" depart="200.00">
        <ride from="1to2" to="out" lines="veh0"/>
    </person>

</routes>
