<?xml version="1.0" encoding="UTF-8"?>

<!-- generated on Wed Mar 11 22:23:19 2020 by Eclipse SUMO Version v1_5_0+0662-a598ecae47
This data file and the accompanying materials
are made available under the terms of the Eclipse Public License v2.0
which accompanies this distribution, and is available at
http://www.eclipse.org/legal/epl-v20.html
SPDX-License-Identifier: EPL-2.0
<configuration xmlns:xsi="http://www.w3.org/2001/XMLSchema-instance" xsi:noNamespaceSchemaLocation="http://sumo.dlr.de/xsd/sumoConfiguration.xsd">

    <input>
        <net-file value="net.net.xml"/>
        <route-files value="input_routes.rou.xml"/>
    </input>

    <output>
        <write-license value="true"/>
        <fcd-output value="fcd.xml"/>
    </output>

    <processing>
        <default.carfollowmodel value="KraussOrig1"/>
        <default.speeddev value="0"/>
    </processing>

    <report>
        <xml-validation value="never"/>
        <no-step-log value="true"/>
    </report>

</configuration>
-->

<fcd-export xmlns:xsi="http://www.w3.org/2001/XMLSchema-instance" xsi:noNamespaceSchemaLocation="http://sumo.dlr.de/xsd/fcd_file.xsd">
    <timestep time="0.00">
        <vehicle id="first" x="5.10" y="0.00" angle="90.00" type="DEFAULT_VEHTYPE" speed="13.89" pos="5.10" lane="0_0" slope="0.00"/>
    </timestep>
    <timestep time="1.00">
        <vehicle id="first" x="17.83" y="0.00" angle="90.00" type="DEFAULT_VEHTYPE" speed="12.73" pos="17.83" lane="0_0" slope="0.00"/>
        <vehicle id="flow.0" x="5.10" y="0.00" angle="90.00" type="flow" speed="10.23" pos="5.10" lane="0_0" slope="0.00"/>
    </timestep>
    <timestep time="2.00">
        <vehicle id="first" x="30.80" y="0.00" angle="90.00" type="DEFAULT_VEHTYPE" speed="12.96" pos="30.80" lane="0_0" slope="0.00"/>
        <vehicle id="flow.0" x="15.69" y="0.00" angle="90.00" type="flow" speed="10.59" pos="15.69" lane="0_0" slope="0.00"/>
        <vehicle id="flow.1" x="5.10" y="0.00" angle="90.00" type="flow" speed="7.63" pos="5.10" lane="0_0" slope="0.00"/>
    </timestep>
    <timestep time="3.00">
        <vehicle id="first" x="44.05" y="0.00" angle="90.00" type="DEFAULT_VEHTYPE" speed="13.25" pos="44.05" lane="0_0" slope="0.00"/>
        <vehicle id="flow.0" x="26.45" y="0.00" angle="90.00" type="flow" speed="10.76" pos="26.45" lane="0_0" slope="0.00"/>
        <vehicle id="flow.1" x="13.20" y="0.00" angle="90.00" type="flow" speed="8.10" pos="13.20" lane="0_0" slope="0.00"/>
        <vehicle id="flow.2" x="5.10" y="0.00" angle="90.00" type="flow" speed="4.20" pos="5.10" lane="0_0" slope="0.00"/>
    </timestep>
    <timestep time="4.00">
        <vehicle id="first" x="56.97" y="0.00" angle="90.00" type="DEFAULT_VEHTYPE" speed="12.92" pos="56.97" lane="0_0" slope="0.00"/>
        <vehicle id="flow.0" x="38.56" y="0.00" angle="90.00" type="flow" speed="12.11" pos="38.56" lane="0_0" slope="0.00"/>
        <vehicle id="flow.1" x="21.69" y="0.00" angle="90.00" type="flow" speed="8.49" pos="21.69" lane="0_0" slope="0.00"/>
        <vehicle id="flow.2" x="9.18" y="0.00" angle="90.00" type="flow" speed="4.08" pos="9.18" lane="0_0" slope="0.00"/>
    </timestep>
    <timestep time="5.00">
        <vehicle id="first" x="70.85" y="0.00" angle="90.00" type="DEFAULT_VEHTYPE" speed="13.88" pos="70.85" lane="0_0" slope="0.00"/>
        <vehicle id="flow.0" x="50.08" y="0.00" angle="90.00" type="flow" speed="11.52" pos="50.08" lane="0_0" slope="0.00"/>
        <vehicle id="flow.1" x="32.17" y="0.00" angle="90.00" type="flow" speed="10.49" pos="32.17" lane="0_0" slope="0.00"/>
        <vehicle id="flow.2" x="15.28" y="0.00" angle="90.00" type="flow" speed="6.09" pos="15.28" lane="0_0" slope="0.00"/>
        <vehicle id="flow.3" x="5.10" y="0.00" angle="90.00" type="flow" speed="4.27" pos="5.10" lane="0_0" slope="0.00"/>
    </timestep>
    <timestep time="6.00">
        <vehicle id="first" x="84.01" y="0.00" angle="90.00" type="DEFAULT_VEHTYPE" speed="13.15" pos="84.01" lane="0_0" slope="0.00"/>
        <vehicle id="flow.0" x="63.47" y="0.00" angle="90.00" type="flow" speed="13.39" pos="63.47" lane="0_0" slope="0.00"/>
        <vehicle id="flow.1" x="43.30" y="0.00" angle="90.00" type="flow" speed="11.13" pos="43.30" lane="0_0" slope="0.00"/>
        <vehicle id="flow.2" x="22.83" y="0.00" angle="90.00" type="flow" speed="7.56" pos="22.83" lane="0_0" slope="0.00"/>
        <vehicle id="flow.3" x="9.21" y="0.00" angle="90.00" type="flow" speed="4.11" pos="9.21" lane="0_0" slope="0.00"/>
    </timestep>
    <timestep time="7.00">
        <vehicle id="first" x="97.01" y="0.00" angle="90.00" type="DEFAULT_VEHTYPE" speed="13.00" pos="97.01" lane="0_0" slope="0.00"/>
        <vehicle id="flow.0" x="76.53" y="0.00" angle="90.00" type="flow" speed="13.06" pos="76.53" lane="0_0" slope="0.00"/>
        <vehicle id="flow.1" x="55.67" y="0.00" angle="90.00" type="flow" speed="12.37" pos="55.67" lane="0_0" slope="0.00"/>
        <vehicle id="flow.2" x="32.59" y="0.00" angle="90.00" type="flow" speed="9.76" pos="32.59" lane="0_0" slope="0.00"/>
        <vehicle id="flow.3" x="15.09" y="0.00" angle="90.00" type="flow" speed="5.88" pos="15.09" lane="0_0" slope="0.00"/>
        <vehicle id="flow.4" x="5.10" y="0.00" angle="90.00" type="flow" speed="3.87" pos="5.10" lane="0_0" slope="0.00"/>
    </timestep>
    <timestep time="8.00">
        <vehicle id="first" x="109.68" y="0.00" angle="90.00" type="DEFAULT_VEHTYPE" speed="12.67" pos="109.68" lane="0_0" slope="0.00"/>
        <vehicle id="flow.0" x="88.46" y="0.00" angle="90.00" type="flow" speed="11.92" pos="88.46" lane="0_0" slope="0.00"/>
        <vehicle id="flow.1" x="67.55" y="0.00" angle="90.00" type="flow" speed="11.88" pos="67.55" lane="0_0" slope="0.00"/>
        <vehicle id="flow.2" x="44.43" y="0.00" angle="90.00" type="flow" speed="11.84" pos="44.43" lane="0_0" slope="0.00"/>
        <vehicle id="flow.3" x="22.87" y="0.00" angle="90.00" type="flow" speed="7.78" pos="22.87" lane="0_0" slope="0.00"/>
        <vehicle id="flow.4" x="9.08" y="0.00" angle="90.00" type="flow" speed="3.98" pos="9.08" lane="0_0" slope="0.00"/>
    </timestep>
    <timestep time="9.00">
        <vehicle id="first" x="123.52" y="0.00" angle="90.00" type="DEFAULT_VEHTYPE" speed="13.85" pos="123.52" lane="0_0" slope="0.00"/>
        <vehicle id="flow.0" x="101.01" y="0.00" angle="90.00" type="flow" speed="12.55" pos="101.01" lane="0_0" slope="0.00"/>
        <vehicle id="flow.1" x="78.88" y="0.00" angle="90.00" type="flow" speed="11.33" pos="78.88" lane="0_0" slope="0.00"/>
        <vehicle id="flow.2" x="57.10" y="0.00" angle="90.00" type="flow" speed="12.67" pos="57.10" lane="0_0" slope="0.00"/>
        <vehicle id="flow.3" x="32.00" y="0.00" angle="90.00" type="flow" speed="9.13" pos="32.00" lane="0_0" slope="0.00"/>
        <vehicle id="flow.4" x="15.63" y="0.00" angle="90.00" type="flow" speed="6.55" pos="15.63" lane="0_0" slope="0.00"/>
        <vehicle id="flow.5" x="5.10" y="0.00" angle="90.00" type="flow" speed="4.79" pos="5.10" lane="0_0" slope="0.00"/>
    </timestep>
    <timestep time="10.00">
        <vehicle id="first" x="136.52" y="0.00" angle="90.00" type="DEFAULT_VEHTYPE" speed="13.00" pos="136.52" lane="0_0" slope="0.00"/>
        <vehicle id="flow.0" x="114.71" y="0.00" angle="90.00" type="flow" speed="13.70" pos="114.71" lane="0_0" slope="0.00"/>
        <vehicle id="flow.1" x="91.74" y="0.00" angle="90.00" type="flow" speed="12.86" pos="91.74" lane="0_0" slope="0.00"/>
        <vehicle id="flow.2" x="69.08" y="0.00" angle="90.00" type="flow" speed="11.99" pos="69.08" lane="0_0" slope="0.00"/>
        <vehicle id="flow.3" x="43.20" y="0.00" angle="90.00" type="flow" speed="11.20" pos="43.20" lane="0_0" slope="0.00"/>
        <vehicle id="flow.4" x="23.42" y="0.00" angle="90.00" type="flow" speed="7.79" pos="23.42" lane="0_0" slope="0.00"/>
        <vehicle id="flow.5" x="9.76" y="0.00" angle="90.00" type="flow" speed="4.66" pos="9.76" lane="0_0" slope="0.00"/>
    </timestep>
    <timestep time="11.00">
        <vehicle id="first" x="150.12" y="0.00" angle="90.00" type="DEFAULT_VEHTYPE" speed="13.60" pos="150.12" lane="0_0" slope="0.00"/>
        <vehicle id="flow.0" x="127.82" y="0.00" angle="90.00" type="flow" speed="13.12" pos="127.82" lane="0_0" slope="0.00"/>
        <vehicle id="flow.1" x="104.03" y="0.00" angle="90.00" type="flow" speed="12.29" pos="104.03" lane="0_0" slope="0.00"/>
        <vehicle id="flow.2" x="82.22" y="0.00" angle="90.00" type="flow" speed="13.14" pos="82.22" lane="0_0" slope="0.00"/>
        <vehicle id="flow.3" x="55.79" y="0.00" angle="90.00" type="flow" speed="12.59" pos="55.79" lane="0_0" slope="0.00"/>
        <vehicle id="flow.4" x="33.70" y="0.00" angle="90.00" type="flow" speed="10.28" pos="33.70" lane="0_0" slope="0.00"/>
        <vehicle id="flow.5" x="16.07" y="0.00" angle="90.00" type="flow" speed="6.31" pos="16.07" lane="0_0" slope="0.00"/>
        <vehicle id="flow.6" x="5.10" y="0.00" angle="90.00" type="flow" speed="4.89" pos="5.10" lane="0_0" slope="0.00"/>
    </timestep>
    <timestep time="12.00">
        <vehicle id="first" x="163.08" y="0.00" angle="90.00" type="DEFAULT_VEHTYPE" speed="12.96" pos="163.08" lane="0_0" slope="0.00"/>
        <vehicle id="flow.0" x="140.95" y="0.00" angle="90.00" type="flow" speed="13.12" pos="140.95" lane="0_0" slope="0.00"/>
        <vehicle id="flow.1" x="116.17" y="0.00" angle="90.00" type="flow" speed="12.13" pos="116.17" lane="0_0" slope="0.00"/>
        <vehicle id="flow.2" x="93.83" y="0.00" angle="90.00" type="flow" speed="11.61" pos="93.83" lane="0_0" slope="0.00"/>
        <vehicle id="flow.3" x="69.10" y="0.00" angle="90.00" type="flow" speed="13.31" pos="69.10" lane="0_0" slope="0.00"/>
        <vehicle id="flow.4" x="46.18" y="0.00" angle="90.00" type="flow" speed="12.48" pos="46.18" lane="0_0" slope="0.00"/>
        <vehicle id="flow.5" x="24.34" y="0.00" angle="90.00" type="flow" speed="8.27" pos="24.34" lane="0_0" slope="0.00"/>
        <vehicle id="flow.6" x="9.40" y="0.00" angle="90.00" type="flow" speed="4.30" pos="9.40" lane="0_0" slope="0.00"/>
    </timestep>
    <timestep time="13.00">
        <vehicle id="first" x="176.75" y="0.00" angle="90.00" type="DEFAULT_VEHTYPE" speed="13.67" pos="176.75" lane="0_0" slope="0.00"/>
        <vehicle id="flow.0" x="153.09" y="0.00" angle="90.00" type="flow" speed="12.15" pos="153.09" lane="0_0" slope="0.00"/>
        <vehicle id="flow.1" x="128.96" y="0.00" angle="90.00" type="flow" speed="12.79" pos="128.96" lane="0_0" slope="0.00"/>
        <vehicle id="flow.2" x="105.84" y="0.00" angle="90.00" type="flow" speed="12.02" pos="105.84" lane="0_0" slope="0.00"/>
        <vehicle id="flow.3" x="82.01" y="0.00" angle="90.00" type="flow" speed="12.91" pos="82.01" lane="0_0" slope="0.00"/>
        <vehicle id="flow.4" x="59.97" y="0.00" angle="90.00" type="flow" speed="13.80" pos="59.97" lane="0_0" slope="0.00"/>
        <vehicle id="flow.5" x="34.85" y="0.00" angle="90.00" type="flow" speed="10.51" pos="34.85" lane="0_0" slope="0.00"/>
        <vehicle id="flow.6" x="15.59" y="0.00" angle="90.00" type="flow" speed="6.19" pos="15.59" lane="0_0" slope="0.00"/>
        <vehicle id="flow.7" x="5.10" y="0.00" angle="90.00" type="flow" speed="4.59" pos="5.10" lane="0_0" slope="0.00"/>
    </timestep>
    <timestep time="14.00">
        <vehicle id="first" x="189.44" y="0.00" angle="90.00" type="DEFAULT_VEHTYPE" speed="12.68" pos="189.44" lane="0_0" slope="0.00"/>
        <vehicle id="flow.0" x="167.28" y="0.00" angle="90.00" type="flow" speed="14.19" pos="167.28" lane="0_0" slope="0.00"/>
        <vehicle id="flow.1" x="141.76" y="0.00" angle="90.00" type="flow" speed="12.80" pos="141.76" lane="0_0" slope="0.00"/>
        <vehicle id="flow.2" x="118.07" y="0.00" angle="90.00" type="flow" speed="12.22" pos="118.07" lane="0_0" slope="0.00"/>
        <vehicle id="flow.3" x="94.76" y="0.00" angle="90.00" type="flow" speed="12.75" pos="94.76" lane="0_0" slope="0.00"/>
        <vehicle id="flow.4" x="72.86" y="0.00" angle="90.00" type="flow" speed="12.89" pos="72.86" lane="0_0" slope="0.00"/>
        <vehicle id="flow.5" x="46.28" y="0.00" angle="90.00" type="flow" speed="11.43" pos="46.28" lane="0_0" slope="0.00"/>
        <vehicle id="flow.6" x="23.65" y="0.00" angle="90.00" type="flow" speed="8.05" pos="23.65" lane="0_0" slope="0.00"/>
        <vehicle id="flow.7" x="9.58" y="0.00" angle="90.00" type="flow" speed="4.48" pos="9.58" lane="0_0" slope="0.00"/>
    </timestep>
    <timestep time="15.00">
        <vehicle id="first" x="203.09" y="0.00" angle="90.00" type="DEFAULT_VEHTYPE" speed="13.66" pos="203.09" lane="0_0" slope="0.00"/>
        <vehicle id="flow.0" x="180.41" y="0.00" angle="90.00" type="flow" speed="13.13" pos="180.41" lane="0_0" slope="0.00"/>
        <vehicle id="flow.1" x="154.69" y="0.00" angle="90.00" type="flow" speed="12.93" pos="154.69" lane="0_0" slope="0.00"/>
        <vehicle id="flow.2" x="130.79" y="0.00" angle="90.00" type="flow" speed="12.72" pos="130.79" lane="0_0" slope="0.00"/>
        <vehicle id="flow.3" x="107.46" y="0.00" angle="90.00" type="flow" speed="12.71" pos="107.46" lane="0_0" slope="0.00"/>
        <vehicle id="flow.4" x="85.65" y="0.00" angle="90.00" type="flow" speed="12.79" pos="85.65" lane="0_0" slope="0.00"/>
        <vehicle id="flow.5" x="57.55" y="0.00" angle="90.00" type="flow" speed="11.27" pos="57.55" lane="0_0" slope="0.00"/>
        <vehicle id="flow.6" x="33.42" y="0.00" angle="90.00" type="flow" speed="9.77" pos="33.42" lane="0_0" slope="0.00"/>
        <vehicle id="flow.7" x="16.11" y="0.00" angle="90.00" type="flow" speed="6.53" pos="16.11" lane="0_0" slope="0.00"/>
        <vehicle id="flow.8" x="5.10" y="0.00" angle="90.00" type="flow" speed="5.02" pos="5.10" lane="0_0" slope="0.00"/>
    </timestep>
    <timestep time="16.00">
        <vehicle id="first" x="216.18" y="0.00" angle="90.00" type="DEFAULT_VEHTYPE" speed="13.09" pos="216.18" lane="0_0" slope="0.00"/>
        <vehicle id="flow.0" x="193.94" y="0.00" angle="90.00" type="flow" speed="13.52" pos="193.94" lane="0_0" slope="0.00"/>
        <vehicle id="flow.1" x="167.06" y="0.00" angle="90.00" type="flow" speed="12.37" pos="167.06" lane="0_0" slope="0.00"/>
        <vehicle id="flow.2" x="143.52" y="0.00" angle="90.00" type="flow" speed="12.73" pos="143.52" lane="0_0" slope="0.00"/>
        <vehicle id="flow.3" x="120.22" y="0.00" angle="90.00" type="flow" speed="12.76" pos="120.22" lane="0_0" slope="0.00"/>
        <vehicle id="flow.4" x="98.23" y="0.00" angle="90.00" type="flow" speed="12.58" pos="98.23" lane="0_0" slope="0.00"/>
        <vehicle id="flow.5" x="68.62" y="0.00" angle="90.00" type="flow" speed="11.07" pos="68.62" lane="0_0" slope="0.00"/>
        <vehicle id="flow.6" x="44.52" y="0.00" angle="90.00" type="flow" speed="11.10" pos="44.52" lane="0_0" slope="0.00"/>
        <vehicle id="flow.7" x="25.21" y="0.00" angle="90.00" type="flow" speed="9.10" pos="25.21" lane="0_0" slope="0.00"/>
        <vehicle id="flow.8" x="9.93" y="0.00" angle="90.00" type="flow" speed="4.83" pos="9.93" lane="0_0" slope="0.00"/>
    </timestep>
    <timestep time="17.00">
        <vehicle id="first" x="229.94" y="0.00" angle="90.00" type="DEFAULT_VEHTYPE" speed="13.75" pos="229.94" lane="0_0" slope="0.00"/>
        <vehicle id="flow.0" x="206.31" y="0.00" angle="90.00" type="flow" speed="12.37" pos="206.31" lane="0_0" slope="0.00"/>
        <vehicle id="flow.1" x="179.28" y="0.00" angle="90.00" type="flow" speed="12.22" pos="179.28" lane="0_0" slope="0.00"/>
        <vehicle id="flow.2" x="155.64" y="0.00" angle="90.00" type="flow" speed="12.12" pos="155.64" lane="0_0" slope="0.00"/>
        <vehicle id="flow.3" x="133.09" y="0.00" angle="90.00" type="flow" speed="12.87" pos="133.09" lane="0_0" slope="0.00"/>
        <vehicle id="flow.4" x="110.88" y="0.00" angle="90.00" type="flow" speed="12.65" pos="110.88" lane="0_0" slope="0.00"/>
        <vehicle id="flow.5" x="79.24" y="0.00" angle="90.00" type="flow" speed="10.62" pos="79.24" lane="0_0" slope="0.00"/>
        <vehicle id="flow.6" x="56.52" y="0.00" angle="90.00" type="flow" speed="12.00" pos="56.52" lane="0_0" slope="0.00"/>
        <vehicle id="flow.7" x="35.38" y="0.00" angle="90.00" type="flow" speed="10.17" pos="35.38" lane="0_0" slope="0.00"/>
        <vehicle id="flow.8" x="16.61" y="0.00" angle="90.00" type="flow" speed="6.68" pos="16.61" lane="0_0" slope="0.00"/>
        <vehicle id="flow.9" x="5.10" y="0.00" angle="90.00" type="flow" speed="5.34" pos="5.10" lane="0_0" slope="0.00"/>
    </timestep>
    <timestep time="18.00">
        <vehicle id="first" x="242.56" y="0.00" angle="90.00" type="DEFAULT_VEHTYPE" speed="12.63" pos="242.56" lane="0_0" slope="0.00"/>
        <vehicle id="flow.0" x="220.25" y="0.00" angle="90.00" type="flow" speed="13.95" pos="220.25" lane="0_0" slope="0.00"/>
        <vehicle id="flow.1" x="191.78" y="0.00" angle="90.00" type="flow" speed="12.50" pos="191.78" lane="0_0" slope="0.00"/>
        <vehicle id="flow.2" x="168.44" y="0.00" angle="90.00" type="flow" speed="12.80" pos="168.44" lane="0_0" slope="0.00"/>
        <vehicle id="flow.3" x="145.07" y="0.00" angle="90.00" type="flow" speed="11.98" pos="145.07" lane="0_0" slope="0.00"/>
        <vehicle id="flow.4" x="124.09" y="0.00" angle="90.00" type="flow" speed="13.21" pos="124.09" lane="0_0" slope="0.00"/>
        <vehicle id="flow.5" x="90.17" y="0.00" angle="90.00" type="flow" speed="10.94" pos="90.17" lane="0_0" slope="0.00"/>
        <vehicle id="flow.6" x="67.59" y="0.00" angle="90.00" type="flow" speed="11.07" pos="67.59" lane="0_0" slope="0.00"/>
        <vehicle id="flow.7" x="46.67" y="0.00" angle="90.00" type="flow" speed="11.29" pos="46.67" lane="0_0" slope="0.00"/>
        <vehicle id="flow.8" x="25.52" y="0.00" angle="90.00" type="flow" speed="8.91" pos="25.52" lane="0_0" slope="0.00"/>
        <vehicle id="flow.9" x="9.72" y="0.00" angle="90.00" type="flow" speed="4.62" pos="9.72" lane="0_0" slope="0.00"/>
    </timestep>
    <timestep time="19.00">
        <vehicle id="first" x="256.29" y="0.00" angle="90.00" type="DEFAULT_VEHTYPE" speed="13.73" pos="256.29" lane="0_0" slope="0.00"/>
        <vehicle id="flow.0" x="232.52" y="0.00" angle="90.00" type="flow" speed="12.26" pos="232.52" lane="0_0" slope="0.00"/>
        <vehicle id="flow.1" x="204.63" y="0.00" angle="90.00" type="flow" speed="12.85" pos="204.63" lane="0_0" slope="0.00"/>
        <vehicle id="flow.2" x="180.65" y="0.00" angle="90.00" type="flow" speed="12.21" pos="180.65" lane="0_0" slope="0.00"/>
        <vehicle id="flow.3" x="158.17" y="0.00" angle="90.00" type="flow" speed="13.09" pos="158.17" lane="0_0" slope="0.00"/>
        <vehicle id="flow.4" x="135.85" y="0.00" angle="90.00" type="flow" speed="11.76" pos="135.85" lane="0_0" slope="0.00"/>
        <vehicle id="flow.5" x="101.66" y="0.00" angle="90.00" type="flow" speed="11.49" pos="101.66" lane="0_0" slope="0.00"/>
        <vehicle id="flow.6" x="79.19" y="0.00" angle="90.00" type="flow" speed="11.59" pos="79.19" lane="0_0" slope="0.00"/>
        <vehicle id="flow.7" x="57.53" y="0.00" angle="90.00" type="flow" speed="10.86" pos="57.53" lane="0_0" slope="0.00"/>
        <vehicle id="flow.8" x="35.76" y="0.00" angle="90.00" type="flow" speed="10.24" pos="35.76" lane="0_0" slope="0.00"/>
        <vehicle id="flow.9" x="15.84" y="0.00" angle="90.00" type="flow" speed="6.12" pos="15.84" lane="0_0" slope="0.00"/>
    </timestep>
    <timestep time="20.00">
        <vehicle id="first" x="269.98" y="0.00" angle="90.00" type="DEFAULT_VEHTYPE" speed="13.69" pos="269.98" lane="0_0" slope="0.00"/>
        <vehicle id="flow.0" x="245.69" y="0.00" angle="90.00" type="flow" speed="13.17" pos="245.69" lane="0_0" slope="0.00"/>
        <vehicle id="flow.1" x="217.21" y="0.00" angle="90.00" type="flow" speed="12.59" pos="217.21" lane="0_0" slope="0.00"/>
        <vehicle id="flow.2" x="193.55" y="0.00" angle="90.00" type="flow" speed="12.90" pos="193.55" lane="0_0" slope="0.00"/>
        <vehicle id="flow.3" x="170.55" y="0.00" angle="90.00" type="flow" speed="12.38" pos="170.55" lane="0_0" slope="0.00"/>
        <vehicle id="flow.4" x="148.62" y="0.00" angle="90.00" type="flow" speed="12.76" pos="148.62" lane="0_0" slope="0.00"/>
        <vehicle id="flow.5" x="112.85" y="0.00" angle="90.00" type="flow" speed="11.18" pos="112.85" lane="0_0" slope="0.00"/>
        <vehicle id="flow.6" x="91.13" y="0.00" angle="90.00" type="flow" speed="11.95" pos="91.13" lane="0_0" slope="0.00"/>
        <vehicle id="flow.7" x="68.94" y="0.00" angle="90.00" type="flow" speed="11.41" pos="68.94" lane="0_0" slope="0.00"/>
        <vehicle id="flow.8" x="46.82" y="0.00" angle="90.00" type="flow" speed="11.05" pos="46.82" lane="0_0" slope="0.00"/>
        <vehicle id="flow.9" x="23.82" y="0.00" angle="90.00" type="flow" speed="7.98" pos="23.82" lane="0_0" slope="0.00"/>
    </timestep>
    <timestep time="21.00">
        <vehicle id="first" x="282.39" y="0.00" angle="90.00" type="DEFAULT_VEHTYPE" speed="12.41" pos="282.39" lane="0_0" slope="0.00"/>
        <vehicle id="flow.0" x="259.02" y="0.00" angle="90.00" type="flow" speed="13.33" pos="259.02" lane="0_0" slope="0.00"/>
        <vehicle id="flow.1" x="229.41" y="0.00" angle="90.00" type="flow" speed="12.20" pos="229.41" lane="0_0" slope="0.00"/>
        <vehicle id="flow.2" x="205.99" y="0.00" angle="90.00" type="flow" speed="12.43" pos="205.99" lane="0_0" slope="0.00"/>
        <vehicle id="flow.3" x="182.89" y="0.00" angle="90.00" type="flow" speed="12.33" pos="182.89" lane="0_0" slope="0.00"/>
        <vehicle id="flow.4" x="160.83" y="0.00" angle="90.00" type="flow" speed="12.21" pos="160.83" lane="0_0" slope="0.00"/>
        <vehicle id="flow.5" x="124.37" y="0.00" angle="90.00" type="flow" speed="11.52" pos="124.37" lane="0_0" slope="0.00"/>
        <vehicle id="flow.6" x="101.89" y="0.00" angle="90.00" type="flow" speed="10.75" pos="101.89" lane="0_0" slope="0.00"/>
        <vehicle id="flow.7" x="80.09" y="0.00" angle="90.00" type="flow" speed="11.15" pos="80.09" lane="0_0" slope="0.00"/>
        <vehicle id="flow.8" x="58.48" y="0.00" angle="90.00" type="flow" speed="11.67" pos="58.48" lane="0_0" slope="0.00"/>
        <vehicle id="flow.9" x="33.22" y="0.00" angle="90.00" type="flow" speed="9.40" pos="33.22" lane="0_0" slope="0.00"/>
    </timestep>
    <timestep time="22.00">
        <vehicle id="first" x="291.04" y="0.00" angle="90.00" type="DEFAULT_VEHTYPE" speed="8.65" pos="291.04" lane="0_0" slope="0.00"/>
        <vehicle id="flow.0" x="271.87" y="0.00" angle="90.00" type="flow" speed="12.86" pos="271.87" lane="0_0" slope="0.00"/>
        <vehicle id="flow.1" x="241.41" y="0.00" angle="90.00" type="flow" speed="12.00" pos="241.41" lane="0_0" slope="0.00"/>
        <vehicle id="flow.2" x="218.55" y="0.00" angle="90.00" type="flow" speed="12.56" pos="218.55" lane="0_0" slope="0.00"/>
        <vehicle id="flow.3" x="195.70" y="0.00" angle="90.00" type="flow" speed="12.82" pos="195.70" lane="0_0" slope="0.00"/>
        <vehicle id="flow.4" x="173.74" y="0.00" angle="90.00" type="flow" speed="12.92" pos="173.74" lane="0_0" slope="0.00"/>
        <vehicle id="flow.5" x="135.06" y="0.00" angle="90.00" type="flow" speed="10.69" pos="135.06" lane="0_0" slope="0.00"/>
        <vehicle id="flow.6" x="113.16" y="0.00" angle="90.00" type="flow" speed="11.27" pos="113.16" lane="0_0" slope="0.00"/>
        <vehicle id="flow.7" x="91.84" y="0.00" angle="90.00" type="flow" speed="11.75" pos="91.84" lane="0_0" slope="0.00"/>
        <vehicle id="flow.8" x="69.83" y="0.00" angle="90.00" type="flow" speed="11.35" pos="69.83" lane="0_0" slope="0.00"/>
        <vehicle id="flow.9" x="43.94" y="0.00" angle="90.00" type="flow" speed="10.72" pos="43.94" lane="0_0" slope="0.00"/>
    </timestep>
    <timestep time="23.00">
        <vehicle id="first" x="296.05" y="0.00" angle="90.00" type="DEFAULT_VEHTYPE" speed="5.01" pos="296.05" lane="0_0" slope="0.00"/>
        <vehicle id="flow.0" x="281.37" y="0.00" angle="90.00" type="flow" speed="9.50" pos="281.37" lane="0_0" slope="0.00"/>
        <vehicle id="flow.1" x="253.33" y="0.00" angle="90.00" type="flow" speed="11.93" pos="253.33" lane="0_0" slope="0.00"/>
        <vehicle id="flow.2" x="230.37" y="0.00" angle="90.00" type="flow" speed="11.82" pos="230.37" lane="0_0" slope="0.00"/>
        <vehicle id="flow.3" x="208.47" y="0.00" angle="90.00" type="flow" speed="12.77" pos="208.47" lane="0_0" slope="0.00"/>
        <vehicle id="flow.4" x="185.69" y="0.00" angle="90.00" type="flow" speed="11.94" pos="185.69" lane="0_0" slope="0.00"/>
        <vehicle id="flow.5" x="145.97" y="0.00" angle="90.00" type="flow" speed="10.91" pos="145.97" lane="0_0" slope="0.00"/>
        <vehicle id="flow.6" x="123.69" y="0.00" angle="90.00" type="flow" speed="10.53" pos="123.69" lane="0_0" slope="0.00"/>
        <vehicle id="flow.7" x="102.81" y="0.00" angle="90.00" type="flow" speed="10.96" pos="102.81" lane="0_0" slope="0.00"/>
        <vehicle id="flow.8" x="81.73" y="0.00" angle="90.00" type="flow" speed="11.90" pos="81.73" lane="0_0" slope="0.00"/>
        <vehicle id="flow.9" x="54.75" y="0.00" angle="90.00" type="flow" speed="10.81" pos="54.75" lane="0_0" slope="0.00"/>
    </timestep>
    <timestep time="24.00">
        <vehicle id="first" x="299.57" y="0.00" angle="90.00" type="DEFAULT_VEHTYPE" speed="3.52" pos="299.57" lane="0_0" slope="0.00"/>
        <vehicle id="flow.0" x="287.09" y="0.00" angle="90.00" type="flow" speed="5.72" pos="287.09" lane="0_0" slope="0.00"/>
        <vehicle id="flow.1" x="265.82" y="0.00" angle="90.00" type="flow" speed="12.49" pos="265.82" lane="0_0" slope="0.00"/>
        <vehicle id="flow.2" x="242.66" y="0.00" angle="90.00" type="flow" speed="12.29" pos="242.66" lane="0_0" slope="0.00"/>
        <vehicle id="flow.3" x="220.57" y="0.00" angle="90.00" type="flow" speed="12.10" pos="220.57" lane="0_0" slope="0.00"/>
        <vehicle id="flow.4" x="198.16" y="0.00" angle="90.00" type="flow" speed="12.47" pos="198.16" lane="0_0" slope="0.00"/>
        <vehicle id="flow.5" x="156.93" y="0.00" angle="90.00" type="flow" speed="10.97" pos="156.93" lane="0_0" slope="0.00"/>
        <vehicle id="flow.6" x="135.22" y="0.00" angle="90.00" type="flow" speed="11.52" pos="135.22" lane="0_0" slope="0.00"/>
        <vehicle id="flow.7" x="113.13" y="0.00" angle="90.00" type="flow" speed="10.32" pos="113.13" lane="0_0" slope="0.00"/>
        <vehicle id="flow.8" x="93.23" y="0.00" angle="90.00" type="flow" speed="11.50" pos="93.23" lane="0_0" slope="0.00"/>
        <vehicle id="flow.9" x="65.90" y="0.00" angle="90.00" type="flow" speed="11.15" pos="65.90" lane="0_0" slope="0.00"/>
    </timestep>
    <timestep time="25.00">
        <vehicle id="first" x="299.83" y="0.00" angle="90.00" type="DEFAULT_VEHTYPE" speed="0.26" pos="299.83" lane="0_0" slope="0.00"/>
        <vehicle id="flow.0" x="290.36" y="0.00" angle="90.00" type="flow" speed="3.27" pos="290.36" lane="0_0" slope="0.00"/>
        <vehicle id="flow.1" x="274.47" y="0.00" angle="90.00" type="flow" speed="8.65" pos="274.47" lane="0_0" slope="0.00"/>
        <vehicle id="flow.2" x="255.84" y="0.00" angle="90.00" type="flow" speed="13.18" pos="255.84" lane="0_0" slope="0.00"/>
        <vehicle id="flow.3" x="233.17" y="0.00" angle="90.00" type="flow" speed="12.60" pos="233.17" lane="0_0" slope="0.00"/>
        <vehicle id="flow.4" x="210.71" y="0.00" angle="90.00" type="flow" speed="12.55" pos="210.71" lane="0_0" slope="0.00"/>
        <vehicle id="flow.5" x="168.22" y="0.00" angle="90.00" type="flow" speed="11.29" pos="168.22" lane="0_0" slope="0.00"/>
        <vehicle id="flow.6" x="145.90" y="0.00" angle="90.00" type="flow" speed="10.69" pos="145.90" lane="0_0" slope="0.00"/>
        <vehicle id="flow.7" x="125.02" y="0.00" angle="90.00" type="flow" speed="11.89" pos="125.02" lane="0_0" slope="0.00"/>
        <vehicle id="flow.8" x="103.84" y="0.00" angle="90.00" type="flow" speed="10.61" pos="103.84" lane="0_0" slope="0.00"/>
        <vehicle id="flow.9" x="76.69" y="0.00" angle="90.00" type="flow" speed="10.80" pos="76.69" lane="0_0" slope="0.00"/>
    </timestep>
    <timestep time="26.00">
        <vehicle id="first" x="299.83" y="0.00" angle="90.00" type="DEFAULT_VEHTYPE" speed="0.00" pos="299.83" lane="0_0" slope="0.00"/>
        <vehicle id="flow.0" x="291.78" y="0.00" angle="90.00" type="flow" speed="1.42" pos="291.78" lane="0_0" slope="0.00"/>
        <vehicle id="flow.1" x="279.98" y="0.00" angle="90.00" type="flow" speed="5.51" pos="279.98" lane="0_0" slope="0.00"/>
        <vehicle id="flow.2" x="264.52" y="0.00" angle="90.00" type="flow" speed="8.68" pos="264.52" lane="0_0" slope="0.00"/>
        <vehicle id="flow.3" x="246.56" y="0.00" angle="90.00" type="flow" speed="13.39" pos="246.56" lane="0_0" slope="0.00"/>
        <vehicle id="flow.4" x="222.72" y="0.00" angle="90.00" type="flow" speed="12.02" pos="222.72" lane="0_0" slope="0.00"/>
        <vehicle id="flow.5" x="179.02" y="0.00" angle="90.00" type="flow" speed="10.80" pos="179.02" lane="0_0" slope="0.00"/>
        <vehicle id="flow.6" x="157.14" y="0.00" angle="90.00" type="flow" speed="11.23" pos="157.14" lane="0_0" slope="0.00"/>
        <vehicle id="flow.7" x="135.96" y="0.00" angle="90.00" type="flow" speed="10.94" pos="135.96" lane="0_0" slope="0.00"/>
        <vehicle id="flow.8" x="116.11" y="0.00" angle="90.00" type="flow" speed="12.26" pos="116.11" lane="0_0" slope="0.00"/>
        <vehicle id="flow.9" x="87.85" y="0.00" angle="90.00" type="flow" speed="11.16" pos="87.85" lane="0_0" slope="0.00"/>
    </timestep>
    <timestep time="27.00">
        <vehicle id="first" x="299.96" y="0.00" angle="90.00" type="DEFAULT_VEHTYPE" speed="0.12" pos="299.96" lane="0_0" slope="0.00"/>
        <vehicle id="flow.0" x="291.78" y="0.00" angle="90.00" type="flow" speed="0.00" pos="291.78" lane="0_0" slope="0.00"/>