<?xml version="1.0" encoding="UTF-8"?>

<!-- generated on Wed Aug 22 21:34:46 2018 by Eclipse SUMO Version e183857
This data file and the accompanying materials
are made available under the terms of the Eclipse Public License v2.0
which accompanies this distribution, and is available at
http://www.eclipse.org/legal/epl-v20.html
SPDX-License-Identifier: EPL-2.0
<configuration xmlns:xsi="http://www.w3.org/2001/XMLSchema-instance" xsi:noNamespaceSchemaLocation="http://sumo.dlr.de/xsd/sumoConfiguration.xsd">

    <input>
        <net-file value="three_split.net.xml"/>
        <route-files value="input_routes.rou.xml"/>
        <additional-files value="input_additional.add.xml,input_additional2.add.xml"/>
    </input>

    <output>
        <write-license value="true"/>
        <netstate-dump value="rawdump.xml"/>
    </output>

    <time>
        <step-length value="1.0"/>
    </time>

    <processing>
        <default.speeddev value="0"/>
    </processing>

    <report>
        <xml-validation value="never"/>
        <duration-log.disable value="true"/>
        <no-step-log value="true"/>
    </report>

    <gui_only>
        <tracker-interval value="1"/>
    </gui_only>

</configuration>
-->

<instantE1 xmlns:xsi="http://www.w3.org/2001/XMLSchema-instance" xsi:noNamespaceSchemaLocation="http://sumo.dlr.de/xsd/instant_e1_file.xsd">
    <instantOut id="beg_end" time="23.68" state="enter" vehID="leader" speed="19.72" length="5.00" type="leader"/>
    <instantOut id="beg_end" time="23.94" state="leave" vehID="leader" speed="19.72" length="5.00" type="leader" occupancy="0.25"/>
    <instantOut id="beg_end" time="24.56" state="enter" vehID="follower" speed="19.93" length="5.00" type="follower" gap="0.62"/>
    <instantOut id="beg_end" time="24.81" state="leave" vehID="follower" speed="19.93" length="5.00" type="follower" occupancy="0.25"/>
</instantE1>
