<?xml version="1.0" encoding="UTF-8"?>

<!-- generated on Wed Sep  4 18:09:51 2013 by SUMO sumo Version dev-SVN-r14576
<?xml version="1.0" encoding="UTF-8"?>

<configuration xmlns:xsi="http://www.w3.org/2001/XMLSchema-instance" xsi:noNamespaceSchemaLocation="http://sumo-sim.org/xsd/sumoConfiguration.xsd">

    <input>
        <net-file value="net.net.xml"/>
        <route-files value="input_routes.rou.xml"/>
        <additional-files value="input_additional.add.xml"/>
    </input>

    <output>
        <vehroute-output value="vehroutes.xml"/>
    </output>

    <time>
        <end value="1200"/>
    </time>

    <report>
        <no-duration-log value="true"/>
        <no-step-log value="true"/>
    </report>

</configuration>
-->

<meandata xmlns:xsi="http://www.w3.org/2001/XMLSchema-instance" xsi:noNamespaceSchemaLocation="http://sumo-sim.org/xsd/meandata_file.xsd">
    <interval begin="0.00" end="360.00" id="expect_300_vehs">
        <edge id="end" sampledSeconds="1356.99" traveltime="8.56" density="12.56" occupancy="6.28" waitingTime="0.00" speed="35.03" departed="0" arrived="154" entered="158" left="0" laneChangedFrom="0" laneChangedTo="0"/>
        <edge id="jam0" sampledSeconds="4109.74" traveltime="25.24" density="38.05" occupancy="19.03" waitingTime="2106.00" speed="11.88" departed="0" arrived="0" entered="162" left="158" laneChangedFrom="0" laneChangedTo="0"/>
        <edge id="jam1" sampledSeconds="2251.39" traveltime="13.42" density="31.27" occupancy="15.63" waitingTime="705.00" speed="14.90" departed="0" arrived="0" entered="165" left="162" laneChangedFrom="0" laneChangedTo="0"/>
        <edge id="jam2" sampledSeconds="995.05" traveltime="5.72" density="27.64" occupancy="13.82" waitingTime="148.00" speed="17.48" departed="0" arrived="0" entered="166" left="165" laneChangedFrom="0" laneChangedTo="0"/>
        <edge id="start" sampledSeconds="1859.61" traveltime="11.05" density="17.22" occupancy="8.61" waitingTime="17.00" speed="27.16" departed="171" arrived="0" entered="0" left="166" laneChangedFrom="0" laneChangedTo="0"/>
    </interval>
    <interval begin="360.00" end="720.00" id="expect_300_vehs">
        <edge id="end" sampledSeconds="1520.35" traveltime="8.31" density="14.08" occupancy="7.04" waitingTime="0.00" speed="36.11" departed="0" arrived="180" entered="180" left="0" laneChangedFrom="0" laneChangedTo="0"/>
        <edge id="jam0" sampledSeconds="1520.35" traveltime="8.31" density="14.08" occupancy="7.04" waitingTime="0.00" speed="36.11" departed="0" arrived="0" entered="180" left="180" laneChangedFrom="0" laneChangedTo="0"/>
        <edge id="jam1" sampledSeconds="1021.88" traveltime="5.54" density="14.19" occupancy="7.10" waitingTime="0.00" speed="36.11" departed="0" arrived="0" entered="180" left="180" laneChangedFrom="0" laneChangedTo="0"/>
        <edge id="jam2" sampledSeconds="523.40" traveltime="2.77" density="14.54" occupancy="7.27" waitingTime="0.00" speed="36.11" departed="0" arrived="0" entered="180" left="180" laneChangedFrom="0" laneChangedTo="0"/>
        <edge id="start" sampledSeconds="1494.93" traveltime="8.31" density="13.84" occupancy="6.92" waitingTime="0.00" speed="36.11" departed="180" arrived="0" entered="0" left="180" laneChangedFrom="0" laneChangedTo="0"/>
    </interval>
    <interval begin="720.00" end="1080.00" id="expect_300_vehs">
        <edge id="end" sampledSeconds="1520.35" traveltime="8.31" density="14.08" occupancy="7.04" waitingTime="0.00" speed="36.11" departed="0" arrived="180" entered="180" left="0" laneChangedFrom="0" laneChangedTo="0"/>
        <edge id="jam0" sampledSeconds="1520.35" traveltime="8.31" density="14.08" occupancy="7.04" waitingTime="0.00" speed="36.11" departed="0" arrived="0" entered="180" left="180" laneChangedFrom="0" laneChangedTo="0"/>
        <edge id="jam1" sampledSeconds="1021.88" traveltime="5.54" density="14.19" occupancy="7.10" waitingTime="0.00" speed="36.11" departed="0" arrived="0" entered="180" left="180" laneChangedFrom="0" laneChangedTo="0"/>
        <edge id="jam2" sampledSeconds="523.40" traveltime="2.77" density="14.54" occupancy="7.27" waitingTime="0.00" speed="36.11" departed="0" arrived="0" entered="180" left="180" laneChangedFrom="0" laneChangedTo="0"/>
        <edge id="start" sampledSeconds="1494.93" traveltime="8.31" density="13.84" occupancy="6.92" waitingTime="0.00" speed="36.11" departed="180" arrived="0" entered="0" left="180" laneChangedFrom="0" laneChangedTo="0"/>
    </interval>
    <interval begin="1080.00" end="1200.00" id="expect_300_vehs">
        <edge id="end" sampledSeconds="506.78" traveltime="8.31" density="14.08" occupancy="7.04" waitingTime="0.00" speed="36.11" departed="0" arrived="60" entered="60" left="0" laneChangedFrom="0" laneChangedTo="0"/>
        <edge id="jam0" sampledSeconds="506.78" traveltime="8.31" density="14.08" occupancy="7.04" waitingTime="0.00" speed="36.11" departed="0" arrived="0" entered="60" left="60" laneChangedFrom="0" laneChangedTo="0"/>
        <edge id="jam1" sampledSeconds="340.63" traveltime="5.54" density="14.19" occupancy="7.10" waitingTime="0.00" speed="36.11" departed="0" arrived="0" entered="60" left="60" laneChangedFrom="0" laneChangedTo="0"/>
        <edge id="jam2" sampledSeconds="174.47" traveltime="2.77" density="14.54" occupancy="7.27" waitingTime="0.00" speed="36.11" departed="0" arrived="0" entered="60" left="60" laneChangedFrom="0" laneChangedTo="0"/>
        <edge id="start" sampledSeconds="498.31" traveltime="8.31" density="13.84" occupancy="6.92" waitingTime="0.00" speed="36.11" departed="60" arrived="0" entered="0" left="60" laneChangedFrom="0" laneChangedTo="0"/>
    </interval>
</meandata>
