<?xml version="1.0" encoding="UTF-8"?>

<!-- generated on Wed Dec 11 10:02:09 2013 by SUMO sumo Version dev-SVN-r15307
<?xml version="1.0" encoding="UTF-8"?>

<configuration xmlns:xsi="http://www.w3.org/2001/XMLSchema-instance" xsi:noNamespaceSchemaLocation="http://sumo-sim.org/xsd/sumoConfiguration.xsd">

    <input>
        <net-file value="net.net.xml"/>
        <route-files value="input_routes.rou.xml"/>
        <additional-files value="input_additional.add.xml"/>
    </input>

    <output>
        <vehroute-output value="vehroutes.xml"/>
    </output>

    <time>
        <end value="1200"/>
    </time>

    <report>
        <no-duration-log value="true"/>
        <no-step-log value="true"/>
    </report>

</configuration>
-->

<meandata xmlns:xsi="http://www.w3.org/2001/XMLSchema-instance" xsi:noNamespaceSchemaLocation="http://sumo-sim.org/xsd/meandata_file.xsd">
    <interval begin="0.00" end="360.00" id="expect_300_vehs">
        <edge id="end" sampledSeconds="1429.37" traveltime="8.55" density="13.23" occupancy="6.62" waitingTime="0.00" speed="35.08" departed="0" arrived="162" entered="167" left="0" laneChangedFrom="0" laneChangedTo="0"/>
        <edge id="jam0" sampledSeconds="4026.40" traveltime="23.48" density="37.28" occupancy="18.64" waitingTime="2191.00" speed="12.78" departed="0" arrived="0" entered="171" left="167" laneChangedFrom="0" laneChangedTo="0"/>
        <edge id="jam1" sampledSeconds="2024.87" traveltime="11.48" density="28.12" occupancy="14.06" waitingTime="764.00" speed="17.42" departed="0" arrived="0" entered="174" left="171" laneChangedFrom="0" laneChangedTo="0"/>
        <edge id="jam2" sampledSeconds="829.19" traveltime="4.53" density="23.03" occupancy="11.52" waitingTime="179.00" speed="22.07" departed="0" arrived="0" entered="175" left="174" laneChangedFrom="0" laneChangedTo="0"/>
        <edge id="start" sampledSeconds="1642.71" traveltime="9.29" density="15.21" occupancy="7.61" waitingTime="33.00" speed="32.30" departed="179" arrived="0" entered="0" left="175" laneChangedFrom="0" laneChangedTo="0"/>
    </interval>
    <interval begin="360.00" end="720.00" id="expect_300_vehs">
        <edge id="end" sampledSeconds="1520.35" traveltime="8.31" density="14.08" occupancy="7.04" waitingTime="0.00" speed="36.11" departed="0" arrived="180" entered="180" left="0" laneChangedFrom="0" laneChangedTo="0"/>
        <edge id="jam0" sampledSeconds="1520.35" traveltime="8.31" density="14.08" occupancy="7.04" waitingTime="0.00" speed="36.11" departed="0" arrived="0" entered="180" left="180" laneChangedFrom="0" laneChangedTo="0"/>
        <edge id="jam1" sampledSeconds="1021.88" traveltime="5.54" density="14.19" occupancy="7.10" waitingTime="0.00" speed="36.11" departed="0" arrived="0" entered="180" left="180" laneChangedFrom="0" laneChangedTo="0"/>
        <edge id="jam2" sampledSeconds="523.40" traveltime="2.77" density="14.54" occupancy="7.27" waitingTime="0.00" speed="36.11" departed="0" arrived="0" entered="180" left="180" laneChangedFrom="0" laneChangedTo="0"/>
        <edge id="start" sampledSeconds="1494.93" traveltime="8.31" density="13.84" occupancy="6.92" waitingTime="0.00" speed="36.11" departed="180" arrived="0" entered="0" left="180" laneChangedFrom="0" laneChangedTo="0"/>
    </interval>
    <interval begin="720.00" end="1080.00" id="expect_300_vehs">
        <edge id="end" sampledSeconds="1520.35" traveltime="8.31" density="14.08" occupancy="7.04" waitingTime="0.00" speed="36.11" departed="0" arrived="180" entered="180" left="0" laneChangedFrom="0" laneChangedTo="0"/>
        <edge id="jam0" sampledSeconds="1520.35" traveltime="8.31" density="14.08" occupancy="7.04" waitingTime="0.00" speed="36.11" departed="0" arrived="0" entered="180" left="180" laneChangedFrom="0" laneChangedTo="0"/>
        <edge id="jam1" sampledSeconds="1021.88" traveltime="5.54" density="14.19" occupancy="7.10" waitingTime="0.00" speed="36.11" departed="0" arrived="0" entered="180" left="180" laneChangedFrom="0" laneChangedTo="0"/>
        <edge id="jam2" sampledSeconds="523.40" traveltime="2.77" density="14.54" occupancy="7.27" waitingTime="0.00" speed="36.11" departed="0" arrived="0" entered="180" left="180" laneChangedFrom="0" laneChangedTo="0"/>
        <edge id="start" sampledSeconds="1494.93" traveltime="8.31" density="13.84" occupancy="6.92" waitingTime="0.00" speed="36.11" departed="180" arrived="0" entered="0" left="180" laneChangedFrom="0" laneChangedTo="0"/>
    </interval>
    <interval begin="1080.00" end="1200.00" id="expect_300_vehs">
        <edge id="end" sampledSeconds="506.78" traveltime="8.31" density="14.08" occupancy="7.04" waitingTime="0.00" speed="36.11" departed="0" arrived="60" entered="60" left="0" laneChangedFrom="0" laneChangedTo="0"/>
        <edge id="jam0" sampledSeconds="506.78" traveltime="8.31" density="14.08" occupancy="7.04" waitingTime="0.00" speed="36.11" departed="0" arrived="0" entered="60" left="60" laneChangedFrom="0" laneChangedTo="0"/>
        <edge id="jam1" sampledSeconds="340.63" traveltime="5.54" density="14.19" occupancy="7.10" waitingTime="0.00" speed="36.11" departed="0" arrived="0" entered="60" left="60" laneChangedFrom="0" laneChangedTo="0"/>
        <edge id="jam2" sampledSeconds="174.47" traveltime="2.77" density="14.54" occupancy="7.27" waitingTime="0.00" speed="36.11" departed="0" arrived="0" entered="60" left="60" laneChangedFrom="0" laneChangedTo="0"/>
        <edge id="start" sampledSeconds="498.31" traveltime="8.31" density="13.84" occupancy="6.92" waitingTime="0.00" speed="36.11" departed="60" arrived="0" entered="0" left="60" laneChangedFrom="0" laneChangedTo="0"/>
    </interval>
</meandata>
