<?xml version="1.0" encoding="UTF-8"?>

<!-- generated on Fri Jan  6 08:52:05 2017 by SUMO Version dev-SVN-r22480
<?xml version="1.0" encoding="UTF-8"?>

<configuration xmlns:xsi="http://www.w3.org/2001/XMLSchema-instance" xsi:noNamespaceSchemaLocation="http://sumo.dlr.de/xsd/sumoConfiguration.xsd">

    <input>
        <net-file value="net.net.xml"/>
        <route-files value="input_routes.rou.xml"/>
        <additional-files value="input_additional.add.xml"/>
    </input>

    <output>
        <vehroute-output value="vehroutes.xml"/>
    </output>

    <time>
        <end value="1200"/>
    </time>

    <report>
        <xml-validation value="never"/>
        <duration-log.disable value="true"/>
        <no-step-log value="true"/>
    </report>

    <mesoscopic>
        <mesosim value="true"/>
        <meso-junction-control value="true"/>
    </mesoscopic>

</configuration>
-->

<routes xmlns:xsi="http://www.w3.org/2001/XMLSchema-instance" xsi:noNamespaceSchemaLocation="http://sumo.dlr.de/xsd/routes_file.xsd">
    <vehicle id="high.0" depart="0.00" arrival="109.00">
        <route edges="start jam2 jam1 jam0 end"/>
    </vehicle>

    <vehicle id="high.1" depart="1.00" arrival="111.00">
        <route edges="start jam2 jam1 jam0 end"/>
    </vehicle>

    <vehicle id="high.2" depart="2.00" arrival="113.00">
        <route edges="start jam2 jam1 jam0 end"/>
    </vehicle>

    <vehicle id="high.3" depart="3.00" arrival="115.00">
        <route edges="start jam2 jam1 jam0 end"/>
    </vehicle>

    <vehicle id="high.4" depart="5.00" arrival="116.00">
        <route edges="start jam2 jam1 jam0 end"/>
    </vehicle>

    <vehicle id="high.5" depart="6.00" arrival="118.00">
        <route edges="start jam2 jam1 jam0 end"/>
    </vehicle>

    <vehicle id="high.6" depart="7.00" arrival="120.00">
        <route edges="start jam2 jam1 jam0 end"/>
    </vehicle>

    <vehicle id="high.7" depart="9.00" arrival="122.00">
        <route edges="start jam2 jam1 jam0 end"/>
    </vehicle>

    <vehicle id="high.8" depart="10.00" arrival="124.00">
        <route edges="start jam2 jam1 jam0 end"/>
    </vehicle>

    <vehicle id="high.9" depart="11.00" arrival="126.00">
        <route edges="start jam2 jam1 jam0 end"/>
    </vehicle>

    <vehicle id="high.10" depart="13.00" arrival="128.00">
        <route edges="start jam2 jam1 jam0 end"/>
    </vehicle>

    <vehicle id="high.11" depart="14.00" arrival="130.00">
        <route edges="start jam2 jam1 jam0 end"/>
    </vehicle>

    <vehicle id="high.12" depart="15.00" arrival="131.00">
        <route edges="start jam2 jam1 jam0 end"/>
    </vehicle>

    <vehicle id="high.13" depart="17.00" arrival="133.00">
        <route edges="start jam2 jam1 jam0 end"/>
    </vehicle>

    <vehicle id="high.14" depart="18.00" arrival="134.00">
        <route edges="start jam2 jam1 jam0 end"/>
    </vehicle>

    <vehicle id="high.15" depart="19.00" arrival="135.00">
        <route edges="start jam2 jam1 jam0 end"/>
    </vehicle>

    <vehicle id="high.16" depart="21.00" arrival="137.00">
        <route edges="start jam2 jam1 jam0 end"/>
    </vehicle>

    <vehicle id="high.17" depart="22.00" arrival="138.00">
        <route edges="start jam2 jam1 jam0 end"/>
    </vehicle>

    <vehicle id="high.18" depart="23.00" arrival="139.00">
        <route edges="start jam2 jam1 jam0 end"/>
    </vehicle>

    <vehicle id="high.19" depart="25.00" arrival="141.00">
        <route edges="start jam2 jam1 jam0 end"/>
    </vehicle>

    <vehicle id="high.20" depart="26.00" arrival="143.00">
        <route edges="start jam2 jam1 jam0 end"/>
    </vehicle>

    <vehicle id="high.21" depart="27.00" arrival="145.00">
        <route edges="start jam2 jam1 jam0 end"/>
    </vehicle>

    <vehicle id="high.22" depart="29.00" arrival="147.00">
        <route edges="start jam2 jam1 jam0 end"/>
    </vehicle>

    <vehicle id="high.23" depart="30.00" arrival="149.00">
        <route edges="start jam2 jam1 jam0 end"/>
    </vehicle>

    <vehicle id="high.24" depart="31.00" arrival="151.00">
        <route edges="start jam2 jam1 jam0 end"/>
    </vehicle>

    <vehicle id="high.25" depart="33.00" arrival="153.00">
        <route edges="start jam2 jam1 jam0 end"/>
    </vehicle>

    <vehicle id="high.26" depart="34.00" arrival="154.00">
        <route edges="start jam2 jam1 jam0 end"/>
    </vehicle>

    <vehicle id="high.27" depart="35.00" arrival="155.00">
        <route edges="start jam2 jam1 jam0 end"/>
    </vehicle>

    <vehicle id="high.28" depart="37.00" arrival="157.00">
        <route edges="start jam2 jam1 jam0 end"/>
    </vehicle>

    <vehicle id="high.29" depart="38.00" arrival="158.00">
        <route edges="start jam2 jam1 jam0 end"/>
    </vehicle>

    <vehicle id="high.30" depart="39.00" arrival="159.00">
        <route edges="start jam2 jam1 jam0 end"/>
    </vehicle>

    <vehicle id="high.31" depart="41.00" arrival="161.00">
        <route edges="start jam2 jam1 jam0 end"/>
    </vehicle>

    <vehicle id="high.32" depart="42.00" arrival="162.00">
        <route edges="start jam2 jam1 jam0 end"/>
    </vehicle>

    <vehicle id="high.33" depart="43.00" arrival="163.00">
        <route edges="start jam2 jam1 jam0 end"/>
    </vehicle>

    <vehicle id="high.34" depart="45.00" arrival="165.00">
        <route edges="start jam2 jam1 jam0 end"/>
    </vehicle>

    <vehicle id="high.35" depart="46.00" arrival="167.00">
        <route edges="start jam2 jam1 jam0 end"/>
    </vehicle>

    <vehicle id="high.36" depart="47.00" arrival="169.00">
        <route edges="start jam2 jam1 jam0 end"/>
    </vehicle>

    <vehicle id="high.37" depart="49.00" arrival="171.00">
        <route edges="start jam2 jam1 jam0 end"/>
    </vehicle>

    <vehicle id="high.38" depart="50.00" arrival="173.00">
        <route edges="start jam2 jam1 jam0 end"/>
    </vehicle>

    <vehicle id="high.39" depart="51.00" arrival="175.00">
        <route edges="start jam2 jam1 jam0 end"/>
    </vehicle>

    <vehicle id="high.40" depart="53.00" arrival="177.00">
        <route edges="start jam2 jam1 jam0 end"/>
    </vehicle>

    <vehicle id="high.41" depart="54.00" arrival="178.00">
        <route edges="start jam2 jam1 jam0 end"/>
    </vehicle>

    <vehicle id="high.42" depart="55.00" arrival="180.00">
        <route edges="start jam2 jam1 jam0 end"/>
    </vehicle>

    <vehicle id="high.43" depart="57.00" arrival="181.00">
        <route edges="start jam2 jam1 jam0 end"/>
    </vehicle>

    <vehicle id="high.44" depart="58.00" arrival="182.00">
        <route edges="start jam2 jam1 jam0 end"/>
    </vehicle>

    <vehicle id="high.45" depart="59.00" arrival="184.00">
        <route edges="start jam2 jam1 jam0 end"/>
    </vehicle>

    <vehicle id="high.46" depart="61.00" arrival="185.00">
        <route edges="start jam2 jam1 jam0 end"/>
    </vehicle>

    <vehicle id="high.47" depart="62.00" arrival="186.00">
        <route edges="start jam2 jam1 jam0 end"/>
    </vehicle>

    <vehicle id="high.48" depart="63.00" arrival="188.00">
        <route edges="start jam2 jam1 jam0 end"/>
    </vehicle>

    <vehicle id="high.49" depart="65.00" arrival="190.00">
        <route edges="start jam2 jam1 jam0 end"/>
    </vehicle>

    <vehicle id="high.50" depart="66.00" arrival="192.00">
        <route edges="start jam2 jam1 jam0 end"/>
    </vehicle>

    <vehicle id="high.51" depart="67.00" arrival="194.00">
        <route edges="start jam2 jam1 jam0 end"/>
    </vehicle>

    <vehicle id="high.52" depart="69.00" arrival="196.00">
        <route edges="start jam2 jam1 jam0 end"/>
    </vehicle>

    <vehicle id="high.53" depart="70.00" arrival="198.00">
        <route edges="start jam2 jam1 jam0 end"/>
    </vehicle>

    <vehicle id="high.54" depart="71.00" arrival="200.00">
        <route edges="start jam2 jam1 jam0 end"/>
    </vehicle>

    <vehicle id="high.55" depart="73.00" arrival="201.00">
        <route edges="start jam2 jam1 jam0 end"/>
    </vehicle>

    <vehicle id="high.56" depart="74.00" arrival="202.00">
        <route edges="start jam2 jam1 jam0 end"/>
    </vehicle>

    <vehicle id="high.57" depart="75.00" arrival="204.00">
        <route edges="start jam2 jam1 jam0 end"/>
    </vehicle>

    <vehicle id="high.58" depart="77.00" arrival="205.00">
        <route edges="start jam2 jam1 jam0 end"/>
    </vehicle>

    <vehicle id="high.59" depart="78.00" arrival="206.00">
        <route edges="start jam2 jam1 jam0 end"/>
    </vehicle>

    <vehicle id="high.60" depart="79.00" arrival="208.00">
        <route edges="start jam2 jam1 jam0 end"/>
    </vehicle>

    <vehicle id="high.61" depart="81.00" arrival="209.00">
        <route edges="start jam2 jam1 jam0 end"/>
    </vehicle>

    <vehicle id="high.62" depart="82.00" arrival="210.00">
        <route edges="start jam2 jam1 jam0 end"/>
    </vehicle>

    <vehicle id="high.63" depart="83.00" arrival="212.00">
        <route edges="start jam2 jam1 jam0 end"/>
    </vehicle>

    <vehicle id="high.64" depart="85.00" arrival="214.00">
        <route edges="start jam2 jam1 jam0 end"/>
    </vehicle>

    <vehicle id="high.65" depart="86.00" arrival="216.00">
        <route edges="start jam2 jam1 jam0 end"/>
    </vehicle>

    <vehicle id="high.66" depart="87.00" arrival="218.00">
        <route edges="start jam2 jam1 jam0 end"/>
    </vehicle>

    <vehicle id="high.67" depart="89.00" arrival="220.00">
        <route edges="start jam2 jam1 jam0 end"/>
    </vehicle>

    <vehicle id="high.68" depart="90.00" arrival="222.00">
        <route edges="start jam2 jam1 jam0 end"/>
    </vehicle>

    <vehicle id="high.69" depart="92.00" arrival="223.00">
        <route edges="start jam2 jam1 jam0 end"/>
    </vehicle>

    <vehicle id="high.70" depart="93.00" arrival="225.00">
        <route edges="start jam2 jam1 jam0 end"/>
    </vehicle>

    <vehicle id="high.71" depart="94.00" arrival="226.00">
        <route edges="start jam2 jam1 jam0 end"/>
    </vehicle>

    <vehicle id="high.72" depart="96.00" arrival="227.00">
        <route edges="start jam2 jam1 jam0 end"/>
    </vehicle>

    <vehicle id="high.73" depart="97.00" arrival="229.00">
        <route edges="start jam2 jam1 jam0 end"/>
    </vehicle>

    <vehicle id="high.74" depart="98.00" arrival="230.00">
        <route edges="start jam2 jam1 jam0 end"/>
    </vehicle>

    <vehicle id="high.75" depart="100.00" arrival="231.00">
        <route edges="start jam2 jam1 jam0 end"/>
    </vehicle>

    <vehicle id="high.76" depart="101.00" arrival="233.00">
        <route edges="start jam2 jam1 jam0 end"/>
    </vehicle>

    <vehicle id="high.77" depart="102.00" arrival="235.00">
        <route edges="start jam2 jam1 jam0 end"/>
    </vehicle>

    <vehicle id="high.78" depart="104.00" arrival="237.00">
        <route edges="start jam2 jam1 jam0 end"/>
    </vehicle>

    <vehicle id="high.79" depart="105.00" arrival="239.00">
        <route edges="start jam2 jam1 jam0 end"/>
    </vehicle>

    <vehicle id="high.80" depart="106.00" arrival="241.00">
        <route edges="start jam2 jam1 jam0 end"/>
    </vehicle>

    <vehicle id="high.81" depart="108.00" arrival="243.00">
        <route edges="start jam2 jam1 jam0 end"/>
    </vehicle>

    <vehicle id="high.82" depart="109.00" arrival="245.00">
        <route edges="start jam2 jam1 jam0 end"/>
    </vehicle>

    <vehicle id="high.83" depart="110.00" arrival="246.00">
        <route edges="start jam2 jam1 jam0 end"/>
    </vehicle>

    <vehicle id="high.84" depart="112.00" arrival="247.00">
        <route edges="start jam2 jam1 jam0 end"/>
    </vehicle>

    <vehicle id="high.85" depart="113.00" arrival="249.00">
        <route edges="start jam2 jam1 jam0 end"/>
    </vehicle>

    <vehicle id="high.86" depart="114.00" arrival="250.00">
        <route edges="start jam2 jam1 jam0 end"/>
    </vehicle>

    <vehicle id="high.87" depart="116.00" arrival="251.00">
        <route edges="start jam2 jam1 jam0 end"/>
    </vehicle>

    <vehicle id="high.88" depart="117.00" arrival="253.00">
        <route edges="start jam2 jam1 jam0 end"/>
    </vehicle>

    <vehicle id="high.89" depart="118.00" arrival="254.00">
        <route edges="start jam2 jam1 jam0 end"/>
    </vehicle>

    <vehicle id="high.90" depart="120.00" arrival="255.00">
        <route edges="start jam2 jam1 jam0 end"/>
    </vehicle>

    <vehicle id="high.91" depart="121.00" arrival="257.00">
        <route edges="start jam2 jam1 jam0 end"/>
    </vehicle>

    <vehicle id="high.92" depart="122.00" arrival="259.00">
        <route edges="start jam2 jam1 jam0 end"/>
    </vehicle>

    <vehicle id="high.93" depart="124.00" arrival="261.00">
        <route edges="start jam2 jam1 jam0 end"/>
    </vehicle>

    <vehicle id="high.94" depart="125.00" arrival="263.00">
        <route edges="start jam2 jam1 jam0 end"/>
    </vehicle>

    <vehicle id="high.95" depart="126.00" arrival="265.00">
        <route edges="start jam2 jam1 jam0 end"/>
    </vehicle>

    <vehicle id="high.96" depart="128.00" arrival="267.00">
        <route edges="start jam2 jam1 jam0 end"/>
    </vehicle>

    <vehicle id="high.97" depart="129.00" arrival="269.00">
        <route edges="start jam2 jam1 jam0 end"/>
    </vehicle>

    <vehicle id="high.98" depart="130.00" arrival="270.00">
        <route edges="start jam2 jam1 jam0 end"/>
    </vehicle>

    <vehicle id="high.99" depart="132.00" arrival="272.00">
        <route edges="start jam2 jam1 jam0 end"/>
    </vehicle>

    <vehicle id="high.100" depart="133.00" arrival="273.00">
        <route edges="start jam2 jam1 jam0 end"/>
    </vehicle>

    <vehicle id="high.101" depart="134.00" arrival="274.00">
        <route edges="start jam2 jam1 jam0 end"/>
    </vehicle>

    <vehicle id="high.102" depart="136.00" arrival="276.00">
        <route edges="start jam2 jam1 jam0 end"/>
    </vehicle>

    <vehicle id="high.103" depart="137.00" arrival="277.00">
        <route edges="start jam2 jam1 jam0 end"/>
    </vehicle>

    <vehicle id="high.104" depart="138.00" arrival="278.00">
        <route edges="start jam2 jam1 jam0 end"/>
    </vehicle>

    <vehicle id="high.105" depart="140.00" arrival="280.00">
        <route edges="start jam2 jam1 jam0 end"/>
    </vehicle>

    <vehicle id="high.106" depart="141.00" arrival="282.00">
        <route edges="start jam2 jam1 jam0 end"/>
    </vehicle>

    <vehicle id="high.107" depart="142.00" arrival="284.00">
        <route edges="start jam2 jam1 jam0 end"/>
    </vehicle>

    <vehicle id="high.108" depart="144.00" arrival="286.00">
        <route edges="start jam2 jam1 jam0 end"/>
    </vehicle>

    <vehicle id="high.109" depart="145.00" arrival="288.00">
        <route edges="start jam2 jam1 jam0 end"/>
    </vehicle>

    <vehicle id="high.110" depart="150.00" arrival="290.00">
        <route edges="start jam2 jam1 jam0 end"/>
    </vehicle>

    <vehicle id="high.111" depart="166.00" arrival="292.00">
        <route edges="start jam2 jam1 jam0 end"/>
    </vehicle>

    <vehicle id="high.112" depart="183.00" arrival="293.00">
        <route edges="start jam2 jam1 jam0 end"/>
    </vehicle>

    <vehicle id="high.113" depart="199.00" arrival="295.00">
        <route edges="start jam2 jam1 jam0 end"/>
    </vehicle>

    <vehicle id="high.114" depart="216.00" arrival="297.00">
        <route edges="start jam2 jam1 jam0 end"/>
    </vehicle>

    <vehicle id="high.115" depart="232.00" arrival="299.00">
        <route edges="start jam2 jam1 jam0 end"/>
    </vehicle>

    <vehicle id="high.116" depart="241.00" arrival="301.00">
        <route edges="start jam2 jam1 jam0 end"/>
    </vehicle>

    <vehicle id="high.117" depart="244.00" arrival="303.00">
        <route edges="start jam2 jam1 jam0 end"/>
    </vehicle>

    <vehicle id="high.118" depart="246.00" arrival="305.00">
        <route edges="start jam2 jam1 jam0 end"/>
    </vehicle>

    <vehicle id="high.119" depart="248.00" arrival="307.00">
        <route edges="start jam2 jam1 jam0 end"/>
    </vehicle>

    <vehicle id="high.120" depart="250.00" arrival="309.00">
        <route edges="start jam2 jam1 jam0 end"/>
    </vehicle>

    <vehicle id="high.121" depart="252.00" arrival="311.00">
        <route edges="start jam2 jam1 jam0 end"/>
    </vehicle>

    <vehicle id="high.122" depart="254.00" arrival="313.00">
        <route edges="start jam2 jam1 jam0 end"/>
    </vehicle>

    <vehicle id="high.123" depart="256.00" arrival="315.00">
        <route edges="start jam2 jam1 jam0 end"/>
    </vehicle>

    <vehicle id="high.124" depart="258.00" arrival="317.00">
        <route edges="start jam2 jam1 jam0 end"/>
    </vehicle>

    <vehicle id="high.125" depart="260.00" arrival="319.00">
        <route edges="start jam2 jam1 jam0 end"/>
    </vehicle>

    <vehicle id="high.126" depart="262.00" arrival="321.00">
        <route edges="start jam2 jam1 jam0 end"/>
    </vehicle>

    <vehicle id="high.127" depart="264.00" arrival="323.00">
        <route edges="start jam2 jam1 jam0 end"/>
    </vehicle>

    <vehicle id="high.128" depart="266.00" arrival="324.00">
        <route edges="start jam2 jam1 jam0 end"/>
    </vehicle>

    <vehicle id="high.129" depart="268.00" arrival="326.00">
        <route edges="start jam2 jam1 jam0 end"/>
    </vehicle>

    <vehicle id="high.130" depart="270.00" arrival="328.00">
        <route edges="start jam2 jam1 jam0 end"/>
    </vehicle>

    <vehicle id="high.131" depart="272.00" arrival="330.00">
        <route edges="start jam2 jam1 jam0 end"/>
    </vehicle>

    <vehicle id="high.132" depart="274.00" arrival="332.00">
        <route edges="start jam2 jam1 jam0 end"/>
    </vehicle>

    <vehicle id="high.133" depart="275.00" arrival="334.00">
        <route edges="start jam2 jam1 jam0 end"/>
    </vehicle>

    <vehicle id="high.134" depart="277.00" arrival="336.00">
        <route edges="start jam2 jam1 jam0 end"/>
    </vehicle>

    <vehicle id="high.135" depart="279.00" arrival="338.00">
        <route edges="start jam2 jam1 jam0 end"/>
    </vehicle>

    <vehicle id="high.136" depart="281.00" arrival="340.00">
        <route edges="start jam2 jam1 jam0 end"/>
    </vehicle>

    <vehicle id="high.137" depart="283.00" arrival="342.00">
        <route edges="start jam2 jam1 jam0 end"/>
    </vehicle>

    <vehicle id="high.138" depart="285.00" arrival="344.00">
        <route edges="start jam2 jam1 jam0 end"/>
    </vehicle>

    <vehicle id="high.139" depart="287.00" arrival="346.00">
        <route edges="start jam2 jam1 jam0 end"/>
    </vehicle>

    <vehicle id="high.140" depart="289.00" arrival="348.00">
        <route edges="start jam2 jam1 jam0 end"/>
    </vehicle>

    <vehicle id="high.141" depart="291.00" arrival="350.00">
        <route edges="start jam2 jam1 jam0 end"/>
    </vehicle>

    <vehicle id="high.142" depart="293.00" arrival="352.00">
        <route edges="start jam2 jam1 jam0 end"/>
    </vehicle>

    <vehicle id="high.143" depart="295.00" arrival="354.00">
        <route edges="start jam2 jam1 jam0 end"/>
    </vehicle>

    <vehicle id="high.144" depart="297.00" arrival="355.00">
        <route edges="start jam2 jam1 jam0 end"/>
    </vehicle>

    <vehicle id="high.145" depart="299.00" arrival="357.00">
        <route edges="start jam2 jam1 jam0 end"/>
    </vehicle>

    <vehicle id="high.146" depart="301.00" arrival="359.00">
        <route edges="start jam2 jam1 jam0 end"/>
    </vehicle>

    <vehicle id="high.147" depart="303.00" arrival="361.00">
        <route edges="start jam2 jam1 jam0 end"/>
    </vehicle>

    <vehicle id="high.148" depart="305.00" arrival="363.00">
        <route edges="start jam2 jam1 jam0 end"/>
    </vehicle>

    <vehicle id="high.149" depart="306.00" arrival="365.00">
        <route edges="start jam2 jam1 jam0 end"/>
    </vehicle>

    <vehicle id="high.150" depart="308.00" arrival="367.00">
        <route edges="start jam2 jam1 jam0 end"/>
    </vehicle>

    <vehicle id="high.151" depart="310.00" arrival="369.00">
        <route edges="start jam2 jam1 jam0 end"/>
    </vehicle>

    <vehicle id="high.152" depart="312.00" arrival="371.00">
        <route edges="start jam2 jam1 jam0 end"/>
    </vehicle>

    <vehicle id="high.153" depart="314.00" arrival="373.00">
        <route edges="start jam2 jam1 jam0 end"/>
    </vehicle>

    <vehicle id="high.154" depart="316.00" arrival="375.00">
        <route edges="start jam2 jam1 jam0 end"/>
    </vehicle>

    <vehicle id="high.155" depart="318.00" arrival="377.00">
        <route edges="start jam2 jam1 jam0 end"/>
    </vehicle>

    <vehicle id="high.156" depart="320.00" arrival="379.00">
        <route edges="start jam2 jam1 jam0 end"/>
    </vehicle>

    <vehicle id="high.157" depart="322.00" arrival="381.00">
        <route edges="start jam2 jam1 jam0 end"/>
    </vehicle>

    <vehicle id="high.158" depart="324.00" arrival="383.00">
        <route edges="start jam2 jam1 jam0 end"/>
    </vehicle>

    <vehicle id="high.159" depart="326.00" arrival="384.00">
        <route edges="start jam2 jam1 jam0 end"/>
    </vehicle>

    <vehicle id="high.160" depart="328.00" arrival="386.00">
        <route edges="start jam2 jam1 jam0 end"/>
    </vehicle>

    <vehicle id="high.161" depart="330.00" arrival="388.00">
        <route edges="start jam2 jam1 jam0 end"/>
    </vehicle>

    <vehicle id="high.162" depart="332.00" arrival="390.00">
        <route edges="start jam2 jam1 jam0 end"/>
    </vehicle>

    <vehicle id="high.163" depart="334.00" arrival="392.00">
        <route edges="start jam2 jam1 jam0 end"/>
    </vehicle>

    <vehicle id="high.164" depart="336.00" arrival="394.00">
        <route edges="start jam2 jam1 jam0 end"/>
    </vehicle>

    <vehicle id="high.165" depart="337.00" arrival="396.00">
        <route edges="start jam2 jam1 jam0 end"/>
    </vehicle>

    <vehicle id="high.166" depart="339.00" arrival="398.00">
        <route edges="start jam2 jam1 jam0 end"/>
    </vehicle>

    <vehicle id="high.167" depart="341.00" arrival="400.00">
        <route edges="start jam2 jam1 jam0 end"/>
    </vehicle>

    <vehicle id="high.168" depart="343.00" arrival="402.00">
        <route edges="start jam2 jam1 jam0 end"/>
    </vehicle>

    <vehicle id="high.169" depart="345.00" arrival="404.00">
        <route edges="start jam2 jam1 jam0 end"/>
    </vehicle>

    <vehicle id="high.170" depart="347.00" arrival="406.00">
        <route edges="start jam2 jam1 jam0 end"/>
    </vehicle>

    <vehicle id="high.171" depart="349.00" arrival="408.00">
        <route edges="start jam2 jam1 jam0 end"/>
    </vehicle>

    <vehicle id="high.172" depart="351.00" arrival="410.00">
        <route edges="start jam2 jam1 jam0 end"/>
    </vehicle>

    <vehicle id="high.173" depart="353.00" arrival="412.00">
        <route edges="start jam2 jam1 jam0 end"/>
    </vehicle>

    <vehicle id="high.174" depart="355.00" arrival="414.00">
        <route edges="start jam2 jam1 jam0 end"/>
    </vehicle>

    <vehicle id="high.175" depart="357.00" arrival="415.00">
        <route edges="start jam2 jam1 jam0 end"/>
    </vehicle>

    <vehicle id="high.176" depart="359.00" arrival="417.00">
        <route edges="start jam2 jam1 jam0 end"/>
    </vehicle>

    <vehicle id="high.177" depart="361.00" arrival="419.00">
        <route edges="start jam2 jam1 jam0 end"/>
    </vehicle>

    <vehicle id="high.178" depart="363.00" arrival="421.00">
        <route edges="start jam2 jam1 jam0 end"/>
    </vehicle>

    <vehicle id="high.179" depart="365.00" arrival="423.00">
        <route edges="start jam2 jam1 jam0 end"/>
    </vehicle>

    <vehicle id="high.180" depart="366.00" arrival="425.00">
        <route edges="start jam2 jam1 jam0 end"/>
    </vehicle>

    <vehicle id="high.181" depart="368.00" arrival="427.00">
        <route edges="start jam2 jam1 jam0 end"/>
    </vehicle>

    <vehicle id="high.182" depart="370.00" arrival="429.00">
        <route edges="start jam2 jam1 jam0 end"/>
    </vehicle>

    <vehicle id="high.183" depart="372.00" arrival="431.00">
        <route edges="start jam2 jam1 jam0 end"/>
    </vehicle>

    <vehicle id="high.184" depart="374.00" arrival="433.00">
        <route edges="start jam2 jam1 jam0 end"/>
    </vehicle>

    <vehicle id="high.185" depart="376.00" arrival="435.00">
        <route edges="start jam2 jam1 jam0 end"/>
    </vehicle>

    <vehicle id="high.186" depart="378.00" arrival="437.00">
        <route edges="start jam2 jam1 jam0 end"/>
    </vehicle>

    <vehicle id="high.187" depart="380.00" arrival="439.00">
        <route edges="start jam2 jam1 jam0 end"/>
    </vehicle>

    <vehicle id="high.188" depart="382.00" arrival="441.00">
        <route edges="start jam2 jam1 jam0 end"/>
    </vehicle>

    <vehicle id="high.189" depart="384.00" arrival="443.00">
        <route edges="start jam2 jam1 jam0 end"/>
    </vehicle>

    <vehicle id="high.190" depart="386.00" arrival="445.00">
        <route edges="start jam2 jam1 jam0 end"/>
    </vehicle>

    <vehicle id="high.191" depart="388.00" arrival="446.00">
        <route edges="start jam2 jam1 jam0 end"/>
    </vehicle>

    <vehicle id="high.192" depart="390.00" arrival="448.00">
        <route edges="start jam2 jam1 jam0 end"/>
    </vehicle>

    <vehicle id="high.193" depart="392.00" arrival="450.00">
        <route edges="start jam2 jam1 jam0 end"/>
    </vehicle>

    <vehicle id="high.194" depart="394.00" arrival="452.00">
        <route edges="start jam2 jam1 jam0 end"/>
    </vehicle>

    <vehicle id="high.195" depart="396.00" arrival="454.00">
        <route edges="start jam2 jam1 jam0 end"/>
    </vehicle>

    <vehicle id="high.196" depart="397.00" arrival="456.00">
        <route edges="start jam2 jam1 jam0 end"/>
    </vehicle>

    <vehicle id="high.197" depart="399.00" arrival="458.00">
        <route edges="start jam2 jam1 jam0 end"/>
    </vehicle>

    <vehicle id="high.198" depart="401.00" arrival="460.00">
        <route edges="start jam2 jam1 jam0 end"/>
    </vehicle>

    <vehicle id="high.199" depart="403.00" arrival="462.00">
        <route edges="start jam2 jam1 jam0 end"/>
    </vehicle>

    <vehicle id="high.200" depart="405.00" arrival="464.00">
        <route edges="start jam2 jam1 jam0 end"/>
    </vehicle>

    <vehicle id="high.201" depart="407.00" arrival="466.00">
        <route edges="start jam2 jam1 jam0 end"/>
    </vehicle>

    <vehicle id="high.202" depart="409.00" arrival="468.00">
        <route edges="start jam2 jam1 jam0 end"/>
    </vehicle>

    <vehicle id="high.203" depart="411.00" arrival="470.00">
        <route edges="start jam2 jam1 jam0 end"/>
    </vehicle>

    <vehicle id="high.204" depart="413.00" arrival="472.00">
        <route edges="start jam2 jam1 jam0 end"/>
    </vehicle>

    <vehicle id="high.205" depart="415.00" arrival="474.00">
        <route edges="start jam2 jam1 jam0 end"/>
    </vehicle>

    <vehicle id="high.206" depart="417.00" arrival="476.00">
        <route edges="start jam2 jam1 jam0 end"/>
    </vehicle>

    <vehicle id="high.207" depart="419.00" arrival="477.00">
        <route edges="start jam2 jam1 jam0 end"/>
    </vehicle>

    <vehicle id="high.208" depart="421.00" arrival="479.00">
        <route edges="start jam2 jam1 jam0 end"/>
    </vehicle>

    <vehicle id="high.209" depart="423.00" arrival="481.00">
        <route edges="start jam2 jam1 jam0 end"/>
    </vehicle>

    <vehicle id="high.210" depart="425.00" arrival="483.00">
        <route edges="start jam2 jam1 jam0 end"/>
    </vehicle>

    <vehicle id="high.211" depart="427.00" arrival="485.00">
        <route edges="start jam2 jam1 jam0 end"/>
    </vehicle>

    <vehicle id="high.212" depart="428.00" arrival="487.00">
        <route edges="start jam2 jam1 jam0 end"/>
    </vehicle>

    <vehicle id="high.213" depart="430.00" arrival="489.00">
        <route edges="start jam2 jam1 jam0 end"/>
    </vehicle>

    <vehicle id="high.214" depart="432.00" arrival="491.00">
        <route edges="start jam2 jam1 jam0 end"/>
    </vehicle>

    <vehicle id="high.215" depart="434.00" arrival="493.00">
        <route edges="start jam2 jam1 jam0 end"/>
    </vehicle>

    <vehicle id="high.216" depart="436.00" arrival="495.00">
        <route edges="start jam2 jam1 jam0 end"/>
    </vehicle>

    <vehicle id="high.217" depart="438.00" arrival="497.00">
        <route edges="start jam2 jam1 jam0 end"/>
    </vehicle>

    <vehicle id="high.218" depart="440.00" arrival="499.00">
        <route edges="start jam2 jam1 jam0 end"/>
    </vehicle>

    <vehicle id="high.219" depart="442.00" arrival="501.00">
        <route edges="start jam2 jam1 jam0 end"/>
    </vehicle>

    <vehicle id="high.220" depart="444.00" arrival="503.00">
        <route edges="start jam2 jam1 jam0 end"/>
    </vehicle>

    <vehicle id="high.221" depart="446.00" arrival="505.00">
        <route edges="start jam2 jam1 jam0 end"/>
    </vehicle>

    <vehicle id="high.222" depart="448.00" arrival="507.00">
        <route edges="start jam2 jam1 jam0 end"/>
    </vehicle>

    <vehicle id="high.223" depart="450.00" arrival="508.00">
        <route edges="start jam2 jam1 jam0 end"/>
    </vehicle>

    <vehicle id="high.224" depart="452.00" arrival="510.00">
        <route edges="start jam2 jam1 jam0 end"/>
    </vehicle>

    <vehicle id="high.225" depart="454.00" arrival="512.00">
        <route edges="start jam2 jam1 jam0 end"/>
    </vehicle>

    <vehicle id="high.226" depart="456.00" arrival="514.00">
        <route edges="start jam2 jam1 jam0 end"/>
    </vehicle>

    <vehicle id="high.227" depart="458.00" arrival="516.00">
        <route edges="start jam2 jam1 jam0 end"/>
    </vehicle>

    <vehicle id="high.228" depart="459.00" arrival="518.00">
        <route edges="start jam2 jam1 jam0 end"/>
    </vehicle>

    <vehicle id="high.229" depart="461.00" arrival="520.00">