<?xml version="1.0" encoding="UTF-8"?>

<!-- generated on Fri Jan  6 15:59:34 2017 by SUMO Version dev-SVN-r22484
<?xml version="1.0" encoding="UTF-8"?>

<configuration xmlns:xsi="http://www.w3.org/2001/XMLSchema-instance" xsi:noNamespaceSchemaLocation="http://sumo.dlr.de/xsd/sumoConfiguration.xsd">

    <input>
        <net-file value="net.net.xml"/>
        <route-files value="input_routes.rou.xml"/>
        <additional-files value="input_additional.add.xml"/>
    </input>

    <output>
        <vehroute-output value="vehroutes.xml"/>
    </output>

    <time>
        <end value="1200"/>
    </time>

    <report>
        <xml-validation value="never"/>
        <duration-log.disable value="true"/>
        <no-step-log value="true"/>
    </report>

    <mesoscopic>
        <mesosim value="true"/>
        <meso-junction-control value="true"/>
    </mesoscopic>

</configuration>
-->

<routes xmlns:xsi="http://www.w3.org/2001/XMLSchema-instance" xsi:noNamespaceSchemaLocation="http://sumo.dlr.de/xsd/routes_file.xsd">
    <vehicle id="high.0" depart="0.00" arrival="109.00">
        <route edges="start jam2 jam1 jam0 end"/>
    </vehicle>

    <vehicle id="high.1" depart="1.00" arrival="111.00">
        <route edges="start jam2 jam1 jam0 end"/>
    </vehicle>

    <vehicle id="high.2" depart="2.00" arrival="113.00">
        <route edges="start jam2 jam1 jam0 end"/>
    </vehicle>

    <vehicle id="high.3" depart="3.00" arrival="115.00">
        <route edges="start jam2 jam1 jam0 end"/>
    </vehicle>

    <vehicle id="high.4" depart="5.00" arrival="116.00">
        <route edges="start jam2 jam1 jam0 end"/>
    </vehicle>

    <vehicle id="high.5" depart="6.00" arrival="118.00">
        <route edges="start jam2 jam1 jam0 end"/>
    </vehicle>

    <vehicle id="high.6" depart="7.00" arrival="120.00">
        <route edges="start jam2 jam1 jam0 end"/>
    </vehicle>

    <vehicle id="high.7" depart="9.00" arrival="122.00">
        <route edges="start jam2 jam1 jam0 end"/>
    </vehicle>

    <vehicle id="high.8" depart="10.00" arrival="124.00">
        <route edges="start jam2 jam1 jam0 end"/>
    </vehicle>

    <vehicle id="high.9" depart="11.00" arrival="126.00">
        <route edges="start jam2 jam1 jam0 end"/>
    </vehicle>

    <vehicle id="high.10" depart="13.00" arrival="128.00">
        <route edges="start jam2 jam1 jam0 end"/>
    </vehicle>

    <vehicle id="high.11" depart="14.00" arrival="130.00">
        <route edges="start jam2 jam1 jam0 end"/>
    </vehicle>

    <vehicle id="high.12" depart="15.00" arrival="131.00">
        <route edges="start jam2 jam1 jam0 end"/>
    </vehicle>

    <vehicle id="high.13" depart="17.00" arrival="133.00">
        <route edges="start jam2 jam1 jam0 end"/>
    </vehicle>

    <vehicle id="high.14" depart="18.00" arrival="134.00">
        <route edges="start jam2 jam1 jam0 end"/>
    </vehicle>

    <vehicle id="high.15" depart="19.00" arrival="135.00">
        <route edges="start jam2 jam1 jam0 end"/>
    </vehicle>

    <vehicle id="high.16" depart="21.00" arrival="137.00">
        <route edges="start jam2 jam1 jam0 end"/>
    </vehicle>

    <vehicle id="high.17" depart="22.00" arrival="138.00">
        <route edges="start jam2 jam1 jam0 end"/>
    </vehicle>

    <vehicle id="high.18" depart="23.00" arrival="139.00">
        <route edges="start jam2 jam1 jam0 end"/>
    </vehicle>

    <vehicle id="high.19" depart="25.00" arrival="141.00">
        <route edges="start jam2 jam1 jam0 end"/>
    </vehicle>

    <vehicle id="high.20" depart="26.00" arrival="143.00">
        <route edges="start jam2 jam1 jam0 end"/>
    </vehicle>

    <vehicle id="high.21" depart="27.00" arrival="145.00">
        <route edges="start jam2 jam1 jam0 end"/>
    </vehicle>

    <vehicle id="high.22" depart="29.00" arrival="147.00">
        <route edges="start jam2 jam1 jam0 end"/>
    </vehicle>

    <vehicle id="high.23" depart="30.00" arrival="149.00">
        <route edges="start jam2 jam1 jam0 end"/>
    </vehicle>

    <vehicle id="high.24" depart="31.00" arrival="151.00">
        <route edges="start jam2 jam1 jam0 end"/>
    </vehicle>

    <vehicle id="high.25" depart="33.00" arrival="153.00">
        <route edges="start jam2 jam1 jam0 end"/>
    </vehicle>

    <vehicle id="high.26" depart="34.00" arrival="154.00">
        <route edges="start jam2 jam1 jam0 end"/>
    </vehicle>

    <vehicle id="high.27" depart="35.00" arrival="156.00">
        <route edges="start jam2 jam1 jam0 end"/>
    </vehicle>

    <vehicle id="high.28" depart="37.00" arrival="157.00">
        <route edges="start jam2 jam1 jam0 end"/>
    </vehicle>

    <vehicle id="high.29" depart="38.00" arrival="158.00">
        <route edges="start jam2 jam1 jam0 end"/>
    </vehicle>

    <vehicle id="high.30" depart="39.00" arrival="160.00">
        <route edges="start jam2 jam1 jam0 end"/>
    </vehicle>

    <vehicle id="high.31" depart="41.00" arrival="161.00">
        <route edges="start jam2 jam1 jam0 end"/>
    </vehicle>

    <vehicle id="high.32" depart="42.00" arrival="162.00">
        <route edges="start jam2 jam1 jam0 end"/>
    </vehicle>

    <vehicle id="high.33" depart="43.00" arrival="164.00">
        <route edges="start jam2 jam1 jam0 end"/>
    </vehicle>

    <vehicle id="high.34" depart="45.00" arrival="166.00">
        <route edges="start jam2 jam1 jam0 end"/>
    </vehicle>

    <vehicle id="high.35" depart="46.00" arrival="168.00">
        <route edges="start jam2 jam1 jam0 end"/>
    </vehicle>

    <vehicle id="high.36" depart="47.00" arrival="170.00">
        <route edges="start jam2 jam1 jam0 end"/>
    </vehicle>

    <vehicle id="high.37" depart="49.00" arrival="172.00">
        <route edges="start jam2 jam1 jam0 end"/>
    </vehicle>

    <vehicle id="high.38" depart="50.00" arrival="174.00">
        <route edges="start jam2 jam1 jam0 end"/>
    </vehicle>

    <vehicle id="high.39" depart="51.00" arrival="176.00">
        <route edges="start jam2 jam1 jam0 end"/>
    </vehicle>

    <vehicle id="high.40" depart="53.00" arrival="178.00">
        <route edges="start jam2 jam1 jam0 end"/>
    </vehicle>

    <vehicle id="high.41" depart="54.00" arrival="179.00">
        <route edges="start jam2 jam1 jam0 end"/>
    </vehicle>

    <vehicle id="high.42" depart="55.00" arrival="180.00">
        <route edges="start jam2 jam1 jam0 end"/>
    </vehicle>

    <vehicle id="high.43" depart="57.00" arrival="182.00">
        <route edges="start jam2 jam1 jam0 end"/>
    </vehicle>

    <vehicle id="high.44" depart="58.00" arrival="183.00">
        <route edges="start jam2 jam1 jam0 end"/>
    </vehicle>

    <vehicle id="high.45" depart="59.00" arrival="184.00">
        <route edges="start jam2 jam1 jam0 end"/>
    </vehicle>

    <vehicle id="high.46" depart="61.00" arrival="186.00">
        <route edges="start jam2 jam1 jam0 end"/>
    </vehicle>

    <vehicle id="high.47" depart="62.00" arrival="187.00">
        <route edges="start jam2 jam1 jam0 end"/>
    </vehicle>

    <vehicle id="high.48" depart="63.00" arrival="189.00">
        <route edges="start jam2 jam1 jam0 end"/>
    </vehicle>

    <vehicle id="high.49" depart="65.00" arrival="191.00">
        <route edges="start jam2 jam1 jam0 end"/>
    </vehicle>

    <vehicle id="high.50" depart="66.00" arrival="193.00">
        <route edges="start jam2 jam1 jam0 end"/>
    </vehicle>

    <vehicle id="high.51" depart="67.00" arrival="195.00">
        <route edges="start jam2 jam1 jam0 end"/>
    </vehicle>

    <vehicle id="high.52" depart="69.00" arrival="197.00">
        <route edges="start jam2 jam1 jam0 end"/>
    </vehicle>

    <vehicle id="high.53" depart="70.00" arrival="199.00">
        <route edges="start jam2 jam1 jam0 end"/>
    </vehicle>

    <vehicle id="high.54" depart="71.00" arrival="201.00">
        <route edges="start jam2 jam1 jam0 end"/>
    </vehicle>

    <vehicle id="high.55" depart="73.00" arrival="202.00">
        <route edges="start jam2 jam1 jam0 end"/>
    </vehicle>

    <vehicle id="high.56" depart="74.00" arrival="203.00">
        <route edges="start jam2 jam1 jam0 end"/>
    </vehicle>

    <vehicle id="high.57" depart="75.00" arrival="205.00">
        <route edges="start jam2 jam1 jam0 end"/>
    </vehicle>

    <vehicle id="high.58" depart="77.00" arrival="206.00">
        <route edges="start jam2 jam1 jam0 end"/>
    </vehicle>

    <vehicle id="high.59" depart="78.00" arrival="207.00">
        <route edges="start jam2 jam1 jam0 end"/>
    </vehicle>

    <vehicle id="high.60" depart="79.00" arrival="209.00">
        <route edges="start jam2 jam1 jam0 end"/>
    </vehicle>

    <vehicle id="high.61" depart="81.00" arrival="210.00">
        <route edges="start jam2 jam1 jam0 end"/>
    </vehicle>

    <vehicle id="high.62" depart="82.00" arrival="212.00">
        <route edges="start jam2 jam1 jam0 end"/>
    </vehicle>

    <vehicle id="high.63" depart="83.00" arrival="214.00">
        <route edges="start jam2 jam1 jam0 end"/>
    </vehicle>

    <vehicle id="high.64" depart="85.00" arrival="216.00">
        <route edges="start jam2 jam1 jam0 end"/>
    </vehicle>

    <vehicle id="high.65" depart="86.00" arrival="217.00">
        <route edges="start jam2 jam1 jam0 end"/>
    </vehicle>

    <vehicle id="high.66" depart="87.00" arrival="219.00">
        <route edges="start jam2 jam1 jam0 end"/>
    </vehicle>

    <vehicle id="high.67" depart="89.00" arrival="221.00">
        <route edges="start jam2 jam1 jam0 end"/>
    </vehicle>

    <vehicle id="high.68" depart="90.00" arrival="223.00">
        <route edges="start jam2 jam1 jam0 end"/>
    </vehicle>

    <vehicle id="high.69" depart="92.00" arrival="225.00">
        <route edges="start jam2 jam1 jam0 end"/>
    </vehicle>

    <vehicle id="high.70" depart="93.00" arrival="226.00">
        <route edges="start jam2 jam1 jam0 end"/>
    </vehicle>

    <vehicle id="high.71" depart="94.00" arrival="227.00">
        <route edges="start jam2 jam1 jam0 end"/>
    </vehicle>

    <vehicle id="high.72" depart="96.00" arrival="229.00">
        <route edges="start jam2 jam1 jam0 end"/>
    </vehicle>

    <vehicle id="high.73" depart="97.00" arrival="230.00">
        <route edges="start jam2 jam1 jam0 end"/>
    </vehicle>

    <vehicle id="high.74" depart="98.00" arrival="231.00">
        <route edges="start jam2 jam1 jam0 end"/>
    </vehicle>

    <vehicle id="high.75" depart="100.00" arrival="233.00">
        <route edges="start jam2 jam1 jam0 end"/>
    </vehicle>

    <vehicle id="high.76" depart="101.00" arrival="234.00">
        <route edges="start jam2 jam1 jam0 end"/>
    </vehicle>

    <vehicle id="high.77" depart="102.00" arrival="236.00">
        <route edges="start jam2 jam1 jam0 end"/>
    </vehicle>

    <vehicle id="high.78" depart="104.00" arrival="238.00">
        <route edges="start jam2 jam1 jam0 end"/>
    </vehicle>

    <vehicle id="high.79" depart="105.00" arrival="240.00">
        <route edges="start jam2 jam1 jam0 end"/>
    </vehicle>

    <vehicle id="high.80" depart="106.00" arrival="242.00">
        <route edges="start jam2 jam1 jam0 end"/>
    </vehicle>

    <vehicle id="high.81" depart="108.00" arrival="244.00">
        <route edges="start jam2 jam1 jam0 end"/>
    </vehicle>

    <vehicle id="high.82" depart="109.00" arrival="246.00">
        <route edges="start jam2 jam1 jam0 end"/>
    </vehicle>

    <vehicle id="high.83" depart="110.00" arrival="247.00">
        <route edges="start jam2 jam1 jam0 end"/>
    </vehicle>

    <vehicle id="high.84" depart="112.00" arrival="249.00">
        <route edges="start jam2 jam1 jam0 end"/>
    </vehicle>

    <vehicle id="high.85" depart="113.00" arrival="250.00">
        <route edges="start jam2 jam1 jam0 end"/>
    </vehicle>

    <vehicle id="high.86" depart="114.00" arrival="251.00">
        <route edges="start jam2 jam1 jam0 end"/>
    </vehicle>

    <vehicle id="high.87" depart="116.00" arrival="253.00">
        <route edges="start jam2 jam1 jam0 end"/>
    </vehicle>

    <vehicle id="high.88" depart="117.00" arrival="254.00">
        <route edges="start jam2 jam1 jam0 end"/>
    </vehicle>

    <vehicle id="high.89" depart="118.00" arrival="255.00">
        <route edges="start jam2 jam1 jam0 end"/>
    </vehicle>

    <vehicle id="high.90" depart="120.00" arrival="257.00">
        <route edges="start jam2 jam1 jam0 end"/>
    </vehicle>

    <vehicle id="high.91" depart="121.00" arrival="259.00">
        <route edges="start jam2 jam1 jam0 end"/>
    </vehicle>

    <vehicle id="high.92" depart="122.00" arrival="261.00">
        <route edges="start jam2 jam1 jam0 end"/>
    </vehicle>

    <vehicle id="high.93" depart="124.00" arrival="263.00">
        <route edges="start jam2 jam1 jam0 end"/>
    </vehicle>

    <vehicle id="high.94" depart="125.00" arrival="265.00">
        <route edges="start jam2 jam1 jam0 end"/>
    </vehicle>

    <vehicle id="high.95" depart="126.00" arrival="267.00">
        <route edges="start jam2 jam1 jam0 end"/>
    </vehicle>

    <vehicle id="high.96" depart="128.00" arrival="269.00">
        <route edges="start jam2 jam1 jam0 end"/>
    </vehicle>

    <vehicle id="high.97" depart="129.00" arrival="271.00">
        <route edges="start jam2 jam1 jam0 end"/>
    </vehicle>

    <vehicle id="high.98" depart="130.00" arrival="272.00">
        <route edges="start jam2 jam1 jam0 end"/>
    </vehicle>

    <vehicle id="high.99" depart="132.00" arrival="273.00">
        <route edges="start jam2 jam1 jam0 end"/>
    </vehicle>

    <vehicle id="high.100" depart="133.00" arrival="275.00">
        <route edges="start jam2 jam1 jam0 end"/>
    </vehicle>

    <vehicle id="high.101" depart="134.00" arrival="276.00">
        <route edges="start jam2 jam1 jam0 end"/>
    </vehicle>

    <vehicle id="high.102" depart="136.00" arrival="277.00">
        <route edges="start jam2 jam1 jam0 end"/>
    </vehicle>

    <vehicle id="high.103" depart="137.00" arrival="279.00">
        <route edges="start jam2 jam1 jam0 end"/>
    </vehicle>

    <vehicle id="high.104" depart="138.00" arrival="280.00">
        <route edges="start jam2 jam1 jam0 end"/>
    </vehicle>

    <vehicle id="high.105" depart="140.00" arrival="282.00">
        <route edges="start jam2 jam1 jam0 end"/>
    </vehicle>

    <vehicle id="high.106" depart="141.00" arrival="284.00">
        <route edges="start jam2 jam1 jam0 end"/>
    </vehicle>

    <vehicle id="high.107" depart="142.00" arrival="286.00">
        <route edges="start jam2 jam1 jam0 end"/>
    </vehicle>

    <vehicle id="high.108" depart="144.00" arrival="288.00">
        <route edges="start jam2 jam1 jam0 end"/>
    </vehicle>

    <vehicle id="high.109" depart="145.00" arrival="290.00">
        <route edges="start jam2 jam1 jam0 end"/>
    </vehicle>

    <vehicle id="high.110" depart="146.00" arrival="292.00">
        <route edges="start jam2 jam1 jam0 end"/>
    </vehicle>

    <vehicle id="high.111" depart="146.00" arrival="294.00">
        <route edges="start jam2 jam1 jam0 end"/>
    </vehicle>

    <vehicle id="high.112" depart="146.00" arrival="295.00">
        <route edges="start jam2 jam1 jam0 end"/>
    </vehicle>

    <vehicle id="high.113" depart="151.00" arrival="296.00">
        <route edges="start jam2 jam1 jam0 end"/>
    </vehicle>

    <vehicle id="high.114" depart="151.00" arrival="298.00">
        <route edges="start jam2 jam1 jam0 end"/>
    </vehicle>

    <vehicle id="high.115" depart="151.00" arrival="299.00">
        <route edges="start jam2 jam1 jam0 end"/>
    </vehicle>

    <vehicle id="high.116" depart="151.00" arrival="300.00">
        <route edges="start jam2 jam1 jam0 end"/>
    </vehicle>

    <vehicle id="high.117" depart="151.00" arrival="302.00">
        <route edges="start jam2 jam1 jam0 end"/>
    </vehicle>

    <vehicle id="high.118" depart="151.00" arrival="303.00">
        <route edges="start jam2 jam1 jam0 end"/>
    </vehicle>

    <vehicle id="high.119" depart="151.00" arrival="305.00">
        <route edges="start jam2 jam1 jam0 end"/>
    </vehicle>

    <vehicle id="high.120" depart="151.00" arrival="307.00">
        <route edges="start jam2 jam1 jam0 end"/>
    </vehicle>

    <vehicle id="high.121" depart="167.00" arrival="309.00">
        <route edges="start jam2 jam1 jam0 end"/>
    </vehicle>

    <vehicle id="high.122" depart="184.00" arrival="311.00">
        <route edges="start jam2 jam1 jam0 end"/>
    </vehicle>

    <vehicle id="high.123" depart="201.00" arrival="312.00">
        <route edges="start jam2 jam1 jam0 end"/>
    </vehicle>

    <vehicle id="high.124" depart="217.00" arrival="314.00">
        <route edges="start jam2 jam1 jam0 end"/>
    </vehicle>

    <vehicle id="high.125" depart="234.00" arrival="316.00">
        <route edges="start jam2 jam1 jam0 end"/>
    </vehicle>

    <vehicle id="high.126" depart="251.00" arrival="318.00">
        <route edges="start jam2 jam1 jam0 end"/>
    </vehicle>

    <vehicle id="high.127" depart="263.00" arrival="320.00">
        <route edges="start jam2 jam1 jam0 end"/>
    </vehicle>

    <vehicle id="high.128" depart="266.00" arrival="322.00">
        <route edges="start jam2 jam1 jam0 end"/>
    </vehicle>

    <vehicle id="high.129" depart="268.00" arrival="324.00">
        <route edges="start jam2 jam1 jam0 end"/>
    </vehicle>

    <vehicle id="high.130" depart="270.00" arrival="326.00">
        <route edges="start jam2 jam1 jam0 end"/>
    </vehicle>

    <vehicle id="high.131" depart="272.00" arrival="328.00">
        <route edges="start jam2 jam1 jam0 end"/>
    </vehicle>

    <vehicle id="high.132" depart="274.00" arrival="330.00">
        <route edges="start jam2 jam1 jam0 end"/>
    </vehicle>

    <vehicle id="high.133" depart="276.00" arrival="332.00">
        <route edges="start jam2 jam1 jam0 end"/>
    </vehicle>

    <vehicle id="high.134" depart="278.00" arrival="334.00">
        <route edges="start jam2 jam1 jam0 end"/>
    </vehicle>

    <vehicle id="high.135" depart="280.00" arrival="336.00">
        <route edges="start jam2 jam1 jam0 end"/>
    </vehicle>

    <vehicle id="high.136" depart="282.00" arrival="338.00">
        <route edges="start jam2 jam1 jam0 end"/>
    </vehicle>

    <vehicle id="high.137" depart="284.00" arrival="340.00">
        <route edges="start jam2 jam1 jam0 end"/>
    </vehicle>

    <vehicle id="high.138" depart="286.00" arrival="341.00">
        <route edges="start jam2 jam1 jam0 end"/>
    </vehicle>

    <vehicle id="high.139" depart="288.00" arrival="343.00">
        <route edges="start jam2 jam1 jam0 end"/>
    </vehicle>

    <vehicle id="high.140" depart="290.00" arrival="345.00">
        <route edges="start jam2 jam1 jam0 end"/>
    </vehicle>

    <vehicle id="high.141" depart="292.00" arrival="347.00">
        <route edges="start jam2 jam1 jam0 end"/>
    </vehicle>

    <vehicle id="high.142" depart="294.00" arrival="349.00">
        <route edges="start jam2 jam1 jam0 end"/>
    </vehicle>

    <vehicle id="high.143" depart="296.00" arrival="351.00">
        <route edges="start jam2 jam1 jam0 end"/>
    </vehicle>

    <vehicle id="high.144" depart="297.00" arrival="353.00">
        <route edges="start jam2 jam1 jam0 end"/>
    </vehicle>

    <vehicle id="high.145" depart="299.00" arrival="355.00">
        <route edges="start jam2 jam1 jam0 end"/>
    </vehicle>

    <vehicle id="high.146" depart="301.00" arrival="357.00">
        <route edges="start jam2 jam1 jam0 end"/>
    </vehicle>

    <vehicle id="high.147" depart="303.00" arrival="359.00">
        <route edges="start jam2 jam1 jam0 end"/>
    </vehicle>

    <vehicle id="high.148" depart="305.00" arrival="361.00">
        <route edges="start jam2 jam1 jam0 end"/>
    </vehicle>

    <vehicle id="high.149" depart="307.00" arrival="363.00">
        <route edges="start jam2 jam1 jam0 end"/>
    </vehicle>

    <vehicle id="high.150" depart="309.00" arrival="365.00">
        <route edges="start jam2 jam1 jam0 end"/>
    </vehicle>

    <vehicle id="high.151" depart="311.00" arrival="367.00">
        <route edges="start jam2 jam1 jam0 end"/>
    </vehicle>

    <vehicle id="high.152" depart="313.00" arrival="369.00">
        <route edges="start jam2 jam1 jam0 end"/>
    </vehicle>

    <vehicle id="high.153" depart="315.00" arrival="371.00">
        <route edges="start jam2 jam1 jam0 end"/>
    </vehicle>

    <vehicle id="high.154" depart="317.00" arrival="372.00">
        <route edges="start jam2 jam1 jam0 end"/>
    </vehicle>

    <vehicle id="high.155" depart="319.00" arrival="374.00">
        <route edges="start jam2 jam1 jam0 end"/>
    </vehicle>

    <vehicle id="high.156" depart="321.00" arrival="376.00">
        <route edges="start jam2 jam1 jam0 end"/>
    </vehicle>

    <vehicle id="high.157" depart="323.00" arrival="378.00">
        <route edges="start jam2 jam1 jam0 end"/>
    </vehicle>

    <vehicle id="high.158" depart="325.00" arrival="380.00">
        <route edges="start jam2 jam1 jam0 end"/>
    </vehicle>

    <vehicle id="high.159" depart="327.00" arrival="382.00">
        <route edges="start jam2 jam1 jam0 end"/>
    </vehicle>

    <vehicle id="high.160" depart="328.00" arrival="384.00">
        <route edges="start jam2 jam1 jam0 end"/>
    </vehicle>

    <vehicle id="high.161" depart="330.00" arrival="386.00">
        <route edges="start jam2 jam1 jam0 end"/>
    </vehicle>

    <vehicle id="high.162" depart="332.00" arrival="388.00">
        <route edges="start jam2 jam1 jam0 end"/>
    </vehicle>

    <vehicle id="high.163" depart="334.00" arrival="390.00">
        <route edges="start jam2 jam1 jam0 end"/>
    </vehicle>

    <vehicle id="high.164" depart="336.00" arrival="392.00">
        <route edges="start jam2 jam1 jam0 end"/>
    </vehicle>

    <vehicle id="high.165" depart="338.00" arrival="394.00">
        <route edges="start jam2 jam1 jam0 end"/>
    </vehicle>

    <vehicle id="high.166" depart="340.00" arrival="396.00">
        <route edges="start jam2 jam1 jam0 end"/>
    </vehicle>

    <vehicle id="high.167" depart="342.00" arrival="398.00">
        <route edges="start jam2 jam1 jam0 end"/>
    </vehicle>

    <vehicle id="high.168" depart="344.00" arrival="400.00">
        <route edges="start jam2 jam1 jam0 end"/>
    </vehicle>

    <vehicle id="high.169" depart="346.00" arrival="402.00">
        <route edges="start jam2 jam1 jam0 end"/>
    </vehicle>

    <vehicle id="high.170" depart="348.00" arrival="403.00">
        <route edges="start jam2 jam1 jam0 end"/>
    </vehicle>

    <vehicle id="high.171" depart="350.00" arrival="405.00">
        <route edges="start jam2 jam1 jam0 end"/>
    </vehicle>

    <vehicle id="high.172" depart="352.00" arrival="407.00">
        <route edges="start jam2 jam1 jam0 end"/>
    </vehicle>

    <vehicle id="high.173" depart="354.00" arrival="409.00">
        <route edges="start jam2 jam1 jam0 end"/>
    </vehicle>

    <vehicle id="high.174" depart="356.00" arrival="411.00">
        <route edges="start jam2 jam1 jam0 end"/>
    </vehicle>

    <vehicle id="high.175" depart="358.00" arrival="413.00">
        <route edges="start jam2 jam1 jam0 end"/>
    </vehicle>

    <vehicle id="high.176" depart="359.00" arrival="415.00">
        <route edges="start jam2 jam1 jam0 end"/>
    </vehicle>

    <vehicle id="high.177" depart="361.00" arrival="417.00">
        <route edges="start jam2 jam1 jam0 end"/>
    </vehicle>

    <vehicle id="high.178" depart="363.00" arrival="419.00">
        <route edges="start jam2 jam1 jam0 end"/>
    </vehicle>

    <vehicle id="high.179" depart="365.00" arrival="421.00">
        <route edges="start jam2 jam1 jam0 end"/>
    </vehicle>

    <vehicle id="high.180" depart="367.00" arrival="423.00">
        <route edges="start jam2 jam1 jam0 end"/>
    </vehicle>

    <vehicle id="high.181" depart="369.00" arrival="425.00">
        <route edges="start jam2 jam1 jam0 end"/>
    </vehicle>

    <vehicle id="high.182" depart="371.00" arrival="427.00">
        <route edges="start jam2 jam1 jam0 end"/>
    </vehicle>

    <vehicle id="high.183" depart="373.00" arrival="429.00">
        <route edges="start jam2 jam1 jam0 end"/>
    </vehicle>

    <vehicle id="high.184" depart="375.00" arrival="431.00">
        <route edges="start jam2 jam1 jam0 end"/>
    </vehicle>

    <vehicle id="high.185" depart="377.00" arrival="433.00">
        <route edges="start jam2 jam1 jam0 end"/>
    </vehicle>

    <vehicle id="high.186" depart="379.00" arrival="434.00">
        <route edges="start jam2 jam1 jam0 end"/>
    </vehicle>

    <vehicle id="high.187" depart="381.00" arrival="436.00">
        <route edges="start jam2 jam1 jam0 end"/>
    </vehicle>

    <vehicle id="high.188" depart="383.00" arrival="438.00">
        <route edges="start jam2 jam1 jam0 end"/>
    </vehicle>

    <vehicle id="high.189" depart="385.00" arrival="440.00">
        <route edges="start jam2 jam1 jam0 end"/>
    </vehicle>

    <vehicle id="high.190" depart="387.00" arrival="442.00">
        <route edges="start jam2 jam1 jam0 end"/>
    </vehicle>

    <vehicle id="high.191" depart="389.00" arrival="444.00">
        <route edges="start jam2 jam1 jam0 end"/>
    </vehicle>

    <vehicle id="high.192" depart="390.00" arrival="446.00">
        <route edges="start jam2 jam1 jam0 end"/>
    </vehicle>

    <vehicle id="high.193" depart="392.00" arrival="448.00">
        <route edges="start jam2 jam1 jam0 end"/>
    </vehicle>

    <vehicle id="high.194" depart="394.00" arrival="450.00">
        <route edges="start jam2 jam1 jam0 end"/>
    </vehicle>

    <vehicle id="high.195" depart="396.00" arrival="452.00">
        <route edges="start jam2 jam1 jam0 end"/>
    </vehicle>

    <vehicle id="high.196" depart="398.00" arrival="454.00">
        <route edges="start jam2 jam1 jam0 end"/>
    </vehicle>

    <vehicle id="high.197" depart="400.00" arrival="456.00">
        <route edges="start jam2 jam1 jam0 end"/>
    </vehicle>

    <vehicle id="high.198" depart="402.00" arrival="458.00">
        <route edges="start jam2 jam1 jam0 end"/>
    </vehicle>

    <vehicle id="high.199" depart="404.00" arrival="460.00">
        <route edges="start jam2 jam1 jam0 end"/>
    </vehicle>

    <vehicle id="high.200" depart="406.00" arrival="462.00">
        <route edges="start jam2 jam1 jam0 end"/>
    </vehicle>

    <vehicle id="high.201" depart="408.00" arrival="464.00">
        <route edges="start jam2 jam1 jam0 end"/>
    </vehicle>

    <vehicle id="high.202" depart="410.00" arrival="465.00">
        <route edges="start jam2 jam1 jam0 end"/>
    </vehicle>

    <vehicle id="high.203" depart="412.00" arrival="467.00">
        <route edges="start jam2 jam1 jam0 end"/>
    </vehicle>

    <vehicle id="high.204" depart="414.00" arrival="469.00">
        <route edges="start jam2 jam1 jam0 end"/>
    </vehicle>

    <vehicle id="high.205" depart="416.00" arrival="471.00">
        <route edges="start jam2 jam1 jam0 end"/>
    </vehicle>

    <vehicle id="high.206" depart="418.00" arrival="473.00">
        <route edges="start jam2 jam1 jam0 end"/>
    </vehicle>

    <vehicle id="high.207" depart="420.00" arrival="475.00">
        <route edges="start jam2 jam1 jam0 end"/>
    </vehicle>

    <vehicle id="high.208" depart="421.00" arrival="477.00">
        <route edges="start jam2 jam1 jam0 end"/>
    </vehicle>

    <vehicle id="high.209" depart="423.00" arrival="479.00">
        <route edges="start jam2 jam1 jam0 end"/>
    </vehicle>

    <vehicle id="high.210" depart="425.00" arrival="481.00">
        <route edges="start jam2 jam1 jam0 end"/>
    </vehicle>

    <vehicle id="high.211" depart="427.00" arrival="483.00">
        <route edges="start jam2 jam1 jam0 end"/>
    </vehicle>

    <vehicle id="high.212" depart="429.00" arrival="485.00">
        <route edges="start jam2 jam1 jam0 end"/>
    </vehicle>

    <vehicle id="high.213" depart="431.00" arrival="487.00">
        <route edges="start jam2 jam1 jam0 end"/>
    </vehicle>

    <vehicle id="high.214" depart="433.00" arrival="489.00">
        <route edges="start jam2 jam1 jam0 end"/>
    </vehicle>

    <vehicle id="high.215" depart="435.00" arrival="491.00">
        <route edges="start jam2 jam1 jam0 end"/>
    </vehicle>

    <vehicle id="high.216" depart="437.00" arrival="493.00">
        <route edges="start jam2 jam1 jam0 end"/>
    </vehicle>

    <vehicle id="high.217" depart="439.00" arrival="495.00">
        <route edges="start jam2 jam1 jam0 end"/>
    </vehicle>

    <vehicle id="high.218" depart="441.00" arrival="496.00">
        <route edges="start jam2 jam1 jam0 end"/>
    </vehicle>

    <vehicle id="high.219" depart="443.00" arrival="498.00">
        <route edges="start jam2 jam1 jam0 end"/>
    </vehicle>

    <vehicle id="high.220" depart="445.00" arrival="500.00">
        <route edges="start jam2 jam1 jam0 end"/>
    </vehicle>

    <vehicle id="high.221" depart="447.00" arrival="502.00">
        <route edges="start jam2 jam1 jam0 end"/>
    </vehicle>

    <vehicle id="high.222" depart="449.00" arrival="504.00">
        <route edges="start jam2 jam1 jam0 end"/>
    </vehicle>

    <vehicle id="high.223" depart="450.00" arrival="506.00">
        <route edges="start jam2 jam1 jam0 end"/>
    </vehicle>

    <vehicle id="high.224" depart="452.00" arrival="508.00">
        <route edges="start jam2 jam1 jam0 end"/>
    </vehicle>

    <vehicle id="high.225" depart="454.00" arrival="510.00">
        <route edges="start jam2 jam1 jam0 end"/>
    </vehicle>

    <vehicle id="high.226" depart="456.00" arrival="512.00">
        <route edges="start jam2 jam1 jam0 end"/>
    </vehicle>

    <vehicle id="high.227" depart="458.00" arrival="514.00">
        <route edges="start jam2 jam1 jam0 end"/>
    </vehicle>

    <vehicle id="high.228" depart="460.00" arrival="516.00">
        <route edges="start jam2 jam1 jam0 end"/>
    </vehicle>

    <vehicle id="high.229" depart="462.00" arrival="518.00">