<?xml version="1.0" encoding="UTF-8"?>

<!-- generated on Wed Sep  4 18:09:51 2013 by SUMO sumo Version dev-SVN-r14576
<?xml version="1.0" encoding="UTF-8"?>

<configuration xmlns:xsi="http://www.w3.org/2001/XMLSchema-instance" xsi:noNamespaceSchemaLocation="http://sumo-sim.org/xsd/sumoConfiguration.xsd">

    <input>
        <net-file value="net.net.xml"/>
        <route-files value="input_routes.rou.xml"/>
        <additional-files value="input_additional.add.xml"/>
    </input>

    <output>
        <vehroute-output value="vehroutes.xml"/>
    </output>

    <time>
        <end value="1200"/>
    </time>

    <report>
        <no-duration-log value="true"/>
        <no-step-log value="true"/>
    </report>

</configuration>
-->

<routes xmlns:xsi="http://www.w3.org/2001/XMLSchema-instance" xsi:noNamespaceSchemaLocation="http://sumo-sim.org/xsd/routes_file.xsd">
    <vehicle id="high.0" depart="0.00" arrival="114.00">
        <route edges="start jam2 jam1 jam0 end"/>
    </vehicle>

    <vehicle id="high.1" depart="2.00" arrival="116.00">
        <route edges="start jam2 jam1 jam0 end"/>
    </vehicle>

    <vehicle id="high.2" depart="4.00" arrival="117.00">
        <route edges="start jam2 jam1 jam0 end"/>
    </vehicle>

    <vehicle id="high.3" depart="6.00" arrival="119.00">
        <route edges="start jam2 jam1 jam0 end"/>
    </vehicle>

    <vehicle id="high.4" depart="8.00" arrival="120.00">
        <route edges="start jam2 jam1 jam0 end"/>
    </vehicle>

    <vehicle id="high.5" depart="10.00" arrival="121.00">
        <route edges="start jam2 jam1 jam0 end"/>
    </vehicle>

    <vehicle id="high.6" depart="12.00" arrival="123.00">
        <route edges="start jam2 jam1 jam0 end"/>
    </vehicle>

    <vehicle id="high.7" depart="14.00" arrival="124.00">
        <route edges="start jam2 jam1 jam0 end"/>
    </vehicle>

    <vehicle id="high.8" depart="16.00" arrival="126.00">
        <route edges="start jam2 jam1 jam0 end"/>
    </vehicle>

    <vehicle id="high.9" depart="18.00" arrival="127.00">
        <route edges="start jam2 jam1 jam0 end"/>
    </vehicle>

    <vehicle id="high.10" depart="20.00" arrival="128.00">
        <route edges="start jam2 jam1 jam0 end"/>
    </vehicle>

    <vehicle id="high.11" depart="22.00" arrival="130.00">
        <route edges="start jam2 jam1 jam0 end"/>
    </vehicle>

    <vehicle id="high.12" depart="24.00" arrival="131.00">
        <route edges="start jam2 jam1 jam0 end"/>
    </vehicle>

    <vehicle id="high.13" depart="26.00" arrival="133.00">
        <route edges="start jam2 jam1 jam0 end"/>
    </vehicle>

    <vehicle id="high.14" depart="28.00" arrival="134.00">
        <route edges="start jam2 jam1 jam0 end"/>
    </vehicle>

    <vehicle id="high.15" depart="30.00" arrival="135.00">
        <route edges="start jam2 jam1 jam0 end"/>
    </vehicle>

    <vehicle id="high.16" depart="32.00" arrival="137.00">
        <route edges="start jam2 jam1 jam0 end"/>
    </vehicle>

    <vehicle id="high.17" depart="34.00" arrival="138.00">
        <route edges="start jam2 jam1 jam0 end"/>
    </vehicle>

    <vehicle id="high.18" depart="36.00" arrival="140.00">
        <route edges="start jam2 jam1 jam0 end"/>
    </vehicle>

    <vehicle id="high.19" depart="38.00" arrival="141.00">
        <route edges="start jam2 jam1 jam0 end"/>
    </vehicle>

    <vehicle id="high.20" depart="40.00" arrival="142.00">
        <route edges="start jam2 jam1 jam0 end"/>
    </vehicle>

    <vehicle id="high.21" depart="42.00" arrival="144.00">
        <route edges="start jam2 jam1 jam0 end"/>
    </vehicle>

    <vehicle id="high.22" depart="44.00" arrival="145.00">
        <route edges="start jam2 jam1 jam0 end"/>
    </vehicle>

    <vehicle id="high.23" depart="46.00" arrival="147.00">
        <route edges="start jam2 jam1 jam0 end"/>
    </vehicle>

    <vehicle id="high.24" depart="48.00" arrival="148.00">
        <route edges="start jam2 jam1 jam0 end"/>
    </vehicle>

    <vehicle id="high.25" depart="50.00" arrival="149.00">
        <route edges="start jam2 jam1 jam0 end"/>
    </vehicle>

    <vehicle id="high.26" depart="52.00" arrival="151.00">
        <route edges="start jam2 jam1 jam0 end"/>
    </vehicle>

    <vehicle id="high.27" depart="54.00" arrival="152.00">
        <route edges="start jam2 jam1 jam0 end"/>
    </vehicle>

    <vehicle id="high.28" depart="56.00" arrival="153.00">
        <route edges="start jam2 jam1 jam0 end"/>
    </vehicle>

    <vehicle id="high.29" depart="58.00" arrival="155.00">
        <route edges="start jam2 jam1 jam0 end"/>
    </vehicle>

    <vehicle id="high.30" depart="60.00" arrival="156.00">
        <route edges="start jam2 jam1 jam0 end"/>
    </vehicle>

    <vehicle id="high.31" depart="62.00" arrival="158.00">
        <route edges="start jam2 jam1 jam0 end"/>
    </vehicle>

    <vehicle id="high.32" depart="64.00" arrival="159.00">
        <route edges="start jam2 jam1 jam0 end"/>
    </vehicle>

    <vehicle id="high.33" depart="66.00" arrival="160.00">
        <route edges="start jam2 jam1 jam0 end"/>
    </vehicle>

    <vehicle id="high.34" depart="68.00" arrival="162.00">
        <route edges="start jam2 jam1 jam0 end"/>
    </vehicle>

    <vehicle id="high.35" depart="70.00" arrival="163.00">
        <route edges="start jam2 jam1 jam0 end"/>
    </vehicle>

    <vehicle id="high.36" depart="72.00" arrival="165.00">
        <route edges="start jam2 jam1 jam0 end"/>
    </vehicle>

    <vehicle id="high.37" depart="74.00" arrival="166.00">
        <route edges="start jam2 jam1 jam0 end"/>
    </vehicle>

    <vehicle id="high.38" depart="76.00" arrival="167.00">
        <route edges="start jam2 jam1 jam0 end"/>
    </vehicle>

    <vehicle id="high.39" depart="78.00" arrival="169.00">
        <route edges="start jam2 jam1 jam0 end"/>
    </vehicle>

    <vehicle id="high.40" depart="80.00" arrival="170.00">
        <route edges="start jam2 jam1 jam0 end"/>
    </vehicle>

    <vehicle id="high.41" depart="82.00" arrival="172.00">
        <route edges="start jam2 jam1 jam0 end"/>
    </vehicle>

    <vehicle id="high.42" depart="84.00" arrival="173.00">
        <route edges="start jam2 jam1 jam0 end"/>
    </vehicle>

    <vehicle id="high.43" depart="86.00" arrival="174.00">
        <route edges="start jam2 jam1 jam0 end"/>
    </vehicle>

    <vehicle id="high.44" depart="88.00" arrival="176.00">
        <route edges="start jam2 jam1 jam0 end"/>
    </vehicle>

    <vehicle id="high.45" depart="90.00" arrival="177.00">
        <route edges="start jam2 jam1 jam0 end"/>
    </vehicle>

    <vehicle id="high.46" depart="92.00" arrival="179.00">
        <route edges="start jam2 jam1 jam0 end"/>
    </vehicle>

    <vehicle id="high.47" depart="94.00" arrival="180.00">
        <route edges="start jam2 jam1 jam0 end"/>
    </vehicle>

    <vehicle id="high.48" depart="96.00" arrival="181.00">
        <route edges="start jam2 jam1 jam0 end"/>
    </vehicle>

    <vehicle id="high.49" depart="98.00" arrival="183.00">
        <route edges="start jam2 jam1 jam0 end"/>
    </vehicle>

    <vehicle id="high.50" depart="100.00" arrival="184.00">
        <route edges="start jam2 jam1 jam0 end"/>
    </vehicle>

    <vehicle id="high.51" depart="102.00" arrival="185.00">
        <route edges="start jam2 jam1 jam0 end"/>
    </vehicle>

    <vehicle id="high.52" depart="104.00" arrival="187.00">
        <route edges="start jam2 jam1 jam0 end"/>
    </vehicle>

    <vehicle id="high.53" depart="106.00" arrival="188.00">
        <route edges="start jam2 jam1 jam0 end"/>
    </vehicle>

    <vehicle id="high.54" depart="108.00" arrival="190.00">
        <route edges="start jam2 jam1 jam0 end"/>
    </vehicle>

    <vehicle id="high.55" depart="110.00" arrival="191.00">
        <route edges="start jam2 jam1 jam0 end"/>
    </vehicle>

    <vehicle id="high.56" depart="112.00" arrival="192.00">
        <route edges="start jam2 jam1 jam0 end"/>
    </vehicle>

    <vehicle id="high.57" depart="114.00" arrival="194.00">
        <route edges="start jam2 jam1 jam0 end"/>
    </vehicle>

    <vehicle id="high.58" depart="116.00" arrival="195.00">
        <route edges="start jam2 jam1 jam0 end"/>
    </vehicle>

    <vehicle id="high.59" depart="118.00" arrival="197.00">
        <route edges="start jam2 jam1 jam0 end"/>
    </vehicle>

    <vehicle id="high.60" depart="120.00" arrival="198.00">
        <route edges="start jam2 jam1 jam0 end"/>
    </vehicle>

    <vehicle id="high.61" depart="122.00" arrival="199.00">
        <route edges="start jam2 jam1 jam0 end"/>
    </vehicle>

    <vehicle id="high.62" depart="124.00" arrival="201.00">
        <route edges="start jam2 jam1 jam0 end"/>
    </vehicle>

    <vehicle id="high.63" depart="126.00" arrival="202.00">
        <route edges="start jam2 jam1 jam0 end"/>
    </vehicle>

    <vehicle id="high.64" depart="128.00" arrival="203.00">
        <route edges="start jam2 jam1 jam0 end"/>
    </vehicle>

    <vehicle id="high.65" depart="130.00" arrival="205.00">
        <route edges="start jam2 jam1 jam0 end"/>
    </vehicle>

    <vehicle id="high.66" depart="132.00" arrival="206.00">
        <route edges="start jam2 jam1 jam0 end"/>
    </vehicle>

    <vehicle id="high.67" depart="134.00" arrival="208.00">
        <route edges="start jam2 jam1 jam0 end"/>
    </vehicle>

    <vehicle id="high.68" depart="136.00" arrival="209.00">
        <route edges="start jam2 jam1 jam0 end"/>
    </vehicle>

    <vehicle id="high.69" depart="138.00" arrival="210.00">
        <route edges="start jam2 jam1 jam0 end"/>
    </vehicle>

    <vehicle id="high.70" depart="140.00" arrival="212.00">
        <route edges="start jam2 jam1 jam0 end"/>
    </vehicle>

    <vehicle id="high.71" depart="142.00" arrival="213.00">
        <route edges="start jam2 jam1 jam0 end"/>
    </vehicle>

    <vehicle id="high.72" depart="144.00" arrival="214.00">
        <route edges="start jam2 jam1 jam0 end"/>
    </vehicle>

    <vehicle id="high.73" depart="146.00" arrival="216.00">
        <route edges="start jam2 jam1 jam0 end"/>
    </vehicle>

    <vehicle id="high.74" depart="148.00" arrival="217.00">
        <route edges="start jam2 jam1 jam0 end"/>
    </vehicle>

    <vehicle id="high.75" depart="150.00" arrival="219.00">
        <route edges="start jam2 jam1 jam0 end"/>
    </vehicle>

    <vehicle id="high.76" depart="152.00" arrival="220.00">
        <route edges="start jam2 jam1 jam0 end"/>
    </vehicle>

    <vehicle id="high.77" depart="154.00" arrival="221.00">
        <route edges="start jam2 jam1 jam0 end"/>
    </vehicle>

    <vehicle id="high.78" depart="156.00" arrival="223.00">
        <route edges="start jam2 jam1 jam0 end"/>
    </vehicle>

    <vehicle id="high.79" depart="158.00" arrival="224.00">
        <route edges="start jam2 jam1 jam0 end"/>
    </vehicle>

    <vehicle id="high.80" depart="160.00" arrival="226.00">
        <route edges="start jam2 jam1 jam0 end"/>
    </vehicle>

    <vehicle id="high.81" depart="162.00" arrival="227.00">
        <route edges="start jam2 jam1 jam0 end"/>
    </vehicle>

    <vehicle id="high.82" depart="164.00" arrival="228.00">
        <route edges="start jam2 jam1 jam0 end"/>
    </vehicle>

    <vehicle id="high.83" depart="166.00" arrival="230.00">
        <route edges="start jam2 jam1 jam0 end"/>
    </vehicle>

    <vehicle id="high.84" depart="168.00" arrival="231.00">
        <route edges="start jam2 jam1 jam0 end"/>
    </vehicle>

    <vehicle id="high.85" depart="170.00" arrival="233.00">
        <route edges="start jam2 jam1 jam0 end"/>
    </vehicle>

    <vehicle id="high.86" depart="172.00" arrival="234.00">
        <route edges="start jam2 jam1 jam0 end"/>
    </vehicle>

    <vehicle id="high.87" depart="174.00" arrival="235.00">
        <route edges="start jam2 jam1 jam0 end"/>
    </vehicle>

    <vehicle id="high.88" depart="176.00" arrival="237.00">
        <route edges="start jam2 jam1 jam0 end"/>
    </vehicle>

    <vehicle id="high.89" depart="178.00" arrival="238.00">
        <route edges="start jam2 jam1 jam0 end"/>
    </vehicle>

    <vehicle id="high.90" depart="180.00" arrival="239.00">
        <route edges="start jam2 jam1 jam0 end"/>
    </vehicle>

    <vehicle id="high.91" depart="182.00" arrival="241.00">
        <route edges="start jam2 jam1 jam0 end"/>
    </vehicle>

    <vehicle id="high.92" depart="184.00" arrival="242.00">
        <route edges="start jam2 jam1 jam0 end"/>
    </vehicle>

    <vehicle id="high.93" depart="186.00" arrival="244.00">
        <route edges="start jam2 jam1 jam0 end"/>
    </vehicle>

    <vehicle id="high.94" depart="188.00" arrival="245.00">
        <route edges="start jam2 jam1 jam0 end"/>
    </vehicle>

    <vehicle id="high.95" depart="190.00" arrival="246.00">
        <route edges="start jam2 jam1 jam0 end"/>
    </vehicle>

    <vehicle id="high.96" depart="192.00" arrival="248.00">
        <route edges="start jam2 jam1 jam0 end"/>
    </vehicle>

    <vehicle id="high.97" depart="201.00" arrival="249.00">
        <route edges="start jam2 jam1 jam0 end"/>
    </vehicle>

    <vehicle id="high.98" depart="211.00" arrival="251.00">
        <route edges="start jam2 jam1 jam0 end"/>
    </vehicle>

    <vehicle id="high.99" depart="217.00" arrival="252.00">
        <route edges="start jam2 jam1 jam0 end"/>
    </vehicle>

    <vehicle id="high.100" depart="219.00" arrival="254.00">
        <route edges="start jam2 jam1 jam0 end"/>
    </vehicle>

    <vehicle id="high.101" depart="221.00" arrival="255.00">
        <route edges="start jam2 jam1 jam0 end"/>
    </vehicle>

    <vehicle id="high.102" depart="223.00" arrival="257.00">
        <route edges="start jam2 jam1 jam0 end"/>
    </vehicle>

    <vehicle id="high.103" depart="225.00" arrival="259.00">
        <route edges="start jam2 jam1 jam0 end"/>
    </vehicle>

    <vehicle id="high.104" depart="227.00" arrival="261.00">
        <route edges="start jam2 jam1 jam0 end"/>
    </vehicle>

    <vehicle id="high.105" depart="229.00" arrival="263.00">
        <route edges="start jam2 jam1 jam0 end"/>
    </vehicle>

    <vehicle id="high.106" depart="231.00" arrival="265.00">
        <route edges="start jam2 jam1 jam0 end"/>
    </vehicle>

    <vehicle id="high.107" depart="233.00" arrival="267.00">
        <route edges="start jam2 jam1 jam0 end"/>
    </vehicle>

    <vehicle id="high.108" depart="235.00" arrival="269.00">
        <route edges="start jam2 jam1 jam0 end"/>
    </vehicle>

    <vehicle id="high.109" depart="237.00" arrival="271.00">
        <route edges="start jam2 jam1 jam0 end"/>
    </vehicle>

    <vehicle id="high.110" depart="239.00" arrival="273.00">
        <route edges="start jam2 jam1 jam0 end"/>
    </vehicle>

    <vehicle id="high.111" depart="241.00" arrival="275.00">
        <route edges="start jam2 jam1 jam0 end"/>
    </vehicle>

    <vehicle id="high.112" depart="243.00" arrival="277.00">
        <route edges="start jam2 jam1 jam0 end"/>
    </vehicle>

    <vehicle id="high.113" depart="245.00" arrival="279.00">
        <route edges="start jam2 jam1 jam0 end"/>
    </vehicle>

    <vehicle id="high.114" depart="247.00" arrival="281.00">
        <route edges="start jam2 jam1 jam0 end"/>
    </vehicle>

    <vehicle id="high.115" depart="249.00" arrival="283.00">
        <route edges="start jam2 jam1 jam0 end"/>
    </vehicle>

    <vehicle id="high.116" depart="251.00" arrival="285.00">
        <route edges="start jam2 jam1 jam0 end"/>
    </vehicle>

    <vehicle id="high.117" depart="253.00" arrival="287.00">
        <route edges="start jam2 jam1 jam0 end"/>
    </vehicle>

    <vehicle id="high.118" depart="255.00" arrival="289.00">
        <route edges="start jam2 jam1 jam0 end"/>
    </vehicle>

    <vehicle id="high.119" depart="257.00" arrival="291.00">
        <route edges="start jam2 jam1 jam0 end"/>
    </vehicle>

    <vehicle id="high.120" depart="259.00" arrival="293.00">
        <route edges="start jam2 jam1 jam0 end"/>
    </vehicle>

    <vehicle id="high.121" depart="261.00" arrival="295.00">
        <route edges="start jam2 jam1 jam0 end"/>
    </vehicle>

    <vehicle id="high.122" depart="263.00" arrival="297.00">
        <route edges="start jam2 jam1 jam0 end"/>
    </vehicle>

    <vehicle id="high.123" depart="265.00" arrival="299.00">
        <route edges="start jam2 jam1 jam0 end"/>
    </vehicle>

    <vehicle id="high.124" depart="267.00" arrival="301.00">
        <route edges="start jam2 jam1 jam0 end"/>
    </vehicle>

    <vehicle id="high.125" depart="269.00" arrival="303.00">
        <route edges="start jam2 jam1 jam0 end"/>
    </vehicle>

    <vehicle id="high.126" depart="271.00" arrival="305.00">
        <route edges="start jam2 jam1 jam0 end"/>
    </vehicle>

    <vehicle id="high.127" depart="273.00" arrival="307.00">
        <route edges="start jam2 jam1 jam0 end"/>
    </vehicle>

    <vehicle id="high.128" depart="275.00" arrival="309.00">
        <route edges="start jam2 jam1 jam0 end"/>
    </vehicle>

    <vehicle id="high.129" depart="277.00" arrival="311.00">
        <route edges="start jam2 jam1 jam0 end"/>
    </vehicle>

    <vehicle id="high.130" depart="279.00" arrival="313.00">
        <route edges="start jam2 jam1 jam0 end"/>
    </vehicle>

    <vehicle id="high.131" depart="281.00" arrival="315.00">
        <route edges="start jam2 jam1 jam0 end"/>
    </vehicle>

    <vehicle id="high.132" depart="283.00" arrival="317.00">
        <route edges="start jam2 jam1 jam0 end"/>
    </vehicle>

    <vehicle id="high.133" depart="285.00" arrival="319.00">
        <route edges="start jam2 jam1 jam0 end"/>
    </vehicle>

    <vehicle id="high.134" depart="287.00" arrival="321.00">
        <route edges="start jam2 jam1 jam0 end"/>
    </vehicle>

    <vehicle id="high.135" depart="289.00" arrival="323.00">
        <route edges="start jam2 jam1 jam0 end"/>
    </vehicle>

    <vehicle id="high.136" depart="291.00" arrival="325.00">
        <route edges="start jam2 jam1 jam0 end"/>
    </vehicle>

    <vehicle id="high.137" depart="293.00" arrival="327.00">
        <route edges="start jam2 jam1 jam0 end"/>
    </vehicle>

    <vehicle id="high.138" depart="295.00" arrival="329.00">
        <route edges="start jam2 jam1 jam0 end"/>
    </vehicle>

    <vehicle id="high.139" depart="297.00" arrival="331.00">
        <route edges="start jam2 jam1 jam0 end"/>
    </vehicle>

    <vehicle id="high.140" depart="299.00" arrival="333.00">
        <route edges="start jam2 jam1 jam0 end"/>
    </vehicle>

    <vehicle id="high.141" depart="301.00" arrival="335.00">
        <route edges="start jam2 jam1 jam0 end"/>
    </vehicle>

    <vehicle id="high.142" depart="303.00" arrival="337.00">
        <route edges="start jam2 jam1 jam0 end"/>
    </vehicle>

    <vehicle id="high.143" depart="305.00" arrival="339.00">
        <route edges="start jam2 jam1 jam0 end"/>
    </vehicle>

    <vehicle id="high.144" depart="307.00" arrival="341.00">
        <route edges="start jam2 jam1 jam0 end"/>
    </vehicle>

    <vehicle id="high.145" depart="309.00" arrival="343.00">
        <route edges="start jam2 jam1 jam0 end"/>
    </vehicle>

    <vehicle id="high.146" depart="311.00" arrival="345.00">
        <route edges="start jam2 jam1 jam0 end"/>
    </vehicle>

    <vehicle id="high.147" depart="313.00" arrival="347.00">
        <route edges="start jam2 jam1 jam0 end"/>
    </vehicle>

    <vehicle id="high.148" depart="315.00" arrival="349.00">
        <route edges="start jam2 jam1 jam0 end"/>
    </vehicle>

    <vehicle id="high.149" depart="317.00" arrival="351.00">
        <route edges="start jam2 jam1 jam0 end"/>
    </vehicle>

    <vehicle id="high.150" depart="319.00" arrival="353.00">
        <route edges="start jam2 jam1 jam0 end"/>
    </vehicle>

    <vehicle id="high.151" depart="321.00" arrival="355.00">
        <route edges="start jam2 jam1 jam0 end"/>
    </vehicle>

    <vehicle id="high.152" depart="323.00" arrival="357.00">
        <route edges="start jam2 jam1 jam0 end"/>
    </vehicle>

    <vehicle id="high.153" depart="325.00" arrival="359.00">
        <route edges="start jam2 jam1 jam0 end"/>
    </vehicle>

    <vehicle id="high.154" depart="327.00" arrival="361.00">
        <route edges="start jam2 jam1 jam0 end"/>
    </vehicle>

    <vehicle id="high.155" depart="329.00" arrival="363.00">
        <route edges="start jam2 jam1 jam0 end"/>
    </vehicle>

    <vehicle id="high.156" depart="331.00" arrival="365.00">
        <route edges="start jam2 jam1 jam0 end"/>
    </vehicle>

    <vehicle id="high.157" depart="333.00" arrival="367.00">
        <route edges="start jam2 jam1 jam0 end"/>
    </vehicle>

    <vehicle id="high.158" depart="335.00" arrival="369.00">
        <route edges="start jam2 jam1 jam0 end"/>
    </vehicle>

    <vehicle id="high.159" depart="337.00" arrival="371.00">
        <route edges="start jam2 jam1 jam0 end"/>
    </vehicle>

    <vehicle id="high.160" depart="339.00" arrival="373.00">
        <route edges="start jam2 jam1 jam0 end"/>
    </vehicle>

    <vehicle id="high.161" depart="341.00" arrival="375.00">
        <route edges="start jam2 jam1 jam0 end"/>
    </vehicle>

    <vehicle id="high.162" depart="343.00" arrival="377.00">
        <route edges="start jam2 jam1 jam0 end"/>
    </vehicle>

    <vehicle id="high.163" depart="345.00" arrival="379.00">
        <route edges="start jam2 jam1 jam0 end"/>
    </vehicle>

    <vehicle id="high.164" depart="347.00" arrival="381.00">
        <route edges="start jam2 jam1 jam0 end"/>
    </vehicle>

    <vehicle id="high.165" depart="349.00" arrival="383.00">
        <route edges="start jam2 jam1 jam0 end"/>
    </vehicle>

    <vehicle id="high.166" depart="351.00" arrival="385.00">
        <route edges="start jam2 jam1 jam0 end"/>
    </vehicle>

    <vehicle id="high.167" depart="353.00" arrival="387.00">
        <route edges="start jam2 jam1 jam0 end"/>
    </vehicle>

    <vehicle id="high.168" depart="355.00" arrival="389.00">
        <route edges="start jam2 jam1 jam0 end"/>
    </vehicle>

    <vehicle id="high.169" depart="357.00" arrival="391.00">
        <route edges="start jam2 jam1 jam0 end"/>
    </vehicle>

    <vehicle id="high.170" depart="359.00" arrival="393.00">
        <route edges="start jam2 jam1 jam0 end"/>
    </vehicle>

    <vehicle id="high.171" depart="361.00" arrival="395.00">
        <route edges="start jam2 jam1 jam0 end"/>
    </vehicle>

    <vehicle id="high.172" depart="363.00" arrival="397.00">
        <route edges="start jam2 jam1 jam0 end"/>
    </vehicle>

    <vehicle id="high.173" depart="365.00" arrival="399.00">
        <route edges="start jam2 jam1 jam0 end"/>
    </vehicle>

    <vehicle id="high.174" depart="367.00" arrival="401.00">
        <route edges="start jam2 jam1 jam0 end"/>
    </vehicle>

    <vehicle id="high.175" depart="369.00" arrival="403.00">
        <route edges="start jam2 jam1 jam0 end"/>
    </vehicle>

    <vehicle id="high.176" depart="371.00" arrival="405.00">
        <route edges="start jam2 jam1 jam0 end"/>
    </vehicle>

    <vehicle id="high.177" depart="373.00" arrival="407.00">
        <route edges="start jam2 jam1 jam0 end"/>
    </vehicle>

    <vehicle id="high.178" depart="375.00" arrival="409.00">
        <route edges="start jam2 jam1 jam0 end"/>
    </vehicle>

    <vehicle id="high.179" depart="377.00" arrival="411.00">
        <route edges="start jam2 jam1 jam0 end"/>
    </vehicle>

    <vehicle id="high.180" depart="379.00" arrival="413.00">
        <route edges="start jam2 jam1 jam0 end"/>
    </vehicle>

    <vehicle id="high.181" depart="381.00" arrival="415.00">
        <route edges="start jam2 jam1 jam0 end"/>
    </vehicle>

    <vehicle id="high.182" depart="383.00" arrival="417.00">
        <route edges="start jam2 jam1 jam0 end"/>
    </vehicle>

    <vehicle id="high.183" depart="385.00" arrival="419.00">
        <route edges="start jam2 jam1 jam0 end"/>
    </vehicle>

    <vehicle id="high.184" depart="387.00" arrival="421.00">
        <route edges="start jam2 jam1 jam0 end"/>
    </vehicle>

    <vehicle id="high.185" depart="389.00" arrival="423.00">
        <route edges="start jam2 jam1 jam0 end"/>
    </vehicle>

    <vehicle id="high.186" depart="391.00" arrival="425.00">
        <route edges="start jam2 jam1 jam0 end"/>
    </vehicle>

    <vehicle id="high.187" depart="393.00" arrival="427.00">
        <route edges="start jam2 jam1 jam0 end"/>
    </vehicle>

    <vehicle id="high.188" depart="395.00" arrival="429.00">
        <route edges="start jam2 jam1 jam0 end"/>
    </vehicle>

    <vehicle id="high.189" depart="397.00" arrival="431.00">
        <route edges="start jam2 jam1 jam0 end"/>
    </vehicle>

    <vehicle id="high.190" depart="399.00" arrival="433.00">
        <route edges="start jam2 jam1 jam0 end"/>
    </vehicle>

    <vehicle id="high.191" depart="401.00" arrival="435.00">
        <route edges="start jam2 jam1 jam0 end"/>
    </vehicle>

    <vehicle id="high.192" depart="403.00" arrival="437.00">
        <route edges="start jam2 jam1 jam0 end"/>
    </vehicle>

    <vehicle id="high.193" depart="405.00" arrival="439.00">
        <route edges="start jam2 jam1 jam0 end"/>
    </vehicle>

    <vehicle id="high.194" depart="407.00" arrival="441.00">
        <route edges="start jam2 jam1 jam0 end"/>
    </vehicle>

    <vehicle id="high.195" depart="409.00" arrival="443.00">
        <route edges="start jam2 jam1 jam0 end"/>
    </vehicle>

    <vehicle id="high.196" depart="411.00" arrival="445.00">
        <route edges="start jam2 jam1 jam0 end"/>
    </vehicle>

    <vehicle id="high.197" depart="413.00" arrival="447.00">
        <route edges="start jam2 jam1 jam0 end"/>
    </vehicle>

    <vehicle id="high.198" depart="415.00" arrival="449.00">
        <route edges="start jam2 jam1 jam0 end"/>
    </vehicle>

    <vehicle id="high.199" depart="417.00" arrival="451.00">
        <route edges="start jam2 jam1 jam0 end"/>
    </vehicle>

    <vehicle id="high.200" depart="419.00" arrival="453.00">
        <route edges="start jam2 jam1 jam0 end"/>
    </vehicle>

    <vehicle id="high.201" depart="421.00" arrival="455.00">
        <route edges="start jam2 jam1 jam0 end"/>
    </vehicle>

    <vehicle id="high.202" depart="423.00" arrival="457.00">
        <route edges="start jam2 jam1 jam0 end"/>
    </vehicle>

    <vehicle id="high.203" depart="425.00" arrival="459.00">
        <route edges="start jam2 jam1 jam0 end"/>
    </vehicle>

    <vehicle id="high.204" depart="427.00" arrival="461.00">
        <route edges="start jam2 jam1 jam0 end"/>
    </vehicle>

    <vehicle id="high.205" depart="429.00" arrival="463.00">
        <route edges="start jam2 jam1 jam0 end"/>
    </vehicle>

    <vehicle id="high.206" depart="431.00" arrival="465.00">
        <route edges="start jam2 jam1 jam0 end"/>
    </vehicle>

    <vehicle id="high.207" depart="433.00" arrival="467.00">
        <route edges="start jam2 jam1 jam0 end"/>
    </vehicle>

    <vehicle id="high.208" depart="435.00" arrival="469.00">
        <route edges="start jam2 jam1 jam0 end"/>
    </vehicle>

    <vehicle id="high.209" depart="437.00" arrival="471.00">
        <route edges="start jam2 jam1 jam0 end"/>
    </vehicle>

    <vehicle id="high.210" depart="439.00" arrival="473.00">
        <route edges="start jam2 jam1 jam0 end"/>
    </vehicle>

    <vehicle id="high.211" depart="441.00" arrival="475.00">
        <route edges="start jam2 jam1 jam0 end"/>
    </vehicle>

    <vehicle id="high.212" depart="443.00" arrival="477.00">
        <route edges="start jam2 jam1 jam0 end"/>
    </vehicle>

    <vehicle id="high.213" depart="445.00" arrival="479.00">
        <route edges="start jam2 jam1 jam0 end"/>
    </vehicle>

    <vehicle id="high.214" depart="447.00" arrival="481.00">
        <route edges="start jam2 jam1 jam0 end"/>
    </vehicle>

    <vehicle id="high.215" depart="449.00" arrival="483.00">
        <route edges="start jam2 jam1 jam0 end"/>
    </vehicle>

    <vehicle id="high.216" depart="451.00" arrival="485.00">
        <route edges="start jam2 jam1 jam0 end"/>
    </vehicle>

    <vehicle id="high.217" depart="453.00" arrival="487.00">
        <route edges="start jam2 jam1 jam0 end"/>
    </vehicle>

    <vehicle id="high.218" depart="455.00" arrival="489.00">
        <route edges="start jam2 jam1 jam0 end"/>
    </vehicle>

    <vehicle id="high.219" depart="457.00" arrival="491.00">
        <route edges="start jam2 jam1 jam0 end"/>
    </vehicle>

    <vehicle id="high.220" depart="459.00" arrival="493.00">
        <route edges="start jam2 jam1 jam0 end"/>
    </vehicle>

    <vehicle id="high.221" depart="461.00" arrival="495.00">
        <route edges="start jam2 jam1 jam0 end"/>
    </vehicle>

    <vehicle id="high.222" depart="463.00" arrival="497.00">
        <route edges="start jam2 jam1 jam0 end"/>
    </vehicle>

    <vehicle id="high.223" depart="465.00" arrival="499.00">
        <route edges="start jam2 jam1 jam0 end"/>
    </vehicle>

    <vehicle id="high.224" depart="467.00" arrival="501.00">
        <route edges="start jam2 jam1 jam0 end"/>
    </vehicle>

    <vehicle id="high.225" depart="469.00" arrival="503.00">
        <route edges="start jam2 jam1 jam0 end"/>
    </vehicle>

    <vehicle id="high.226" depart="471.00" arrival="505.00">
        <route edges="start jam2 jam1 jam0 end"/>
    </vehicle>

    <vehicle id="high.227" depart="473.00" arrival="507.00">
        <route edges="start jam2 jam1 jam0 end"/>
    </vehicle>

    <vehicle id="high.228" depart="475.00" arrival="509.00">
        <route edges="start jam2 jam1 jam0 end"/>
    </vehicle>

    <vehicle id="high.229" depart="477.00" arrival="511.00">
        <route edges="start jam2 jam1 jam0 end"/>
    </vehicle>

    <vehicle id="high.230" depart="479.00" arrival="513.00">