<?xml version="1.0" encoding="UTF-8"?>

<!-- generated on Wed May 30 09:51:59 2018 by Eclipse SUMO Version b2daee9
This data file and the accompanying materials
are made available under the terms of the Eclipse Public License v2.0
which accompanies this distribution, and is available at
http://www.eclipse.org/legal/epl-v20.html
SPDX-License-Identifier: EPL-2.0
<configuration xmlns:xsi="http://www.w3.org/2001/XMLSchema-instance" xsi:noNamespaceSchemaLocation="http://sumo.dlr.de/xsd/sumoConfiguration.xsd">

    <input>
        <net-file value="net.net.xml"/>
        <route-files value="input_routes.rou.xml"/>
    </input>

    <output>
        <write-license value="true"/>
        <fcd-output value="fcd.xml"/>
    </output>

    <time>
        <step-length value="0.5"/>
    </time>

    <processing>
        <lateral-resolution value="0.5"/>
        <pedestrian.model value="striping"/>
        <pedestrian.striping.dawdling value="0"/>
    </processing>

    <report>
        <xml-validation value="never"/>
        <no-step-log value="true"/>
    </report>

    <gui_only>
        <tracker-interval value="0.5"/>
    </gui_only>

</configuration>
-->

<fcd-export xmlns:xsi="http://www.w3.org/2001/XMLSchema-instance" xsi:noNamespaceSchemaLocation="http://sumo.dlr.de/xsd/fcd_file.xsd">
    <timestep time="0.00">
        <person id="person" x="0.00" y="-6.23" angle="90.00" speed="0.00" pos="0.00" edge="e1" slope="0.00"/>
    </timestep>
    <timestep time="0.50">
        <person id="person" x="0.69" y="-6.23" angle="90.00" speed="1.39" pos="0.69" edge="e1" slope="0.00"/>
    </timestep>
    <timestep time="1.00">
        <person id="person" x="1.39" y="-6.23" angle="90.00" speed="1.39" pos="1.39" edge="e1" slope="0.00"/>
    </timestep>
    <timestep time="1.50">
        <person id="person" x="2.08" y="-6.23" angle="90.00" speed="1.39" pos="2.08" edge="e1" slope="0.00"/>
    </timestep>
    <timestep time="2.00">
        <person id="person" x="2.78" y="-6.23" angle="90.00" speed="1.39" pos="2.78" edge="e1" slope="0.00"/>
    </timestep>
    <timestep time="2.50">
        <person id="person" x="3.47" y="-6.23" angle="90.00" speed="1.39" pos="3.47" edge="e1" slope="0.00"/>
    </timestep>
    <timestep time="3.00">
        <person id="person" x="4.17" y="-6.23" angle="90.00" speed="1.39" pos="4.17" edge="e1" slope="0.00"/>
    </timestep>
    <timestep time="3.50">
        <person id="person" x="4.86" y="-6.23" angle="90.00" speed="1.39" pos="4.86" edge="e1" slope="0.00"/>
    </timestep>
    <timestep time="4.00">
        <person id="person" x="5.56" y="-6.23" angle="90.00" speed="1.39" pos="5.56" edge="e1" slope="0.00"/>
    </timestep>
    <timestep time="4.50">
        <person id="person" x="6.25" y="-6.23" angle="90.00" speed="1.39" pos="6.25" edge="e1" slope="0.00"/>
    </timestep>
    <timestep time="5.00">
        <person id="person" x="6.94" y="-6.23" angle="90.00" speed="1.39" pos="6.94" edge="e1" slope="0.00"/>
    </timestep>
    <timestep time="5.50">
        <person id="person" x="7.64" y="-6.23" angle="90.00" speed="1.39" pos="7.64" edge="e1" slope="0.00"/>
    </timestep>
    <timestep time="6.00">
        <person id="person" x="8.33" y="-6.23" angle="90.00" speed="1.39" pos="8.33" edge="e1" slope="0.00"/>
    </timestep>
    <timestep time="6.50">
        <person id="person" x="9.03" y="-6.23" angle="90.00" speed="1.39" pos="9.03" edge="e1" slope="0.00"/>
    </timestep>
    <timestep time="7.00">
        <person id="person" x="9.72" y="-6.23" angle="90.00" speed="1.39" pos="9.72" edge="e1" slope="0.00"/>
    </timestep>
    <timestep time="7.50">
        <person id="person" x="10.42" y="-6.23" angle="90.00" speed="1.39" pos="10.42" edge="e1" slope="0.00"/>
    </timestep>
    <timestep time="8.00">
        <person id="person" x="11.11" y="-6.23" angle="90.00" speed="1.39" pos="11.11" edge="e1" slope="0.00"/>
    </timestep>
    <timestep time="8.50">
        <person id="person" x="11.81" y="-6.23" angle="90.00" speed="1.39" pos="11.81" edge="e1" slope="0.00"/>
    </timestep>
    <timestep time="9.00">
        <person id="person" x="12.50" y="-6.23" angle="90.00" speed="1.39" pos="12.50" edge="e1" slope="0.00"/>
    </timestep>
    <timestep time="9.50">
        <person id="person" x="13.19" y="-6.23" angle="90.00" speed="1.39" pos="13.19" edge="e1" slope="0.00"/>
    </timestep>
    <timestep time="10.00">
        <person id="person" x="13.89" y="-6.23" angle="90.00" speed="1.39" pos="13.89" edge="e1" slope="0.00"/>
    </timestep>
    <timestep time="10.50">
        <person id="person" x="14.58" y="-6.23" angle="90.00" speed="1.39" pos="14.58" edge="e1" slope="0.00"/>
    </timestep>
    <timestep time="11.00">
        <person id="person" x="15.28" y="-6.23" angle="90.00" speed="1.39" pos="15.28" edge="e1" slope="0.00"/>
    </timestep>
    <timestep time="11.50">
        <person id="person" x="15.97" y="-6.23" angle="90.00" speed="1.39" pos="15.97" edge="e1" slope="0.00"/>
    </timestep>
    <timestep time="12.00">
        <person id="person" x="16.67" y="-6.23" angle="90.00" speed="1.39" pos="16.67" edge="e1" slope="0.00"/>
    </timestep>
    <timestep time="12.50">
        <person id="person" x="17.36" y="-6.23" angle="90.00" speed="1.39" pos="17.36" edge="e1" slope="0.00"/>
    </timestep>
    <timestep time="13.00">
        <person id="person" x="18.06" y="-6.23" angle="90.00" speed="1.39" pos="18.06" edge="e1" slope="0.00"/>
    </timestep>
    <timestep time="13.50">
        <person id="person" x="18.75" y="-6.23" angle="90.00" speed="1.39" pos="18.75" edge="e1" slope="0.00"/>
    </timestep>
    <timestep time="14.00">
        <person id="person" x="19.44" y="-6.23" angle="90.00" speed="1.39" pos="19.44" edge="e1" slope="0.00"/>
    </timestep>
    <timestep time="14.50">
        <person id="person" x="20.14" y="-6.23" angle="90.00" speed="1.39" pos="20.14" edge="e1" slope="0.00"/>
    </timestep>
    <timestep time="15.00">
        <vehicle id="car.0" x="5.10" y="-4.95" angle="90.00" type="car" speed="0.00" pos="5.10" lane="e1_0" slope="0.00"/>
        <person id="person" x="20.83" y="-6.23" angle="90.00" speed="1.39" pos="20.83" edge="e1" slope="0.00"/>
    </timestep>
    <timestep time="15.50">
        <vehicle id="car.0" x="5.75" y="-4.95" angle="90.00" type="car" speed="1.30" pos="5.75" lane="e1_0" slope="0.00"/>
        <person id="person" x="21.53" y="-6.23" angle="90.00" speed="1.39" pos="21.53" edge="e1" slope="0.00"/>
    </timestep>
    <timestep time="16.00">
        <vehicle id="car.0" x="7.05" y="-4.70" angle="87.73" type="car" speed="2.60" pos="7.05" lane="e1_0" slope="0.00"/>
        <person id="person" x="22.22" y="-6.23" angle="90.00" speed="1.39" pos="22.22" edge="e1" slope="0.00"/>
    </timestep>
    <timestep time="16.50">
        <vehicle id="car.0" x="9.00" y="-4.50" angle="88.35" type="car" speed="3.90" pos="9.00" lane="e1_0" slope="0.00"/>
        <person id="person" x="22.92" y="-6.23" angle="90.00" speed="1.39" pos="22.92" edge="e1" slope="0.00"/>
    </timestep>
    <timestep time="17.00">
        <vehicle id="car.0" x="11.60" y="-4.50" angle="90.00" type="car" speed="5.20" pos="11.60" lane="e1_0" slope="0.00"/>
        <person id="person" x="23.61" y="-6.23" angle="90.00" speed="1.39" pos="23.61" edge="e1" slope="0.00"/>
    </timestep>
    <timestep time="17.50">
        <vehicle id="car.0" x="14.85" y="-4.50" angle="90.00" type="car" speed="6.50" pos="14.85" lane="e1_0" slope="0.00"/>
        <person id="person" x="24.31" y="-6.23" angle="90.00" speed="1.39" pos="24.31" edge="e1" slope="0.00"/>
    </timestep>
    <timestep time="18.00">
        <vehicle id="car.0" x="18.75" y="-4.50" angle="90.00" type="car" speed="7.80" pos="18.75" lane="e1_0" slope="0.00"/>
        <person id="person" x="25.00" y="-6.23" angle="90.00" speed="1.39" pos="25.00" edge="e1" slope="0.00"/>
    </timestep>
    <timestep time="18.50">
        <vehicle id="car.0" x="23.30" y="-4.50" angle="90.00" type="car" speed="9.10" pos="23.30" lane="e1_0" slope="0.00"/>
        <person id="person" x="25.69" y="-6.23" angle="90.00" speed="1.39" pos="25.69" edge="e1" slope="0.00"/>
    </timestep>
    <timestep time="19.00">
        <vehicle id="car.0" x="28.50" y="-4.50" angle="90.00" type="car" speed="10.40" pos="28.50" lane="e1_0" slope="0.00"/>
        <person id="person" x="26.39" y="-6.23" angle="90.00" speed="1.39" pos="26.39" edge="e1" slope="0.00"/>
    </timestep>
    <timestep time="19.50">
        <vehicle id="car.0" x="34.35" y="-4.50" angle="90.00" type="car" speed="11.70" pos="34.35" lane="e1_0" slope="0.00"/>
        <person id="person" x="27.08" y="-6.23" angle="90.00" speed="1.39" pos="27.08" edge="e1" slope="0.00"/>
    </timestep>
    <timestep time="20.00">
        <vehicle id="car.0" x="40.85" y="-4.50" angle="90.00" type="car" speed="13.00" pos="40.85" lane="e1_0" slope="0.00"/>
        <vehicle id="car.1" x="5.10" y="-4.95" angle="90.00" type="car" speed="0.00" pos="5.10" lane="e1_0" slope="0.00"/>
        <person id="person" x="27.78" y="-6.23" angle="90.00" speed="1.39" pos="27.78" edge="e1" slope="0.00"/>
    </timestep>
    <timestep time="20.50">
        <vehicle id="car.0" x="47.80" y="-4.50" angle="90.00" type="car" speed="13.89" pos="47.80" lane="e1_0" slope="0.00"/>
        <vehicle id="car.1" x="5.75" y="-4.95" angle="90.00" type="car" speed="1.30" pos="5.75" lane="e1_0" slope="0.00"/>
        <person id="person" x="28.47" y="-6.23" angle="90.00" speed="1.39" pos="28.47" edge="e1" slope="0.00"/>
    </timestep>
    <timestep time="21.00">
        <vehicle id="car.0" x="54.64" y="-4.50" angle="90.00" type="car" speed="13.89" pos="4.64" lane="e2_0" slope="0.00"/>
        <vehicle id="car.1" x="7.05" y="-4.70" angle="87.73" type="car" speed="2.60" pos="7.05" lane="e1_0" slope="0.00"/>
        <person id="person" x="29.17" y="-6.23" angle="90.00" speed="1.39" pos="29.17" edge="e1" slope="0.00"/>
    </timestep>
    <timestep time="21.50">
        <vehicle id="car.0" x="61.59" y="-4.50" angle="90.00" type="car" speed="13.89" pos="11.59" lane="e2_0" slope="0.00"/>
        <vehicle id="car.1" x="9.00" y="-4.50" angle="88.35" type="car" speed="3.90" pos="9.00" lane="e1_0" slope="0.00"/>
        <person id="person" x="29.86" y="-6.23" angle="90.00" speed="1.39" pos="29.86" edge="e1" slope="0.00"/>
    </timestep>
    <timestep time="22.00">
        <vehicle id="car.0" x="68.53" y="-4.50" angle="90.00" type="car" speed="13.89" pos="18.53" lane="e2_0" slope="0.00"/>
        <vehicle id="car.1" x="11.60" y="-4.50" angle="90.00" type="car" speed="5.20" pos="11.60" lane="e1_0" slope="0.00"/>
        <person id="person" x="30.56" y="-6.23" angle="90.00" speed="1.39" pos="30.56" edge="e1" slope="0.00"/>
    </timestep>
    <timestep time="22.50">
        <vehicle id="car.0" x="75.47" y="-4.50" angle="90.00" type="car" speed="13.89" pos="25.48" lane="e2_0" slope="0.00"/>
        <vehicle id="car.1" x="14.85" y="-4.50" angle="90.00" type="car" speed="6.50" pos="14.85" lane="e1_0" slope="0.00"/>
        <person id="person" x="31.25" y="-6.23" angle="90.00" speed="1.39" pos="31.25" edge="e1" slope="0.00"/>
    </timestep>
    <timestep time="23.00">
        <vehicle id="car.0" x="82.42" y="-4.50" angle="90.00" type="car" speed="13.89" pos="32.42" lane="e2_0" slope="0.00"/>
        <vehicle id="car.1" x="18.75" y="-4.50" angle="90.00" type="car" speed="7.80" pos="18.75" lane="e1_0" slope="0.00"/>
        <person id="person" x="31.94" y="-6.23" angle="90.00" speed="1.39" pos="31.94" edge="e1" slope="0.00"/>
    </timestep>
    <timestep time="23.50">
        <vehicle id="car.0" x="89.37" y="-4.50" angle="90.00" type="car" speed="13.89" pos="39.37" lane="e2_0" slope="0.00"/>
        <vehicle id="car.1" x="23.30" y="-4.50" angle="90.00" type="car" speed="9.10" pos="23.30" lane="e1_0" slope="0.00"/>
        <person id="person" x="32.64" y="-6.23" angle="90.00" speed="1.39" pos="32.64" edge="e1" slope="0.00"/>
    </timestep>
    <timestep time="24.00">
        <vehicle id="car.0" x="96.31" y="-4.50" angle="90.00" type="car" speed="13.89" pos="46.31" lane="e2_0" slope="0.00"/>
        <vehicle id="car.1" x="28.50" y="-4.50" angle="90.00" type="car" speed="10.40" pos="28.50" lane="e1_0" slope="0.00"/>
        <person id="person" x="33.33" y="-6.23" angle="90.00" speed="1.39" pos="33.33" edge="e1" slope="0.00"/>
    </timestep>
    <timestep time="24.50">
        <vehicle id="car.1" x="34.35" y="-4.50" angle="90.00" type="car" speed="11.70" pos="34.35" lane="e1_0" slope="0.00"/>
        <person id="person" x="34.03" y="-6.23" angle="90.00" speed="1.39" pos="34.03" edge="e1" slope="0.00"/>
    </timestep>
    <timestep time="25.00">
        <vehicle id="car.1" x="40.85" y="-4.50" angle="90.00" type="car" speed="13.00" pos="40.85" lane="e1_0" slope="0.00"/>
        <vehicle id="car.2" x="5.10" y="-4.95" angle="90.00" type="car" speed="0.00" pos="5.10" lane="e1_0" slope="0.00"/>
        <person id="person" x="34.72" y="-6.23" angle="90.00" speed="1.39" pos="34.72" edge="e1" slope="0.00"/>
    </timestep>
    <timestep time="25.50">
        <vehicle id="car.1" x="47.80" y="-4.50" angle="90.00" type="car" speed="13.89" pos="47.80" lane="e1_0" slope="0.00"/>
        <vehicle id="car.2" x="5.75" y="-4.95" angle="90.00" type="car" speed="1.30" pos="5.75" lane="e1_0" slope="0.00"/>
        <person id="person" x="35.42" y="-6.23" angle="90.00" speed="1.39" pos="35.42" edge="e1" slope="0.00"/>
    </timestep>
    <timestep time="26.00">
        <vehicle id="car.1" x="54.64" y="-4.50" angle="90.00" type="car" speed="13.89" pos="4.64" lane="e2_0" slope="0.00"/>
        <vehicle id="car.2" x="7.05" y="-4.95" angle="90.00" type="car" speed="2.60" pos="7.05" lane="e1_0" slope="0.00"/>
        <person id="person" x="36.11" y="-6.23" angle="90.00" speed="1.39" pos="36.11" edge="e1" slope="0.00"/>
    </timestep>
    <timestep time="26.50">
        <vehicle id="car.1" x="61.59" y="-4.50" angle="90.00" type="car" speed="13.89" pos="11.59" lane="e2_0" slope="0.00"/>
        <vehicle id="car.2" x="9.00" y="-4.95" angle="90.00" type="car" speed="3.90" pos="9.00" lane="e1_0" slope="0.00"/>
        <person id="person" x="36.81" y="-6.23" angle="90.00" speed="1.39" pos="36.81" edge="e1" slope="0.00"/>
    </timestep>
    <timestep time="27.00">
        <vehicle id="car.1" x="68.53" y="-4.50" angle="90.00" type="car" speed="13.89" pos="18.53" lane="e2_0" slope="0.00"/>
        <vehicle id="car.2" x="11.60" y="-4.70" angle="88.12" type="car" speed="5.20" pos="11.60" lane="e1_0" slope="0.00"/>
        <person id="person" x="37.50" y="-6.23" angle="90.00" speed="1.39" pos="37.50" edge="e1" slope="0.00"/>
    </timestep>
    <timestep time="27.50">
        <vehicle id="car.1" x="75.47" y="-4.50" angle="90.00" type="car" speed="13.89" pos="25.48" lane="e2_0" slope="0.00"/>
        <vehicle id="car.2" x="14.85" y="-4.50" angle="88.61" type="car" speed="6.50" pos="14.85" lane="e1_0" slope="0.00"/>
        <person id="person" x="38.19" y="-6.23" angle="90.00" speed="1.39" pos="38.19" edge="e1" slope="0.00"/>
    </timestep>
    <timestep time="28.00">
        <vehicle id="car.1" x="82.42" y="-4.50" angle="90.00" type="car" speed="13.89" pos="32.42" lane="e2_0" slope="0.00"/>
        <vehicle id="car.2" x="18.75" y="-4.50" angle="90.00" type="car" speed="7.80" pos="18.75" lane="e1_0" slope="0.00"/>
        <person id="person" x="38.89" y="-6.23" angle="90.00" speed="1.39" pos="38.89" edge="e1" slope="0.00"/>
    </timestep>
    <timestep time="28.50">
        <vehicle id="car.1" x="89.37" y="-4.50" angle="90.00" type="car" speed="13.89" pos="39.37" lane="e2_0" slope="0.00"/>
        <vehicle id="car.2" x="23.30" y="-4.50" angle="90.00" type="car" speed="9.10" pos="23.30" lane="e1_0" slope="0.00"/>
        <person id="person" x="39.58" y="-6.23" angle="90.00" speed="1.39" pos="39.58" edge="e1" slope="0.00"/>
    </timestep>
    <timestep time="29.00">
        <vehicle id="car.1" x="96.31" y="-4.50" angle="90.00" type="car" speed="13.89" pos="46.31" lane="e2_0" slope="0.00"/>
        <vehicle id="car.2" x="28.50" y="-4.50" angle="90.00" type="car" speed="10.40" pos="28.50" lane="e1_0" slope="0.00"/>
        <person id="person" x="40.28" y="-6.23" angle="90.00" speed="1.39" pos="40.28" edge="e1" slope="0.00"/>
    </timestep>
    <timestep time="29.50">
        <vehicle id="car.2" x="34.35" y="-4.50" angle="90.00" type="car" speed="11.70" pos="34.35" lane="e1_0" slope="0.00"/>
        <person id="person" x="40.97" y="-6.23" angle="90.00" speed="1.39" pos="40.97" edge="e1" slope="0.00"/>
    </timestep>
    <timestep time="30.00">
        <vehicle id="car.2" x="40.85" y="-4.50" angle="90.00" type="car" speed="13.00" pos="40.85" lane="e1_0" slope="0.00"/>
        <vehicle id="car.3" x="5.10" y="-4.95" angle="90.00" type="car" speed="0.00" pos="5.10" lane="e1_0" slope="0.00"/>
        <person id="person" x="41.67" y="-6.23" angle="90.00" speed="1.39" pos="41.67" edge="e1" slope="0.00"/>
    </timestep>
    <timestep time="30.50">
        <vehicle id="car.2" x="47.80" y="-4.50" angle="90.00" type="car" speed="13.89" pos="47.80" lane="e1_0" slope="0.00"/>
        <vehicle id="car.3" x="5.75" y="-4.95" angle="90.00" type="car" speed="1.30" pos="5.75" lane="e1_0" slope="0.00"/>
        <person id="person" x="42.36" y="-6.23" angle="90.00" speed="1.39" pos="42.36" edge="e1" slope="0.00"/>
    </timestep>
    <timestep time="31.00">
        <vehicle id="car.2" x="54.64" y="-4.50" angle="90.00" type="car" speed="13.89" pos="4.64" lane="e2_0" slope="0.00"/>
        <vehicle id="car.3" x="7.05" y="-4.95" angle="90.00" type="car" speed="2.60" pos="7.05" lane="e1_0" slope="0.00"/>
        <person id="person" x="43.06" y="-6.23" angle="90.00" speed="1.39" pos="43.06" edge="e1" slope="0.00"/>
    </timestep>
    <timestep time="31.50">
        <vehicle id="car.2" x="61.59" y="-4.50" angle="90.00" type="car" speed="13.89" pos="11.59" lane="e2_0" slope="0.00"/>
        <vehicle id="car.3" x="9.00" y="-4.95" angle="90.00" type="car" speed="3.90" pos="9.00" lane="e1_0" slope="0.00"/>
        <person id="person" x="43.75" y="-6.23" angle="90.00" speed="1.39" pos="43.75" edge="e1" slope="0.00"/>
    </timestep>
    <timestep time="32.00">
        <vehicle id="car.2" x="68.53" y="-4.50" angle="90.00" type="car" speed="13.89" pos="18.53" lane="e2_0" slope="0.00"/>
        <vehicle id="car.3" x="11.60" y="-4.95" angle="90.00" type="car" speed="5.20" pos="11.60" lane="e1_0" slope="0.00"/>
        <person id="person" x="44.44" y="-6.23" angle="90.00" speed="1.39" pos="44.44" edge="e1" slope="0.00"/>
    </timestep>
    <timestep time="32.50">
        <vehicle id="car.2" x="75.47" y="-4.50" angle="90.00" type="car" speed="13.89" pos="25.48" lane="e2_0" slope="0.00"/>
        <vehicle id="car.3" x="14.85" y="-4.95" angle="90.00" type="car" speed="6.50" pos="14.85" lane="e1_0" slope="0.00"/>
        <person id="person" x="45.14" y="-6.23" angle="90.00" speed="1.39" pos="45.14" edge="e1" slope="0.00"/>
    </timestep>
    <timestep time="33.00">
        <vehicle id="car.2" x="82.42" y="-4.50" angle="90.00" type="car" speed="13.89" pos="32.42" lane="e2_0" slope="0.00"/>
        <vehicle id="car.3" x="18.75" y="-4.95" angle="90.00" type="car" speed="7.80" pos="18.75" lane="e1_0" slope="0.00"/>
        <person id="person" x="45.83" y="-6.23" angle="90.00" speed="1.39" pos="45.83" edge="e1" slope="0.00"/>
    </timestep>
    <timestep time="33.50">
        <vehicle id="car.2" x="89.37" y="-4.50" angle="90.00" type="car" speed="13.89" pos="39.37" lane="e2_0" slope="0.00"/>
        <vehicle id="car.3" x="23.30" y="-4.70" angle="88.50" type="car" speed="9.10" pos="23.30" lane="e1_0" slope="0.00"/>
        <person id="person" x="46.53" y="-6.23" angle="90.00" speed="1.39" pos="46.53" edge="e1" slope="0.00"/>
    </timestep>
    <timestep time="34.00">
        <vehicle id="car.2" x="96.31" y="-4.50" angle="90.00" type="car" speed="13.89" pos="46.31" lane="e2_0" slope="0.00"/>
        <vehicle id="car.3" x="28.50" y="-4.50" angle="88.87" type="car" speed="10.40" pos="28.50" lane="e1_0" slope="0.00"/>
        <person id="person" x="47.22" y="-6.23" angle="90.00" speed="1.39" pos="47.22" edge="e1" slope="0.00"/>
    </timestep>
    <timestep time="34.50">
        <vehicle id="car.3" x="34.35" y="-4.50" angle="90.00" type="car" speed="11.70" pos="34.35" lane="e1_0" slope="0.00"/>
        <person id="person" x="47.92" y="-6.23" angle="90.00" speed="1.39" pos="47.92" edge="e1" slope="0.00"/>
    </timestep>
    <timestep time="35.00">
        <vehicle id="car.3" x="40.85" y="-4.50" angle="90.00" type="car" speed="13.00" pos="40.85" lane="e1_0" slope="0.00"/>
        <vehicle id="car.4" x="5.10" y="-4.95" angle="90.00" type="car" speed="0.00" pos="5.10" lane="e1_0" slope="0.00"/>
        <person id="person" x="48.61" y="-6.23" angle="90.00" speed="1.39" pos="48.61" edge="e1" slope="0.00"/>
    </timestep>
    <timestep time="35.50">
        <vehicle id="car.3" x="47.80" y="-4.50" angle="90.00" type="car" speed="13.89" pos="47.80" lane="e1_0" slope="0.00"/>
        <vehicle id="car.4" x="5.75" y="-4.95" angle="90.00" type="car" speed="1.30" pos="5.75" lane="e1_0" slope="0.00"/>
        <person id="person" x="49.31" y="-6.23" angle="90.00" speed="1.39" pos="49.31" edge="e1" slope="0.00"/>
    </timestep>
    <timestep time="36.00">
        <vehicle id="car.3" x="54.64" y="-4.50" angle="90.00" type="car" speed="13.89" pos="4.64" lane="e2_0" slope="0.00"/>
        <vehicle id="car.4" x="7.05" y="-4.95" angle="90.00" type="car" speed="2.60" pos="7.05" lane="e1_0" slope="0.00"/>
        <person id="person" x="50.00" y="-6.23" angle="90.00" speed="1.39" pos="50.00" edge="e1" slope="0.00"/>
    </timestep>
    <timestep time="36.50">
        <vehicle id="car.3" x="61.59" y="-4.50" angle="90.00" type="car" speed="13.89" pos="11.59" lane="e2_0" slope="0.00"/>
        <vehicle id="car.4" x="9.00" y="-4.95" angle="90.00" type="car" speed="3.90" pos="9.00" lane="e1_0" slope="0.00"/>
        <person id="person" x="50.69" y="-6.23" angle="90.00" speed="1.39" pos="0.69" edge="e2" slope="0.00"/>
    </timestep>
    <timestep time="37.00">
        <vehicle id="car.3" x="68.53" y="-4.50" angle="90.00" type="car" speed="13.89" pos="18.53" lane="e2_0" slope="0.00"/>
        <vehicle id="car.4" x="11.60" y="-4.95" angle="90.00" type="car" speed="5.20" pos="11.60" lane="e1_0" slope="0.00"/>
        <person id="person" x="51.39" y="-6.23" angle="90.00" speed="1.39" pos="1.39" edge="e2" slope="0.00"/>
    </timestep>
    <timestep time="37.50">
        <vehicle id="car.3" x="75.47" y="-4.50" angle="90.00" type="car" speed="13.89" pos="25.48" lane="e2_0" slope="0.00"/>
        <vehicle id="car.4" x="14.85" y="-4.95" angle="90.00" type="car" speed="6.50" pos="14.85" lane="e1_0" slope="0.00"/>
        <person id="person" x="52.08" y="-6.23" angle="90.00" speed="1.39" pos="2.08" edge="e2" slope="0.00"/>
    </timestep>
    <timestep time="38.00">
        <vehicle id="car.3" x="82.42" y="-4.50" angle="90.00" type="car" speed="13.89" pos="32.42" lane="e2_0" slope="0.00"/>
        <vehicle id="car.4" x="18.75" y="-4.95" angle="90.00" type="car" speed="7.80" pos="18.75" lane="e1_0" slope="0.00"/>
        <person id="person" x="52.78" y="-6.23" angle="90.00" speed="1.39" pos="2.78" edge="e2" slope="0.00"/>
    </timestep>
    <timestep time="38.50">
        <vehicle id="car.3" x="89.37" y="-4.50" angle="90.00" type="car" speed="13.89" pos="39.37" lane="e2_0" slope="0.00"/>
        <vehicle id="car.4" x="23.30" y="-4.95" angle="90.00" type="car" speed="9.10" pos="23.30" lane="e1_0" slope="0.00"/>
        <person id="person" x="53.47" y="-6.23" angle="90.00" speed="1.39" pos="3.47" edge="e2" slope="0.00"/>
    </timestep>
    <timestep time="39.00">
        <vehicle id="car.3" x="96.31" y="-4.50" angle="90.00" type="car" speed="13.89" pos="46.31" lane="e2_0" slope="0.00"/>
        <vehicle id="car.4" x="28.50" y="-4.95" angle="90.00" type="car" speed="10.40" pos="28.50" lane="e1_0" slope="0.00"/>
        <person id="person" x="54.17" y="-6.23" angle="90.00" speed="1.39" pos="4.17" edge="e2" slope="0.00"/>
    </timestep>
    <timestep time="39.50">
        <vehicle id="car.4" x="34.30" y="-4.95" angle="90.00" type="car" speed="11.61" pos="34.30" lane="e1_0" slope="0.00"/>
        <person id="person" x="54.86" y="-6.23" angle="90.00" speed="1.39" pos="4.86" edge="e2" slope="0.00"/>
    </timestep>
    <timestep time="40.00">
        <vehicle id="car.4" x="39.28" y="-4.95" angle="90.00" type="car" speed="9.96" pos="39.28" lane="e1_0" slope="0.00"/>
        <vehicle id="car.5" x="5.10" y="-4.95" angle="90.00" type="car" speed="0.00" pos="5.10" lane="e1_0" slope="0.00"/>
        <person id="person" x="55.56" y="-6.23" angle="90.00" speed="1.39" pos="5.56" edge="e2" slope="0.00"/>
    </timestep>
    <timestep time="40.50">
        <vehicle id="car.4" x="43.50" y="-4.95" angle="90.00" type="car" speed="8.44" pos="43.50" lane="e1_0" slope="0.00"/>
        <vehicle id="car.5" x="5.75" y="-4.95" angle="90.00" type="car" speed="1.30" pos="5.75" lane="e1_0" slope="0.00"/>
        <person id="person" x="56.25" y="-6.23" angle="90.00" speed="1.39" pos="6.25" edge="e2" slope="0.00"/>
    </timestep>
    <timestep time="41.00">
        <vehicle id="car.4" x="47.02" y="-4.95" angle="90.00" type="car" speed="7.03" pos="47.02" lane="e1_0" slope="0.00"/>
        <vehicle id="car.5" x="7.05" y="-4.95" angle="90.00" type="car" speed="2.60" pos="7.05" lane="e1_0" slope="0.00"/>
        <person id="person" x="56.94" y="-6.23" angle="90.00" speed="1.39" pos="6.94" edge="e2" slope="0.00"/>
    </timestep>
    <timestep time="41.50">
        <vehicle id="car.4" x="49.86" y="-4.95" angle="90.00" type="car" speed="5.69" pos="49.86" lane="e1_0" slope="0.00"/>
        <vehicle id="car.5" x="9.00" y="-4.70" angle="87.94" type="car" speed="3.90" pos="9.00" lane="e1_0" slope="0.00"/>
        <person id="person" x="57.64" y="-6.23" angle="90.00" speed="1.39" pos="7.64" edge="e2" slope="0.00"/>
    </timestep>
    <timestep time="42.00">
        <vehicle id="car.4" x="52.07" y="-4.70" angle="88.04" type="car" speed="4.61" pos="2.07" lane="e2_0" slope="0.00"/>
        <vehicle id="car.5" x="11.60" y="-4.70" angle="90.00" type="car" speed="5.20" pos="11.60" lane="e1_0" slope="0.00"/>
        <person id="person" x="58.33" y="-6.23" angle="90.00" speed="1.39" pos="8.33" edge="e2" slope="0.00"/>
    </timestep>
    <timestep time="42.50">
        <vehicle id="car.4" x="55.03" y="-4.50" angle="88.56" type="car" speed="5.91" pos="5.03" lane="e2_0" slope="0.00"/>
        <vehicle id="car.5" x="14.85" y="-4.95" angle="91.74" type="car" speed="6.50" pos="14.85" lane="e1_0" slope="0.00"/>
        <person id="person" x="59.03" y="-6.23" angle="90.00" speed="1.39" pos="9.03" edge="e2" slope="0.00"/>
    </timestep>
    <timestep time="43.00">
        <vehicle id="car.4" x="58.64" y="-4.50" angle="90.00" type="car" speed="7.21" pos="8.64" lane="e2_0" slope="0.00"/>
        <vehicle id="car.5" x="18.75" y="-4.95" angle="90.00" type="car" speed="7.80" pos="18.75" lane="e1_0" slope="0.00"/>
        <person id="person" x="59.72" y="-6.23" angle="90.00" speed="1.39" pos="9.72" edge="e2" slope="0.00"/>
    </timestep>
    <timestep time="43.50">
        <vehicle id="car.4" x="62.89" y="-4.50" angle="90.00" type="car" speed="8.51" pos="12.89" lane="e2_0" slope="0.00"/>
        <vehicle id="car.5" x="23.30" y="-4.95" angle="90.00" type="car" speed="9.10" pos="23.30" lane="e1_0" slope="0.00"/>
        <person id="person" x="60.42" y="-6.23" angle="90.00" speed="1.39" pos="10.42" edge="e2" slope="0.00"/>
    </timestep>
    <timestep time="44.00">
        <vehicle id="car.4" x="67.80" y="-4.50" angle="90.00" type="car" speed="9.81" pos="17.80" lane="e2_0" slope="0.00"/>
        <vehicle id="car.5" x="28.50" y="-4.95" angle="90.00" type="car" speed="10.40" pos="28.50" lane="e1_0" slope="0.00"/>
        <person id="person" x="61.11" y="-6.23" angle="90.00" speed="1.39" pos="11.11" edge="e2" slope="0.00"/>
    </timestep>
    <timestep time="44.50">
        <vehicle id="car.4" x="73.36" y="-4.50" angle="90.00" type="car" speed="11.11" pos="23.36" lane="e2_0" slope="0.00"/>
        <vehicle id="car.5" x="34.35" y="-4.95" angle="90.00" type="car" speed="11.70" pos="34.35" lane="e1_0" slope="0.00"/>
        <person id="person" x="61.81" y="-6.23" angle="90.00" speed="1.39" pos="11.81" edge="e2" slope="0.00"/>
    </timestep>
    <timestep time="45.00">
        <vehicle id="car.4" x="79.56" y="-4.50" angle="90.00" type="car" speed="12.41" pos="29.56" lane="e2_0" slope="0.00"/>
        <vehicle id="car.5" x="40.41" y="-4.95" angle="90.00" type="car" speed="12.12" pos="40.41" lane="e1_0" slope="0.00"/>
        <vehicle id="car.6" x="5.10" y="-4.95" angle="90.00" type="car" speed="0.00" pos="5.10" lane="e1_0" slope="0.00"/>
        <person id="person" x="62.50" y="-6.23" angle="90.00" speed="1.39" pos="12.50" edge="e2" slope="0.00"/>
    </timestep>
    <timestep time="45.50">
        <vehicle id="car.4" x="86.42" y="-4.50" angle="90.00" type="car" speed="13.71" pos="36.42" lane="e2_0" slope="0.00"/>
        <vehicle id="car.5" x="45.65" y="-4.95" angle="90.00" type="car" speed="10.47" pos="45.65" lane="e1_0" slope="0.00"/>
        <vehicle id="car.6" x="5.75" y="-4.95" angle="90.00" type="car" speed="1.30" pos="5.75" lane="e1_0" slope="0.00"/>
        <person id="person" x="63.19" y="-6.23" angle="90.00" speed="1.39" pos="13.19" edge="e2" slope="0.00"/>
    </timestep>
    <timestep time="46.00">
        <vehicle id="car.4" x="93.37" y="-4.50" angle="90.00" type="car" speed="13.89" pos="43.37" lane="e2_0" slope="0.00"/>
        <vehicle id="car.5" x="50.02" y="-4.70" angle="88.49" type="car" speed="8.95" pos="0.02" lane="e2_0" slope="0.00"/>
        <vehicle id="car.6" x="7.05" y="-4.95" angle="90.00" type="car" speed="2.60" pos="7.05" lane="e1_0" slope="0.00"/>