<?xml version="1.0"?>

<!-- generated on 02/24/12 16:43:45 by SUMO sumo Version dev-SVN-r11548
<?xml version="1.0" encoding="UTF-8"?>

<configuration xmlns:xsi="http://www.w3.org/2001/XMLSchema-instance" xsi:noNamespaceSchemaLocation="http://sumo.sf.net/xsd/sumoConfiguration.xsd">

    <input>
        <net-file value="three_split.net.xml"/>
        <route-files value="input_routes.rou.xml"/>
        <additional-files value="input_additional.add.xml"/>
    </input>

    <output>
        <vehroute-output value="vehroutes.xml"/>
    </output>

    <report>
        <no-duration-log value="true"/>
        <no-step-log value="true"/>
    </report>

    <mesoscopic>
        <mesosim value="true"/>
    </mesoscopic>

</configuration>
-->

<routes>
    <vehicle id="veh0" depart="1.00" arrival="91.00">
        <route edges="beg middle end rend"/>
    </vehicle>

    <vehicle id="calibtest.36000.0" depart="36.00" arrival="122.00">
        <route edges="beg middle end rend"/>
    </vehicle>

    <vehicle id="calibtest.54000.1" depart="54.00" arrival="140.00">
        <route edges="beg middle end rend"/>
    </vehicle>

    <vehicle id="calibtest.72000.2" depart="72.00" arrival="158.00">
        <route edges="beg middle end rend"/>
    </vehicle>

    <vehicle id="calibtest.90000.3" depart="90.00" arrival="176.00">
        <route edges="beg middle end rend"/>
    </vehicle>

</routes>
