<?xml version="1.0" encoding="UTF-8"?>

<!-- generated on Thu Mar 26 17:14:03 2015 by SUMO Version dev-SVN-r18156I
<?xml version="1.0" encoding="UTF-8"?>

<configuration xmlns:xsi="http://www.w3.org/2001/XMLSchema-instance" xsi:noNamespaceSchemaLocation="http://sumo.dlr.de/xsd/sumoConfiguration.xsd">

    <input>
        <net-file value="input_net.net.xml"/>
        <load-state value="statep_50.00.sbx"/>
    </input>

    <output>
        <vehroute-output value="vehroutes.xml"/>
    </output>

    <report>
        <no-duration-log value="true"/>
        <no-step-log value="true"/>
    </report>

</configuration>
-->

<routes xmlns:xsi="http://www.w3.org/2001/XMLSchema-instance" xsi:noNamespaceSchemaLocation="http://sumo.dlr.de/xsd/routes_file.xsd">
    <vehicle id="0" depart="0.00" arrival="260.00">
        <route edges="4/1to3/1 3/1to2/1 2/1to1/1 1/1to0/1"/>
    </vehicle>

    <vehicle id="1" depart="5.00" arrival="262.00">
        <route edges="4/1to3/1 3/1to2/1 2/1to1/1 1/1to0/1"/>
    </vehicle>

</routes>
