<?xml version="1.0" encoding="UTF-8"?>

<!-- generated on 2021-11-23 12:57:30 by Eclipse SUMO sumo Version v1_11_0+0012-279bcfd
This data file and the accompanying materials
are made available under the terms of the Eclipse Public License v2.0
which accompanies this distribution, and is available at
http://www.eclipse.org/legal/epl-v20.html
SPDX-License-Identifier: EPL-2.0
<configuration xmlns:xsi="http://www.w3.org/2001/XMLSchema-instance" xsi:noNamespaceSchemaLocation="http://sumo.dlr.de/xsd/sumoConfiguration.xsd">

    <input>
        <net-file value="net.net.xml"/>
        <route-files value="input_routes.rou.xml"/>
        <additional-files value="input_additional.add.xml"/>
    </input>

    <output>
        <write-license value="true"/>
    </output>

    <time>
        <begin value="0"/>
        <end value="150"/>
    </time>

    <processing>
        <default.speeddev value="0"/>
        <pedestrian.model value="nonInteracting"/>
    </processing>

    <report>
        <xml-validation value="never"/>
        <xml-validation.routes value="never"/>
        <duration-log.disable value="true"/>
        <no-step-log value="true"/>
    </report>

    <mesoscopic>
        <mesosim value="true"/>
    </mesoscopic>

</configuration>
-->

<meandata xmlns:xsi="http://www.w3.org/2001/XMLSchema-instance" xsi:noNamespaceSchemaLocation="http://sumo.dlr.de/xsd/meandata_file.xsd">
    <interval begin="0.00" end="150.00" id="dump_900">
        <edge id="0/0to0/1" sampledSeconds="0.00" traveltime="40.00" speed="10.00" speedRelative="1.00" departed="0" arrived="0" entered="0" left="0" laneChangedFrom="0" laneChangedTo="0"/>
        <edge id="0/0to1/0" sampledSeconds="0.00" traveltime="40.00" speed="10.00" speedRelative="1.00" departed="0" arrived="0" entered="0" left="0" laneChangedFrom="0" laneChangedTo="0"/>
        <edge id="0/1to0/0" sampledSeconds="0.00" traveltime="40.00" speed="10.00" speedRelative="1.00" departed="0" arrived="0" entered="0" left="0" laneChangedFrom="0" laneChangedTo="0"/>
        <edge id="0/1to0/2" sampledSeconds="0.00" traveltime="40.00" speed="10.00" speedRelative="1.00" departed="0" arrived="0" entered="0" left="0" laneChangedFrom="0" laneChangedTo="0"/>
        <edge id="0/1to1/1" sampledSeconds="0.00" traveltime="40.00" speed="10.00" speedRelative="1.00" departed="0" arrived="0" entered="0" left="0" laneChangedFrom="0" laneChangedTo="0"/>
        <edge id="0/2to0/1" sampledSeconds="0.00" traveltime="40.00" speed="10.00" speedRelative="1.00" departed="0" arrived="0" entered="0" left="0" laneChangedFrom="0" laneChangedTo="0"/>
        <edge id="0/2to1/2" sampledSeconds="0.00" traveltime="40.00" speed="10.00" speedRelative="1.00" departed="0" arrived="0" entered="0" left="0" laneChangedFrom="0" laneChangedTo="0"/>
        <edge id="1/0to0/0" sampledSeconds="0.00" traveltime="40.00" speed="10.00" speedRelative="1.00" departed="0" arrived="0" entered="0" left="0" laneChangedFrom="0" laneChangedTo="0"/>
        <edge id="1/0to1/1" sampledSeconds="0.00" traveltime="40.00" speed="10.00" speedRelative="1.00" departed="0" arrived="0" entered="0" left="0" laneChangedFrom="0" laneChangedTo="0"/>
        <edge id="1/0to2/0" sampledSeconds="0.00" traveltime="40.00" speed="10.00" speedRelative="1.00" departed="0" arrived="0" entered="0" left="0" laneChangedFrom="0" laneChangedTo="0"/>
        <edge id="1/1to0/1" sampledSeconds="0.00" traveltime="40.00" speed="10.00" speedRelative="1.00" departed="0" arrived="0" entered="0" left="0" laneChangedFrom="0" laneChangedTo="0"/>
        <edge id="1/1to1/0" sampledSeconds="0.00" traveltime="40.00" speed="10.00" speedRelative="1.00" departed="0" arrived="0" entered="0" left="0" laneChangedFrom="0" laneChangedTo="0"/>
        <edge id="1/1to1/2" sampledSeconds="0.00" traveltime="40.00" speed="10.00" speedRelative="1.00" departed="0" arrived="0" entered="0" left="0" laneChangedFrom="0" laneChangedTo="0"/>
        <edge id="1/1to2/1" sampledSeconds="0.00" traveltime="40.00" speed="10.00" speedRelative="1.00" departed="0" arrived="0" entered="0" left="0" laneChangedFrom="0" laneChangedTo="0"/>
        <edge id="1/2to0/2" sampledSeconds="0.00" traveltime="40.00" speed="10.00" speedRelative="1.00" departed="0" arrived="0" entered="0" left="0" laneChangedFrom="0" laneChangedTo="0"/>
        <edge id="1/2to1/1" sampledSeconds="0.00" traveltime="40.00" speed="10.00" speedRelative="1.00" departed="0" arrived="0" entered="0" left="0" laneChangedFrom="0" laneChangedTo="0"/>
        <edge id="1/2to2/2" sampledSeconds="0.00" traveltime="40.00" speed="10.00" speedRelative="1.00" departed="0" arrived="0" entered="0" left="0" laneChangedFrom="0" laneChangedTo="0"/>
        <edge id="2/0to1/0" sampledSeconds="0.00" traveltime="40.00" speed="10.00" speedRelative="1.00" departed="0" arrived="0" entered="0" left="0" laneChangedFrom="0" laneChangedTo="0"/>
        <edge id="2/0to2/1" sampledSeconds="0.00" traveltime="40.00" speed="10.00" speedRelative="1.00" departed="0" arrived="0" entered="0" left="0" laneChangedFrom="0" laneChangedTo="0"/>
        <edge id="2/0to3/0" sampledSeconds="0.00" traveltime="40.00" speed="10.00" speedRelative="1.00" departed="0" arrived="0" entered="0" left="0" laneChangedFrom="0" laneChangedTo="0"/>
        <edge id="2/1to1/1" sampledSeconds="0.00" traveltime="40.00" speed="10.00" speedRelative="1.00" departed="0" arrived="0" entered="0" left="0" laneChangedFrom="0" laneChangedTo="0"/>
        <edge id="2/1to2/0" sampledSeconds="0.00" traveltime="40.00" speed="10.00" speedRelative="1.00" departed="0" arrived="0" entered="0" left="0" laneChangedFrom="0" laneChangedTo="0"/>
        <edge id="2/1to2/2" sampledSeconds="0.00" traveltime="40.00" speed="10.00" speedRelative="1.00" departed="0" arrived="0" entered="0" left="0" laneChangedFrom="0" laneChangedTo="0"/>
        <edge id="2/1to3/1" sampledSeconds="0.00" traveltime="40.00" speed="10.00" speedRelative="1.00" departed="0" arrived="0" entered="0" left="0" laneChangedFrom="0" laneChangedTo="0"/>
        <edge id="2/2to1/2" sampledSeconds="0.00" traveltime="40.00" speed="10.00" speedRelative="1.00" departed="0" arrived="0" entered="0" left="0" laneChangedFrom="0" laneChangedTo="0"/>
        <edge id="2/2to2/1" sampledSeconds="0.00" traveltime="40.00" speed="10.00" speedRelative="1.00" departed="0" arrived="0" entered="0" left="0" laneChangedFrom="0" laneChangedTo="0"/>
        <edge id="2/2to3/2" sampledSeconds="0.00" traveltime="40.00" speed="10.00" speedRelative="1.00" departed="0" arrived="0" entered="0" left="0" laneChangedFrom="0" laneChangedTo="0"/>
        <edge id="3/0to2/0" sampledSeconds="0.00" traveltime="40.00" speed="10.00" speedRelative="1.00" departed="0" arrived="0" entered="0" left="0" laneChangedFrom="0" laneChangedTo="0"/>
        <edge id="3/0to3/1" sampledSeconds="0.00" traveltime="40.00" speed="10.00" speedRelative="1.00" departed="0" arrived="0" entered="0" left="0" laneChangedFrom="0" laneChangedTo="0"/>
        <edge id="3/0to4/0" sampledSeconds="0.00" traveltime="40.00" speed="10.00" speedRelative="1.00" departed="0" arrived="0" entered="0" left="0" laneChangedFrom="0" laneChangedTo="0"/>
        <edge id="3/1to2/1" sampledSeconds="0.00" traveltime="40.00" speed="10.00" speedRelative="1.00" departed="0" arrived="0" entered="0" left="0" laneChangedFrom="0" laneChangedTo="0"/>
        <edge id="3/1to3/0" sampledSeconds="0.00" traveltime="40.00" speed="10.00" speedRelative="1.00" departed="0" arrived="0" entered="0" left="0" laneChangedFrom="0" laneChangedTo="0"/>
        <edge id="3/1to3/2" sampledSeconds="0.00" traveltime="40.00" speed="10.00" speedRelative="1.00" departed="0" arrived="0" entered="0" left="0" laneChangedFrom="0" laneChangedTo="0"/>
        <edge id="3/1to4/1" sampledSeconds="0.00" traveltime="40.00" speed="10.00" speedRelative="1.00" departed="0" arrived="0" entered="0" left="0" laneChangedFrom="0" laneChangedTo="0"/>
        <edge id="3/2to2/2" sampledSeconds="0.00" traveltime="40.00" speed="10.00" speedRelative="1.00" departed="0" arrived="0" entered="0" left="0" laneChangedFrom="0" laneChangedTo="0"/>
        <edge id="3/2to3/1" sampledSeconds="0.00" traveltime="40.00" speed="10.00" speedRelative="1.00" departed="0" arrived="0" entered="0" left="0" laneChangedFrom="0" laneChangedTo="0"/>
        <edge id="3/2to4/2" sampledSeconds="0.00" traveltime="40.00" speed="10.00" speedRelative="1.00" departed="0" arrived="0" entered="0" left="0" laneChangedFrom="0" laneChangedTo="0"/>
        <edge id="4/0to3/0" sampledSeconds="0.00" traveltime="40.00" speed="10.00" speedRelative="1.00" departed="0" arrived="0" entered="0" left="0" laneChangedFrom="0" laneChangedTo="0"/>
        <edge id="4/0to4/1" sampledSeconds="0.00" traveltime="40.00" speed="10.00" speedRelative="1.00" departed="0" arrived="0" entered="0" left="0" laneChangedFrom="0" laneChangedTo="0"/>
        <edge id="4/1to3/1" sampledSeconds="0.00" traveltime="40.00" speed="10.00" speedRelative="1.00" departed="0" arrived="0" entered="0" left="0" laneChangedFrom="0" laneChangedTo="0"/>
        <edge id="4/1to4/0" sampledSeconds="0.00" traveltime="40.00" speed="10.00" speedRelative="1.00" departed="0" arrived="0" entered="0" left="0" laneChangedFrom="0" laneChangedTo="0"/>
        <edge id="4/1to4/2" sampledSeconds="0.00" traveltime="40.00" speed="10.00" speedRelative="1.00" departed="0" arrived="0" entered="0" left="0" laneChangedFrom="0" laneChangedTo="0"/>
        <edge id="4/2to3/2" sampledSeconds="0.00" traveltime="40.00" speed="10.00" speedRelative="1.00" departed="0" arrived="0" entered="0" left="0" laneChangedFrom="0" laneChangedTo="0"/>
        <edge id="4/2to4/1" sampledSeconds="0.00" traveltime="40.00" speed="10.00" speedRelative="1.00" departed="0" arrived="0" entered="0" left="0" laneChangedFrom="0" laneChangedTo="0"/>
    </interval>
</meandata>
