<?xml version="1.0" encoding="UTF-8"?>

<!-- generated on Wed Jan  3 09:20:51 2018 by SUMO Version v0_32_0+0043-24523c2
<?xml version="1.0" encoding="UTF-8"?>

<configuration xmlns:xsi="http://www.w3.org/2001/XMLSchema-instance" xsi:noNamespaceSchemaLocation="http://sumo.dlr.de/xsd/sumoConfiguration.xsd">

    <input>
        <net-file value="net.net.xml"/>
        <additional-files value="input_routes.rou.xml,input_additional.add.xml"/>
    </input>

    <output>
        <tripinfo-output value="tripinfos.xml"/>
    </output>

    <processing>
        <random-depart-offset value="10"/>
    </processing>

    <report>
        <xml-validation value="never"/>
        <duration-log.disable value="true"/>
        <no-step-log value="true"/>
    </report>

</configuration>
-->

<tripinfos xmlns:xsi="http://www.w3.org/2001/XMLSchema-instance" xsi:noNamespaceSchemaLocation="http://sumo.dlr.de/xsd/tripinfo_file.xsd">
    <tripinfo id="2" depart="3.00" departLane="beg_0" departPos="5.10" departSpeed="0.00" departDelay="0.00" arrival="44.00" arrivalLane="end_0" arrivalPos="500.00" arrivalSpeed="27.80" duration="41.00" routeLength="995.00" waitingTime="0.00" stopTime="0.00" timeLoss="4.86" rerouteNo="0" devices="tripinfo_2" vType="DEFAULT_VEHTYPE" speedFactor="1.00" vaporized=""/>
    <tripinfo id="3" depart="7.00" departLane="beg_1" departPos="5.10" departSpeed="0.00" departDelay="0.00" arrival="48.00" arrivalLane="end_1" arrivalPos="500.00" arrivalSpeed="27.80" duration="41.00" routeLength="995.00" waitingTime="0.00" stopTime="0.00" timeLoss="4.86" rerouteNo="0" devices="tripinfo_3" vType="DEFAULT_VEHTYPE" speedFactor="1.00" vaporized=""/>
    <tripinfo id="1" depart="10.00" departLane="beg_2" departPos="5.10" departSpeed="0.00" departDelay="0.00" arrival="51.00" arrivalLane="end_2" arrivalPos="500.00" arrivalSpeed="27.80" duration="41.00" routeLength="995.00" waitingTime="0.00" stopTime="0.00" timeLoss="4.86" rerouteNo="0" devices="tripinfo_1" vType="DEFAULT_VEHTYPE" speedFactor="1.00" vaporized=""/>
    <tripinfo id="flow.0" depart="22.00" departLane="beg_0" departPos="5.10" departSpeed="0.00" departDelay="0.00" arrival="63.00" arrivalLane="end_0" arrivalPos="500.00" arrivalSpeed="27.80" duration="41.00" routeLength="995.00" waitingTime="0.00" stopTime="0.00" timeLoss="4.86" rerouteNo="0" devices="tripinfo_flow.0" vType="DEFAULT_VEHTYPE" speedFactor="1.00" vaporized=""/>
    <tripinfo id="flow.1" depart="40.00" departLane="beg_1" departPos="5.10" departSpeed="0.00" departDelay="0.00" arrival="81.00" arrivalLane="end_0" arrivalPos="500.00" arrivalSpeed="27.80" duration="41.00" routeLength="995.00" waitingTime="0.00" stopTime="0.00" timeLoss="4.86" rerouteNo="0" devices="tripinfo_flow.1" vType="DEFAULT_VEHTYPE" speedFactor="1.00" vaporized=""/>
    <tripinfo id="flow.2" depart="48.00" departLane="beg_0" departPos="5.10" departSpeed="0.00" departDelay="0.00" arrival="89.00" arrivalLane="end_0" arrivalPos="500.00" arrivalSpeed="27.80" duration="41.00" routeLength="995.00" waitingTime="0.00" stopTime="0.00" timeLoss="4.86" rerouteNo="0" devices="tripinfo_flow.2" vType="DEFAULT_VEHTYPE" speedFactor="1.00" vaporized=""/>
</tripinfos>
