<?xml version="1.0" encoding="UTF-8"?>

<!-- generated on 2026-04-07T14:20:59.923851+01:00 by Eclipse SUMO sumo v1_26_0+1007-b942728ab9d
This data file and the accompanying materials
are made available under the terms of the Eclipse Public License v2.0
which accompanies this distribution, and is available at
http://www.eclipse.org/legal/epl-v20.html
This file may also be made available under the following Secondary
Licenses when the conditions for such availability set forth in the Eclipse
Public License 2.0 are satisfied: GNU General Public License, version 2
or later which is available at
https://www.gnu.org/licenses/old-licenses/gpl-2.0-standalone.html
SPDX-License-Identifier: EPL-2.0 OR GPL-2.0-or-later
<sumoConfiguration xmlns:xsi="http://www.w3.org/2001/XMLSchema-instance" xsi:noNamespaceSchemaLocation="http://sumo.dlr.de/xsd/sumoConfiguration.xsd">

    <input>
        <net-file value="net.net.xml"/>
        <route-files value="input_routes.rou.xml"/>
    </input>

    <output>
        <write-license value="true"/>
        <tripinfo-output value="tripinfos.xml"/>
        <railsignal-block-output value="railsignal_blocks.xml"/>
        <deadlock-output value="deadlocks.xml"/>
    </output>

    <processing>
        <time-to-teleport value="-1"/>
        <time-to-teleport.railsignal-deadlock value="5"/>
        <default.speeddev value="0"/>
    </processing>

    <report>
        <xml-validation value="never"/>
        <duration-log.disable value="true"/>
        <no-step-log value="true"/>
    </report>

</sumoConfiguration>
-->

<tripinfos xmlns:xsi="http://www.w3.org/2001/XMLSchema-instance" xsi:noNamespaceSchemaLocation="http://sumo.dlr.de/xsd/tripinfo_file.xsd">
    <tripinfo id="t1" depart="0.00" departLane="-h_0" departPos="50.10" departSpeed="13.89" departDelay="0.00" arrival="194.00" arrivalLane="-a_0" arrivalPos="100.00" arrivalSpeed="13.00" duration="194.00" routeLength="1732.25" waitingTime="11.00" waitingCount="1" stopTime="20.00" timeLoss="30.38" rerouteNo="1" devices="tripinfo_t1 routing_t1" vType="train" speedFactor="1.00" vaporized=""/>
    <tripinfo id="t0" depart="0.00" departLane="a_0" departPos="50.10" departSpeed="13.89" departDelay="0.00" arrival="208.00" arrivalLane="h_0" arrivalPos="100.00" arrivalSpeed="13.89" duration="208.00" routeLength="1650.42" waitingTime="37.00" waitingCount="1" stopTime="20.00" timeLoss="63.87" rerouteNo="1" devices="tripinfo_t0 routing_t0" vType="train" speedFactor="1.00" vaporized=""/>
    <tripinfo id="t3" depart="208.00" departLane="-h_0" departPos="50.10" departSpeed="10.74" departDelay="188.00" arrival="393.00" arrivalLane="-a_0" arrivalPos="100.00" arrivalSpeed="13.00" duration="185.00" routeLength="1732.25" waitingTime="0.00" waitingCount="0" stopTime="20.00" timeLoss="1.76" rerouteNo="1" devices="tripinfo_t3 routing_t3" vType="train" speedFactor="1.00" vaporized=""/>
    <tripinfo id="t2" depart="20.00" departLane="a_0" departPos="50.10" departSpeed="10.74" departDelay="0.00" arrival="417.00" arrivalLane="h_0" arrivalPos="100.00" arrivalSpeed="13.89" duration="397.00" routeLength="1650.42" waitingTime="194.00" waitingCount="2" stopTime="20.00" timeLoss="226.76" rerouteNo="1" devices="tripinfo_t2 routing_t2" vType="train" speedFactor="1.00" vaporized=""/>
</tripinfos>
