<?xml version="1.0"?>

<!-- generated on 11/05/09 13:58:25 by SUMO sumo Version dev-SVN-r7945
<configuration>

    <input>
        <net-file value="three_split.net.xml"/>
        <additional-files value="input_routes.rou.xml,input_additional2.add.xml"/>
    </input>

    <output>
        <tripinfo-output value="tripinfos.xml"/>
    </output>

    <time>
        <begin value="100"/>
    </time>

    <report>
        <no-duration-log value="true"/>
        <no-step-log value="true"/>
    </report>

</configuration>
-->

<tripinfos>
    <tripinfo id="5" depart="100" departLane="beg_0" departPos="0.00" departSpeed="0.00" departDelay="0" arrival="124" arrivalLane="middle_0" arrivalPos="15.34" arrivalSpeed="27.80" duration="24" routeLength="1505.84" waitSteps="0" rerouteNo="0" devices="" vtype="DEFAULT_VEHTYPE" vaporized="0"></tripinfo>
    <tripinfo id="6" depart="120" departLane="beg_0" departPos="0.00" departSpeed="0.00" departDelay="0" arrival="144" arrivalLane="middle_0" arrivalPos="15.34" arrivalSpeed="27.80" duration="24" routeLength="1505.84" waitSteps="0" rerouteNo="0" devices="" vtype="DEFAULT_VEHTYPE" vaporized="0"></tripinfo>
    <tripinfo id="7" depart="140" departLane="beg_0" departPos="0.00" departSpeed="0.00" departDelay="0" arrival="164" arrivalLane="middle_0" arrivalPos="15.34" arrivalSpeed="27.80" duration="24" routeLength="1505.84" waitSteps="0" rerouteNo="0" devices="" vtype="DEFAULT_VEHTYPE" vaporized="0"></tripinfo>
    <tripinfo id="8" depart="160" departLane="beg_0" departPos="0.00" departSpeed="0.00" departDelay="0" arrival="184" arrivalLane="middle_0" arrivalPos="15.34" arrivalSpeed="27.80" duration="24" routeLength="1505.84" waitSteps="0" rerouteNo="0" devices="" vtype="DEFAULT_VEHTYPE" vaporized="0"></tripinfo>
    <tripinfo id="9" depart="180" departLane="beg_0" departPos="0.00" departSpeed="0.00" departDelay="0" arrival="204" arrivalLane="middle_0" arrivalPos="15.34" arrivalSpeed="27.80" duration="24" routeLength="1505.84" waitSteps="0" rerouteNo="0" devices="" vtype="DEFAULT_VEHTYPE" vaporized="0"></tripinfo>
</tripinfos>
