<?xml version="1.0" encoding="UTF-8"?>

<!-- generated on Wed Jan  3 09:20:43 2018 by SUMO Version v0_32_0+0043-24523c2
<?xml version="1.0" encoding="UTF-8"?>

<configuration xmlns:xsi="http://www.w3.org/2001/XMLSchema-instance" xsi:noNamespaceSchemaLocation="http://sumo.dlr.de/xsd/sumoConfiguration.xsd">

    <input>
        <net-file value="net.net.xml"/>
        <route-files value="routes.rou.xml"/>
    </input>

    <output>
        <netstate-dump value="netstate_dump.xml"/>
        <tripinfo-output value="tripinfos.xml"/>
    </output>

    <report>
        <xml-validation value="never"/>
        <no-step-log value="true"/>
    </report>

    <traci_server>
        <remote-port value="50397"/>
    </traci_server>

</configuration>
-->

<tripinfos xmlns:xsi="http://www.w3.org/2001/XMLSchema-instance" xsi:noNamespaceSchemaLocation="http://sumo.dlr.de/xsd/tripinfo_file.xsd">
    <tripinfo id="veh0" depart="0.00" departLane="e_m0_0" departPos="0.00" departSpeed="0.00" departDelay="0.00" arrival="25.00" arrivalLane="e_m0_0" arrivalPos="500.00" arrivalSpeed="19.20" duration="25.00" routeLength="500.00" waitingTime="0.00" stopTime="0.00" timeLoss="20.00" rerouteNo="0" devices="tripinfo_veh0" vType="DEFAULT_VEHTYPE" speedFactor="1.00" vaporized="0"/>
    <tripinfo id="veh1" depart="4.00" departLane="e_m0_0" departPos="0.00" departSpeed="0.00" departDelay="3.00" arrival="26.00" arrivalLane="e_m0_0" arrivalPos="500.00" arrivalSpeed="16.80" duration="22.00" routeLength="500.00" waitingTime="0.00" stopTime="0.00" timeLoss="17.92" rerouteNo="0" devices="tripinfo_veh1" vType="DEFAULT_VEHTYPE" speedFactor="1.00" vaporized="0"/>
    <tripinfo id="veh2" depart="8.00" departLane="e_m0_0" departPos="0.00" departSpeed="0.00" departDelay="6.00" arrival="27.00" arrivalLane="e_m0_0" arrivalPos="500.00" arrivalSpeed="0.00" duration="19.00" routeLength="500.00" waitingTime="0.00" stopTime="1.00" timeLoss="11.17" rerouteNo="0" devices="tripinfo_veh2" vType="DEFAULT_VEHTYPE" speedFactor="1.00" vaporized="0"/>
    <tripinfo id="veh3" depart="12.00" departLane="e_m0_0" departPos="0.00" departSpeed="0.00" departDelay="9.00" arrival="28.00" arrivalLane="e_m0_0" arrivalPos="40.00" arrivalSpeed="0.00" duration="16.00" routeLength="40.00" waitingTime="0.00" stopTime="1.00" timeLoss="9.33" rerouteNo="0" devices="tripinfo_veh3" vType="DEFAULT_VEHTYPE" speedFactor="1.00" vaporized="0"/>
    <tripinfo id="veh4" depart="16.00" departLane="e_m0_0" departPos="0.00" departSpeed="0.00" departDelay="12.00" arrival="29.00" arrivalLane="e_m0_1" arrivalPos="500.00" arrivalSpeed="9.60" duration="13.00" routeLength="500.00" waitingTime="0.00" stopTime="0.00" timeLoss="10.96" rerouteNo="0" devices="tripinfo_veh4" vType="DEFAULT_VEHTYPE" speedFactor="1.00" vaporized="0"/>
</tripinfos>
