<?xml version="1.0" encoding="UTF-8"?>

<!-- generated on Wed Mar 11 22:22:49 2020 by Eclipse SUMO Version v1_5_0+0662-a598ecae47
This data file and the accompanying materials
are made available under the terms of the Eclipse Public License v2.0
which accompanies this distribution, and is available at
http://www.eclipse.org/legal/epl-v20.html
SPDX-License-Identifier: EPL-2.0
<configuration xmlns:xsi="http://www.w3.org/2001/XMLSchema-instance" xsi:noNamespaceSchemaLocation="http://sumo.dlr.de/xsd/sumoConfiguration.xsd">

    <input>
        <net-file value="net2.net.xml"/>
        <route-files value="input_routes.rou.xml"/>
    </input>

    <output>
        <write-license value="true"/>
        <fcd-output value="fcd.xml"/>
    </output>

    <processing>
        <default.speeddev value="0"/>
    </processing>

    <report>
        <xml-validation value="never"/>
        <duration-log.disable value="true"/>
        <no-step-log value="true"/>
    </report>

</configuration>
-->

<fcd-export xmlns:xsi="http://www.w3.org/2001/XMLSchema-instance" xsi:noNamespaceSchemaLocation="http://sumo.dlr.de/xsd/fcd_file.xsd">
    <timestep time="0.00">
        <vehicle id="veh0" x="104.95" y="11.00" angle="0.00" type="DEFAULT_VEHTYPE" speed="13.89" pos="11.00" lane="SC_0" slope="0.00"/>
    </timestep>
    <timestep time="1.00">
        <vehicle id="veh0" x="104.95" y="24.89" angle="0.00" type="DEFAULT_VEHTYPE" speed="13.89" pos="24.89" lane="SC_0" slope="0.00"/>
    </timestep>
    <timestep time="2.00">
        <vehicle id="veh0" x="104.95" y="38.78" angle="0.00" type="DEFAULT_VEHTYPE" speed="13.89" pos="38.78" lane="SC_0" slope="0.00"/>
    </timestep>
    <timestep time="3.00">
        <vehicle id="veh0" x="104.95" y="52.67" angle="0.00" type="DEFAULT_VEHTYPE" speed="13.89" pos="52.67" lane="SC_0" slope="0.00"/>
    </timestep>
    <timestep time="4.00">
        <vehicle id="veh0" x="104.95" y="66.56" angle="0.00" type="DEFAULT_VEHTYPE" speed="13.89" pos="66.56" lane="SC_0" slope="0.00"/>
    </timestep>
    <timestep time="5.00">
        <vehicle id="veh0" x="104.95" y="80.45" angle="0.00" type="DEFAULT_VEHTYPE" speed="13.89" pos="80.45" lane="SC_0" slope="0.00"/>
    </timestep>
    <timestep time="6.00">
        <vehicle id="veh0" x="104.95" y="92.12" angle="0.00" type="DEFAULT_VEHTYPE" speed="11.67" pos="0.17" lane=":C_11_0" slope="0.00"/>
    </timestep>
    <timestep time="7.00">
        <vehicle id="veh0" x="104.95" y="99.28" angle="0.00" type="DEFAULT_VEHTYPE" speed="7.17" pos="7.33" lane=":C_11_0" slope="0.00"/>
    </timestep>
    <timestep time="8.00">
        <vehicle id="veh0" x="104.95" y="101.95" angle="0.00" type="DEFAULT_VEHTYPE" speed="2.67" pos="10.00" lane=":C_11_0" slope="0.00"/>
    </timestep>
    <timestep time="9.00">
        <vehicle id="veh0" x="104.95" y="101.95" angle="0.00" type="DEFAULT_VEHTYPE" speed="0.00" pos="10.00" lane=":C_11_0" slope="0.00"/>
    </timestep>
    <timestep time="10.00">
        <vehicle id="veh0" x="104.95" y="101.95" angle="0.00" type="DEFAULT_VEHTYPE" speed="0.00" pos="10.00" lane=":C_11_0" slope="0.00"/>
    </timestep>
    <timestep time="11.00">
        <vehicle id="veh0" x="104.95" y="101.95" angle="0.00" type="DEFAULT_VEHTYPE" speed="0.00" pos="10.00" lane=":C_11_0" slope="0.00"/>
    </timestep>
    <timestep time="12.00">
        <vehicle id="veh0" x="104.95" y="101.95" angle="0.00" type="DEFAULT_VEHTYPE" speed="0.00" pos="10.00" lane=":C_11_0" slope="0.00"/>
    </timestep>
    <timestep time="13.00">
        <vehicle id="veh0" x="104.95" y="101.95" angle="0.00" type="DEFAULT_VEHTYPE" speed="0.00" pos="10.00" lane=":C_11_0" slope="0.00"/>
    </timestep>
    <timestep time="14.00">
        <vehicle id="veh0" x="104.95" y="104.55" angle="0.00" type="DEFAULT_VEHTYPE" speed="2.60" pos="12.60" lane=":C_11_0" slope="0.00"/>
    </timestep>
    <timestep time="15.00">
        <vehicle id="veh0" x="104.95" y="109.75" angle="0.00" type="DEFAULT_VEHTYPE" speed="5.20" pos="1.70" lane="CN_0" slope="0.00"/>
    </timestep>
    <timestep time="16.00">
        <vehicle id="veh0" x="104.95" y="117.55" angle="0.00" type="DEFAULT_VEHTYPE" speed="7.80" pos="9.50" lane="CN_0" slope="0.00"/>
    </timestep>
    <timestep time="17.00">
        <vehicle id="veh0" x="104.95" y="127.95" angle="0.00" type="DEFAULT_VEHTYPE" speed="10.40" pos="19.90" lane="CN_0" slope="0.00"/>
    </timestep>
    <timestep time="18.00">
        <vehicle id="veh0" x="104.95" y="140.95" angle="0.00" type="DEFAULT_VEHTYPE" speed="13.00" pos="32.90" lane="CN_0" slope="0.00"/>
    </timestep>
    <timestep time="19.00">
        <vehicle id="veh0" x="104.95" y="154.84" angle="0.00" type="DEFAULT_VEHTYPE" speed="13.89" pos="46.79" lane="CN_0" slope="0.00"/>
    </timestep>
    <timestep time="20.00">
        <vehicle id="veh0" x="104.95" y="168.73" angle="0.00" type="DEFAULT_VEHTYPE" speed="13.89" pos="60.68" lane="CN_0" slope="0.00"/>
    </timestep>
    <timestep time="21.00">
        <vehicle id="veh0" x="104.95" y="182.62" angle="0.00" type="DEFAULT_VEHTYPE" speed="13.89" pos="74.57" lane="CN_0" slope="0.00"/>
    </timestep>
    <timestep time="22.00">
        <vehicle id="veh0" x="104.95" y="196.51" angle="0.00" type="DEFAULT_VEHTYPE" speed="13.89" pos="88.46" lane="CN_0" slope="0.00"/>
    </timestep>
    <timestep time="23.00"/>
</fcd-export>
