<?xml version="1.0" encoding="UTF-8"?>

<!-- generated on 2022-12-04 10:24:11 by Eclipse SUMO sumo Version v1_15_0+0749-de9f6f8
This data file and the accompanying materials
are made available under the terms of the Eclipse Public License v2.0
which accompanies this distribution, and is available at
http://www.eclipse.org/legal/epl-v20.html
This file may also be made available under the following Secondary
Licenses when the conditions for such availability set forth in the Eclipse
Public License 2.0 are satisfied: GNU General Public License, version 2
or later which is available at
https://www.gnu.org/licenses/old-licenses/gpl-2.0-standalone.html
SPDX-License-Identifier: EPL-2.0 OR GPL-2.0-or-later
<configuration xmlns:xsi="http://www.w3.org/2001/XMLSchema-instance" xsi:noNamespaceSchemaLocation="http://sumo.dlr.de/xsd/sumoConfiguration.xsd">

    <input>
        <net-file value="net.net.xml"/>
        <route-files value="input_routes.rou.xml"/>
        <additional-files value="input_additional.add.xml,input_additional2.add.xml"/>
    </input>

    <output>
        <write-license value="true"/>
        <tripinfo-output.write-unfinished value="true"/>
    </output>

    <time>
        <begin value="0"/>
        <end value="3000"/>
        <step-length value="0.2"/>
    </time>

    <processing>
        <default.action-step-length value="1.0"/>
        <default.speeddev value="0"/>
    </processing>

    <report>
        <xml-validation value="never"/>
        <duration-log.statistics value="true"/>
        <no-step-log value="true"/>
    </report>

</configuration>
-->

<meandata xmlns:xsi="http://www.w3.org/2001/XMLSchema-instance" xsi:noNamespaceSchemaLocation="http://sumo.dlr.de/xsd/meandata_file.xsd">
    <interval begin="0.00" end="60.00" id="dump_60">
        <edge id="1/1to2/1" sampledSeconds="174.16" traveltime="151.47" overlapTraveltime="146.95" density="2.96" laneDensity="1.48" occupancy="0.71" waitingTime="0.00" timeLoss="98.29" speed="6.72" speedRelative="0.34" departed="30" arrived="0" entered="0" left="26" laneChangedFrom="3" laneChangedTo="3"/>
        <edge id="2/1to3/1" sampledSeconds="757.42" traveltime="67.33" overlapTraveltime="67.68" density="12.85" laneDensity="6.43" occupancy="3.19" waitingTime="0.00" timeLoss="57.89" speed="14.59" speedRelative="0.74" departed="0" arrived="0" entered="26" left="0" laneChangedFrom="10" laneChangedTo="10"/>
        <edge id="5/1to6/1" sampledSeconds="186.76" traveltime="145.52" overlapTraveltime="141.64" density="3.17" laneDensity="1.58" occupancy="0.77" waitingTime="0.00" timeLoss="118.67" speed="6.97" speedRelative="0.36" departed="30" arrived="0" entered="0" left="26" laneChangedFrom="4" laneChangedTo="4"/>
        <edge id="6/1to7/1" sampledSeconds="736.92" traveltime="61.23" overlapTraveltime="61.53" density="12.51" laneDensity="6.25" occupancy="3.10" waitingTime="0.00" timeLoss="94.00" speed="16.04" speedRelative="0.82" departed="0" arrived="0" entered="26" left="1" laneChangedFrom="12" laneChangedTo="12"/>
        <edge id="7/1to8/1" sampledSeconds="7.72" traveltime="44.63" overlapTraveltime="44.86" density="0.13" laneDensity="0.07" occupancy="0.03" waitingTime="0.00" timeLoss="0.28" speed="22.00" speedRelative="1.12" departed="0" arrived="0" entered="1" left="0" laneChangedFrom="0" laneChangedTo="0"/>
    </interval>
    <interval begin="60.00" end="120.00" id="dump_60">
        <edge id="1/1to2/1" sampledSeconds="347.76" traveltime="96.47" overlapTraveltime="95.78" density="5.90" laneDensity="2.95" occupancy="1.46" waitingTime="0.00" timeLoss="119.71" speed="10.31" speedRelative="0.53" departed="30" arrived="0" entered="0" left="28" laneChangedFrom="7" laneChangedTo="7"/>
        <edge id="2/1to3/1" sampledSeconds="1806.02" traveltime="67.10" overlapTraveltime="67.44" density="30.65" laneDensity="15.32" occupancy="7.63" waitingTime="0.00" timeLoss="106.26" speed="14.64" speedRelative="0.75" departed="0" arrived="0" entered="27" left="24" laneChangedFrom="18" laneChangedTo="18"/>
        <edge id="3/1to4/1" sampledSeconds="580.20" traveltime="63.93" overlapTraveltime="64.25" density="9.85" laneDensity="4.92" occupancy="2.44" waitingTime="0.00" timeLoss="28.84" speed="15.36" speedRelative="0.78" departed="0" arrived="0" entered="24" left="0" laneChangedFrom="3" laneChangedTo="3"/>
        <edge id="5/1to6/1" sampledSeconds="351.53" traveltime="89.81" overlapTraveltime="88.98" density="5.97" laneDensity="2.98" occupancy="1.48" waitingTime="0.00" timeLoss="146.71" speed="11.09" speedRelative="0.57" departed="30" arrived="0" entered="0" left="28" laneChangedFrom="11" laneChangedTo="11"/>
        <edge id="6/1to7/1" sampledSeconds="1632.86" traveltime="56.55" overlapTraveltime="56.85" density="27.71" laneDensity="13.86" occupancy="6.89" waitingTime="0.00" timeLoss="155.58" speed="17.36" speedRelative="0.89" departed="0" arrived="0" entered="28" left="27" laneChangedFrom="15" laneChangedTo="15"/>
        <edge id="7/1to8/1" sampledSeconds="718.93" traveltime="60.87" overlapTraveltime="61.16" density="12.20" laneDensity="6.10" occupancy="3.03" waitingTime="0.00" timeLoss="116.05" speed="16.14" speedRelative="0.82" departed="0" arrived="0" entered="27" left="2" laneChangedFrom="8" laneChangedTo="8"/>
        <edge id="8/1to9/1" sampledSeconds="30.26" traveltime="43.64" overlapTraveltime="43.86" density="0.51" laneDensity="0.26" occupancy="0.13" waitingTime="0.00" timeLoss="0.92" speed="22.50" speedRelative="1.15" departed="0" arrived="0" entered="2" left="0" laneChangedFrom="0" laneChangedTo="0"/>
    </interval>
    <interval begin="120.00" end="180.00" id="dump_60">
        <edge id="1/1to2/1" sampledSeconds="521.75" traveltime="84.99" overlapTraveltime="85.02" density="8.85" laneDensity="4.43" occupancy="2.19" waitingTime="0.00" timeLoss="136.54" speed="11.61" speedRelative="0.59" departed="30" arrived="0" entered="0" left="26" laneChangedFrom="15" laneChangedTo="15"/>
        <edge id="2/1to3/1" sampledSeconds="1808.72" traveltime="65.44" overlapTraveltime="65.78" density="30.70" laneDensity="15.35" occupancy="7.64" waitingTime="0.00" timeLoss="108.94" speed="15.01" speedRelative="0.77" departed="0" arrived="0" entered="27" left="26" laneChangedFrom="10" laneChangedTo="10"/>
        <edge id="3/1to4/1" sampledSeconds="1752.92" traveltime="67.27" overlapTraveltime="67.61" density="29.75" laneDensity="14.87" occupancy="7.40" waitingTime="0.00" timeLoss="113.15" speed="14.60" speedRelative="0.74" departed="0" arrived="0" entered="26" left="21" laneChangedFrom="13" laneChangedTo="13"/>
        <edge id="4/1to5/1" sampledSeconds="455.18" traveltime="62.39" overlapTraveltime="62.70" density="7.72" laneDensity="3.86" occupancy="1.92" waitingTime="0.00" timeLoss="21.54" speed="15.74" speedRelative="0.80" departed="0" arrived="0" entered="21" left="0" laneChangedFrom="4" laneChangedTo="4"/>
        <edge id="5/1to6/1" sampledSeconds="481.85" traveltime="74.05" overlapTraveltime="73.92" density="8.18" laneDensity="4.09" occupancy="2.03" waitingTime="0.00" timeLoss="167.18" speed="13.35" speedRelative="0.68" departed="30" arrived="0" entered="0" left="28" laneChangedFrom="14" laneChangedTo="14"/>
        <edge id="6/1to7/1" sampledSeconds="1556.42" traveltime="54.32" overlapTraveltime="54.61" density="26.41" laneDensity="13.21" occupancy="6.57" waitingTime="0.00" timeLoss="114.04" speed="18.08" speedRelative="0.92" departed="0" arrived="0" entered="28" left="28" laneChangedFrom="20" laneChangedTo="20"/>
        <edge id="7/1to8/1" sampledSeconds="1833.65" traveltime="60.62" overlapTraveltime="60.92" density="31.12" laneDensity="15.56" occupancy="7.74" waitingTime="0.00" timeLoss="274.27" speed="16.20" speedRelative="0.83" departed="0" arrived="0" entered="28" left="28" laneChangedFrom="10" laneChangedTo="10"/>
        <edge id="8/1to9/1" sampledSeconds="585.19" traveltime="51.48" overlapTraveltime="51.73" density="9.93" laneDensity="4.97" occupancy="2.46" waitingTime="0.00" timeLoss="36.97" speed="19.08" speedRelative="0.97" departed="0" arrived="0" entered="28" left="4" laneChangedFrom="4" laneChangedTo="4"/>
        <edge id="9/1to10/1" sampledSeconds="81.26" traveltime="43.18" overlapTraveltime="43.40" density="1.38" laneDensity="0.69" occupancy="0.34" waitingTime="0.00" timeLoss="1.98" speed="22.74" speedRelative="1.16" departed="0" arrived="0" entered="4" left="0" laneChangedFrom="0" laneChangedTo="0"/>
    </interval>
    <interval begin="180.00" end="240.00" id="dump_60">
        <edge id="1/1to2/1" sampledSeconds="684.39" traveltime="77.58" overlapTraveltime="77.80" density="11.61" laneDensity="5.81" occupancy="2.87" waitingTime="0.00" timeLoss="139.84" speed="12.69" speedRelative="0.65" departed="28" arrived="0" entered="2" left="27" laneChangedFrom="14" laneChangedTo="14"/>
        <edge id="10/1to1/1" sampledSeconds="147.32" traveltime="42.51" overlapTraveltime="42.74" density="2.50" laneDensity="1.25" occupancy="0.62" waitingTime="0.00" timeLoss="4.38" speed="23.09" speedRelative="1.18" departed="0" arrived="0" entered="7" left="2" laneChangedFrom="0" laneChangedTo="0"/>
        <edge id="2/1to3/1" sampledSeconds="1796.21" traveltime="67.59" overlapTraveltime="67.93" density="30.48" laneDensity="15.24" occupancy="7.58" waitingTime="0.00" timeLoss="135.09" speed="14.53" speedRelative="0.74" departed="0" arrived="0" entered="27" left="26" laneChangedFrom="16" laneChangedTo="16"/>
        <edge id="3/1to4/1" sampledSeconds="1891.22" traveltime="67.05" overlapTraveltime="67.40" density="32.10" laneDensity="16.05" occupancy="7.98" waitingTime="0.00" timeLoss="152.58" speed="14.64" speedRelative="0.75" departed="0" arrived="0" entered="26" left="28" laneChangedFrom="13" laneChangedTo="13"/>
        <edge id="4/1to5/1" sampledSeconds="1582.95" traveltime="66.62" overlapTraveltime="67.01" density="26.86" laneDensity="13.43" occupancy="6.68" waitingTime="0.00" timeLoss="100.35" speed="14.73" speedRelative="0.75" departed="0" arrived="0" entered="28" left="15" laneChangedFrom="16" laneChangedTo="16"/>
        <edge id="5/1to6/1" sampledSeconds="971.64" traveltime="68.43" overlapTraveltime="68.75" density="16.49" laneDensity="8.24" occupancy="4.06" waitingTime="3.20" timeLoss="166.12" speed="14.36" speedRelative="0.73" departed="19" arrived="0" entered="15" left="11" laneChangedFrom="16" laneChangedTo="16"/>
        <edge id="6/1to7/1" sampledSeconds="1159.34" traveltime="53.23" overlapTraveltime="53.51" density="19.67" laneDensity="9.84" occupancy="4.90" waitingTime="0.00" timeLoss="91.33" speed="18.45" speedRelative="0.94" departed="0" arrived="0" entered="11" left="28" laneChangedFrom="9" laneChangedTo="9"/>
        <edge id="7/1to8/1" sampledSeconds="1734.93" traveltime="55.75" overlapTraveltime="56.04" density="29.44" laneDensity="14.72" occupancy="7.33" waitingTime="0.00" timeLoss="195.54" speed="17.61" speedRelative="0.90" departed="0" arrived="0" entered="28" left="28" laneChangedFrom="14" laneChangedTo="14"/>
        <edge id="8/1to9/1" sampledSeconds="1752.23" traveltime="57.78" overlapTraveltime="58.06" density="29.74" laneDensity="14.87" occupancy="7.40" waitingTime="0.00" timeLoss="177.86" speed="17.00" speedRelative="0.87" departed="0" arrived="0" entered="28" left="23" laneChangedFrom="11" laneChangedTo="11"/>
        <edge id="9/1to10/1" sampledSeconds="627.39" traveltime="48.69" overlapTraveltime="48.91" density="10.65" laneDensity="5.32" occupancy="2.65" waitingTime="0.00" timeLoss="38.69" speed="20.18" speedRelative="1.03" departed="0" arrived="0" entered="23" left="7" laneChangedFrom="7" laneChangedTo="7"/>
    </interval>
    <interval begin="240.00" end="300.00" id="dump_60">
        <edge id="1/1to2/1" sampledSeconds="1188.17" traveltime="66.70" overlapTraveltime="67.02" density="20.16" laneDensity="10.08" occupancy="4.93" waitingTime="2.80" timeLoss="178.96" speed="14.73" speedRelative="0.75" departed="22" arrived="0" entered="7" left="12" laneChangedFrom="18" laneChangedTo="18"/>
        <edge id="10/1to1/1" sampledSeconds="683.69" traveltime="47.88" overlapTraveltime="48.17" density="11.60" laneDensity="5.80" occupancy="2.88" waitingTime="0.00" timeLoss="33.92" speed="20.49" speedRelative="1.05" departed="0" arrived="0" entered="19" left="7" laneChangedFrom="7" laneChangedTo="7"/>
        <edge id="2/1to3/1" sampledSeconds="1486.78" traveltime="66.65" overlapTraveltime="67.00" density="25.23" laneDensity="12.62" occupancy="6.28" waitingTime="0.00" timeLoss="106.03" speed="14.73" speedRelative="0.75" departed="0" arrived="0" entered="12" left="29" laneChangedFrom="14" laneChangedTo="14"/>
        <edge id="3/1to4/1" sampledSeconds="1693.40" traveltime="66.99" overlapTraveltime="67.32" density="28.74" laneDensity="14.37" occupancy="7.15" waitingTime="0.00" timeLoss="123.56" speed="14.66" speedRelative="0.75" departed="0" arrived="0" entered="29" left="25" laneChangedFrom="19" laneChangedTo="19"/>
        <edge id="4/1to5/1" sampledSeconds="2020.98" traveltime="67.38" overlapTraveltime="67.76" density="34.30" laneDensity="17.15" occupancy="8.54" waitingTime="0.00" timeLoss="167.02" speed="14.57" speedRelative="0.74" departed="0" arrived="0" entered="25" left="27" laneChangedFrom="13" laneChangedTo="13"/>
        <edge id="5/1to6/1" sampledSeconds="2395.06" traveltime="66.61" overlapTraveltime="66.96" density="40.65" laneDensity="20.32" occupancy="10.09" waitingTime="2.20" timeLoss="338.52" speed="14.74" speedRelative="0.75" departed="11" arrived="0" entered="27" left="28" laneChangedFrom="25" laneChangedTo="25"/>
        <edge id="6/1to7/1" sampledSeconds="729.70" traveltime="61.38" overlapTraveltime="61.67" density="12.38" laneDensity="6.19" occupancy="3.07" waitingTime="0.00" timeLoss="57.06" speed="16.01" speedRelative="0.82" departed="0" arrived="0" entered="28" left="9" laneChangedFrom="4" laneChangedTo="4"/>
        <edge id="7/1to8/1" sampledSeconds="1008.07" traveltime="54.92" overlapTraveltime="55.20" density="17.11" laneDensity="8.55" occupancy="4.25" waitingTime="0.00" timeLoss="77.39" speed="17.88" speedRelative="0.91" departed="0" arrived="0" entered="9" left="28" laneChangedFrom="13" laneChangedTo="13"/>
        <edge id="8/1to9/1" sampledSeconds="1887.23" traveltime="56.54" overlapTraveltime="56.87" density="32.03" laneDensity="16.01" occupancy="7.97" waitingTime="0.00" timeLoss="241.35" speed="17.36" speedRelative="0.89" departed="0" arrived="0" entered="28" left="34" laneChangedFrom="10" laneChangedTo="10"/>
        <edge id="9/1to10/1" sampledSeconds="1615.37" traveltime="60.99" overlapTraveltime="61.27" density="27.41" laneDensity="13.71" occupancy="6.82" waitingTime="0.00" timeLoss="221.58" speed="16.11" speedRelative="0.82" departed="0" arrived="0" entered="34" left="19" laneChangedFrom="10" laneChangedTo="10"/>
    </interval>
    <interval begin="300.00" end="360.00" id="dump_60">
        <edge id="1/1to2/1" sampledSeconds="2357.60" traveltime="67.63" overlapTraveltime="67.96" density="40.01" laneDensity="20.00" occupancy="9.91" waitingTime="8.40" timeLoss="407.15" speed="14.52" speedRelative="0.74" departed="22" arrived="0" entered="17" left="28" laneChangedFrom="20" laneChangedTo="20"/>
        <edge id="10/1to1/1" sampledSeconds="1397.46" traveltime="59.27" overlapTraveltime="59.61" density="23.72" laneDensity="11.86" occupancy="5.89" waitingTime="0.00" timeLoss="169.25" speed="16.56" speedRelative="0.84" departed="0" arrived="0" entered="35" left="17" laneChangedFrom="17" laneChangedTo="17"/>
        <edge id="2/1to3/1" sampledSeconds="1002.90" traveltime="62.18" overlapTraveltime="62.50" density="17.02" laneDensity="8.51" occupancy="4.23" waitingTime="0.00" timeLoss="97.69" speed="15.79" speedRelative="0.81" departed="0" arrived="0" entered="28" left="14" laneChangedFrom="6" laneChangedTo="6"/>
        <edge id="3/1to4/1" sampledSeconds="1724.15" traveltime="67.64" overlapTraveltime="67.98" density="29.26" laneDensity="14.63" occupancy="7.29" waitingTime="0.00" timeLoss="157.33" speed="14.52" speedRelative="0.74" departed="0" arrived="0" entered="14" left="26" laneChangedFrom="17" laneChangedTo="17"/>
        <edge id="4/1to5/1" sampledSeconds="1614.75" traveltime="67.22" overlapTraveltime="67.60" density="27.40" laneDensity="13.70" occupancy="6.81" waitingTime="0.00" timeLoss="132.13" speed="14.60" speedRelative="0.74" departed="0" arrived="0" entered="26" left="31" laneChangedFrom="13" laneChangedTo="13"/>
        <edge id="5/1to6/1" sampledSeconds="2763.32" traveltime="67.93" overlapTraveltime="68.27" density="46.90" laneDensity="23.45" occupancy="11.63" waitingTime="0.00" timeLoss="387.81" speed="14.46" speedRelative="0.74" departed="13" arrived="0" entered="30" left="36" laneChangedFrom="21" laneChangedTo="21"/>
        <edge id="6/1to7/1" sampledSeconds="2222.27" traveltime="66.51" overlapTraveltime="66.84" density="37.71" laneDensity="18.86" occupancy="9.39" waitingTime="0.00" timeLoss="321.53" speed="14.77" speedRelative="0.75" departed="0" arrived="0" entered="36" left="21" laneChangedFrom="18" laneChangedTo="18"/>
        <edge id="7/1to8/1" sampledSeconds="642.82" traveltime="59.31" overlapTraveltime="59.62" density="10.91" laneDensity="5.45" occupancy="2.71" waitingTime="0.00" timeLoss="32.85" speed="16.56" speedRelative="0.84" departed="0" arrived="0" entered="21" left="8" laneChangedFrom="8" laneChangedTo="8"/>
        <edge id="8/1to9/1" sampledSeconds="865.48" traveltime="55.51" overlapTraveltime="55.79" density="14.69" laneDensity="7.34" occupancy="3.65" waitingTime="0.00" timeLoss="53.18" speed="17.69" speedRelative="0.90" departed="0" arrived="0" entered="8" left="26" laneChangedFrom="9" laneChangedTo="9"/>
        <edge id="9/1to10/1" sampledSeconds="2122.88" traveltime="56.87" overlapTraveltime="57.18" density="36.03" laneDensity="18.01" occupancy="8.97" waitingTime="0.00" timeLoss="268.75" speed="17.26" speedRelative="0.88" departed="0" arrived="0" entered="26" left="36" laneChangedFrom="15" laneChangedTo="15"/>
    </interval>
    <interval begin="360.00" end="420.00" id="dump_60">
        <edge id="1/1to2/1" sampledSeconds="2725.75" traveltime="66.53" overlapTraveltime="66.88" density="46.26" laneDensity="23.13" occupancy="11.45" waitingTime="0.00" timeLoss="431.33" speed="14.76" speedRelative="0.75" departed="13" arrived="0" entered="35" left="39" laneChangedFrom="6" laneChangedTo="6"/>
        <edge id="10/1to1/1" sampledSeconds="2255.89" traveltime="58.90" overlapTraveltime="59.21" density="38.28" laneDensity="19.14" occupancy="9.53" waitingTime="0.00" timeLoss="334.75" speed="16.67" speedRelative="0.85" departed="0" arrived="0" entered="26" left="35" laneChangedFrom="17" laneChangedTo="17"/>
        <edge id="2/1to3/1" sampledSeconds="2143.14" traveltime="66.08" overlapTraveltime="66.40" density="36.37" laneDensity="18.19" occupancy="9.05" waitingTime="0.00" timeLoss="314.68" speed="14.87" speedRelative="0.76" departed="0" arrived="0" entered="39" left="23" laneChangedFrom="17" laneChangedTo="17"/>
        <edge id="3/1to4/1" sampledSeconds="1009.93" traveltime="64.93" overlapTraveltime="65.31" density="17.14" laneDensity="8.57" occupancy="4.26" waitingTime="0.00" timeLoss="119.96" speed="15.11" speedRelative="0.77" departed="0" arrived="0" entered="23" left="18" laneChangedFrom="2" laneChangedTo="2"/>
        <edge id="4/1to5/1" sampledSeconds="1782.78" traveltime="68.94" overlapTraveltime="69.34" density="30.25" laneDensity="15.13" occupancy="7.53" waitingTime="0.00" timeLoss="196.67" speed="14.24" speedRelative="0.73" departed="0" arrived="0" entered="17" left="22" laneChangedFrom="21" laneChangedTo="21"/>
        <edge id="5/1to6/1" sampledSeconds="2646.60" traveltime="72.29" overlapTraveltime="72.64" density="44.91" laneDensity="22.46" occupancy="11.14" waitingTime="0.00" timeLoss="457.52" speed="13.59" speedRelative="0.69" departed="11" arrived="0" entered="23" left="37" laneChangedFrom="24" laneChangedTo="24"/>
        <edge id="6/1to7/1" sampledSeconds="2698.26" traveltime="66.90" overlapTraveltime="67.24" density="45.79" laneDensity="22.90" occupancy="11.39" waitingTime="0.00" timeLoss="360.60" speed="14.68" speedRelative="0.75" departed="0" arrived="0" entered="37" left="43" laneChangedFrom="15" laneChangedTo="15"/>
        <edge id="7/1to8/1" sampledSeconds="1932.87" traveltime="65.00" overlapTraveltime="65.32" density="32.80" laneDensity="16.40" occupancy="8.16" waitingTime="0.00" timeLoss="242.87" speed="15.11" speedRelative="0.77" departed="0" arrived="0" entered="43" left="17" laneChangedFrom="11" laneChangedTo="11"/>
        <edge id="8/1to9/1" sampledSeconds="654.75" traveltime="58.95" overlapTraveltime="59.27" density="11.11" laneDensity="5.56" occupancy="2.76" waitingTime="0.00" timeLoss="29.49" speed="16.65" speedRelative="0.85" departed="0" arrived="0" entered="17" left="8" laneChangedFrom="7" laneChangedTo="7"/>
        <edge id="9/1to10/1" sampledSeconds="718.71" traveltime="57.24" overlapTraveltime="57.53" density="12.20" laneDensity="6.10" occupancy="3.03" waitingTime="0.00" timeLoss="45.51" speed="17.16" speedRelative="0.88" departed="0" arrived="0" entered="8" left="25" laneChangedFrom="8" laneChangedTo="8"/>
    </interval>
    <interval begin="420.00" end="480.00" id="dump_60">
        <edge id="1/1to2/1" sampledSeconds="3434.93" traveltime="69.63" overlapTraveltime="69.98" density="58.29" laneDensity="29.15" occupancy="14.45" waitingTime="1.20" timeLoss="722.41" speed="14.10" speedRelative="0.72" departed="18" arrived="0" entered="25" left="44" laneChangedFrom="11" laneChangedTo="11"/>
        <edge id="10/1to1/1" sampledSeconds="683.96" traveltime="60.18" overlapTraveltime="60.54" density="11.61" laneDensity="5.80" occupancy="2.88" waitingTime="0.00" timeLoss="59.87" speed="16.30" speedRelative="0.83" departed="0" arrived="0" entered="8" left="25" laneChangedFrom="6" laneChangedTo="6"/>
        <edge id="2/1to3/1" sampledSeconds="2741.31" traveltime="69.98" overlapTraveltime="70.33" density="46.52" laneDensity="23.26" occupancy="11.57" waitingTime="0.00" timeLoss="552.64" speed="14.03" speedRelative="0.72" departed="0" arrived="0" entered="44" left="37" laneChangedFrom="5" laneChangedTo="5"/>
        <edge id="3/1to4/1" sampledSeconds="1770.27" traveltime="64.54" overlapTraveltime="64.84" density="30.04" laneDensity="15.02" occupancy="7.47" waitingTime="0.00" timeLoss="227.71" speed="15.22" speedRelative="0.78" departed="0" arrived="0" entered="37" left="23" laneChangedFrom="8" laneChangedTo="8"/>
        <edge id="4/1to5/1" sampledSeconds="1177.75" traveltime="63.47" overlapTraveltime="63.88" density="19.99" laneDensity="9.99" occupancy="4.96" waitingTime="0.00" timeLoss="116.69" speed="15.45" speedRelative="0.79" departed="0" arrived="0" entered="24" left="21" laneChangedFrom="8" laneChangedTo="8"/>
        <edge id="5/1to6/1" sampledSeconds="2876.73" traveltime="71.97" overlapTraveltime="72.34" density="48.82" laneDensity="24.41" occupancy="12.10" waitingTime="4.00" timeLoss="543.39" speed="13.64" speedRelative="0.70" departed="18" arrived="0" entered="21" left="40" laneChangedFrom="40" laneChangedTo="40"/>
        <edge id="6/1to7/1" sampledSeconds="2422.90" traveltime="69.80" overlapTraveltime="70.14" density="41.12" laneDensity="20.56" occupancy="10.22" waitingTime="0.00" timeLoss="360.11" speed="14.07" speedRelative="0.72" departed="0" arrived="0" entered="39" left="37" laneChangedFrom="15" laneChangedTo="15"/>
        <edge id="7/1to8/1" sampledSeconds="2658.60" traveltime="67.60" overlapTraveltime="67.94" density="45.12" laneDensity="22.56" occupancy="11.22" waitingTime="0.00" timeLoss="397.04" speed="14.53" speedRelative="0.74" departed="0" arrived="0" entered="37" left="40" laneChangedFrom="15" laneChangedTo="15"/>
        <edge id="8/1to9/1" sampledSeconds="1579.20" traveltime="61.85" overlapTraveltime="62.14" density="26.80" laneDensity="13.40" occupancy="6.66" waitingTime="0.00" timeLoss="139.49" speed="15.88" speedRelative="0.81" departed="0" arrived="0" entered="40" left="17" laneChangedFrom="13" laneChangedTo="13"/>
        <edge id="9/1to10/1" sampledSeconds="728.56" traveltime="58.62" overlapTraveltime="58.94" density="12.36" laneDensity="6.18" occupancy="3.08" waitingTime="0.00" timeLoss="35.25" speed="16.75" speedRelative="0.85" departed="0" arrived="0" entered="17" left="8" laneChangedFrom="8" laneChangedTo="8"/>
    </interval>
    <interval begin="480.00" end="540.00" id="dump_60">
        <edge id="1/1to2/1" sampledSeconds="2449.96" traveltime="72.09" overlapTraveltime="72.43" density="41.58" laneDensity="20.79" occupancy="10.25" waitingTime="5.80" timeLoss="359.77" speed="13.63" speedRelative="0.70" departed="24" arrived="0" entered="9" left="42" laneChangedFrom="25" laneChangedTo="25"/>
        <edge id="10/1to1/1" sampledSeconds="760.91" traveltime="58.49" overlapTraveltime="58.87" density="12.91" laneDensity="6.46" occupancy="3.21" waitingTime="0.00" timeLoss="38.40" speed="16.77" speedRelative="0.86" departed="0" arrived="0" entered="18" left="9" laneChangedFrom="12" laneChangedTo="12"/>
        <edge id="2/1to3/1" sampledSeconds="3312.11" traveltime="66.75" overlapTraveltime="67.08" density="56.21" laneDensity="28.10" occupancy="13.99" waitingTime="0.00" timeLoss="610.09" speed="14.72" speedRelative="0.75" departed="0" arrived="0" entered="42" left="42" laneChangedFrom="14" laneChangedTo="14"/>
        <edge id="3/1to4/1" sampledSeconds="2705.33" traveltime="64.53" overlapTraveltime="64.85" density="45.91" laneDensity="22.96" occupancy="11.43" waitingTime="0.00" timeLoss="390.82" speed="15.22" speedRelative="0.78" departed="0" arrived="0" entered="42" left="30" laneChangedFrom="11" laneChangedTo="11"/>
        <edge id="4/1to5/1" sampledSeconds="1566.74" traveltime="62.68" overlapTraveltime="63.02" density="26.59" laneDensity="13.29" occupancy="6.61" waitingTime="0.00" timeLoss="161.50" speed="15.66" speedRelative="0.80" departed="0" arrived="0" entered="30" left="25" laneChangedFrom="11" laneChangedTo="11"/>
        <edge id="5/1to6/1" sampledSeconds="2535.07" traveltime="66.78" overlapTraveltime="67.14" density="43.02" laneDensity="21.51" occupancy="10.64" waitingTime="0.00" timeLoss="535.48" speed="14.70" speedRelative="0.75" departed="13" arrived="0" entered="25" left="42" laneChangedFrom="23" laneChangedTo="23"/>
        <edge id="6/1to7/1" sampledSeconds="2844.01" traveltime="72.65" overlapTraveltime="72.98" density="48.26" laneDensity="24.13" occupancy="12.01" waitingTime="0.00" timeLoss="577.79" speed="13.52" speedRelative="0.69" departed="0" arrived="0" entered="43" left="30" laneChangedFrom="18" laneChangedTo="18"/>
        <edge id="7/1to8/1" sampledSeconds="2423.11" traveltime="67.72" overlapTraveltime="68.06" density="41.12" laneDensity="20.56" occupancy="10.24" waitingTime="0.00" timeLoss="298.65" speed="14.50" speedRelative="0.74" departed="0" arrived="0" entered="30" left="34" laneChangedFrom="14" laneChangedTo="14"/>
        <edge id="8/1to9/1" sampledSeconds="2619.47" traveltime="68.28" overlapTraveltime="68.63" density="44.45" laneDensity="22.23" occupancy="11.07" waitingTime="0.00" timeLoss="426.64" speed="14.38" speedRelative="0.73" departed="0" arrived="0" entered="33" left="32" laneChangedFrom="15" laneChangedTo="15"/>
        <edge id="9/1to10/1" sampledSeconds="1264.57" traveltime="63.25" overlapTraveltime="63.54" density="21.46" laneDensity="10.73" occupancy="5.33" waitingTime="0.00" timeLoss="134.14" speed="15.53" speedRelative="0.79" departed="0" arrived="0" entered="32" left="18" laneChangedFrom="5" laneChangedTo="5"/>
    </interval>
    <interval begin="540.00" end="600.00" id="dump_60">
        <edge id="1/1to2/1" sampledSeconds="2551.83" traveltime="70.81" overlapTraveltime="71.17" density="43.31" laneDensity="21.65" occupancy="10.73" waitingTime="4.20" timeLoss="397.30" speed="13.87" speedRelative="0.71" departed="21" arrived="0" entered="18" left="35" laneChangedFrom="23" laneChangedTo="23"/>
        <edge id="10/1to1/1" sampledSeconds="1076.93" traveltime="60.88" overlapTraveltime="61.25" density="18.28" laneDensity="9.14" occupancy="4.54" waitingTime="0.00" timeLoss="79.68" speed="16.12" speedRelative="0.82" departed="0" arrived="0" entered="26" left="18" laneChangedFrom="9" laneChangedTo="9"/>
        <edge id="2/1to3/1" sampledSeconds="2480.62" traveltime="70.69" overlapTraveltime="71.06" density="42.10" laneDensity="21.05" occupancy="10.46" waitingTime="0.00" timeLoss="330.33" speed="13.89" speedRelative="0.71" departed="0" arrived="0" entered="35" left="48" laneChangedFrom="14" laneChangedTo="14"/>
        <edge id="3/1to4/1" sampledSeconds="3001.91" traveltime="69.69" overlapTraveltime="70.02" density="50.94" laneDensity="25.47" occupancy="12.67" waitingTime="0.00" timeLoss="655.71" speed="14.10" speedRelative="0.72" departed="0" arrived="0" entered="47" left="43" laneChangedFrom="14" laneChangedTo="14"/>
        <edge id="4/1to5/1" sampledSeconds="2702.48" traveltime="65.56" overlapTraveltime="65.95" density="45.86" laneDensity="22.93" occupancy="11.41" waitingTime="0.00" timeLoss="410.98" speed="14.97" speedRelative="0.76" departed="0" arrived="0" entered="43" left="26" laneChangedFrom="16" laneChangedTo="16"/>
        <edge id="5/1to6/1" sampledSeconds="2588.12" traveltime="66.53" overlapTraveltime="66.86" density="43.92" laneDensity="21.96" occupancy="10.89" waitingTime="5.40" timeLoss="519.50" speed="14.76" speedRelative="0.75" departed="17" arrived="0" entered="26" left="34" laneChangedFrom="21" laneChangedTo="21"/>
        <edge id="6/1to7/1" sampledSeconds="3081.78" traveltime="73.22" overlapTraveltime="73.61" density="52.30" laneDensity="26.15" occupancy="13.02" waitingTime="0.00" timeLoss="832.07" speed="13.41" speedRelative="0.68" departed="0" arrived="0" entered="34" left="42" laneChangedFrom="17" laneChangedTo="17"/>