<?xml version="1.0" encoding="UTF-8"?>

<!-- generated on 2022-02-08 11:26:17 by Eclipse SUMO sumo Version v1_12_0+0353-0cd4bcd
This data file and the accompanying materials
are made available under the terms of the Eclipse Public License v2.0
which accompanies this distribution, and is available at
http://www.eclipse.org/legal/epl-v20.html
This file may also be made available under the following Secondary
Licenses when the conditions for such availability set forth in the Eclipse
Public License 2.0 are satisfied: GNU General Public License, version 2
or later which is available at
https://www.gnu.org/licenses/old-licenses/gpl-2.0-standalone.html
SPDX-License-Identifier: EPL-2.0 OR GPL-2.0-or-later
<configuration xmlns:xsi="http://www.w3.org/2001/XMLSchema-instance" xsi:noNamespaceSchemaLocation="http://sumo.dlr.de/xsd/sumoConfiguration.xsd">

    <input>
        <net-file value="net.net.xml"/>
        <route-files value="input_routes.rou.xml"/>
        <additional-files value="input_additional.add.xml,input_additional2.add.xml"/>
    </input>

    <output>
        <write-license value="true"/>
        <tripinfo-output.write-unfinished value="true"/>
    </output>

    <time>
        <begin value="0"/>
        <end value="3000"/>
        <step-length value="0.2"/>
    </time>

    <processing>
        <default.action-step-length value="1"/>
        <default.speeddev value="0"/>
    </processing>

    <report>
        <verbose value="true"/>
        <xml-validation value="never"/>
        <xml-validation.routes value="never"/>
        <duration-log.statistics value="true"/>
        <no-step-log value="true"/>
    </report>

    <gui_only>
        <tracker-interval value="0.2"/>
    </gui_only>

</configuration>
-->

<meandata xmlns:xsi="http://www.w3.org/2001/XMLSchema-instance" xsi:noNamespaceSchemaLocation="http://sumo.dlr.de/xsd/meandata_file.xsd">
    <interval begin="0.00" end="60.00" id="dump_60">
        <edge id="1/1to2/1" sampledSeconds="174.16" traveltime="151.47" overlapTraveltime="146.95" density="2.96" laneDensity="1.48" occupancy="0.71" waitingTime="0.00" timeLoss="98.29" speed="6.72" speedRelative="0.34" departed="30" arrived="0" entered="0" left="26" laneChangedFrom="3" laneChangedTo="3"/>
        <edge id="2/1to3/1" sampledSeconds="757.42" traveltime="67.33" overlapTraveltime="67.68" density="12.85" laneDensity="6.43" occupancy="3.19" waitingTime="0.00" timeLoss="57.89" speed="14.59" speedRelative="0.74" departed="0" arrived="0" entered="26" left="0" laneChangedFrom="10" laneChangedTo="10"/>
        <edge id="5/1to6/1" sampledSeconds="186.76" traveltime="145.52" overlapTraveltime="141.64" density="3.17" laneDensity="1.58" occupancy="0.77" waitingTime="0.00" timeLoss="118.67" speed="6.97" speedRelative="0.36" departed="30" arrived="0" entered="0" left="26" laneChangedFrom="4" laneChangedTo="4"/>
        <edge id="6/1to7/1" sampledSeconds="736.92" traveltime="61.23" overlapTraveltime="61.53" density="12.51" laneDensity="6.25" occupancy="3.10" waitingTime="0.00" timeLoss="94.00" speed="16.04" speedRelative="0.82" departed="0" arrived="0" entered="26" left="1" laneChangedFrom="12" laneChangedTo="12"/>
        <edge id="7/1to8/1" sampledSeconds="7.72" traveltime="44.63" overlapTraveltime="44.86" density="0.13" laneDensity="0.07" occupancy="0.03" waitingTime="0.00" timeLoss="0.28" speed="22.00" speedRelative="1.12" departed="0" arrived="0" entered="1" left="0" laneChangedFrom="0" laneChangedTo="0"/>
    </interval>
    <interval begin="60.00" end="120.00" id="dump_60">
        <edge id="1/1to2/1" sampledSeconds="347.76" traveltime="96.47" overlapTraveltime="95.78" density="5.90" laneDensity="2.95" occupancy="1.46" waitingTime="0.00" timeLoss="119.71" speed="10.31" speedRelative="0.53" departed="30" arrived="0" entered="0" left="28" laneChangedFrom="7" laneChangedTo="7"/>
        <edge id="2/1to3/1" sampledSeconds="1806.02" traveltime="67.10" overlapTraveltime="67.44" density="30.65" laneDensity="15.32" occupancy="7.63" waitingTime="0.00" timeLoss="106.26" speed="14.64" speedRelative="0.75" departed="0" arrived="0" entered="27" left="24" laneChangedFrom="18" laneChangedTo="18"/>
        <edge id="3/1to4/1" sampledSeconds="580.20" traveltime="63.93" overlapTraveltime="64.25" density="9.85" laneDensity="4.92" occupancy="2.44" waitingTime="0.00" timeLoss="28.84" speed="15.36" speedRelative="0.78" departed="0" arrived="0" entered="24" left="0" laneChangedFrom="3" laneChangedTo="3"/>
        <edge id="5/1to6/1" sampledSeconds="351.53" traveltime="89.81" overlapTraveltime="88.98" density="5.97" laneDensity="2.98" occupancy="1.48" waitingTime="0.00" timeLoss="146.71" speed="11.09" speedRelative="0.57" departed="30" arrived="0" entered="0" left="28" laneChangedFrom="11" laneChangedTo="11"/>
        <edge id="6/1to7/1" sampledSeconds="1632.86" traveltime="56.55" overlapTraveltime="56.85" density="27.71" laneDensity="13.86" occupancy="6.89" waitingTime="0.00" timeLoss="155.58" speed="17.36" speedRelative="0.89" departed="0" arrived="0" entered="28" left="27" laneChangedFrom="15" laneChangedTo="15"/>
        <edge id="7/1to8/1" sampledSeconds="718.93" traveltime="60.87" overlapTraveltime="61.16" density="12.20" laneDensity="6.10" occupancy="3.03" waitingTime="0.00" timeLoss="116.05" speed="16.14" speedRelative="0.82" departed="0" arrived="0" entered="27" left="2" laneChangedFrom="8" laneChangedTo="8"/>
        <edge id="8/1to9/1" sampledSeconds="30.26" traveltime="43.64" overlapTraveltime="43.86" density="0.51" laneDensity="0.26" occupancy="0.13" waitingTime="0.00" timeLoss="0.92" speed="22.50" speedRelative="1.15" departed="0" arrived="0" entered="2" left="0" laneChangedFrom="0" laneChangedTo="0"/>
    </interval>
    <interval begin="120.00" end="180.00" id="dump_60">
        <edge id="1/1to2/1" sampledSeconds="521.75" traveltime="84.99" overlapTraveltime="85.02" density="8.85" laneDensity="4.43" occupancy="2.19" waitingTime="0.00" timeLoss="136.54" speed="11.61" speedRelative="0.59" departed="30" arrived="0" entered="0" left="26" laneChangedFrom="15" laneChangedTo="15"/>
        <edge id="2/1to3/1" sampledSeconds="1808.72" traveltime="65.44" overlapTraveltime="65.78" density="30.70" laneDensity="15.35" occupancy="7.64" waitingTime="0.00" timeLoss="108.94" speed="15.01" speedRelative="0.77" departed="0" arrived="0" entered="27" left="26" laneChangedFrom="10" laneChangedTo="10"/>
        <edge id="3/1to4/1" sampledSeconds="1752.92" traveltime="67.27" overlapTraveltime="67.61" density="29.75" laneDensity="14.87" occupancy="7.40" waitingTime="0.00" timeLoss="113.15" speed="14.60" speedRelative="0.74" departed="0" arrived="0" entered="26" left="21" laneChangedFrom="13" laneChangedTo="13"/>
        <edge id="4/1to5/1" sampledSeconds="455.18" traveltime="62.39" overlapTraveltime="62.70" density="7.72" laneDensity="3.86" occupancy="1.92" waitingTime="0.00" timeLoss="21.54" speed="15.74" speedRelative="0.80" departed="0" arrived="0" entered="21" left="0" laneChangedFrom="4" laneChangedTo="4"/>
        <edge id="5/1to6/1" sampledSeconds="481.85" traveltime="74.05" overlapTraveltime="73.92" density="8.18" laneDensity="4.09" occupancy="2.03" waitingTime="0.00" timeLoss="167.18" speed="13.35" speedRelative="0.68" departed="30" arrived="0" entered="0" left="28" laneChangedFrom="14" laneChangedTo="14"/>
        <edge id="6/1to7/1" sampledSeconds="1556.42" traveltime="54.32" overlapTraveltime="54.61" density="26.41" laneDensity="13.21" occupancy="6.57" waitingTime="0.00" timeLoss="114.04" speed="18.08" speedRelative="0.92" departed="0" arrived="0" entered="28" left="28" laneChangedFrom="20" laneChangedTo="20"/>
        <edge id="7/1to8/1" sampledSeconds="1833.65" traveltime="60.62" overlapTraveltime="60.92" density="31.12" laneDensity="15.56" occupancy="7.74" waitingTime="0.00" timeLoss="274.27" speed="16.20" speedRelative="0.83" departed="0" arrived="0" entered="28" left="28" laneChangedFrom="10" laneChangedTo="10"/>
        <edge id="8/1to9/1" sampledSeconds="585.19" traveltime="51.48" overlapTraveltime="51.73" density="9.93" laneDensity="4.97" occupancy="2.46" waitingTime="0.00" timeLoss="36.97" speed="19.08" speedRelative="0.97" departed="0" arrived="0" entered="28" left="4" laneChangedFrom="4" laneChangedTo="4"/>
        <edge id="9/1to10/1" sampledSeconds="81.26" traveltime="43.18" overlapTraveltime="43.40" density="1.38" laneDensity="0.69" occupancy="0.34" waitingTime="0.00" timeLoss="1.98" speed="22.74" speedRelative="1.16" departed="0" arrived="0" entered="4" left="0" laneChangedFrom="0" laneChangedTo="0"/>
    </interval>
    <interval begin="180.00" end="240.00" id="dump_60">
        <edge id="1/1to2/1" sampledSeconds="684.39" traveltime="77.59" overlapTraveltime="77.81" density="11.61" laneDensity="5.81" occupancy="2.87" waitingTime="0.00" timeLoss="139.87" speed="12.69" speedRelative="0.65" departed="28" arrived="0" entered="2" left="27" laneChangedFrom="13" laneChangedTo="13"/>
        <edge id="10/1to1/1" sampledSeconds="147.32" traveltime="42.51" overlapTraveltime="42.74" density="2.50" laneDensity="1.25" occupancy="0.62" waitingTime="0.00" timeLoss="4.38" speed="23.09" speedRelative="1.18" departed="0" arrived="0" entered="7" left="2" laneChangedFrom="0" laneChangedTo="0"/>
        <edge id="2/1to3/1" sampledSeconds="1796.21" traveltime="67.59" overlapTraveltime="67.93" density="30.48" laneDensity="15.24" occupancy="7.58" waitingTime="0.00" timeLoss="135.09" speed="14.53" speedRelative="0.74" departed="0" arrived="0" entered="27" left="26" laneChangedFrom="16" laneChangedTo="16"/>
        <edge id="3/1to4/1" sampledSeconds="1891.41" traveltime="67.06" overlapTraveltime="67.41" density="32.10" laneDensity="16.05" occupancy="7.99" waitingTime="0.00" timeLoss="152.77" speed="14.64" speedRelative="0.75" departed="0" arrived="0" entered="26" left="28" laneChangedFrom="13" laneChangedTo="13"/>
        <edge id="4/1to5/1" sampledSeconds="1585.20" traveltime="66.70" overlapTraveltime="67.13" density="26.90" laneDensity="13.45" occupancy="6.69" waitingTime="0.00" timeLoss="103.01" speed="14.71" speedRelative="0.75" departed="0" arrived="0" entered="28" left="16" laneChangedFrom="14" laneChangedTo="14"/>
        <edge id="5/1to6/1" sampledSeconds="1032.02" traveltime="68.16" overlapTraveltime="68.47" density="17.51" laneDensity="8.76" occupancy="4.30" waitingTime="5.00" timeLoss="178.24" speed="14.42" speedRelative="0.74" departed="21" arrived="0" entered="15" left="11" laneChangedFrom="22" laneChangedTo="22"/>
        <edge id="6/1to7/1" sampledSeconds="1162.78" traveltime="53.21" overlapTraveltime="53.48" density="19.73" laneDensity="9.87" occupancy="4.91" waitingTime="0.00" timeLoss="91.71" speed="18.46" speedRelative="0.94" departed="0" arrived="0" entered="11" left="28" laneChangedFrom="10" laneChangedTo="10"/>
        <edge id="7/1to8/1" sampledSeconds="1734.41" traveltime="55.79" overlapTraveltime="56.08" density="29.43" laneDensity="14.72" occupancy="7.32" waitingTime="0.00" timeLoss="196.45" speed="17.60" speedRelative="0.90" departed="0" arrived="0" entered="28" left="29" laneChangedFrom="14" laneChangedTo="14"/>
        <edge id="8/1to9/1" sampledSeconds="1752.53" traveltime="57.79" overlapTraveltime="58.06" density="29.74" laneDensity="14.87" occupancy="7.40" waitingTime="0.00" timeLoss="177.94" speed="17.00" speedRelative="0.87" departed="0" arrived="0" entered="28" left="23" laneChangedFrom="11" laneChangedTo="11"/>
        <edge id="9/1to10/1" sampledSeconds="627.39" traveltime="48.69" overlapTraveltime="48.91" density="10.65" laneDensity="5.32" occupancy="2.65" waitingTime="0.00" timeLoss="38.69" speed="20.18" speedRelative="1.03" departed="0" arrived="0" entered="23" left="7" laneChangedFrom="7" laneChangedTo="7"/>
    </interval>
    <interval begin="240.00" end="300.00" id="dump_60">
        <edge id="1/1to2/1" sampledSeconds="1272.05" traveltime="67.03" overlapTraveltime="67.36" density="21.59" laneDensity="10.79" occupancy="5.30" waitingTime="8.00" timeLoss="201.14" speed="14.65" speedRelative="0.75" departed="25" arrived="0" entered="7" left="12" laneChangedFrom="17" laneChangedTo="17"/>
        <edge id="10/1to1/1" sampledSeconds="681.18" traveltime="47.63" overlapTraveltime="47.91" density="11.56" laneDensity="5.78" occupancy="2.87" waitingTime="0.00" timeLoss="30.28" speed="20.60" speedRelative="1.05" departed="0" arrived="0" entered="19" left="7" laneChangedFrom="6" laneChangedTo="6"/>
        <edge id="2/1to3/1" sampledSeconds="1491.71" traveltime="66.80" overlapTraveltime="67.16" density="25.32" laneDensity="12.66" occupancy="6.30" waitingTime="0.00" timeLoss="109.91" speed="14.70" speedRelative="0.75" departed="0" arrived="0" entered="12" left="29" laneChangedFrom="11" laneChangedTo="11"/>
        <edge id="3/1to4/1" sampledSeconds="1687.52" traveltime="66.92" overlapTraveltime="67.26" density="28.64" laneDensity="14.32" occupancy="7.12" waitingTime="0.00" timeLoss="123.53" speed="14.68" speedRelative="0.75" departed="0" arrived="0" entered="29" left="25" laneChangedFrom="16" laneChangedTo="16"/>
        <edge id="4/1to5/1" sampledSeconds="2019.93" traveltime="67.35" overlapTraveltime="67.72" density="34.28" laneDensity="17.14" occupancy="8.53" waitingTime="0.00" timeLoss="165.80" speed="14.58" speedRelative="0.74" departed="0" arrived="0" entered="25" left="26" laneChangedFrom="17" laneChangedTo="17"/>
        <edge id="5/1to6/1" sampledSeconds="2428.46" traveltime="66.15" overlapTraveltime="66.47" density="41.21" laneDensity="20.61" occupancy="10.22" waitingTime="1.40" timeLoss="338.12" speed="14.85" speedRelative="0.76" departed="12" arrived="0" entered="27" left="29" laneChangedFrom="28" laneChangedTo="28"/>
        <edge id="6/1to7/1" sampledSeconds="817.61" traveltime="60.60" overlapTraveltime="60.90" density="13.88" laneDensity="6.94" occupancy="3.44" waitingTime="0.00" timeLoss="67.16" speed="16.21" speedRelative="0.83" departed="0" arrived="0" entered="29" left="9" laneChangedFrom="5" laneChangedTo="5"/>
        <edge id="7/1to8/1" sampledSeconds="1005.89" traveltime="55.61" overlapTraveltime="55.88" density="17.07" laneDensity="8.54" occupancy="4.25" waitingTime="0.00" timeLoss="87.46" speed="17.66" speedRelative="0.90" departed="0" arrived="0" entered="9" left="26" laneChangedFrom="8" laneChangedTo="8"/>
        <edge id="8/1to9/1" sampledSeconds="1879.59" traveltime="55.99" overlapTraveltime="56.30" density="31.90" laneDensity="15.95" occupancy="7.94" waitingTime="0.00" timeLoss="224.53" speed="17.53" speedRelative="0.89" departed="0" arrived="0" entered="27" left="35" laneChangedFrom="12" laneChangedTo="12"/>
        <edge id="9/1to10/1" sampledSeconds="1629.39" traveltime="60.02" overlapTraveltime="60.30" density="27.65" laneDensity="13.83" occupancy="6.88" waitingTime="0.00" timeLoss="206.65" speed="16.37" speedRelative="0.84" departed="0" arrived="0" entered="35" left="19" laneChangedFrom="10" laneChangedTo="10"/>
    </interval>
    <interval begin="300.00" end="360.00" id="dump_60">
        <edge id="1/1to2/1" sampledSeconds="2302.39" traveltime="66.72" overlapTraveltime="67.07" density="39.07" laneDensity="19.54" occupancy="9.67" waitingTime="1.40" timeLoss="373.77" speed="14.72" speedRelative="0.75" departed="18" arrived="0" entered="17" left="29" laneChangedFrom="17" laneChangedTo="17"/>
        <edge id="10/1to1/1" sampledSeconds="1440.17" traveltime="60.09" overlapTraveltime="60.41" density="24.44" laneDensity="12.22" occupancy="6.07" waitingTime="0.00" timeLoss="195.79" speed="16.34" speedRelative="0.83" departed="0" arrived="0" entered="36" left="17" laneChangedFrom="19" laneChangedTo="19"/>
        <edge id="2/1to3/1" sampledSeconds="998.65" traveltime="63.47" overlapTraveltime="63.78" density="16.95" laneDensity="8.47" occupancy="4.21" waitingTime="0.00" timeLoss="110.97" speed="15.48" speedRelative="0.79" departed="0" arrived="0" entered="29" left="14" laneChangedFrom="7" laneChangedTo="7"/>
        <edge id="3/1to4/1" sampledSeconds="1725.79" traveltime="67.28" overlapTraveltime="67.62" density="29.29" laneDensity="14.64" occupancy="7.29" waitingTime="0.00" timeLoss="149.32" speed="14.60" speedRelative="0.74" departed="0" arrived="0" entered="14" left="25" laneChangedFrom="15" laneChangedTo="15"/>
        <edge id="4/1to5/1" sampledSeconds="1617.80" traveltime="67.33" overlapTraveltime="67.69" density="27.46" laneDensity="13.73" occupancy="6.82" waitingTime="0.00" timeLoss="136.68" speed="14.58" speedRelative="0.74" departed="0" arrived="0" entered="25" left="30" laneChangedFrom="12" laneChangedTo="12"/>
        <edge id="5/1to6/1" sampledSeconds="2811.24" traveltime="68.48" overlapTraveltime="68.82" density="47.71" laneDensity="23.85" occupancy="11.83" waitingTime="0.00" timeLoss="407.73" speed="14.34" speedRelative="0.73" departed="11" arrived="0" entered="30" left="38" laneChangedFrom="17" laneChangedTo="17"/>
        <edge id="6/1to7/1" sampledSeconds="2220.76" traveltime="65.17" overlapTraveltime="65.49" density="37.69" laneDensity="18.84" occupancy="9.38" waitingTime="0.00" timeLoss="282.48" speed="15.07" speedRelative="0.77" departed="0" arrived="0" entered="38" left="26" laneChangedFrom="19" laneChangedTo="19"/>
        <edge id="7/1to8/1" sampledSeconds="754.87" traveltime="59.82" overlapTraveltime="60.12" density="12.81" laneDensity="6.41" occupancy="3.18" waitingTime="0.00" timeLoss="63.89" speed="16.42" speedRelative="0.84" departed="0" arrived="0" entered="25" left="9" laneChangedFrom="8" laneChangedTo="8"/>
        <edge id="8/1to9/1" sampledSeconds="855.01" traveltime="55.61" overlapTraveltime="55.88" density="14.51" laneDensity="7.26" occupancy="3.61" waitingTime="0.00" timeLoss="51.75" speed="17.67" speedRelative="0.90" departed="0" arrived="0" entered="9" left="25" laneChangedFrom="8" laneChangedTo="8"/>
        <edge id="9/1to10/1" sampledSeconds="2069.61" traveltime="56.42" overlapTraveltime="56.73" density="35.12" laneDensity="17.56" occupancy="8.74" waitingTime="0.00" timeLoss="245.15" speed="17.40" speedRelative="0.89" departed="0" arrived="0" entered="24" left="36" laneChangedFrom="9" laneChangedTo="9"/>
    </interval>
    <interval begin="360.00" end="420.00" id="dump_60">
        <edge id="1/1to2/1" sampledSeconds="2557.28" traveltime="64.05" overlapTraveltime="64.38" density="43.40" laneDensity="21.70" occupancy="10.74" waitingTime="0.00" timeLoss="333.77" speed="15.33" speedRelative="0.78" departed="12" arrived="0" entered="39" left="36" laneChangedFrom="13" laneChangedTo="13"/>
        <edge id="10/1to1/1" sampledSeconds="2247.17" traveltime="59.16" overlapTraveltime="59.49" density="38.14" laneDensity="19.07" occupancy="9.49" waitingTime="0.00" timeLoss="340.48" speed="16.59" speedRelative="0.85" departed="0" arrived="0" entered="25" left="39" laneChangedFrom="19" laneChangedTo="19"/>
        <edge id="2/1to3/1" sampledSeconds="2380.94" traveltime="69.15" overlapTraveltime="69.50" density="40.41" laneDensity="20.20" occupancy="10.06" waitingTime="0.00" timeLoss="449.58" speed="14.20" speedRelative="0.72" departed="0" arrived="0" entered="36" left="21" laneChangedFrom="10" laneChangedTo="10"/>
        <edge id="3/1to4/1" sampledSeconds="887.64" traveltime="68.77" overlapTraveltime="69.17" density="15.06" laneDensity="7.53" occupancy="3.74" waitingTime="0.00" timeLoss="123.05" speed="14.27" speedRelative="0.73" departed="0" arrived="0" entered="21" left="18" laneChangedFrom="6" laneChangedTo="6"/>
        <edge id="4/1to5/1" sampledSeconds="1780.34" traveltime="69.29" overlapTraveltime="69.69" density="30.21" laneDensity="15.11" occupancy="7.52" waitingTime="0.00" timeLoss="206.90" speed="14.16" speedRelative="0.72" departed="0" arrived="0" entered="18" left="24" laneChangedFrom="18" laneChangedTo="18"/>
        <edge id="5/1to6/1" sampledSeconds="2670.56" traveltime="71.95" overlapTraveltime="72.31" density="45.32" laneDensity="22.66" occupancy="11.24" waitingTime="0.60" timeLoss="457.67" speed="13.65" speedRelative="0.70" departed="15" arrived="0" entered="24" left="36" laneChangedFrom="17" laneChangedTo="17"/>
        <edge id="6/1to7/1" sampledSeconds="2687.26" traveltime="67.64" overlapTraveltime="67.98" density="45.60" laneDensity="22.80" occupancy="11.34" waitingTime="0.00" timeLoss="385.33" speed="14.52" speedRelative="0.74" departed="0" arrived="0" entered="36" left="40" laneChangedFrom="11" laneChangedTo="11"/>
        <edge id="7/1to8/1" sampledSeconds="1971.05" traveltime="63.27" overlapTraveltime="63.58" density="33.45" laneDensity="16.72" occupancy="8.32" waitingTime="0.00" timeLoss="209.68" speed="15.53" speedRelative="0.79" departed="0" arrived="0" entered="41" left="23" laneChangedFrom="15" laneChangedTo="15"/>
        <edge id="8/1to9/1" sampledSeconds="764.18" traveltime="58.78" overlapTraveltime="59.09" density="12.97" laneDensity="6.48" occupancy="3.22" waitingTime="0.00" timeLoss="53.72" speed="16.71" speedRelative="0.85" departed="0" arrived="0" entered="22" left="8" laneChangedFrom="5" laneChangedTo="5"/>
        <edge id="9/1to10/1" sampledSeconds="720.95" traveltime="57.30" overlapTraveltime="57.60" density="12.23" laneDensity="6.12" occupancy="3.04" waitingTime="0.00" timeLoss="45.37" speed="17.14" speedRelative="0.87" departed="0" arrived="0" entered="9" left="25" laneChangedFrom="6" laneChangedTo="6"/>
    </interval>
    <interval begin="420.00" end="480.00" id="dump_60">
        <edge id="1/1to2/1" sampledSeconds="3164.59" traveltime="66.83" overlapTraveltime="67.15" density="53.71" laneDensity="26.85" occupancy="13.31" waitingTime="0.20" timeLoss="562.08" speed="14.70" speedRelative="0.75" departed="16" arrived="0" entered="21" left="48" laneChangedFrom="13" laneChangedTo="13"/>
        <edge id="10/1to1/1" sampledSeconds="673.06" traveltime="61.20" overlapTraveltime="61.57" density="11.42" laneDensity="5.71" occupancy="2.83" waitingTime="0.00" timeLoss="63.28" speed="16.03" speedRelative="0.82" departed="0" arrived="0" entered="8" left="21" laneChangedFrom="7" laneChangedTo="7"/>
        <edge id="2/1to3/1" sampledSeconds="2591.13" traveltime="61.55" overlapTraveltime="61.88" density="43.97" laneDensity="21.99" occupancy="10.93" waitingTime="0.00" timeLoss="311.18" speed="15.95" speedRelative="0.81" departed="0" arrived="0" entered="48" left="44" laneChangedFrom="11" laneChangedTo="11"/>
        <edge id="3/1to4/1" sampledSeconds="2227.66" traveltime="64.55" overlapTraveltime="64.88" density="37.80" laneDensity="18.90" occupancy="9.41" waitingTime="0.00" timeLoss="328.63" speed="15.21" speedRelative="0.78" departed="0" arrived="0" entered="43" left="22" laneChangedFrom="10" laneChangedTo="10"/>
        <edge id="4/1to5/1" sampledSeconds="1013.43" traveltime="66.29" overlapTraveltime="66.71" density="17.20" laneDensity="8.60" occupancy="4.27" waitingTime="0.00" timeLoss="101.44" speed="14.80" speedRelative="0.75" departed="0" arrived="0" entered="22" left="20" laneChangedFrom="10" laneChangedTo="10"/>
        <edge id="5/1to6/1" sampledSeconds="3062.32" traveltime="74.10" overlapTraveltime="74.50" density="51.97" laneDensity="25.98" occupancy="12.88" waitingTime="0.00" timeLoss="681.77" speed="13.25" speedRelative="0.68" departed="16" arrived="0" entered="20" left="39" laneChangedFrom="27" laneChangedTo="27"/>
        <edge id="6/1to7/1" sampledSeconds="2403.93" traveltime="70.15" overlapTraveltime="70.50" density="40.80" laneDensity="20.40" occupancy="10.14" waitingTime="0.00" timeLoss="367.82" speed="14.00" speedRelative="0.71" departed="0" arrived="0" entered="39" left="37" laneChangedFrom="15" laneChangedTo="15"/>
        <edge id="7/1to8/1" sampledSeconds="2530.76" traveltime="65.48" overlapTraveltime="65.82" density="42.95" laneDensity="21.47" occupancy="10.68" waitingTime="0.00" timeLoss="302.54" speed="15.00" speedRelative="0.77" departed="0" arrived="0" entered="37" left="36" laneChangedFrom="15" laneChangedTo="15"/>
        <edge id="8/1to9/1" sampledSeconds="1731.42" traveltime="63.67" overlapTraveltime="63.98" density="29.38" laneDensity="14.69" occupancy="7.31" waitingTime="0.00" timeLoss="211.91" speed="15.43" speedRelative="0.79" departed="0" arrived="0" entered="37" left="20" laneChangedFrom="7" laneChangedTo="7"/>
        <edge id="9/1to10/1" sampledSeconds="820.06" traveltime="58.86" overlapTraveltime="59.18" density="13.92" laneDensity="6.96" occupancy="3.46" waitingTime="0.00" timeLoss="59.69" speed="16.68" speedRelative="0.85" departed="0" arrived="0" entered="20" left="8" laneChangedFrom="5" laneChangedTo="5"/>
    </interval>
    <interval begin="480.00" end="540.00" id="dump_60">
        <edge id="1/1to2/1" sampledSeconds="2175.65" traveltime="70.92" overlapTraveltime="71.27" density="36.92" laneDensity="18.46" occupancy="9.11" waitingTime="2.20" timeLoss="285.09" speed="13.85" speedRelative="0.71" departed="20" arrived="0" entered="8" left="38" laneChangedFrom="25" laneChangedTo="25"/>
        <edge id="10/1to1/1" sampledSeconds="914.64" traveltime="57.70" overlapTraveltime="58.02" density="15.52" laneDensity="7.76" occupancy="3.86" waitingTime="0.00" timeLoss="67.02" speed="17.01" speedRelative="0.87" departed="0" arrived="0" entered="22" left="8" laneChangedFrom="9" laneChangedTo="9"/>
        <edge id="2/1to3/1" sampledSeconds="2847.58" traveltime="65.04" overlapTraveltime="65.34" density="48.33" laneDensity="24.16" occupancy="12.03" waitingTime="0.00" timeLoss="414.56" speed="15.11" speedRelative="0.77" departed="0" arrived="0" entered="38" left="41" laneChangedFrom="13" laneChangedTo="13"/>
        <edge id="3/1to4/1" sampledSeconds="2737.88" traveltime="60.79" overlapTraveltime="61.11" density="46.46" laneDensity="23.23" occupancy="11.56" waitingTime="0.00" timeLoss="327.04" speed="16.15" speedRelative="0.82" departed="0" arrived="0" entered="42" left="44" laneChangedFrom="19" laneChangedTo="19"/>
        <edge id="4/1to5/1" sampledSeconds="2115.08" traveltime="63.90" overlapTraveltime="64.25" density="35.89" laneDensity="17.95" occupancy="8.93" waitingTime="0.00" timeLoss="308.65" speed="15.36" speedRelative="0.78" departed="0" arrived="0" entered="43" left="20" laneChangedFrom="12" laneChangedTo="12"/>
        <edge id="5/1to6/1" sampledSeconds="2424.64" traveltime="67.96" overlapTraveltime="68.36" density="41.15" laneDensity="20.57" occupancy="10.16" waitingTime="2.20" timeLoss="518.40" speed="14.44" speedRelative="0.74" departed="17" arrived="0" entered="20" left="43" laneChangedFrom="25" laneChangedTo="25"/>
        <edge id="6/1to7/1" sampledSeconds="2994.15" traveltime="74.04" overlapTraveltime="74.39" density="50.81" laneDensity="25.41" occupancy="12.65" waitingTime="0.00" timeLoss="644.39" speed="13.27" speedRelative="0.68" departed="0" arrived="0" entered="43" left="28" laneChangedFrom="22" laneChangedTo="22"/>
        <edge id="7/1to8/1" sampledSeconds="2280.40" traveltime="66.23" overlapTraveltime="66.56" density="38.70" laneDensity="19.35" occupancy="9.63" waitingTime="0.00" timeLoss="235.90" speed="14.83" speedRelative="0.76" departed="0" arrived="0" entered="28" left="33" laneChangedFrom="20" laneChangedTo="20"/>
        <edge id="8/1to9/1" sampledSeconds="2542.03" traveltime="66.36" overlapTraveltime="66.70" density="43.14" laneDensity="21.57" occupancy="10.74" waitingTime="0.00" timeLoss="348.03" speed="14.80" speedRelative="0.76" departed="0" arrived="0" entered="33" left="34" laneChangedFrom="18" laneChangedTo="18"/>
        <edge id="9/1to10/1" sampledSeconds="1386.17" traveltime="59.58" overlapTraveltime="59.86" density="23.52" laneDensity="11.76" occupancy="5.84" waitingTime="0.00" timeLoss="106.98" speed="16.49" speedRelative="0.84" departed="0" arrived="0" entered="34" left="22" laneChangedFrom="13" laneChangedTo="13"/>
    </interval>
    <interval begin="540.00" end="600.00" id="dump_60">
        <edge id="1/1to2/1" sampledSeconds="2377.85" traveltime="67.19" overlapTraveltime="67.53" density="40.35" laneDensity="20.18" occupancy="9.99" waitingTime="1.20" timeLoss="318.68" speed="14.62" speedRelative="0.75" departed="17" arrived="0" entered="23" left="29" laneChangedFrom="17" laneChangedTo="17"/>
        <edge id="10/1to1/1" sampledSeconds="1239.84" traveltime="61.42" overlapTraveltime="61.75" density="21.04" laneDensity="10.52" occupancy="5.23" waitingTime="0.00" timeLoss="124.94" speed="15.98" speedRelative="0.82" departed="0" arrived="0" entered="25" left="23" laneChangedFrom="13" laneChangedTo="13"/>
        <edge id="2/1to3/1" sampledSeconds="2218.98" traveltime="69.52" overlapTraveltime="69.88" density="37.66" laneDensity="18.83" occupancy="9.36" waitingTime="0.00" timeLoss="250.31" speed="14.13" speedRelative="0.72" departed="0" arrived="0" entered="29" left="39" laneChangedFrom="13" laneChangedTo="13"/>
        <edge id="3/1to4/1" sampledSeconds="2450.54" traveltime="67.22" overlapTraveltime="67.54" density="41.59" laneDensity="20.79" occupancy="10.34" waitingTime="0.00" timeLoss="415.18" speed="14.62" speedRelative="0.75" departed="0" arrived="0" entered="39" left="36" laneChangedFrom="12" laneChangedTo="12"/>
        <edge id="4/1to5/1" sampledSeconds="2977.39" traveltime="65.48" overlapTraveltime="65.81" density="50.53" laneDensity="25.26" occupancy="12.58" waitingTime="0.00" timeLoss="523.57" speed="15.00" speedRelative="0.77" departed="0" arrived="0" entered="37" left="39" laneChangedFrom="7" laneChangedTo="7"/>
        <edge id="5/1to6/1" sampledSeconds="2928.65" traveltime="65.43" overlapTraveltime="65.75" density="49.70" laneDensity="24.85" occupancy="12.33" waitingTime="0.00" timeLoss="577.70" speed="15.01" speedRelative="0.77" departed="11" arrived="0" entered="39" left="39" laneChangedFrom="15" laneChangedTo="15"/>
        <edge id="6/1to7/1" sampledSeconds="2960.28" traveltime="71.79" overlapTraveltime="72.17" density="50.24" laneDensity="25.12" occupancy="12.50" waitingTime="0.00" timeLoss="728.81" speed="13.68" speedRelative="0.70" departed="0" arrived="0" entered="39" left="43" laneChangedFrom="14" laneChangedTo="14"/>