<?xml version="1.0" encoding="UTF-8"?>

<!-- generated on Wed May 30 09:51:06 2018 by Eclipse SUMO Version b2daee9
This data file and the accompanying materials
are made available under the terms of the Eclipse Public License v2.0
which accompanies this distribution, and is available at
http://www.eclipse.org/legal/epl-v20.html
SPDX-License-Identifier: EPL-2.0
<configuration xmlns:xsi="http://www.w3.org/2001/XMLSchema-instance" xsi:noNamespaceSchemaLocation="https://sumo.dlr.de/xsd/sumoConfiguration.xsd">

    <input>
        <net-file value="net.net.xml"/>
        <route-files value="input_routes.rou.xml"/>
        <additional-files value="input_additional.add.xml,input_additional2.add.xml"/>
    </input>

    <output>
        <write-license value="true"/>
    </output>

    <time>
        <begin value="0"/>
        <end value="3000"/>
        <step-length value="0.2"/>
    </time>

    <processing>
        <lateral-resolution value="0.8"/>
        <default.action-step-length value="1"/>
    </processing>

    <report>
        <verbose value="true"/>
        <xml-validation value="never"/>
        <duration-log.statistics value="true"/>
        <no-step-log value="true"/>
    </report>

    <gui_only>
        <tracker-interval value="0.2"/>
    </gui_only>

</configuration>
-->

<meandata xmlns:xsi="http://www.w3.org/2001/XMLSchema-instance" xsi:noNamespaceSchemaLocation="https://sumo.dlr.de/xsd/meandata_file.xsd">
    <interval begin="0.00" end="60.00" id="dump_60">
        <edge id="1/1to2/1" sampledSeconds="182.17" traveltime="147.82" overlapTraveltime="143.97" density="3.09" occupancy="0.75" waitingTime="0.00" speed="6.86" departed="30" arrived="0" entered="0" left="26" laneChangedFrom="5" laneChangedTo="5"/>
        <edge id="2/1to3/1" sampledSeconds="749.40" traveltime="67.24" overlapTraveltime="67.59" density="12.72" occupancy="3.15" waitingTime="0.00" speed="14.60" departed="0" arrived="0" entered="26" left="0" laneChangedFrom="5" laneChangedTo="5"/>
        <edge id="5/1to6/1" sampledSeconds="182.49" traveltime="147.22" overlapTraveltime="143.65" density="3.10" occupancy="0.75" waitingTime="0.00" speed="6.87" departed="30" arrived="0" entered="0" left="26" laneChangedFrom="9" laneChangedTo="9"/>
        <edge id="6/1to7/1" sampledSeconds="741.14" traveltime="59.35" overlapTraveltime="59.64" density="12.58" occupancy="3.12" waitingTime="0.00" speed="16.55" departed="0" arrived="0" entered="26" left="1" laneChangedFrom="8" laneChangedTo="8"/>
        <edge id="7/1to8/1" sampledSeconds="7.34" traveltime="44.38" overlapTraveltime="44.60" density="0.12" occupancy="0.03" waitingTime="0.00" speed="22.13" departed="0" arrived="0" entered="1" left="0" laneChangedFrom="0" laneChangedTo="0"/>
    </interval>
    <interval begin="60.00" end="120.00" id="dump_60">
        <edge id="1/1to2/1" sampledSeconds="365.18" traveltime="97.08" overlapTraveltime="96.46" density="6.20" occupancy="1.53" waitingTime="0.00" speed="10.23" departed="30" arrived="0" entered="0" left="26" laneChangedFrom="8" laneChangedTo="8"/>
        <edge id="2/1to3/1" sampledSeconds="1795.02" traveltime="67.25" overlapTraveltime="67.59" density="30.46" occupancy="7.58" waitingTime="0.00" speed="14.60" departed="0" arrived="0" entered="26" left="23" laneChangedFrom="17" laneChangedTo="17"/>
        <edge id="3/1to4/1" sampledSeconds="573.41" traveltime="64.07" overlapTraveltime="64.40" density="9.73" occupancy="2.42" waitingTime="0.00" speed="15.33" departed="0" arrived="0" entered="23" left="0" laneChangedFrom="1" laneChangedTo="1"/>
        <edge id="5/1to6/1" sampledSeconds="340.58" traveltime="91.37" overlapTraveltime="90.42" density="5.78" occupancy="1.43" waitingTime="0.00" speed="10.92" departed="30" arrived="0" entered="0" left="28" laneChangedFrom="10" laneChangedTo="10"/>
        <edge id="6/1to7/1" sampledSeconds="1620.53" traveltime="56.61" overlapTraveltime="56.91" density="27.50" occupancy="6.84" waitingTime="0.00" speed="17.35" departed="0" arrived="0" entered="28" left="28" laneChangedFrom="18" laneChangedTo="18"/>
        <edge id="7/1to8/1" sampledSeconds="731.77" traveltime="55.43" overlapTraveltime="55.69" density="12.42" occupancy="3.09" waitingTime="0.00" speed="17.72" departed="0" arrived="0" entered="28" left="4" laneChangedFrom="8" laneChangedTo="8"/>
        <edge id="8/1to9/1" sampledSeconds="40.98" traveltime="42.66" overlapTraveltime="42.88" density="0.70" occupancy="0.17" waitingTime="0.00" speed="23.02" departed="0" arrived="0" entered="4" left="0" laneChangedFrom="0" laneChangedTo="0"/>
    </interval>
    <interval begin="120.00" end="180.00" id="dump_60">
        <edge id="1/1to2/1" sampledSeconds="548.28" traveltime="84.48" overlapTraveltime="84.56" density="9.30" occupancy="2.31" waitingTime="0.00" speed="11.67" departed="30" arrived="0" entered="0" left="27" laneChangedFrom="14" laneChangedTo="14"/>
        <edge id="2/1to3/1" sampledSeconds="1806.80" traveltime="65.89" overlapTraveltime="66.23" density="30.66" occupancy="7.63" waitingTime="0.00" speed="14.90" departed="0" arrived="0" entered="27" left="27" laneChangedFrom="6" laneChangedTo="6"/>
        <edge id="3/1to4/1" sampledSeconds="1740.39" traveltime="67.81" overlapTraveltime="68.14" density="29.54" occupancy="7.35" waitingTime="0.00" speed="14.49" departed="0" arrived="0" entered="27" left="19" laneChangedFrom="11" laneChangedTo="11"/>
        <edge id="4/1to5/1" sampledSeconds="442.73" traveltime="62.73" overlapTraveltime="63.05" density="7.51" occupancy="1.87" waitingTime="0.00" speed="15.66" departed="0" arrived="0" entered="19" left="0" laneChangedFrom="0" laneChangedTo="0"/>
        <edge id="5/1to6/1" sampledSeconds="464.79" traveltime="74.30" overlapTraveltime="74.14" density="7.89" occupancy="1.96" waitingTime="0.00" speed="13.31" departed="30" arrived="0" entered="0" left="28" laneChangedFrom="13" laneChangedTo="13"/>
        <edge id="6/1to7/1" sampledSeconds="1558.23" traveltime="54.54" overlapTraveltime="54.83" density="26.44" occupancy="6.58" waitingTime="0.00" speed="18.00" departed="0" arrived="0" entered="28" left="27" laneChangedFrom="17" laneChangedTo="17"/>
        <edge id="7/1to8/1" sampledSeconds="1702.02" traveltime="57.76" overlapTraveltime="58.05" density="28.88" occupancy="7.19" waitingTime="0.00" speed="17.00" departed="0" arrived="0" entered="27" left="25" laneChangedFrom="18" laneChangedTo="18"/>
        <edge id="8/1to9/1" sampledSeconds="700.19" traveltime="50.81" overlapTraveltime="51.05" density="11.88" occupancy="2.95" waitingTime="0.00" speed="19.34" departed="0" arrived="0" entered="25" left="6" laneChangedFrom="6" laneChangedTo="6"/>
        <edge id="9/1to10/1" sampledSeconds="112.39" traveltime="42.07" overlapTraveltime="42.29" density="1.91" occupancy="0.47" waitingTime="0.00" speed="23.34" departed="0" arrived="0" entered="6" left="0" laneChangedFrom="0" laneChangedTo="0"/>
    </interval>
    <interval begin="180.00" end="240.00" id="dump_60">
        <edge id="1/1to2/1" sampledSeconds="714.78" traveltime="75.64" overlapTraveltime="75.89" density="12.13" occupancy="3.01" waitingTime="0.00" speed="13.01" departed="28" arrived="0" entered="3" left="28" laneChangedFrom="13" laneChangedTo="13"/>
        <edge id="10/1to1/1" sampledSeconds="196.72" traveltime="41.82" overlapTraveltime="42.04" density="3.34" occupancy="0.83" waitingTime="0.00" speed="23.48" departed="0" arrived="0" entered="6" left="3" laneChangedFrom="3" laneChangedTo="3"/>
        <edge id="2/1to3/1" sampledSeconds="1802.09" traveltime="68.10" overlapTraveltime="68.44" density="30.58" occupancy="7.61" waitingTime="0.00" speed="14.42" departed="0" arrived="0" entered="28" left="26" laneChangedFrom="17" laneChangedTo="17"/>
        <edge id="3/1to4/1" sampledSeconds="1882.96" traveltime="66.93" overlapTraveltime="67.29" density="31.95" occupancy="7.95" waitingTime="0.00" speed="14.67" departed="0" arrived="0" entered="26" left="31" laneChangedFrom="13" laneChangedTo="13"/>
        <edge id="4/1to5/1" sampledSeconds="1569.79" traveltime="67.47" overlapTraveltime="67.83" density="26.64" occupancy="6.63" waitingTime="0.00" speed="14.55" departed="0" arrived="0" entered="31" left="15" laneChangedFrom="21" laneChangedTo="21"/>
        <edge id="5/1to6/1" sampledSeconds="1048.36" traveltime="66.80" overlapTraveltime="67.09" density="17.79" occupancy="4.39" waitingTime="5.80" speed="14.71" departed="19" arrived="0" entered="15" left="11" laneChangedFrom="14" laneChangedTo="14"/>
        <edge id="6/1to7/1" sampledSeconds="1181.05" traveltime="53.58" overlapTraveltime="53.85" density="20.04" occupancy="4.99" waitingTime="0.00" speed="18.33" departed="0" arrived="0" entered="11" left="28" laneChangedFrom="13" laneChangedTo="13"/>
        <edge id="7/1to8/1" sampledSeconds="1655.30" traveltime="54.88" overlapTraveltime="55.16" density="28.09" occupancy="6.99" waitingTime="0.00" speed="17.90" departed="0" arrived="0" entered="28" left="30" laneChangedFrom="13" laneChangedTo="13"/>
        <edge id="8/1to9/1" sampledSeconds="1686.44" traveltime="57.15" overlapTraveltime="57.42" density="28.62" occupancy="7.13" waitingTime="0.00" speed="17.19" departed="0" arrived="0" entered="29" left="22" laneChangedFrom="26" laneChangedTo="26"/>
        <edge id="9/1to10/1" sampledSeconds="707.20" traveltime="49.55" overlapTraveltime="49.79" density="12.00" occupancy="2.99" waitingTime="0.00" speed="19.83" departed="0" arrived="0" entered="22" left="6" laneChangedFrom="5" laneChangedTo="5"/>
    </interval>
    <interval begin="240.00" end="300.00" id="dump_60">
        <edge id="1/1to2/1" sampledSeconds="1173.19" traveltime="65.38" overlapTraveltime="65.70" density="19.91" occupancy="4.87" waitingTime="0.60" speed="15.02" departed="21" arrived="0" entered="6" left="11" laneChangedFrom="13" laneChangedTo="13"/>
        <edge id="10/1to1/1" sampledSeconds="769.89" traveltime="51.90" overlapTraveltime="52.15" density="13.07" occupancy="3.25" waitingTime="0.00" speed="18.93" departed="0" arrived="0" entered="23" left="6" laneChangedFrom="21" laneChangedTo="21"/>
        <edge id="2/1to3/1" sampledSeconds="1557.31" traveltime="66.40" overlapTraveltime="66.77" density="26.43" occupancy="6.58" waitingTime="0.00" speed="14.78" departed="0" arrived="0" entered="11" left="29" laneChangedFrom="15" laneChangedTo="15"/>
        <edge id="3/1to4/1" sampledSeconds="1678.75" traveltime="67.17" overlapTraveltime="67.50" density="28.49" occupancy="7.08" waitingTime="0.00" speed="14.62" departed="0" arrived="0" entered="29" left="24" laneChangedFrom="19" laneChangedTo="19"/>
        <edge id="4/1to5/1" sampledSeconds="2023.09" traveltime="67.52" overlapTraveltime="67.93" density="34.33" occupancy="8.54" waitingTime="0.00" speed="14.53" departed="0" arrived="0" entered="24" left="26" laneChangedFrom="14" laneChangedTo="14"/>
        <edge id="5/1to6/1" sampledSeconds="2410.04" traveltime="66.59" overlapTraveltime="66.91" density="40.90" occupancy="10.14" waitingTime="3.40" speed="14.75" departed="16" arrived="0" entered="26" left="28" laneChangedFrom="25" laneChangedTo="25"/>
        <edge id="6/1to7/1" sampledSeconds="847.51" traveltime="58.37" overlapTraveltime="58.66" density="14.38" occupancy="3.57" waitingTime="0.00" speed="16.83" departed="0" arrived="0" entered="28" left="10" laneChangedFrom="7" laneChangedTo="7"/>
        <edge id="7/1to8/1" sampledSeconds="1040.12" traveltime="54.91" overlapTraveltime="55.19" density="17.65" occupancy="4.39" waitingTime="0.00" speed="17.88" departed="0" arrived="0" entered="10" left="28" laneChangedFrom="12" laneChangedTo="12"/>
        <edge id="8/1to9/1" sampledSeconds="1785.54" traveltime="56.77" overlapTraveltime="57.08" density="30.30" occupancy="7.54" waitingTime="0.00" speed="17.29" departed="0" arrived="0" entered="29" left="31" laneChangedFrom="17" laneChangedTo="17"/>
        <edge id="9/1to10/1" sampledSeconds="1596.14" traveltime="57.29" overlapTraveltime="57.57" density="27.09" occupancy="6.74" waitingTime="0.00" speed="17.15" departed="0" arrived="0" entered="31" left="23" laneChangedFrom="24" laneChangedTo="24"/>
    </interval>
    <interval begin="300.00" end="360.00" id="dump_60">
        <edge id="1/1to2/1" sampledSeconds="2102.63" traveltime="64.34" overlapTraveltime="64.68" density="35.68" occupancy="8.84" waitingTime="0.00" speed="15.26" departed="11" arrived="0" entered="23" left="29" laneChangedFrom="30" laneChangedTo="30"/>
        <edge id="10/1to1/1" sampledSeconds="1527.11" traveltime="55.23" overlapTraveltime="55.53" density="25.92" occupancy="6.44" waitingTime="0.00" speed="17.78" departed="0" arrived="0" entered="32" left="23" laneChangedFrom="22" laneChangedTo="22"/>
        <edge id="2/1to3/1" sampledSeconds="986.80" traveltime="61.85" overlapTraveltime="62.17" density="16.75" occupancy="4.16" waitingTime="0.00" speed="15.88" departed="0" arrived="0" entered="28" left="14" laneChangedFrom="12" laneChangedTo="12"/>
        <edge id="3/1to4/1" sampledSeconds="1791.01" traveltime="68.76" overlapTraveltime="69.11" density="30.39" occupancy="7.57" waitingTime="0.00" speed="14.28" departed="0" arrived="0" entered="14" left="24" laneChangedFrom="21" laneChangedTo="21"/>
        <edge id="4/1to5/1" sampledSeconds="1613.34" traveltime="67.55" overlapTraveltime="67.97" density="27.38" occupancy="6.80" waitingTime="0.00" speed="14.52" departed="0" arrived="0" entered="24" left="31" laneChangedFrom="21" laneChangedTo="21"/>
        <edge id="5/1to6/1" sampledSeconds="2820.49" traveltime="68.59" overlapTraveltime="68.93" density="47.87" occupancy="11.89" waitingTime="2.40" speed="14.32" departed="10" arrived="0" entered="30" left="37" laneChangedFrom="30" laneChangedTo="30"/>
        <edge id="6/1to7/1" sampledSeconds="2149.37" traveltime="63.96" overlapTraveltime="64.27" density="36.48" occupancy="9.08" waitingTime="0.00" speed="15.36" departed="0" arrived="0" entered="37" left="24" laneChangedFrom="14" laneChangedTo="14"/>
        <edge id="7/1to8/1" sampledSeconds="832.18" traveltime="56.58" overlapTraveltime="56.88" density="14.12" occupancy="3.51" waitingTime="0.00" speed="17.35" departed="0" arrived="0" entered="24" left="8" laneChangedFrom="8" laneChangedTo="8"/>
        <edge id="8/1to9/1" sampledSeconds="898.80" traveltime="56.31" overlapTraveltime="56.58" density="15.25" occupancy="3.79" waitingTime="0.00" speed="17.45" departed="0" arrived="0" entered="8" left="28" laneChangedFrom="15" laneChangedTo="15"/>
        <edge id="9/1to10/1" sampledSeconds="1861.50" traveltime="56.05" overlapTraveltime="56.34" density="31.59" occupancy="7.86" waitingTime="0.00" speed="17.52" departed="0" arrived="0" entered="28" left="33" laneChangedFrom="27" laneChangedTo="27"/>
    </interval>
    <interval begin="360.00" end="420.00" id="dump_60">
        <edge id="1/1to2/1" sampledSeconds="2600.85" traveltime="64.89" overlapTraveltime="65.21" density="44.14" occupancy="10.94" waitingTime="12.20" speed="15.14" departed="17" arrived="0" entered="34" left="37" laneChangedFrom="35" laneChangedTo="35"/>
        <edge id="10/1to1/1" sampledSeconds="1891.46" traveltime="58.60" overlapTraveltime="59.07" density="32.10" occupancy="7.98" waitingTime="0.00" speed="16.71" departed="0" arrived="0" entered="26" left="34" laneChangedFrom="23" laneChangedTo="23"/>
        <edge id="2/1to3/1" sampledSeconds="2165.73" traveltime="65.90" overlapTraveltime="66.22" density="36.75" occupancy="9.15" waitingTime="0.00" speed="14.91" departed="0" arrived="0" entered="38" left="21" laneChangedFrom="22" laneChangedTo="22"/>
        <edge id="3/1to4/1" sampledSeconds="1011.57" traveltime="64.88" overlapTraveltime="65.27" density="17.17" occupancy="4.26" waitingTime="0.00" speed="15.12" departed="0" arrived="0" entered="20" left="20" laneChangedFrom="10" laneChangedTo="10"/>
        <edge id="4/1to5/1" sampledSeconds="1816.08" traveltime="69.95" overlapTraveltime="70.42" density="30.82" occupancy="7.67" waitingTime="0.00" speed="14.02" departed="0" arrived="0" entered="20" left="19" laneChangedFrom="33" laneChangedTo="33"/>
        <edge id="5/1to6/1" sampledSeconds="2739.60" traveltime="72.44" overlapTraveltime="72.79" density="46.49" occupancy="11.53" waitingTime="9.80" speed="13.56" departed="20" arrived="0" entered="20" left="42" laneChangedFrom="47" laneChangedTo="47"/>
        <edge id="6/1to7/1" sampledSeconds="2637.14" traveltime="67.05" overlapTraveltime="67.39" density="44.75" occupancy="11.13" waitingTime="0.00" speed="14.65" departed="0" arrived="0" entered="42" left="39" laneChangedFrom="15" laneChangedTo="15"/>
        <edge id="7/1to8/1" sampledSeconds="1883.59" traveltime="62.99" overlapTraveltime="63.29" density="31.97" occupancy="7.95" waitingTime="0.00" speed="15.60" departed="0" arrived="0" entered="39" left="21" laneChangedFrom="11" laneChangedTo="11"/>
        <edge id="8/1to9/1" sampledSeconds="887.09" traveltime="56.60" overlapTraveltime="56.90" density="15.05" occupancy="3.74" waitingTime="0.00" speed="17.35" departed="0" arrived="0" entered="21" left="9" laneChangedFrom="8" laneChangedTo="8"/>
        <edge id="9/1to10/1" sampledSeconds="777.18" traveltime="56.80" overlapTraveltime="57.07" density="13.19" occupancy="3.28" waitingTime="0.00" speed="17.30" departed="0" arrived="0" entered="9" left="25" laneChangedFrom="13" laneChangedTo="13"/>
    </interval>
    <interval begin="420.00" end="480.00" id="dump_60">
        <edge id="1/1to2/1" sampledSeconds="3305.22" traveltime="72.21" overlapTraveltime="72.55" density="56.09" occupancy="13.91" waitingTime="12.40" speed="13.61" departed="22" arrived="0" entered="20" left="41" laneChangedFrom="24" laneChangedTo="24"/>
        <edge id="10/1to1/1" sampledSeconds="810.53" traveltime="63.10" overlapTraveltime="63.69" density="13.76" occupancy="3.41" waitingTime="0.00" speed="15.50" departed="0" arrived="0" entered="14" left="20" laneChangedFrom="16" laneChangedTo="16"/>
        <edge id="2/1to3/1" sampledSeconds="2390.76" traveltime="63.52" overlapTraveltime="63.84" density="40.57" occupancy="10.08" waitingTime="0.00" speed="15.46" departed="0" arrived="0" entered="41" left="43" laneChangedFrom="25" laneChangedTo="25"/>
        <edge id="3/1to4/1" sampledSeconds="2018.87" traveltime="62.49" overlapTraveltime="62.81" density="34.26" occupancy="8.52" waitingTime="0.00" speed="15.71" departed="0" arrived="0" entered="44" left="24" laneChangedFrom="22" laneChangedTo="22"/>
        <edge id="4/1to5/1" sampledSeconds="1257.96" traveltime="66.14" overlapTraveltime="66.75" density="21.35" occupancy="5.29" waitingTime="0.00" speed="14.79" departed="0" arrived="0" entered="24" left="26" laneChangedFrom="30" laneChangedTo="30"/>
        <edge id="5/1to6/1" sampledSeconds="3115.40" traveltime="70.99" overlapTraveltime="71.34" density="52.87" occupancy="13.11" waitingTime="15.20" speed="13.84" departed="19" arrived="0" entered="26" left="36" laneChangedFrom="41" laneChangedTo="41"/>
        <edge id="6/1to7/1" sampledSeconds="2621.71" traveltime="69.94" overlapTraveltime="70.29" density="44.49" occupancy="11.07" waitingTime="0.00" speed="14.04" departed="0" arrived="0" entered="36" left="42" laneChangedFrom="17" laneChangedTo="17"/>
        <edge id="7/1to8/1" sampledSeconds="2473.57" traveltime="66.21" overlapTraveltime="66.54" density="41.98" occupancy="10.44" waitingTime="0.00" speed="14.83" departed="0" arrived="0" entered="42" left="37" laneChangedFrom="18" laneChangedTo="18"/>
        <edge id="8/1to9/1" sampledSeconds="1585.97" traveltime="61.73" overlapTraveltime="62.01" density="26.91" occupancy="6.69" waitingTime="0.00" speed="15.92" departed="0" arrived="0" entered="37" left="23" laneChangedFrom="7" laneChangedTo="7"/>
        <edge id="9/1to10/1" sampledSeconds="951.45" traveltime="56.82" overlapTraveltime="57.12" density="16.15" occupancy="4.01" waitingTime="0.00" speed="17.28" departed="0" arrived="0" entered="23" left="14" laneChangedFrom="12" laneChangedTo="12"/>
    </interval>
    <interval begin="480.00" end="540.00" id="dump_60">
        <edge id="1/1to2/1" sampledSeconds="2723.09" traveltime="71.77" overlapTraveltime="72.13" density="46.21" occupancy="11.45" waitingTime="6.20" speed="13.69" departed="23" arrived="0" entered="14" left="46" laneChangedFrom="34" laneChangedTo="34"/>
        <edge id="10/1to1/1" sampledSeconds="972.58" traveltime="56.79" overlapTraveltime="57.13" density="16.51" occupancy="4.11" waitingTime="0.00" speed="17.28" departed="0" arrived="0" entered="15" left="14" laneChangedFrom="10" laneChangedTo="10"/>
        <edge id="2/1to3/1" sampledSeconds="2877.00" traveltime="67.30" overlapTraveltime="67.63" density="48.82" occupancy="12.15" waitingTime="0.00" speed="14.60" departed="0" arrived="0" entered="46" left="36" laneChangedFrom="17" laneChangedTo="17"/>
        <edge id="3/1to4/1" sampledSeconds="2428.38" traveltime="66.21" overlapTraveltime="66.55" density="41.21" occupancy="10.25" waitingTime="0.00" speed="14.83" departed="0" arrived="0" entered="36" left="39" laneChangedFrom="18" laneChangedTo="18"/>
        <edge id="4/1to5/1" sampledSeconds="1809.77" traveltime="61.78" overlapTraveltime="62.20" density="30.71" occupancy="7.63" waitingTime="0.00" speed="15.87" departed="0" arrived="0" entered="39" left="21" laneChangedFrom="21" laneChangedTo="21"/>
        <edge id="5/1to6/1" sampledSeconds="2915.67" traveltime="68.45" overlapTraveltime="68.81" density="49.48" occupancy="12.26" waitingTime="4.00" speed="14.35" departed="17" arrived="0" entered="21" left="52" laneChangedFrom="41" laneChangedTo="41"/>
        <edge id="6/1to7/1" sampledSeconds="3017.92" traveltime="71.65" overlapTraveltime="71.99" density="51.22" occupancy="12.75" waitingTime="0.00" speed="13.71" departed="0" arrived="0" entered="52" left="26" laneChangedFrom="27" laneChangedTo="27"/>
        <edge id="7/1to8/1" sampledSeconds="2491.73" traveltime="67.21" overlapTraveltime="67.54" density="42.29" occupancy="10.53" waitingTime="0.00" speed="14.62" departed="0" arrived="0" entered="26" left="34" laneChangedFrom="16" laneChangedTo="16"/>
        <edge id="8/1to9/1" sampledSeconds="2439.15" traveltime="67.08" overlapTraveltime="67.42" density="41.39" occupancy="10.30" waitingTime="0.00" speed="14.64" departed="0" arrived="0" entered="33" left="30" laneChangedFrom="16" laneChangedTo="16"/>
        <edge id="9/1to10/1" sampledSeconds="1318.26" traveltime="61.07" overlapTraveltime="61.36" density="22.37" occupancy="5.56" waitingTime="0.00" speed="16.09" departed="0" arrived="0" entered="30" left="15" laneChangedFrom="10" laneChangedTo="10"/>
    </interval>
    <interval begin="540.00" end="600.00" id="dump_60">
        <edge id="1/1to2/1" sampledSeconds="2450.92" traveltime="67.54" overlapTraveltime="67.90" density="41.59" occupancy="10.29" waitingTime="0.00" speed="14.54" departed="15" arrived="0" entered="18" left="33" laneChangedFrom="42" laneChangedTo="42"/>
        <edge id="10/1to1/1" sampledSeconds="1161.53" traveltime="61.94" overlapTraveltime="62.30" density="19.71" occupancy="4.90" waitingTime="0.00" speed="15.84" departed="0" arrived="0" entered="26" left="18" laneChangedFrom="13" laneChangedTo="13"/>
        <edge id="2/1to3/1" sampledSeconds="2864.44" traveltime="70.85" overlapTraveltime="71.19" density="48.61" occupancy="12.10" waitingTime="0.00" speed="13.87" departed="0" arrived="0" entered="33" left="38" laneChangedFrom="27" laneChangedTo="27"/>
        <edge id="3/1to4/1" sampledSeconds="2694.59" traveltime="65.97" overlapTraveltime="66.32" density="45.73" occupancy="11.38" waitingTime="0.00" speed="14.88" departed="0" arrived="0" entered="38" left="36" laneChangedFrom="25" laneChangedTo="25"/>
        <edge id="4/1to5/1" sampledSeconds="2325.11" traveltime="66.18" overlapTraveltime="66.53" density="39.46" occupancy="9.81" waitingTime="0.00" speed="14.84" departed="0" arrived="0" entered="36" left="37" laneChangedFrom="26" laneChangedTo="26"/>
        <edge id="5/1to6/1" sampledSeconds="2815.99" traveltime="65.49" overlapTraveltime="65.79" density="47.79" occupancy="11.87" waitingTime="3.00" speed="15.00" departed="12" arrived="0" entered="37" left="38" laneChangedFrom="35" laneChangedTo="35"/>
        <edge id="6/1to7/1" sampledSeconds="3439.27" traveltime="73.48" overlapTraveltime="73.89" density="58.37" occupancy="14.53" waitingTime="0.00" speed="13.36" departed="0" arrived="0" entered="38" left="47" laneChangedFrom="24" laneChangedTo="24"/>
        <edge id="7/1to8/1" sampledSeconds="2414.18" traveltime="69.17" overlapTraveltime="69.51" density="40.97" occupancy="10.18" waitingTime="0.00" speed="14.20" departed="0" arrived="0" entered="46" left="35" laneChangedFrom="25" laneChangedTo="25"/>
        <edge id="8/1to9/1" sampledSeconds="2473.88" traveltime="66.17" overlapTraveltime="66.49" density="41.98" occupancy="10.44" waitingTime="0.00" speed="14.85" departed="0" arrived="0" entered="36" left="36" laneChangedFrom="17" laneChangedTo="17"/>
        <edge id="9/1to10/1" sampledSeconds="2414.18" traveltime="65.57" overlapTraveltime="65.90" density="40.97" occupancy="10.20" waitingTime="0.00" speed="14.98" departed="0" arrived="0" entered="36" left="26" laneChangedFrom="27" laneChangedTo="27"/>
    </interval>
    <interval begin="600.00" end="660.00" id="dump_60">
        <edge id="1/1to2/1" sampledSeconds="2722.98" traveltime="71.89" overlapTraveltime="72.23" density="46.21" occupancy="11.44" waitingTime="12.00" speed="13.67" departed="22" arrived="0" entered="20" left="35" laneChangedFrom="34" laneChangedTo="34"/>
        <edge id="10/1to1/1" sampledSeconds="2298.87" traveltime="66.16" overlapTraveltime="66.63" density="39.01" occupancy="9.70" waitingTime="0.00" speed="14.81" departed="0" arrived="0" entered="43" left="20" laneChangedFrom="22" laneChangedTo="22"/>
        <edge id="2/1to3/1" sampledSeconds="2586.60" traveltime="67.32" overlapTraveltime="67.68" density="43.90" occupancy="10.92" waitingTime="0.00" speed="14.58" departed="0" arrived="0" entered="35" left="44" laneChangedFrom="40" laneChangedTo="40"/>
        <edge id="3/1to4/1" sampledSeconds="2669.04" traveltime="69.29" overlapTraveltime="69.63" density="45.30" occupancy="11.26" waitingTime="0.00" speed="14.18" departed="0" arrived="0" entered="44" left="36" laneChangedFrom="21" laneChangedTo="21"/>
        <edge id="4/1to5/1" sampledSeconds="2796.17" traveltime="68.01" overlapTraveltime="68.36" density="47.45" occupancy="11.81" waitingTime="0.00" speed="14.44" departed="0" arrived="0" entered="36" left="31" laneChangedFrom="17" laneChangedTo="17"/>
        <edge id="5/1to6/1" sampledSeconds="2873.15" traveltime="65.54" overlapTraveltime="65.87" density="48.76" occupancy="12.09" waitingTime="0.00" speed="14.98" departed="10" arrived="0" entered="31" left="47" laneChangedFrom="28" laneChangedTo="28"/>
        <edge id="6/1to7/1" sampledSeconds="2949.19" traveltime="69.29" overlapTraveltime="69.69" density="50.05" occupancy="12.44" waitingTime="0.00" speed="14.16" departed="0" arrived="0" entered="47" left="49" laneChangedFrom="31" laneChangedTo="31"/>
        <edge id="7/1to8/1" sampledSeconds="3592.87" traveltime="74.91" overlapTraveltime="75.27" density="60.97" occupancy="15.17" waitingTime="0.00" speed="13.11" departed="0" arrived="0" entered="50" left="40" laneChangedFrom="20" laneChangedTo="20"/>
        <edge id="8/1to9/1" sampledSeconds="2281.17" traveltime="65.34" overlapTraveltime="65.71" density="38.71" occupancy="9.62" waitingTime="0.00" speed="15.02" departed="0" arrived="0" entered="40" left="38" laneChangedFrom="31" laneChangedTo="31"/>
        <edge id="9/1to10/1" sampledSeconds="2319.36" traveltime="67.14" overlapTraveltime="67.47" density="39.36" occupancy="9.78" waitingTime="0.00" speed="14.63" departed="0" arrived="0" entered="38" left="43" laneChangedFrom="13" laneChangedTo="13"/>
    </interval>
    <interval begin="660.00" end="720.00" id="dump_60">
        <edge id="1/1to2/1" sampledSeconds="3170.39" traveltime="68.89" overlapTraveltime="69.25" density="53.80" occupancy="13.36" waitingTime="0.00" speed="14.25" departed="6" arrived="0" entered="41" left="44" laneChangedFrom="28" laneChangedTo="28"/>
        <edge id="10/1to1/1" sampledSeconds="2267.39" traveltime="65.50" overlapTraveltime="65.88" density="38.48" occupancy="9.57" waitingTime="0.00" speed="14.98" departed="0" arrived="0" entered="32" left="41" laneChangedFrom="16" laneChangedTo="16"/>
        <edge id="2/1to3/1" sampledSeconds="2365.71" traveltime="68.02" overlapTraveltime="68.37" density="40.15" occupancy="9.98" waitingTime="0.00" speed="14.44" departed="0" arrived="0" entered="44" left="31" laneChangedFrom="28" laneChangedTo="28"/>
        <edge id="3/1to4/1" sampledSeconds="2848.97" traveltime="70.30" overlapTraveltime="70.67" density="48.35" occupancy="12.03" waitingTime="0.00" speed="13.97" departed="0" arrived="0" entered="31" left="41" laneChangedFrom="27" laneChangedTo="27"/>
        <edge id="4/1to5/1" sampledSeconds="2484.12" traveltime="70.20" overlapTraveltime="70.56" density="42.16" occupancy="10.48" waitingTime="0.00" speed="13.99" departed="0" arrived="0" entered="41" left="39" laneChangedFrom="23" laneChangedTo="23"/>
        <edge id="5/1to6/1" sampledSeconds="3264.08" traveltime="66.32" overlapTraveltime="66.64" density="55.39" occupancy="13.77" waitingTime="3.60" speed="14.81" departed="10" arrived="0" entered="39" left="41" laneChangedFrom="26" laneChangedTo="26"/>
        <edge id="6/1to7/1" sampledSeconds="3070.47" traveltime="67.70" overlapTraveltime="68.06" density="52.11" occupancy="12.96" waitingTime="0.00" speed="14.50" departed="0" arrived="0" entered="41" left="49" laneChangedFrom="16" laneChangedTo="16"/>
        <edge id="7/1to8/1" sampledSeconds="3371.36" traveltime="72.81" overlapTraveltime="73.16" density="57.21" occupancy="14.23" waitingTime="0.00" speed="13.49" departed="0" arrived="0" entered="48" left="52" laneChangedFrom="30" laneChangedTo="30"/>