<?xml version="1.0" encoding="UTF-8"?>

<!-- generated on 2026-03-20T13:03:04.002253+01:00 by Eclipse SUMO sumo v1_26_0+0736-a86b6e37931
This data file and the accompanying materials
are made available under the terms of the Eclipse Public License v2.0
which accompanies this distribution, and is available at
http://www.eclipse.org/legal/epl-v20.html
This file may also be made available under the following Secondary
Licenses when the conditions for such availability set forth in the Eclipse
Public License 2.0 are satisfied: GNU General Public License, version 2
or later which is available at
https://www.gnu.org/licenses/old-licenses/gpl-2.0-standalone.html
SPDX-License-Identifier: EPL-2.0 OR GPL-2.0-or-later
<sumoConfiguration xmlns:xsi="http://www.w3.org/2001/XMLSchema-instance" xsi:noNamespaceSchemaLocation="http://sumo.dlr.de/xsd/sumoConfiguration.xsd">

    <input>
        <net-file value="net.net.xml"/>
        <route-files value="input_routes.rou.xml"/>
        <additional-files value="input_additional.add.xml,input_additional2.add.xml"/>
    </input>

    <output>
        <write-license value="true"/>
        <tripinfo-output.write-unfinished value="true"/>
    </output>

    <time>
        <begin value="0"/>
        <end value="3000"/>
        <step-length value="0.2"/>
    </time>

    <processing>
        <default.action-step-length value="1.0"/>
        <default.speeddev value="0"/>
    </processing>

    <report>
        <xml-validation value="never"/>
        <duration-log.statistics value="true"/>
        <no-step-log value="true"/>
    </report>

</sumoConfiguration>
-->

<meandata xmlns:xsi="http://www.w3.org/2001/XMLSchema-instance" xsi:noNamespaceSchemaLocation="http://sumo.dlr.de/xsd/meandata_file.xsd">
    <interval begin="0.00" end="60.00" id="dump_60">
        <edge id="1/1to2/1" sampledSeconds="174.16" traveltime="151.47" overlapTraveltime="146.95" density="2.72" overlapDensity="2.96" laneDensity="1.36" occupancy="0.71" waitingTime="0.00" timeLoss="98.29" speed="6.72" speedRelative="0.34" departed="30" arrived="0" entered="0" left="26" laneChangedFrom="3" laneChangedTo="3" flow="63.53"/>
        <edge id="2/1to3/1" sampledSeconds="757.42" traveltime="67.33" overlapTraveltime="67.68" density="12.85" overlapDensity="12.85" laneDensity="6.43" occupancy="3.19" waitingTime="0.00" timeLoss="57.89" speed="14.59" speedRelative="0.74" departed="0" arrived="0" entered="26" left="0" laneChangedFrom="10" laneChangedTo="10" flow="674.93"/>
        <edge id="5/1to6/1" sampledSeconds="186.76" traveltime="145.52" overlapTraveltime="141.64" density="2.95" overlapDensity="3.17" laneDensity="1.47" occupancy="0.77" waitingTime="0.00" timeLoss="118.67" speed="6.97" speedRelative="0.36" departed="30" arrived="0" entered="0" left="26" laneChangedFrom="4" laneChangedTo="4" flow="71.57"/>
        <edge id="6/1to7/1" sampledSeconds="736.92" traveltime="61.23" overlapTraveltime="61.53" density="12.50" overlapDensity="12.51" laneDensity="6.25" occupancy="3.10" waitingTime="0.00" timeLoss="94.00" speed="16.04" speedRelative="0.82" departed="0" arrived="0" entered="26" left="1" laneChangedFrom="12" laneChangedTo="12" flow="721.92"/>
        <edge id="7/1to8/1" sampledSeconds="7.72" traveltime="44.63" overlapTraveltime="44.86" density="0.13" overlapDensity="0.13" laneDensity="0.07" occupancy="0.03" waitingTime="0.00" timeLoss="0.28" speed="22.00" speedRelative="1.12" departed="0" arrived="0" entered="1" left="0" laneChangedFrom="0" laneChangedTo="0" flow="10.37"/>
    </interval>
    <interval begin="60.00" end="120.00" id="dump_60">
        <edge id="1/1to2/1" sampledSeconds="347.76" traveltime="96.47" overlapTraveltime="95.78" density="5.75" overlapDensity="5.90" laneDensity="2.87" occupancy="1.46" waitingTime="0.00" timeLoss="119.71" speed="10.31" speedRelative="0.53" departed="30" arrived="0" entered="0" left="28" laneChangedFrom="7" laneChangedTo="7" flow="210.62"/>
        <edge id="2/1to3/1" sampledSeconds="1806.02" traveltime="67.10" overlapTraveltime="67.44" density="30.51" overlapDensity="30.65" laneDensity="15.26" occupancy="7.63" waitingTime="0.00" timeLoss="106.26" speed="14.64" speedRelative="0.75" departed="0" arrived="0" entered="27" left="24" laneChangedFrom="18" laneChangedTo="18" flow="1607.69"/>
        <edge id="3/1to4/1" sampledSeconds="580.20" traveltime="63.93" overlapTraveltime="64.25" density="9.85" overlapDensity="9.85" laneDensity="4.92" occupancy="2.44" waitingTime="0.00" timeLoss="28.84" speed="15.36" speedRelative="0.78" departed="0" arrived="0" entered="24" left="0" laneChangedFrom="3" laneChangedTo="3" flow="544.56"/>
        <edge id="5/1to6/1" sampledSeconds="354.83" traveltime="90.63" overlapTraveltime="89.77" density="5.89" overlapDensity="6.02" laneDensity="2.95" occupancy="1.49" waitingTime="0.00" timeLoss="150.03" speed="11.00" speedRelative="0.56" departed="30" arrived="0" entered="0" left="28" laneChangedFrom="11" laneChangedTo="11" flow="229.82"/>
        <edge id="6/1to7/1" sampledSeconds="1629.85" traveltime="56.57" overlapTraveltime="56.86" density="27.52" overlapDensity="27.66" laneDensity="13.76" occupancy="6.88" waitingTime="0.00" timeLoss="155.45" speed="17.36" speedRelative="0.89" departed="0" arrived="0" entered="28" left="27" laneChangedFrom="19" laneChangedTo="19" flow="1720.29"/>
        <edge id="7/1to8/1" sampledSeconds="718.47" traveltime="60.91" overlapTraveltime="61.20" density="12.19" overlapDensity="12.19" laneDensity="6.09" occupancy="3.03" waitingTime="0.00" timeLoss="115.53" speed="16.13" speedRelative="0.82" departed="0" arrived="0" entered="27" left="2" laneChangedFrom="8" laneChangedTo="8" flow="707.33"/>
        <edge id="8/1to9/1" sampledSeconds="30.31" traveltime="43.63" overlapTraveltime="43.85" density="0.51" overlapDensity="0.51" laneDensity="0.26" occupancy="0.13" waitingTime="0.00" timeLoss="0.91" speed="22.51" speedRelative="1.15" departed="0" arrived="0" entered="2" left="0" laneChangedFrom="0" laneChangedTo="0" flow="41.69"/>
    </interval>
    <interval begin="120.00" end="180.00" id="dump_60">
        <edge id="1/1to2/1" sampledSeconds="521.75" traveltime="84.99" overlapTraveltime="85.02" density="8.70" overlapDensity="8.85" laneDensity="4.35" occupancy="2.19" waitingTime="0.00" timeLoss="136.54" speed="11.61" speedRelative="0.59" departed="30" arrived="0" entered="0" left="26" laneChangedFrom="15" laneChangedTo="15" flow="361.92"/>
        <edge id="2/1to3/1" sampledSeconds="1808.72" traveltime="65.44" overlapTraveltime="65.78" density="30.55" overlapDensity="30.70" laneDensity="15.27" occupancy="7.64" waitingTime="0.00" timeLoss="108.94" speed="15.01" speedRelative="0.77" departed="0" arrived="0" entered="27" left="26" laneChangedFrom="10" laneChangedTo="10" flow="1650.32"/>
        <edge id="3/1to4/1" sampledSeconds="1752.92" traveltime="67.27" overlapTraveltime="67.61" density="29.63" overlapDensity="29.75" laneDensity="14.82" occupancy="7.40" waitingTime="0.00" timeLoss="113.15" speed="14.60" speedRelative="0.74" departed="0" arrived="0" entered="26" left="21" laneChangedFrom="13" laneChangedTo="13" flow="1557.21"/>
        <edge id="4/1to5/1" sampledSeconds="455.18" traveltime="62.39" overlapTraveltime="62.70" density="7.72" overlapDensity="7.72" laneDensity="3.86" occupancy="1.92" waitingTime="0.00" timeLoss="21.54" speed="15.74" speedRelative="0.80" departed="0" arrived="0" entered="21" left="0" laneChangedFrom="4" laneChangedTo="4" flow="437.77"/>
        <edge id="5/1to6/1" sampledSeconds="492.09" traveltime="73.67" overlapTraveltime="73.59" density="8.22" overlapDensity="8.35" laneDensity="4.11" occupancy="2.07" waitingTime="0.00" timeLoss="168.99" speed="13.41" speedRelative="0.68" departed="30" arrived="0" entered="0" left="28" laneChangedFrom="15" laneChangedTo="15" flow="394.68"/>
        <edge id="6/1to7/1" sampledSeconds="1559.93" traveltime="55.50" overlapTraveltime="55.79" density="26.34" overlapDensity="26.47" laneDensity="13.17" occupancy="6.59" waitingTime="0.00" timeLoss="140.13" speed="17.69" speedRelative="0.90" departed="0" arrived="0" entered="28" left="28" laneChangedFrom="18" laneChangedTo="18" flow="1677.92"/>
        <edge id="7/1to8/1" sampledSeconds="1841.30" traveltime="61.16" overlapTraveltime="61.46" density="31.11" overlapDensity="31.25" laneDensity="15.55" occupancy="7.78" waitingTime="0.00" timeLoss="288.36" speed="16.06" speedRelative="0.82" departed="0" arrived="0" entered="27" left="28" laneChangedFrom="12" laneChangedTo="12" flow="1798.17"/>
        <edge id="8/1to9/1" sampledSeconds="569.91" traveltime="51.95" overlapTraveltime="52.21" density="9.66" overlapDensity="9.67" laneDensity="4.83" occupancy="2.40" waitingTime="0.00" timeLoss="36.92" speed="18.91" speedRelative="0.96" departed="0" arrived="0" entered="28" left="3" laneChangedFrom="2" laneChangedTo="2" flow="657.40"/>
        <edge id="9/1to10/1" sampledSeconds="74.96" traveltime="43.64" overlapTraveltime="43.86" density="1.27" overlapDensity="1.27" laneDensity="0.64" occupancy="0.32" waitingTime="0.00" timeLoss="1.84" speed="22.50" speedRelative="1.15" departed="0" arrived="0" entered="3" left="0" laneChangedFrom="0" laneChangedTo="0" flow="103.07"/>
    </interval>
    <interval begin="180.00" end="240.00" id="dump_60">
        <edge id="1/1to2/1" sampledSeconds="684.46" traveltime="77.57" overlapTraveltime="77.78" density="11.46" overlapDensity="11.62" laneDensity="5.73" occupancy="2.88" waitingTime="0.00" timeLoss="139.79" speed="12.69" speedRelative="0.65" departed="28" arrived="0" entered="2" left="27" laneChangedFrom="14" laneChangedTo="14" flow="522.42"/>
        <edge id="10/1to1/1" sampledSeconds="127.13" traveltime="43.17" overlapTraveltime="43.41" density="2.15" overlapDensity="2.16" laneDensity="1.07" occupancy="0.54" waitingTime="0.00" timeLoss="3.84" speed="22.74" speedRelative="1.16" departed="0" arrived="0" entered="7" left="2" laneChangedFrom="0" laneChangedTo="0" flow="176.00"/>
        <edge id="2/1to3/1" sampledSeconds="1796.22" traveltime="67.59" overlapTraveltime="67.93" density="30.34" overlapDensity="30.48" laneDensity="15.17" occupancy="7.58" waitingTime="0.00" timeLoss="135.09" speed="14.53" speedRelative="0.74" departed="0" arrived="0" entered="27" left="26" laneChangedFrom="16" laneChangedTo="16" flow="1586.73"/>
        <edge id="3/1to4/1" sampledSeconds="1891.98" traveltime="67.13" overlapTraveltime="67.49" density="31.94" overlapDensity="32.11" laneDensity="15.97" occupancy="7.99" waitingTime="0.00" timeLoss="154.38" speed="14.63" speedRelative="0.75" departed="0" arrived="0" entered="26" left="28" laneChangedFrom="18" laneChangedTo="18" flow="1682.13"/>
        <edge id="4/1to5/1" sampledSeconds="1579.04" traveltime="66.80" overlapTraveltime="67.17" density="26.69" overlapDensity="26.80" laneDensity="13.35" occupancy="6.67" waitingTime="0.00" timeLoss="103.08" speed="14.70" speedRelative="0.75" departed="0" arrived="0" entered="28" left="16" laneChangedFrom="13" laneChangedTo="13" flow="1412.84"/>
        <edge id="5/1to6/1" sampledSeconds="928.78" traveltime="66.37" overlapTraveltime="66.65" density="15.71" overlapDensity="15.76" laneDensity="7.86" occupancy="3.88" waitingTime="0.80" timeLoss="130.26" speed="14.81" speedRelative="0.76" departed="15" arrived="0" entered="16" left="11" laneChangedFrom="17" laneChangedTo="17" flow="836.96"/>
        <edge id="6/1to7/1" sampledSeconds="1216.87" traveltime="53.70" overlapTraveltime="53.97" density="20.52" overlapDensity="20.65" laneDensity="10.26" occupancy="5.14" waitingTime="0.00" timeLoss="110.67" speed="18.29" speedRelative="0.93" departed="0" arrived="0" entered="11" left="28" laneChangedFrom="13" laneChangedTo="13" flow="1350.92"/>
        <edge id="7/1to8/1" sampledSeconds="1702.25" traveltime="56.55" overlapTraveltime="56.84" density="28.75" overlapDensity="28.89" laneDensity="14.37" occupancy="7.19" waitingTime="0.00" timeLoss="203.03" speed="17.36" speedRelative="0.89" departed="0" arrived="0" entered="29" left="28" laneChangedFrom="15" laneChangedTo="15" flow="1797.34"/>
        <edge id="8/1to9/1" sampledSeconds="1750.12" traveltime="57.54" overlapTraveltime="57.81" density="29.59" overlapDensity="29.70" laneDensity="14.80" occupancy="7.39" waitingTime="0.00" timeLoss="172.29" speed="17.07" speedRelative="0.87" departed="0" arrived="0" entered="28" left="24" laneChangedFrom="11" laneChangedTo="11" flow="1818.24"/>
        <edge id="9/1to10/1" sampledSeconds="633.53" traveltime="49.25" overlapTraveltime="49.47" density="10.73" overlapDensity="10.75" laneDensity="5.36" occupancy="2.67" waitingTime="0.00" timeLoss="45.26" speed="19.95" speedRelative="1.02" departed="0" arrived="0" entered="24" left="7" laneChangedFrom="3" laneChangedTo="3" flow="770.08"/>
    </interval>
    <interval begin="240.00" end="300.00" id="dump_60">
        <edge id="1/1to2/1" sampledSeconds="1204.36" traveltime="69.38" overlapTraveltime="69.71" density="20.38" overlapDensity="20.44" laneDensity="10.19" occupancy="5.02" waitingTime="7.80" timeLoss="206.56" speed="14.16" speedRelative="0.72" departed="26" arrived="0" entered="6" left="11" laneChangedFrom="21" laneChangedTo="21" flow="1038.46"/>
        <edge id="10/1to1/1" sampledSeconds="686.41" traveltime="48.29" overlapTraveltime="48.58" density="11.61" overlapDensity="11.65" laneDensity="5.81" occupancy="2.90" waitingTime="0.00" timeLoss="39.91" speed="20.32" speedRelative="1.04" departed="0" arrived="0" entered="19" left="6" laneChangedFrom="4" laneChangedTo="4" flow="850.26"/>
        <edge id="2/1to3/1" sampledSeconds="1483.86" traveltime="66.72" overlapTraveltime="67.08" density="25.01" overlapDensity="25.18" laneDensity="12.51" occupancy="6.27" waitingTime="0.00" timeLoss="105.98" speed="14.72" speedRelative="0.75" departed="0" arrived="0" entered="11" left="29" laneChangedFrom="14" laneChangedTo="14" flow="1325.33"/>
        <edge id="3/1to4/1" sampledSeconds="1709.88" traveltime="67.59" overlapTraveltime="67.93" density="28.87" overlapDensity="29.02" laneDensity="14.44" occupancy="7.21" waitingTime="0.00" timeLoss="139.69" speed="14.53" speedRelative="0.74" departed="0" arrived="0" entered="29" left="25" laneChangedFrom="18" laneChangedTo="18" flow="1510.30"/>
        <edge id="4/1to5/1" sampledSeconds="2017.30" traveltime="68.52" overlapTraveltime="68.90" density="34.07" overlapDensity="34.23" laneDensity="17.04" occupancy="8.52" waitingTime="0.00" timeLoss="191.44" speed="14.33" speedRelative="0.73" departed="0" arrived="0" entered="25" left="26" laneChangedFrom="11" laneChangedTo="11" flow="1757.88"/>
        <edge id="5/1to6/1" sampledSeconds="2303.00" traveltime="67.21" overlapTraveltime="67.54" density="38.94" overlapDensity="39.08" laneDensity="19.47" occupancy="9.69" waitingTime="5.40" timeLoss="322.00" speed="14.62" speedRelative="0.75" departed="16" arrived="0" entered="26" left="26" laneChangedFrom="26" laneChangedTo="26" flow="2048.61"/>
        <edge id="6/1to7/1" sampledSeconds="731.79" traveltime="60.97" overlapTraveltime="61.26" density="12.38" overlapDensity="12.42" laneDensity="6.19" occupancy="3.08" waitingTime="0.00" timeLoss="54.74" speed="16.11" speedRelative="0.82" departed="0" arrived="0" entered="26" left="9" laneChangedFrom="3" laneChangedTo="3" flow="717.62"/>
        <edge id="7/1to8/1" sampledSeconds="1068.36" traveltime="54.59" overlapTraveltime="54.85" density="18.00" overlapDensity="18.13" laneDensity="9.00" occupancy="4.51" waitingTime="0.00" timeLoss="88.99" speed="17.99" speedRelative="0.92" departed="0" arrived="0" entered="9" left="29" laneChangedFrom="11" laneChangedTo="11" flow="1165.65"/>
        <edge id="8/1to9/1" sampledSeconds="1841.24" traveltime="54.81" overlapTraveltime="55.13" density="31.07" overlapDensity="31.25" laneDensity="15.53" occupancy="7.77" waitingTime="0.00" timeLoss="180.32" speed="17.90" speedRelative="0.91" departed="0" arrived="0" entered="29" left="32" laneChangedFrom="12" laneChangedTo="12" flow="2004.18"/>
        <edge id="9/1to10/1" sampledSeconds="1632.35" traveltime="60.33" overlapTraveltime="60.61" density="27.62" overlapDensity="27.70" laneDensity="13.81" occupancy="6.89" waitingTime="0.00" timeLoss="212.75" speed="16.29" speedRelative="0.83" departed="0" arrived="0" entered="32" left="19" laneChangedFrom="19" laneChangedTo="19" flow="1618.27"/>
    </interval>
    <interval begin="300.00" end="360.00" id="dump_60">
        <edge id="1/1to2/1" sampledSeconds="2365.42" traveltime="66.95" overlapTraveltime="67.29" density="39.99" overlapDensity="40.14" laneDensity="19.99" occupancy="9.95" waitingTime="3.00" timeLoss="392.39" speed="14.67" speedRelative="0.75" departed="17" arrived="0" entered="18" left="27" laneChangedFrom="23" laneChangedTo="23" flow="2111.74"/>
        <edge id="10/1to1/1" sampledSeconds="1409.82" traveltime="57.64" overlapTraveltime="57.97" density="23.82" overlapDensity="23.93" laneDensity="11.91" occupancy="5.95" waitingTime="0.00" timeLoss="143.60" speed="17.03" speedRelative="0.87" departed="0" arrived="0" entered="35" left="18" laneChangedFrom="25" laneChangedTo="25" flow="1461.20"/>
        <edge id="2/1to3/1" sampledSeconds="979.86" traveltime="61.96" overlapTraveltime="62.28" density="16.56" overlapDensity="16.63" laneDensity="8.28" occupancy="4.13" waitingTime="0.00" timeLoss="80.55" speed="15.85" speedRelative="0.81" departed="0" arrived="0" entered="27" left="13" laneChangedFrom="6" laneChangedTo="6" flow="944.79"/>
        <edge id="3/1to4/1" sampledSeconds="1699.15" traveltime="68.41" overlapTraveltime="68.76" density="28.68" overlapDensity="28.84" laneDensity="14.34" occupancy="7.18" waitingTime="0.00" timeLoss="157.39" speed="14.36" speedRelative="0.73" departed="0" arrived="0" entered="13" left="26" laneChangedFrom="15" laneChangedTo="15" flow="1482.37"/>
        <edge id="4/1to5/1" sampledSeconds="1674.89" traveltime="67.84" overlapTraveltime="68.26" density="28.22" overlapDensity="28.42" laneDensity="14.11" occupancy="7.06" waitingTime="0.00" timeLoss="157.70" speed="14.46" speedRelative="0.74" departed="0" arrived="0" entered="26" left="30" laneChangedFrom="18" laneChangedTo="18" flow="1470.52"/>
        <edge id="5/1to6/1" sampledSeconds="2828.94" traveltime="68.60" overlapTraveltime="68.93" density="47.81" overlapDensity="48.01" laneDensity="23.90" occupancy="11.91" waitingTime="0.00" timeLoss="437.61" speed="14.32" speedRelative="0.73" departed="10" arrived="0" entered="30" left="35" laneChangedFrom="19" laneChangedTo="19" flow="2464.03"/>
        <edge id="6/1to7/1" sampledSeconds="2104.93" traveltime="66.53" overlapTraveltime="66.85" density="35.62" overlapDensity="35.72" laneDensity="17.81" occupancy="8.89" waitingTime="0.00" timeLoss="278.96" speed="14.76" speedRelative="0.75" departed="0" arrived="0" entered="35" left="20" laneChangedFrom="13" laneChangedTo="13" flow="1892.64"/>
        <edge id="7/1to8/1" sampledSeconds="649.55" traveltime="59.45" overlapTraveltime="59.76" density="10.99" overlapDensity="11.02" laneDensity="5.49" occupancy="2.74" waitingTime="0.00" timeLoss="39.01" speed="16.52" speedRelative="0.84" departed="0" arrived="0" entered="20" left="7" laneChangedFrom="6" laneChangedTo="6" flow="653.29"/>
        <edge id="8/1to9/1" sampledSeconds="867.79" traveltime="55.33" overlapTraveltime="55.59" density="14.60" overlapDensity="14.73" laneDensity="7.30" occupancy="3.66" waitingTime="0.00" timeLoss="58.43" speed="17.76" speedRelative="0.91" departed="0" arrived="0" entered="7" left="28" laneChangedFrom="14" laneChangedTo="14" flow="932.80"/>
        <edge id="9/1to10/1" sampledSeconds="2137.30" traveltime="56.78" overlapTraveltime="57.09" density="36.08" overlapDensity="36.27" laneDensity="18.04" occupancy="9.03" waitingTime="0.00" timeLoss="273.35" speed="17.29" speedRelative="0.88" departed="0" arrived="0" entered="28" left="35" laneChangedFrom="12" laneChangedTo="12" flow="2247.01"/>
    </interval>
    <interval begin="360.00" end="420.00" id="dump_60">
        <edge id="1/1to2/1" sampledSeconds="2824.74" traveltime="69.95" overlapTraveltime="70.28" density="47.71" overlapDensity="47.94" laneDensity="23.86" occupancy="11.86" waitingTime="8.00" timeLoss="534.74" speed="14.05" speedRelative="0.72" departed="17" arrived="0" entered="38" left="41" laneChangedFrom="15" laneChangedTo="15" flow="2411.48"/>
        <edge id="10/1to1/1" sampledSeconds="2255.23" traveltime="58.52" overlapTraveltime="58.87" density="38.04" overlapDensity="38.27" laneDensity="19.02" occupancy="9.52" waitingTime="0.00" timeLoss="332.31" speed="16.77" speedRelative="0.86" departed="0" arrived="0" entered="26" left="38" laneChangedFrom="10" laneChangedTo="10" flow="2298.53"/>
        <edge id="2/1to3/1" sampledSeconds="2239.32" traveltime="64.51" overlapTraveltime="64.84" density="37.88" overlapDensity="38.00" laneDensity="18.94" occupancy="9.46" waitingTime="0.00" timeLoss="299.73" speed="15.22" speedRelative="0.78" departed="0" arrived="0" entered="41" left="23" laneChangedFrom="14" laneChangedTo="14" flow="2075.70"/>
        <edge id="3/1to4/1" sampledSeconds="1028.41" traveltime="63.75" overlapTraveltime="64.12" density="17.35" overlapDensity="17.45" laneDensity="8.67" occupancy="4.33" waitingTime="0.00" timeLoss="112.11" speed="15.40" speedRelative="0.79" departed="0" arrived="0" entered="23" left="17" laneChangedFrom="7" laneChangedTo="7" flow="962.11"/>
        <edge id="4/1to5/1" sampledSeconds="1756.64" traveltime="68.81" overlapTraveltime="69.19" density="29.66" overlapDensity="29.81" laneDensity="14.83" occupancy="7.42" waitingTime="0.00" timeLoss="186.16" speed="14.27" speedRelative="0.73" departed="0" arrived="0" entered="17" left="24" laneChangedFrom="18" laneChangedTo="18" flow="1523.88"/>
        <edge id="5/1to6/1" sampledSeconds="2677.63" traveltime="70.31" overlapTraveltime="70.65" density="45.19" overlapDensity="45.44" laneDensity="22.60" occupancy="11.26" waitingTime="0.80" timeLoss="421.48" speed="13.97" speedRelative="0.71" departed="14" arrived="0" entered="24" left="42" laneChangedFrom="25" laneChangedTo="25" flow="2272.69"/>
        <edge id="6/1to7/1" sampledSeconds="2726.48" traveltime="67.39" overlapTraveltime="67.73" density="46.03" overlapDensity="46.27" laneDensity="23.02" occupancy="11.51" waitingTime="0.00" timeLoss="398.54" speed="14.57" speedRelative="0.74" departed="0" arrived="0" entered="42" left="41" laneChangedFrom="17" laneChangedTo="17" flow="2414.99"/>
        <edge id="7/1to8/1" sampledSeconds="1817.45" traveltime="64.40" overlapTraveltime="64.72" density="30.75" overlapDensity="30.84" laneDensity="15.38" occupancy="7.67" waitingTime="0.00" timeLoss="187.75" speed="15.25" speedRelative="0.78" departed="0" arrived="0" entered="41" left="18" laneChangedFrom="17" laneChangedTo="17" flow="1688.07"/>
        <edge id="8/1to9/1" sampledSeconds="675.15" traveltime="59.04" overlapTraveltime="59.35" density="11.42" overlapDensity="11.46" laneDensity="5.71" occupancy="2.85" waitingTime="0.00" timeLoss="36.07" speed="16.63" speedRelative="0.85" departed="0" arrived="0" entered="18" left="8" laneChangedFrom="7" laneChangedTo="7" flow="683.79"/>
        <edge id="9/1to10/1" sampledSeconds="687.71" traveltime="57.84" overlapTraveltime="58.13" density="11.54" overlapDensity="11.67" laneDensity="5.77" occupancy="2.90" waitingTime="0.00" timeLoss="42.35" speed="16.98" speedRelative="0.87" departed="0" arrived="0" entered="8" left="26" laneChangedFrom="0" laneChangedTo="0" flow="705.49"/>
    </interval>
    <interval begin="420.00" end="480.00" id="dump_60">
        <edge id="1/1to2/1" sampledSeconds="3928.18" traveltime="74.57" overlapTraveltime="74.96" density="66.38" overlapDensity="66.66" laneDensity="33.19" occupancy="16.53" waitingTime="2.20" timeLoss="1011.87" speed="13.17" speedRelative="0.67" departed="20" arrived="0" entered="22" left="42" laneChangedFrom="8" laneChangedTo="8" flow="3147.47"/>
        <edge id="10/1to1/1" sampledSeconds="663.57" traveltime="62.22" overlapTraveltime="62.58" density="11.14" overlapDensity="11.26" laneDensity="5.57" occupancy="2.79" waitingTime="0.00" timeLoss="65.49" speed="15.77" speedRelative="0.80" departed="0" arrived="0" entered="9" left="22" laneChangedFrom="7" laneChangedTo="7" flow="633.00"/>
        <edge id="2/1to3/1" sampledSeconds="2269.52" traveltime="67.51" overlapTraveltime="67.83" density="38.26" overlapDensity="38.52" laneDensity="19.13" occupancy="9.56" waitingTime="0.00" timeLoss="348.01" speed="14.55" speedRelative="0.74" departed="0" arrived="0" entered="42" left="45" laneChangedFrom="13" laneChangedTo="13" flow="2003.87"/>
        <edge id="3/1to4/1" sampledSeconds="2054.49" traveltime="64.00" overlapTraveltime="64.31" density="34.75" overlapDensity="34.87" laneDensity="17.37" occupancy="8.67" waitingTime="0.00" timeLoss="265.90" speed="15.35" speedRelative="0.78" departed="0" arrived="0" entered="45" left="23" laneChangedFrom="10" laneChangedTo="10" flow="1919.63"/>
        <edge id="4/1to5/1" sampledSeconds="1204.44" traveltime="63.86" overlapTraveltime="64.26" density="20.31" overlapDensity="20.44" laneDensity="10.15" occupancy="5.08" waitingTime="0.00" timeLoss="126.15" speed="15.36" speedRelative="0.78" departed="0" arrived="0" entered="23" left="20" laneChangedFrom="15" laneChangedTo="15" flow="1124.29"/>
        <edge id="5/1to6/1" sampledSeconds="2835.94" traveltime="73.21" overlapTraveltime="73.57" density="47.88" overlapDensity="48.13" laneDensity="23.94" occupancy="11.94" waitingTime="3.00" timeLoss="562.02" speed="13.42" speedRelative="0.68" departed="16" arrived="0" entered="20" left="39" laneChangedFrom="35" laneChangedTo="35" flow="2312.63"/>
        <edge id="6/1to7/1" sampledSeconds="2600.49" traveltime="69.15" overlapTraveltime="69.50" density="43.89" overlapDensity="44.13" laneDensity="21.94" occupancy="10.97" waitingTime="0.00" timeLoss="392.51" speed="14.20" speedRelative="0.72" departed="0" arrived="0" entered="39" left="42" laneChangedFrom="9" laneChangedTo="9" flow="2243.67"/>
        <edge id="7/1to8/1" sampledSeconds="2603.40" traveltime="66.72" overlapTraveltime="67.06" density="43.96" overlapDensity="44.18" laneDensity="21.98" occupancy="10.99" waitingTime="0.00" timeLoss="379.48" speed="14.72" speedRelative="0.75" departed="0" arrived="0" entered="42" left="37" laneChangedFrom="11" laneChangedTo="11" flow="2329.80"/>
        <edge id="8/1to9/1" sampledSeconds="1531.07" traveltime="62.80" overlapTraveltime="63.11" density="25.89" overlapDensity="25.98" laneDensity="12.94" occupancy="6.46" waitingTime="0.00" timeLoss="133.60" speed="15.64" speedRelative="0.80" departed="0" arrived="0" entered="37" left="19" laneChangedFrom="11" laneChangedTo="11" flow="1457.32"/>
        <edge id="9/1to10/1" sampledSeconds="718.12" traveltime="59.74" overlapTraveltime="60.05" density="12.14" overlapDensity="12.19" laneDensity="6.07" occupancy="3.03" waitingTime="0.00" timeLoss="45.10" speed="16.44" speedRelative="0.84" departed="0" arrived="0" entered="19" left="9" laneChangedFrom="8" laneChangedTo="8" flow="718.39"/>
    </interval>
    <interval begin="480.00" end="540.00" id="dump_60">
        <edge id="1/1to2/1" sampledSeconds="2477.44" traveltime="71.45" overlapTraveltime="71.82" density="41.75" overlapDensity="42.04" laneDensity="20.87" occupancy="10.38" waitingTime="3.00" timeLoss="388.67" speed="13.74" speedRelative="0.70" departed="21" arrived="0" entered="10" left="48" laneChangedFrom="23" laneChangedTo="23" flow="2065.71"/>
        <edge id="10/1to1/1" sampledSeconds="741.55" traveltime="59.88" overlapTraveltime="60.25" density="12.52" overlapDensity="12.58" laneDensity="6.26" occupancy="3.13" waitingTime="0.00" timeLoss="48.74" speed="16.38" speedRelative="0.84" departed="0" arrived="0" entered="17" left="10" laneChangedFrom="11" laneChangedTo="11" flow="739.36"/>
        <edge id="2/1to3/1" sampledSeconds="3803.84" traveltime="73.56" overlapTraveltime="73.91" density="64.40" overlapDensity="64.55" laneDensity="32.20" occupancy="16.08" waitingTime="0.00" timeLoss="975.12" speed="13.35" speedRelative="0.68" departed="0" arrived="0" entered="48" left="26" laneChangedFrom="4" laneChangedTo="4" flow="3095.53"/>
        <edge id="3/1to4/1" sampledSeconds="2055.76" traveltime="65.63" overlapTraveltime="65.98" density="34.64" overlapDensity="34.89" laneDensity="17.32" occupancy="8.67" waitingTime="0.00" timeLoss="251.97" speed="14.96" speedRelative="0.76" departed="0" arrived="0" entered="26" left="43" laneChangedFrom="10" laneChangedTo="10" flow="1865.94"/>
        <edge id="4/1to5/1" sampledSeconds="1842.33" traveltime="62.05" overlapTraveltime="62.40" density="31.12" overlapDensity="31.27" laneDensity="15.56" occupancy="7.77" waitingTime="0.00" timeLoss="199.47" speed="15.82" speedRelative="0.81" departed="0" arrived="0" entered="43" left="24" laneChangedFrom="11" laneChangedTo="11" flow="1773.28"/>
        <edge id="5/1to6/1" sampledSeconds="2738.24" traveltime="70.10" overlapTraveltime="70.50" density="46.19" overlapDensity="46.47" laneDensity="23.09" occupancy="11.50" waitingTime="0.60" timeLoss="669.89" speed="14.00" speedRelative="0.71" departed="16" arrived="0" entered="24" left="42" laneChangedFrom="24" laneChangedTo="24" flow="2329.45"/>
        <edge id="6/1to7/1" sampledSeconds="2606.92" traveltime="73.30" overlapTraveltime="73.64" density="44.09" overlapDensity="44.24" laneDensity="22.05" occupancy="11.01" waitingTime="0.00" timeLoss="509.84" speed="13.40" speedRelative="0.68" departed="0" arrived="0" entered="42" left="27" laneChangedFrom="24" laneChangedTo="24" flow="2126.56"/>
        <edge id="7/1to8/1" sampledSeconds="2572.03" traveltime="67.70" overlapTraveltime="68.03" density="43.46" overlapDensity="43.65" laneDensity="21.73" occupancy="10.87" waitingTime="0.00" timeLoss="344.47" speed="14.51" speedRelative="0.74" departed="0" arrived="0" entered="27" left="34" laneChangedFrom="11" laneChangedTo="11" flow="2269.71"/>