<?xml version="1.0" encoding="UTF-8"?>

<!-- generated on 2025-09-25T13:45:36.284467+01:00 by Eclipse SUMO sumo v1_24_0+0988-90d076c371e
This data file and the accompanying materials
are made available under the terms of the Eclipse Public License v2.0
which accompanies this distribution, and is available at
http://www.eclipse.org/legal/epl-v20.html
This file may also be made available under the following Secondary
Licenses when the conditions for such availability set forth in the Eclipse
Public License 2.0 are satisfied: GNU General Public License, version 2
or later which is available at
https://www.gnu.org/licenses/old-licenses/gpl-2.0-standalone.html
SPDX-License-Identifier: EPL-2.0 OR GPL-2.0-or-later
<sumoConfiguration xmlns:xsi="http://www.w3.org/2001/XMLSchema-instance" xsi:noNamespaceSchemaLocation="http://sumo.dlr.de/xsd/sumoConfiguration.xsd">

    <input>
        <net-file value="net.net.xml"/>
        <route-files value="input_routes.rou.xml"/>
        <additional-files value="input_additional.add.xml,input_additional2.add.xml"/>
    </input>

    <output>
        <write-license value="true"/>
        <tripinfo-output.write-unfinished value="true"/>
    </output>

    <time>
        <begin value="0"/>
        <end value="3000"/>
        <step-length value="0.2"/>
    </time>

    <processing>
        <default.action-step-length value="1.0"/>
        <default.speeddev value="0"/>
    </processing>

    <report>
        <xml-validation value="never"/>
        <duration-log.statistics value="true"/>
        <no-step-log value="true"/>
    </report>

</sumoConfiguration>
-->

<meandata xmlns:xsi="http://www.w3.org/2001/XMLSchema-instance" xsi:noNamespaceSchemaLocation="http://sumo.dlr.de/xsd/meandata_file.xsd">
    <interval begin="0.00" end="60.00" id="dump_60">
        <edge id="1/1to2/1" sampledSeconds="174.16" traveltime="151.47" overlapTraveltime="146.95" density="2.96" laneDensity="1.48" occupancy="0.71" waitingTime="0.00" timeLoss="98.29" speed="6.72" speedRelative="0.34" departed="30" arrived="0" entered="0" left="26" laneChangedFrom="3" laneChangedTo="3"/>
        <edge id="2/1to3/1" sampledSeconds="757.42" traveltime="67.33" overlapTraveltime="67.68" density="12.85" laneDensity="6.43" occupancy="3.19" waitingTime="0.00" timeLoss="57.89" speed="14.59" speedRelative="0.74" departed="0" arrived="0" entered="26" left="0" laneChangedFrom="10" laneChangedTo="10"/>
        <edge id="5/1to6/1" sampledSeconds="186.76" traveltime="145.52" overlapTraveltime="141.64" density="3.17" laneDensity="1.58" occupancy="0.77" waitingTime="0.00" timeLoss="118.67" speed="6.97" speedRelative="0.36" departed="30" arrived="0" entered="0" left="26" laneChangedFrom="4" laneChangedTo="4"/>
        <edge id="6/1to7/1" sampledSeconds="736.92" traveltime="61.23" overlapTraveltime="61.53" density="12.51" laneDensity="6.25" occupancy="3.10" waitingTime="0.00" timeLoss="94.00" speed="16.04" speedRelative="0.82" departed="0" arrived="0" entered="26" left="1" laneChangedFrom="12" laneChangedTo="12"/>
        <edge id="7/1to8/1" sampledSeconds="7.72" traveltime="44.63" overlapTraveltime="44.86" density="0.13" laneDensity="0.07" occupancy="0.03" waitingTime="0.00" timeLoss="0.28" speed="22.00" speedRelative="1.12" departed="0" arrived="0" entered="1" left="0" laneChangedFrom="0" laneChangedTo="0"/>
    </interval>
    <interval begin="60.00" end="120.00" id="dump_60">
        <edge id="1/1to2/1" sampledSeconds="347.76" traveltime="96.47" overlapTraveltime="95.78" density="5.90" laneDensity="2.95" occupancy="1.46" waitingTime="0.00" timeLoss="119.71" speed="10.31" speedRelative="0.53" departed="30" arrived="0" entered="0" left="28" laneChangedFrom="7" laneChangedTo="7"/>
        <edge id="2/1to3/1" sampledSeconds="1806.02" traveltime="67.10" overlapTraveltime="67.44" density="30.65" laneDensity="15.32" occupancy="7.63" waitingTime="0.00" timeLoss="106.26" speed="14.64" speedRelative="0.75" departed="0" arrived="0" entered="27" left="24" laneChangedFrom="18" laneChangedTo="18"/>
        <edge id="3/1to4/1" sampledSeconds="580.20" traveltime="63.93" overlapTraveltime="64.25" density="9.85" laneDensity="4.92" occupancy="2.44" waitingTime="0.00" timeLoss="28.84" speed="15.36" speedRelative="0.78" departed="0" arrived="0" entered="24" left="0" laneChangedFrom="3" laneChangedTo="3"/>
        <edge id="5/1to6/1" sampledSeconds="354.83" traveltime="90.63" overlapTraveltime="89.77" density="6.02" laneDensity="3.01" occupancy="1.49" waitingTime="0.00" timeLoss="150.03" speed="11.00" speedRelative="0.56" departed="30" arrived="0" entered="0" left="28" laneChangedFrom="11" laneChangedTo="11"/>
        <edge id="6/1to7/1" sampledSeconds="1629.85" traveltime="56.57" overlapTraveltime="56.86" density="27.66" laneDensity="13.83" occupancy="6.88" waitingTime="0.00" timeLoss="155.45" speed="17.36" speedRelative="0.89" departed="0" arrived="0" entered="28" left="27" laneChangedFrom="19" laneChangedTo="19"/>
        <edge id="7/1to8/1" sampledSeconds="718.47" traveltime="60.91" overlapTraveltime="61.20" density="12.19" laneDensity="6.10" occupancy="3.03" waitingTime="0.00" timeLoss="115.53" speed="16.13" speedRelative="0.82" departed="0" arrived="0" entered="27" left="2" laneChangedFrom="8" laneChangedTo="8"/>
        <edge id="8/1to9/1" sampledSeconds="30.31" traveltime="43.63" overlapTraveltime="43.85" density="0.51" laneDensity="0.26" occupancy="0.13" waitingTime="0.00" timeLoss="0.91" speed="22.51" speedRelative="1.15" departed="0" arrived="0" entered="2" left="0" laneChangedFrom="0" laneChangedTo="0"/>
    </interval>
    <interval begin="120.00" end="180.00" id="dump_60">
        <edge id="1/1to2/1" sampledSeconds="521.75" traveltime="84.99" overlapTraveltime="85.02" density="8.85" laneDensity="4.43" occupancy="2.19" waitingTime="0.00" timeLoss="136.54" speed="11.61" speedRelative="0.59" departed="30" arrived="0" entered="0" left="26" laneChangedFrom="15" laneChangedTo="15"/>
        <edge id="2/1to3/1" sampledSeconds="1808.72" traveltime="65.44" overlapTraveltime="65.78" density="30.70" laneDensity="15.35" occupancy="7.64" waitingTime="0.00" timeLoss="108.94" speed="15.01" speedRelative="0.77" departed="0" arrived="0" entered="27" left="26" laneChangedFrom="10" laneChangedTo="10"/>
        <edge id="3/1to4/1" sampledSeconds="1752.92" traveltime="67.27" overlapTraveltime="67.61" density="29.75" laneDensity="14.87" occupancy="7.40" waitingTime="0.00" timeLoss="113.15" speed="14.60" speedRelative="0.74" departed="0" arrived="0" entered="26" left="21" laneChangedFrom="13" laneChangedTo="13"/>
        <edge id="4/1to5/1" sampledSeconds="455.18" traveltime="62.39" overlapTraveltime="62.70" density="7.72" laneDensity="3.86" occupancy="1.92" waitingTime="0.00" timeLoss="21.54" speed="15.74" speedRelative="0.80" departed="0" arrived="0" entered="21" left="0" laneChangedFrom="4" laneChangedTo="4"/>
        <edge id="5/1to6/1" sampledSeconds="492.09" traveltime="73.67" overlapTraveltime="73.59" density="8.35" laneDensity="4.18" occupancy="2.07" waitingTime="0.00" timeLoss="168.99" speed="13.41" speedRelative="0.68" departed="30" arrived="0" entered="0" left="28" laneChangedFrom="15" laneChangedTo="15"/>
        <edge id="6/1to7/1" sampledSeconds="1559.93" traveltime="55.50" overlapTraveltime="55.79" density="26.47" laneDensity="13.24" occupancy="6.59" waitingTime="0.00" timeLoss="140.13" speed="17.69" speedRelative="0.90" departed="0" arrived="0" entered="28" left="28" laneChangedFrom="18" laneChangedTo="18"/>
        <edge id="7/1to8/1" sampledSeconds="1841.30" traveltime="61.16" overlapTraveltime="61.46" density="31.25" laneDensity="15.62" occupancy="7.78" waitingTime="0.00" timeLoss="288.36" speed="16.06" speedRelative="0.82" departed="0" arrived="0" entered="27" left="28" laneChangedFrom="12" laneChangedTo="12"/>
        <edge id="8/1to9/1" sampledSeconds="569.91" traveltime="51.95" overlapTraveltime="52.21" density="9.67" laneDensity="4.84" occupancy="2.40" waitingTime="0.00" timeLoss="36.92" speed="18.91" speedRelative="0.96" departed="0" arrived="0" entered="28" left="3" laneChangedFrom="2" laneChangedTo="2"/>
        <edge id="9/1to10/1" sampledSeconds="74.96" traveltime="43.64" overlapTraveltime="43.86" density="1.27" laneDensity="0.64" occupancy="0.32" waitingTime="0.00" timeLoss="1.84" speed="22.50" speedRelative="1.15" departed="0" arrived="0" entered="3" left="0" laneChangedFrom="0" laneChangedTo="0"/>
    </interval>
    <interval begin="180.00" end="240.00" id="dump_60">
        <edge id="1/1to2/1" sampledSeconds="684.46" traveltime="77.57" overlapTraveltime="77.78" density="11.62" laneDensity="5.81" occupancy="2.88" waitingTime="0.00" timeLoss="139.79" speed="12.69" speedRelative="0.65" departed="28" arrived="0" entered="2" left="27" laneChangedFrom="14" laneChangedTo="14"/>
        <edge id="10/1to1/1" sampledSeconds="127.13" traveltime="43.17" overlapTraveltime="43.41" density="2.16" laneDensity="1.08" occupancy="0.54" waitingTime="0.00" timeLoss="3.84" speed="22.74" speedRelative="1.16" departed="0" arrived="0" entered="7" left="2" laneChangedFrom="0" laneChangedTo="0"/>
        <edge id="2/1to3/1" sampledSeconds="1796.22" traveltime="67.59" overlapTraveltime="67.93" density="30.48" laneDensity="15.24" occupancy="7.58" waitingTime="0.00" timeLoss="135.09" speed="14.53" speedRelative="0.74" departed="0" arrived="0" entered="27" left="26" laneChangedFrom="16" laneChangedTo="16"/>
        <edge id="3/1to4/1" sampledSeconds="1891.98" traveltime="67.13" overlapTraveltime="67.49" density="32.11" laneDensity="16.05" occupancy="7.99" waitingTime="0.00" timeLoss="154.38" speed="14.63" speedRelative="0.75" departed="0" arrived="0" entered="26" left="28" laneChangedFrom="18" laneChangedTo="18"/>
        <edge id="4/1to5/1" sampledSeconds="1579.04" traveltime="66.80" overlapTraveltime="67.17" density="26.80" laneDensity="13.40" occupancy="6.67" waitingTime="0.00" timeLoss="103.08" speed="14.70" speedRelative="0.75" departed="0" arrived="0" entered="28" left="16" laneChangedFrom="13" laneChangedTo="13"/>
        <edge id="5/1to6/1" sampledSeconds="928.78" traveltime="66.37" overlapTraveltime="66.65" density="15.76" laneDensity="7.88" occupancy="3.88" waitingTime="0.80" timeLoss="130.26" speed="14.81" speedRelative="0.76" departed="15" arrived="0" entered="16" left="11" laneChangedFrom="17" laneChangedTo="17"/>
        <edge id="6/1to7/1" sampledSeconds="1216.87" traveltime="53.70" overlapTraveltime="53.97" density="20.65" laneDensity="10.33" occupancy="5.14" waitingTime="0.00" timeLoss="110.67" speed="18.29" speedRelative="0.93" departed="0" arrived="0" entered="11" left="28" laneChangedFrom="13" laneChangedTo="13"/>
        <edge id="7/1to8/1" sampledSeconds="1702.25" traveltime="56.55" overlapTraveltime="56.84" density="28.89" laneDensity="14.44" occupancy="7.19" waitingTime="0.00" timeLoss="203.03" speed="17.36" speedRelative="0.89" departed="0" arrived="0" entered="29" left="28" laneChangedFrom="15" laneChangedTo="15"/>
        <edge id="8/1to9/1" sampledSeconds="1750.12" traveltime="57.54" overlapTraveltime="57.81" density="29.70" laneDensity="14.85" occupancy="7.39" waitingTime="0.00" timeLoss="172.29" speed="17.07" speedRelative="0.87" departed="0" arrived="0" entered="28" left="24" laneChangedFrom="11" laneChangedTo="11"/>
        <edge id="9/1to10/1" sampledSeconds="633.53" traveltime="49.25" overlapTraveltime="49.47" density="10.75" laneDensity="5.38" occupancy="2.67" waitingTime="0.00" timeLoss="45.26" speed="19.95" speedRelative="1.02" departed="0" arrived="0" entered="24" left="7" laneChangedFrom="3" laneChangedTo="3"/>
    </interval>
    <interval begin="240.00" end="300.00" id="dump_60">
        <edge id="1/1to2/1" sampledSeconds="1203.65" traveltime="69.66" overlapTraveltime="70.00" density="20.43" laneDensity="10.21" occupancy="5.02" waitingTime="7.80" timeLoss="210.01" speed="14.10" speedRelative="0.72" departed="26" arrived="0" entered="6" left="11" laneChangedFrom="20" laneChangedTo="20"/>
        <edge id="10/1to1/1" sampledSeconds="686.50" traveltime="48.29" overlapTraveltime="48.59" density="11.65" laneDensity="5.83" occupancy="2.90" waitingTime="0.00" timeLoss="40.00" speed="20.32" speedRelative="1.04" departed="0" arrived="0" entered="19" left="6" laneChangedFrom="4" laneChangedTo="4"/>
        <edge id="2/1to3/1" sampledSeconds="1483.89" traveltime="66.72" overlapTraveltime="67.08" density="25.18" laneDensity="12.59" occupancy="6.27" waitingTime="0.00" timeLoss="105.97" speed="14.72" speedRelative="0.75" departed="0" arrived="0" entered="11" left="29" laneChangedFrom="14" laneChangedTo="14"/>
        <edge id="3/1to4/1" sampledSeconds="1709.88" traveltime="67.59" overlapTraveltime="67.93" density="29.02" laneDensity="14.51" occupancy="7.21" waitingTime="0.00" timeLoss="139.69" speed="14.53" speedRelative="0.74" departed="0" arrived="0" entered="29" left="25" laneChangedFrom="18" laneChangedTo="18"/>
        <edge id="4/1to5/1" sampledSeconds="2017.30" traveltime="68.52" overlapTraveltime="68.90" density="34.23" laneDensity="17.12" occupancy="8.52" waitingTime="0.00" timeLoss="191.44" speed="14.33" speedRelative="0.73" departed="0" arrived="0" entered="25" left="26" laneChangedFrom="11" laneChangedTo="11"/>
        <edge id="5/1to6/1" sampledSeconds="2303.00" traveltime="67.21" overlapTraveltime="67.54" density="39.08" laneDensity="19.54" occupancy="9.69" waitingTime="5.40" timeLoss="322.00" speed="14.62" speedRelative="0.75" departed="16" arrived="0" entered="26" left="26" laneChangedFrom="26" laneChangedTo="26"/>
        <edge id="6/1to7/1" sampledSeconds="731.79" traveltime="60.97" overlapTraveltime="61.26" density="12.42" laneDensity="6.21" occupancy="3.08" waitingTime="0.00" timeLoss="54.74" speed="16.11" speedRelative="0.82" departed="0" arrived="0" entered="26" left="9" laneChangedFrom="3" laneChangedTo="3"/>
        <edge id="7/1to8/1" sampledSeconds="1068.36" traveltime="54.59" overlapTraveltime="54.85" density="18.13" laneDensity="9.07" occupancy="4.51" waitingTime="0.00" timeLoss="88.99" speed="17.99" speedRelative="0.92" departed="0" arrived="0" entered="9" left="29" laneChangedFrom="11" laneChangedTo="11"/>
        <edge id="8/1to9/1" sampledSeconds="1841.24" traveltime="54.81" overlapTraveltime="55.13" density="31.25" laneDensity="15.62" occupancy="7.77" waitingTime="0.00" timeLoss="180.32" speed="17.90" speedRelative="0.91" departed="0" arrived="0" entered="29" left="32" laneChangedFrom="12" laneChangedTo="12"/>
        <edge id="9/1to10/1" sampledSeconds="1632.35" traveltime="60.33" overlapTraveltime="60.61" density="27.70" laneDensity="13.85" occupancy="6.89" waitingTime="0.00" timeLoss="212.75" speed="16.29" speedRelative="0.83" departed="0" arrived="0" entered="32" left="19" laneChangedFrom="19" laneChangedTo="19"/>
    </interval>
    <interval begin="300.00" end="360.00" id="dump_60">
        <edge id="1/1to2/1" sampledSeconds="2491.92" traveltime="68.49" overlapTraveltime="68.82" density="42.29" laneDensity="21.14" occupancy="10.50" waitingTime="5.40" timeLoss="438.71" speed="14.34" speedRelative="0.73" departed="19" arrived="0" entered="18" left="27" laneChangedFrom="23" laneChangedTo="23"/>
        <edge id="10/1to1/1" sampledSeconds="1416.30" traveltime="58.29" overlapTraveltime="58.66" density="24.04" laneDensity="12.02" occupancy="5.97" waitingTime="0.00" timeLoss="156.81" speed="16.83" speedRelative="0.86" departed="0" arrived="0" entered="35" left="18" laneChangedFrom="24" laneChangedTo="24"/>
        <edge id="2/1to3/1" sampledSeconds="989.72" traveltime="60.75" overlapTraveltime="61.07" density="16.80" laneDensity="8.40" occupancy="4.17" waitingTime="0.00" timeLoss="72.70" speed="16.16" speedRelative="0.82" departed="0" arrived="0" entered="27" left="13" laneChangedFrom="7" laneChangedTo="7"/>
        <edge id="3/1to4/1" sampledSeconds="1700.56" traveltime="68.32" overlapTraveltime="68.67" density="28.86" laneDensity="14.43" occupancy="7.19" waitingTime="0.00" timeLoss="155.76" speed="14.37" speedRelative="0.73" departed="0" arrived="0" entered="13" left="26" laneChangedFrom="16" laneChangedTo="16"/>
        <edge id="4/1to5/1" sampledSeconds="1673.16" traveltime="67.93" overlapTraveltime="68.37" density="28.39" laneDensity="14.20" occupancy="7.05" waitingTime="0.00" timeLoss="159.80" speed="14.44" speedRelative="0.74" departed="0" arrived="0" entered="26" left="30" laneChangedFrom="19" laneChangedTo="19"/>
        <edge id="5/1to6/1" sampledSeconds="2878.28" traveltime="68.94" overlapTraveltime="69.28" density="48.85" laneDensity="24.42" occupancy="12.12" waitingTime="0.60" timeLoss="461.48" speed="14.25" speedRelative="0.73" departed="12" arrived="0" entered="30" left="35" laneChangedFrom="22" laneChangedTo="22"/>
        <edge id="6/1to7/1" sampledSeconds="2103.67" traveltime="66.47" overlapTraveltime="66.79" density="35.70" laneDensity="17.85" occupancy="8.89" waitingTime="0.00" timeLoss="277.52" speed="14.78" speedRelative="0.75" departed="0" arrived="0" entered="35" left="20" laneChangedFrom="14" laneChangedTo="14"/>
        <edge id="7/1to8/1" sampledSeconds="650.61" traveltime="59.44" overlapTraveltime="59.75" density="11.04" laneDensity="5.52" occupancy="2.74" waitingTime="0.00" timeLoss="39.05" speed="16.52" speedRelative="0.84" departed="0" arrived="0" entered="20" left="7" laneChangedFrom="6" laneChangedTo="6"/>
        <edge id="8/1to9/1" sampledSeconds="867.79" traveltime="55.33" overlapTraveltime="55.59" density="14.73" laneDensity="7.36" occupancy="3.66" waitingTime="0.00" timeLoss="58.43" speed="17.76" speedRelative="0.91" departed="0" arrived="0" entered="7" left="28" laneChangedFrom="14" laneChangedTo="14"/>
        <edge id="9/1to10/1" sampledSeconds="2137.09" traveltime="56.77" overlapTraveltime="57.08" density="36.27" laneDensity="18.13" occupancy="9.03" waitingTime="0.00" timeLoss="273.13" speed="17.29" speedRelative="0.88" departed="0" arrived="0" entered="28" left="35" laneChangedFrom="12" laneChangedTo="12"/>
    </interval>
    <interval begin="360.00" end="420.00" id="dump_60">
        <edge id="1/1to2/1" sampledSeconds="2719.30" traveltime="66.62" overlapTraveltime="66.97" density="46.15" laneDensity="23.07" occupancy="11.45" waitingTime="3.20" timeLoss="427.05" speed="14.74" speedRelative="0.75" departed="11" arrived="0" entered="38" left="41" laneChangedFrom="17" laneChangedTo="17"/>
        <edge id="10/1to1/1" sampledSeconds="2325.75" traveltime="60.17" overlapTraveltime="60.50" density="39.47" laneDensity="19.73" occupancy="9.82" waitingTime="0.00" timeLoss="398.09" speed="16.32" speedRelative="0.83" departed="0" arrived="0" entered="26" left="38" laneChangedFrom="11" laneChangedTo="11"/>
        <edge id="2/1to3/1" sampledSeconds="2240.35" traveltime="65.57" overlapTraveltime="65.90" density="38.02" laneDensity="19.01" occupancy="9.46" waitingTime="0.00" timeLoss="294.58" speed="14.98" speedRelative="0.76" departed="0" arrived="0" entered="41" left="22" laneChangedFrom="18" laneChangedTo="18"/>
        <edge id="3/1to4/1" sampledSeconds="1034.14" traveltime="63.73" overlapTraveltime="64.09" density="17.55" laneDensity="8.77" occupancy="4.36" waitingTime="0.00" timeLoss="114.15" speed="15.40" speedRelative="0.79" departed="0" arrived="0" entered="22" left="17" laneChangedFrom="5" laneChangedTo="5"/>
        <edge id="4/1to5/1" sampledSeconds="1766.05" traveltime="68.09" overlapTraveltime="68.46" density="29.97" laneDensity="14.99" occupancy="7.46" waitingTime="0.00" timeLoss="168.11" speed="14.42" speedRelative="0.74" departed="0" arrived="0" entered="17" left="24" laneChangedFrom="20" laneChangedTo="20"/>
        <edge id="5/1to6/1" sampledSeconds="2871.25" traveltime="69.90" overlapTraveltime="70.24" density="48.73" laneDensity="24.36" occupancy="12.07" waitingTime="4.00" timeLoss="443.97" speed="14.05" speedRelative="0.72" departed="16" arrived="0" entered="24" left="43" laneChangedFrom="24" laneChangedTo="24"/>
        <edge id="6/1to7/1" sampledSeconds="2756.36" traveltime="66.80" overlapTraveltime="67.14" density="46.78" laneDensity="23.39" occupancy="11.63" waitingTime="0.00" timeLoss="391.10" speed="14.70" speedRelative="0.75" departed="0" arrived="0" entered="43" left="41" laneChangedFrom="12" laneChangedTo="12"/>
        <edge id="7/1to8/1" sampledSeconds="1835.57" traveltime="64.01" overlapTraveltime="64.32" density="31.15" laneDensity="15.58" occupancy="7.75" waitingTime="0.00" timeLoss="187.96" speed="15.35" speedRelative="0.78" departed="0" arrived="0" entered="41" left="18" laneChangedFrom="14" laneChangedTo="14"/>
        <edge id="8/1to9/1" sampledSeconds="676.79" traveltime="58.81" overlapTraveltime="59.12" density="11.49" laneDensity="5.74" occupancy="2.85" waitingTime="0.00" timeLoss="34.40" speed="16.70" speedRelative="0.85" departed="0" arrived="0" entered="18" left="8" laneChangedFrom="7" laneChangedTo="7"/>
        <edge id="9/1to10/1" sampledSeconds="688.08" traveltime="57.85" overlapTraveltime="58.15" density="11.68" laneDensity="5.84" occupancy="2.90" waitingTime="0.00" timeLoss="42.55" speed="16.98" speedRelative="0.87" departed="0" arrived="0" entered="8" left="26" laneChangedFrom="1" laneChangedTo="1"/>
    </interval>
    <interval begin="420.00" end="480.00" id="dump_60">
        <edge id="1/1to2/1" sampledSeconds="3240.92" traveltime="68.54" overlapTraveltime="68.88" density="55.00" laneDensity="27.50" occupancy="13.64" waitingTime="0.00" timeLoss="680.87" speed="14.33" speedRelative="0.73" departed="16" arrived="0" entered="22" left="49" laneChangedFrom="16" laneChangedTo="16"/>
        <edge id="10/1to1/1" sampledSeconds="654.84" traveltime="61.80" overlapTraveltime="62.12" density="11.11" laneDensity="5.56" occupancy="2.76" waitingTime="0.00" timeLoss="58.96" speed="15.89" speedRelative="0.81" departed="0" arrived="0" entered="8" left="22" laneChangedFrom="8" laneChangedTo="8"/>
        <edge id="2/1to3/1" sampledSeconds="2637.42" traveltime="65.30" overlapTraveltime="65.67" density="44.76" laneDensity="22.38" occupancy="11.12" waitingTime="0.00" timeLoss="396.91" speed="15.03" speedRelative="0.77" departed="0" arrived="0" entered="49" left="45" laneChangedFrom="2" laneChangedTo="2"/>
        <edge id="3/1to4/1" sampledSeconds="2028.87" traveltime="66.59" overlapTraveltime="66.91" density="34.43" laneDensity="17.22" occupancy="8.56" waitingTime="0.00" timeLoss="297.78" speed="14.75" speedRelative="0.75" departed="0" arrived="0" entered="45" left="22" laneChangedFrom="11" laneChangedTo="11"/>
        <edge id="4/1to5/1" sampledSeconds="1157.29" traveltime="63.44" overlapTraveltime="63.86" density="19.64" laneDensity="9.82" occupancy="4.88" waitingTime="0.00" timeLoss="112.41" speed="15.46" speedRelative="0.79" departed="0" arrived="0" entered="22" left="20" laneChangedFrom="8" laneChangedTo="8"/>
        <edge id="5/1to6/1" sampledSeconds="3035.09" traveltime="73.48" overlapTraveltime="73.85" density="51.51" laneDensity="25.75" occupancy="12.77" waitingTime="8.00" timeLoss="645.79" speed="13.37" speedRelative="0.68" departed="21" arrived="0" entered="20" left="40" laneChangedFrom="32" laneChangedTo="32"/>
        <edge id="6/1to7/1" sampledSeconds="2734.48" traveltime="70.07" overlapTraveltime="70.42" density="46.41" laneDensity="23.20" occupancy="11.54" waitingTime="0.00" timeLoss="441.57" speed="14.02" speedRelative="0.72" departed="0" arrived="0" entered="40" left="43" laneChangedFrom="14" laneChangedTo="14"/>
        <edge id="7/1to8/1" sampledSeconds="2622.81" traveltime="66.32" overlapTraveltime="66.67" density="44.51" laneDensity="22.26" occupancy="11.07" waitingTime="0.00" timeLoss="372.12" speed="14.80" speedRelative="0.76" departed="0" arrived="0" entered="43" left="38" laneChangedFrom="14" laneChangedTo="14"/>
        <edge id="8/1to9/1" sampledSeconds="1540.88" traveltime="63.01" overlapTraveltime="63.32" density="26.15" laneDensity="13.07" occupancy="6.50" waitingTime="0.00" timeLoss="144.47" speed="15.59" speedRelative="0.80" departed="0" arrived="0" entered="38" left="19" laneChangedFrom="13" laneChangedTo="13"/>
        <edge id="9/1to10/1" sampledSeconds="732.94" traveltime="59.77" overlapTraveltime="60.09" density="12.44" laneDensity="6.22" occupancy="3.09" waitingTime="0.00" timeLoss="47.97" speed="16.43" speedRelative="0.84" departed="0" arrived="0" entered="19" left="8" laneChangedFrom="5" laneChangedTo="5"/>
    </interval>
    <interval begin="480.00" end="540.00" id="dump_60">
        <edge id="1/1to2/1" sampledSeconds="2202.85" traveltime="71.72" overlapTraveltime="72.09" density="37.38" laneDensity="18.69" occupancy="9.23" waitingTime="1.20" timeLoss="328.29" speed="13.69" speedRelative="0.70" departed="21" arrived="0" entered="10" left="35" laneChangedFrom="21" laneChangedTo="21"/>
        <edge id="10/1to1/1" sampledSeconds="779.83" traveltime="58.70" overlapTraveltime="59.05" density="13.23" laneDensity="6.62" occupancy="3.29" waitingTime="0.00" timeLoss="45.59" speed="16.72" speedRelative="0.85" departed="0" arrived="0" entered="18" left="10" laneChangedFrom="18" laneChangedTo="18"/>
        <edge id="2/1to3/1" sampledSeconds="3081.90" traveltime="66.23" overlapTraveltime="66.54" density="52.30" laneDensity="26.15" occupancy="13.02" waitingTime="0.00" timeLoss="550.94" speed="14.83" speedRelative="0.76" departed="0" arrived="0" entered="35" left="43" laneChangedFrom="15" laneChangedTo="15"/>
        <edge id="3/1to4/1" sampledSeconds="2787.47" traveltime="64.84" overlapTraveltime="65.19" density="47.31" laneDensity="23.65" occupancy="11.77" waitingTime="0.00" timeLoss="434.32" speed="15.14" speedRelative="0.77" departed="0" arrived="0" entered="43" left="43" laneChangedFrom="11" laneChangedTo="11"/>
        <edge id="4/1to5/1" sampledSeconds="1672.31" traveltime="65.55" overlapTraveltime="65.90" density="28.38" laneDensity="14.19" occupancy="7.05" waitingTime="0.00" timeLoss="216.68" speed="14.98" speedRelative="0.76" departed="0" arrived="0" entered="42" left="22" laneChangedFrom="10" laneChangedTo="10"/>
        <edge id="5/1to6/1" sampledSeconds="2684.83" traveltime="66.02" overlapTraveltime="66.39" density="45.56" laneDensity="22.78" occupancy="11.28" waitingTime="1.80" timeLoss="552.35" speed="14.87" speedRelative="0.76" departed="16" arrived="0" entered="22" left="49" laneChangedFrom="28" laneChangedTo="28"/>
        <edge id="6/1to7/1" sampledSeconds="3010.51" traveltime="74.53" overlapTraveltime="74.88" density="51.09" laneDensity="25.55" occupancy="12.71" waitingTime="0.00" timeLoss="661.96" speed="13.18" speedRelative="0.67" departed="0" arrived="0" entered="49" left="29" laneChangedFrom="23" laneChangedTo="23"/>
        <edge id="7/1to8/1" sampledSeconds="2561.19" traveltime="67.50" overlapTraveltime="67.82" density="43.47" laneDensity="21.73" occupancy="10.82" waitingTime="0.00" timeLoss="330.52" speed="14.56" speedRelative="0.74" departed="0" arrived="0" entered="29" left="35" laneChangedFrom="9" laneChangedTo="9"/>
        <edge id="8/1to9/1" sampledSeconds="2630.02" traveltime="65.42" overlapTraveltime="65.76" density="44.63" laneDensity="22.32" occupancy="11.12" waitingTime="0.00" timeLoss="369.98" speed="15.01" speedRelative="0.77" departed="0" arrived="0" entered="35" left="28" laneChangedFrom="12" laneChangedTo="12"/>
        <edge id="9/1to10/1" sampledSeconds="1270.25" traveltime="60.31" overlapTraveltime="60.60" density="21.56" laneDensity="10.78" occupancy="5.36" waitingTime="0.00" timeLoss="89.11" speed="16.29" speedRelative="0.83" departed="0" arrived="0" entered="28" left="18" laneChangedFrom="9" laneChangedTo="9"/>
    </interval>
    <interval begin="540.00" end="600.00" id="dump_60">
        <edge id="1/1to2/1" sampledSeconds="2417.03" traveltime="69.83" overlapTraveltime="70.16" density="41.02" laneDensity="20.51" occupancy="10.15" waitingTime="4.60" timeLoss="344.83" speed="14.07" speedRelative="0.72" departed="21" arrived="0" entered="17" left="30" laneChangedFrom="23" laneChangedTo="23"/>
        <edge id="10/1to1/1" sampledSeconds="1169.05" traveltime="59.82" overlapTraveltime="60.18" density="19.84" laneDensity="9.92" occupancy="4.93" waitingTime="0.00" timeLoss="87.43" speed="16.40" speedRelative="0.84" departed="0" arrived="0" entered="24" left="17" laneChangedFrom="7" laneChangedTo="7"/>
        <edge id="2/1to3/1" sampledSeconds="2264.47" traveltime="69.88" overlapTraveltime="70.24" density="38.43" laneDensity="19.21" occupancy="9.56" waitingTime="0.00" timeLoss="298.08" speed="14.05" speedRelative="0.72" departed="0" arrived="0" entered="30" left="38" laneChangedFrom="18" laneChangedTo="18"/>
        <edge id="3/1to4/1" sampledSeconds="2702.14" traveltime="64.41" overlapTraveltime="64.70" density="45.86" laneDensity="22.93" occupancy="11.41" waitingTime="0.00" timeLoss="405.44" speed="15.26" speedRelative="0.78" departed="0" arrived="0" entered="37" left="38" laneChangedFrom="20" laneChangedTo="20"/>
        <edge id="4/1to5/1" sampledSeconds="3032.97" traveltime="65.13" overlapTraveltime="65.47" density="51.47" laneDensity="25.74" occupancy="12.82" waitingTime="0.00" timeLoss="502.30" speed="15.08" speedRelative="0.77" departed="0" arrived="0" entered="39" left="33" laneChangedFrom="15" laneChangedTo="15"/>
        <edge id="5/1to6/1" sampledSeconds="2563.56" traveltime="66.50" overlapTraveltime="66.83" density="43.51" laneDensity="21.75" occupancy="10.79" waitingTime="0.00" timeLoss="493.35" speed="14.77" speedRelative="0.75" departed="11" arrived="0" entered="33" left="33" laneChangedFrom="17" laneChangedTo="17"/>
        <edge id="6/1to7/1" sampledSeconds="3265.78" traveltime="72.95" overlapTraveltime="73.33" density="55.42" laneDensity="27.71" occupancy="13.80" waitingTime="0.00" timeLoss="872.04" speed="13.46" speedRelative="0.69" departed="0" arrived="0" entered="33" left="43" laneChangedFrom="15" laneChangedTo="15"/>