<?xml version="1.0" encoding="UTF-8"?>

<!-- generated on 2021-12-19 12:45:54 by Eclipse SUMO sumo Version v1_11_0+0620-3f1078c
This data file and the accompanying materials
are made available under the terms of the Eclipse Public License v2.0
which accompanies this distribution, and is available at
http://www.eclipse.org/legal/epl-v20.html
SPDX-License-Identifier: EPL-2.0
<configuration xmlns:xsi="http://www.w3.org/2001/XMLSchema-instance" xsi:noNamespaceSchemaLocation="http://sumo.dlr.de/xsd/sumoConfiguration.xsd">

    <input>
        <net-file value="net.net.xml"/>
        <route-files value="input_routes.rou.xml"/>
    </input>

    <output>
        <write-license value="true"/>
        <fcd-output value="fcd.xml"/>
        <fcd-output.attributes value="acceleration"/>
    </output>

    <time>
        <step-length value="0.1"/>
    </time>

    <processing>
        <default.carfollowmodel value="CACC"/>
        <default.speeddev value="0"/>
    </processing>

    <report>
        <xml-validation value="never"/>
        <xml-validation.routes value="never"/>
        <no-step-log value="true"/>
    </report>

    <gui_only>
        <tracker-interval value="0.1"/>
    </gui_only>

</configuration>
-->

<fcd-export xmlns:xsi="http://www.w3.org/2001/XMLSchema-instance" xsi:noNamespaceSchemaLocation="http://sumo.dlr.de/xsd/fcd_file.xsd">
    <timestep time="0.00">
        <vehicle id="f.0" acceleration="0.00"/>
    </timestep>
    <timestep time="0.10">
        <vehicle id="f.0" acceleration="0.00"/>
    </timestep>
    <timestep time="0.20">
        <vehicle id="f.0" acceleration="0.00"/>
    </timestep>
    <timestep time="0.30">
        <vehicle id="f.0" acceleration="0.00"/>
    </timestep>
    <timestep time="0.40">
        <vehicle id="f.0" acceleration="0.00"/>
    </timestep>
    <timestep time="0.50">
        <vehicle id="f.0" acceleration="0.00"/>
    </timestep>
    <timestep time="0.60">
        <vehicle id="f.0" acceleration="0.00"/>
    </timestep>
    <timestep time="0.70">
        <vehicle id="f.0" acceleration="0.00"/>
    </timestep>
    <timestep time="0.80">
        <vehicle id="f.0" acceleration="0.00"/>
    </timestep>
    <timestep time="0.90">
        <vehicle id="f.0" acceleration="0.00"/>
    </timestep>
    <timestep time="1.00">
        <vehicle id="f.0" acceleration="0.00"/>
    </timestep>
    <timestep time="1.10">
        <vehicle id="f.0" acceleration="0.00"/>
    </timestep>
    <timestep time="1.20">
        <vehicle id="f.0" acceleration="0.00"/>
    </timestep>
    <timestep time="1.30">
        <vehicle id="f.0" acceleration="0.00"/>
    </timestep>
    <timestep time="1.40">
        <vehicle id="f.0" acceleration="0.00"/>
    </timestep>
    <timestep time="1.50">
        <vehicle id="f.0" acceleration="0.00"/>
    </timestep>
    <timestep time="1.60">
        <vehicle id="f.0" acceleration="0.00"/>
    </timestep>
    <timestep time="1.70">
        <vehicle id="f.0" acceleration="0.00"/>
    </timestep>
    <timestep time="1.80">
        <vehicle id="f.0" acceleration="0.00"/>
    </timestep>
    <timestep time="1.90">
        <vehicle id="f.0" acceleration="0.00"/>
    </timestep>
    <timestep time="2.00">
        <vehicle id="f.0" acceleration="0.00"/>
        <vehicle id="f.1" acceleration="0.00"/>
    </timestep>
    <timestep time="2.10">
        <vehicle id="f.0" acceleration="0.00"/>
        <vehicle id="f.1" acceleration="0.00"/>
    </timestep>
    <timestep time="2.20">
        <vehicle id="f.0" acceleration="0.00"/>
        <vehicle id="f.1" acceleration="0.00"/>
    </timestep>
    <timestep time="2.30">
        <vehicle id="f.0" acceleration="0.00"/>
        <vehicle id="f.1" acceleration="0.00"/>
    </timestep>
    <timestep time="2.40">
        <vehicle id="f.0" acceleration="0.00"/>
        <vehicle id="f.1" acceleration="0.00"/>
    </timestep>
    <timestep time="2.50">
        <vehicle id="f.0" acceleration="0.00"/>
        <vehicle id="f.1" acceleration="0.00"/>
    </timestep>
    <timestep time="2.60">
        <vehicle id="f.0" acceleration="0.00"/>
        <vehicle id="f.1" acceleration="0.00"/>
    </timestep>
    <timestep time="2.70">
        <vehicle id="f.0" acceleration="0.00"/>
        <vehicle id="f.1" acceleration="0.00"/>
    </timestep>
    <timestep time="2.80">
        <vehicle id="f.0" acceleration="0.00"/>
        <vehicle id="f.1" acceleration="0.00"/>
    </timestep>
    <timestep time="2.90">
        <vehicle id="f.0" acceleration="0.00"/>
        <vehicle id="f.1" acceleration="0.00"/>
    </timestep>
    <timestep time="3.00">
        <vehicle id="f.0" acceleration="0.00"/>
        <vehicle id="f.1" acceleration="0.00"/>
    </timestep>
    <timestep time="3.10">
        <vehicle id="f.0" acceleration="0.00"/>
        <vehicle id="f.1" acceleration="0.00"/>
    </timestep>
    <timestep time="3.20">
        <vehicle id="f.0" acceleration="0.00"/>
        <vehicle id="f.1" acceleration="0.00"/>
    </timestep>
    <timestep time="3.30">
        <vehicle id="f.0" acceleration="0.00"/>
        <vehicle id="f.1" acceleration="0.00"/>
    </timestep>
    <timestep time="3.40">
        <vehicle id="f.0" acceleration="0.00"/>
        <vehicle id="f.1" acceleration="0.00"/>
    </timestep>
    <timestep time="3.50">
        <vehicle id="f.0" acceleration="0.00"/>
        <vehicle id="f.1" acceleration="0.00"/>
    </timestep>
    <timestep time="3.60">
        <vehicle id="f.0" acceleration="0.00"/>
        <vehicle id="f.1" acceleration="0.00"/>
    </timestep>
    <timestep time="3.70">
        <vehicle id="f.0" acceleration="0.00"/>
        <vehicle id="f.1" acceleration="0.00"/>
    </timestep>
    <timestep time="3.80">
        <vehicle id="f.0" acceleration="0.00"/>
        <vehicle id="f.1" acceleration="0.00"/>
    </timestep>
    <timestep time="3.90">
        <vehicle id="f.0" acceleration="0.00"/>
        <vehicle id="f.1" acceleration="0.00"/>
    </timestep>
    <timestep time="4.00">
        <vehicle id="f.0" acceleration="0.00"/>
        <vehicle id="f.1" acceleration="0.00"/>
    </timestep>
    <timestep time="4.10">
        <vehicle id="f.0" acceleration="0.00"/>
        <vehicle id="f.1" acceleration="0.00"/>
    </timestep>
    <timestep time="4.20">
        <vehicle id="f.0" acceleration="0.00"/>
        <vehicle id="f.1" acceleration="0.00"/>
    </timestep>
    <timestep time="4.30">
        <vehicle id="f.0" acceleration="0.00"/>
        <vehicle id="f.1" acceleration="0.00"/>
    </timestep>
    <timestep time="4.40">
        <vehicle id="f.0" acceleration="0.00"/>
        <vehicle id="f.1" acceleration="0.00"/>
    </timestep>
    <timestep time="4.50">
        <vehicle id="f.0" acceleration="-4.43"/>
        <vehicle id="f.1" acceleration="0.00"/>
    </timestep>
    <timestep time="4.60">
        <vehicle id="f.0" acceleration="-6.45"/>
        <vehicle id="f.1" acceleration="0.00"/>
    </timestep>
    <timestep time="4.70">
        <vehicle id="f.0" acceleration="-7.14"/>
        <vehicle id="f.1" acceleration="0.00"/>
    </timestep>
    <timestep time="4.80">
        <vehicle id="f.0" acceleration="-7.14"/>
        <vehicle id="f.1" acceleration="0.00"/>
    </timestep>
    <timestep time="4.90">
        <vehicle id="f.0" acceleration="-6.79"/>
        <vehicle id="f.1" acceleration="0.00"/>
    </timestep>
    <timestep time="5.00">
        <vehicle id="f.0" acceleration="-6.27"/>
        <vehicle id="f.1" acceleration="0.00"/>
    </timestep>
    <timestep time="5.10">
        <vehicle id="f.0" acceleration="-5.70"/>
        <vehicle id="f.1" acceleration="0.00"/>
    </timestep>
    <timestep time="5.20">
        <vehicle id="f.0" acceleration="-5.12"/>
        <vehicle id="f.1" acceleration="0.00"/>
    </timestep>
    <timestep time="5.30">
        <vehicle id="f.0" acceleration="-4.58"/>
        <vehicle id="f.1" acceleration="0.00"/>
    </timestep>
    <timestep time="5.40">
        <vehicle id="f.0" acceleration="-4.08"/>
        <vehicle id="f.1" acceleration="0.00"/>
    </timestep>
    <timestep time="5.50">
        <vehicle id="f.0" acceleration="-3.63"/>
        <vehicle id="f.1" acceleration="0.00"/>
    </timestep>
    <timestep time="5.60">
        <vehicle id="f.0" acceleration="-3.22"/>
        <vehicle id="f.1" acceleration="0.00"/>
    </timestep>
    <timestep time="5.70">
        <vehicle id="f.0" acceleration="-2.86"/>
        <vehicle id="f.1" acceleration="0.00"/>
    </timestep>
    <timestep time="5.80">
        <vehicle id="f.0" acceleration="-2.54"/>
        <vehicle id="f.1" acceleration="0.00"/>
    </timestep>
    <timestep time="5.90">
        <vehicle id="f.0" acceleration="-2.25"/>
        <vehicle id="f.1" acceleration="0.00"/>
    </timestep>
    <timestep time="6.00">
        <vehicle id="f.0" acceleration="-2.00"/>
        <vehicle id="f.1" acceleration="0.00"/>
    </timestep>
    <timestep time="6.10">
        <vehicle id="f.0" acceleration="-1.77"/>
        <vehicle id="f.1" acceleration="0.00"/>
    </timestep>
    <timestep time="6.20">
        <vehicle id="f.0" acceleration="-1.58"/>
        <vehicle id="f.1" acceleration="0.00"/>
    </timestep>
    <timestep time="6.30">
        <vehicle id="f.0" acceleration="-1.40"/>
        <vehicle id="f.1" acceleration="0.00"/>
    </timestep>
    <timestep time="6.40">
        <vehicle id="f.0" acceleration="-1.25"/>
        <vehicle id="f.1" acceleration="0.00"/>
    </timestep>
    <timestep time="6.50">
        <vehicle id="f.0" acceleration="-1.11"/>
        <vehicle id="f.1" acceleration="0.00"/>
    </timestep>
    <timestep time="6.60">
        <vehicle id="f.0" acceleration="-0.99"/>
        <vehicle id="f.1" acceleration="0.00"/>
    </timestep>
    <timestep time="6.70">
        <vehicle id="f.0" acceleration="-0.89"/>
        <vehicle id="f.1" acceleration="0.00"/>
    </timestep>
    <timestep time="6.80">
        <vehicle id="f.0" acceleration="-0.80"/>
        <vehicle id="f.1" acceleration="0.00"/>
    </timestep>
    <timestep time="6.90">
        <vehicle id="f.0" acceleration="-0.71"/>
        <vehicle id="f.1" acceleration="0.00"/>
    </timestep>
    <timestep time="7.00">
        <vehicle id="f.0" acceleration="-0.64"/>
        <vehicle id="f.1" acceleration="0.00"/>
    </timestep>
    <timestep time="7.10">
        <vehicle id="f.0" acceleration="-0.58"/>
        <vehicle id="f.1" acceleration="0.00"/>
    </timestep>
    <timestep time="7.20">
        <vehicle id="f.0" acceleration="-0.52"/>
        <vehicle id="f.1" acceleration="0.00"/>
    </timestep>
    <timestep time="7.30">
        <vehicle id="f.0" acceleration="-0.47"/>
        <vehicle id="f.1" acceleration="0.00"/>
    </timestep>
    <timestep time="7.40">
        <vehicle id="f.0" acceleration="-0.42"/>
        <vehicle id="f.1" acceleration="0.00"/>
    </timestep>
    <timestep time="7.50">
        <vehicle id="f.0" acceleration="-0.39"/>
        <vehicle id="f.1" acceleration="0.00"/>
    </timestep>
    <timestep time="7.60">
        <vehicle id="f.0" acceleration="-0.35"/>
        <vehicle id="f.1" acceleration="0.00"/>
    </timestep>
    <timestep time="7.70">
        <vehicle id="f.0" acceleration="-0.32"/>
        <vehicle id="f.1" acceleration="0.00"/>
    </timestep>
    <timestep time="7.80">
        <vehicle id="f.0" acceleration="-0.29"/>
        <vehicle id="f.1" acceleration="0.00"/>
    </timestep>
    <timestep time="7.90">
        <vehicle id="f.0" acceleration="-0.27"/>
        <vehicle id="f.1" acceleration="0.00"/>
    </timestep>
    <timestep time="8.00">
        <vehicle id="f.0" acceleration="-0.25"/>
        <vehicle id="f.1" acceleration="0.00"/>
    </timestep>
    <timestep time="8.10">
        <vehicle id="f.0" acceleration="-0.23"/>
        <vehicle id="f.1" acceleration="0.00"/>
    </timestep>
    <timestep time="8.20">
        <vehicle id="f.0" acceleration="-0.21"/>
        <vehicle id="f.1" acceleration="0.00"/>
    </timestep>
    <timestep time="8.30">
        <vehicle id="f.0" acceleration="-0.20"/>
        <vehicle id="f.1" acceleration="0.00"/>
    </timestep>
    <timestep time="8.40">
        <vehicle id="f.0" acceleration="-0.18"/>
        <vehicle id="f.1" acceleration="0.00"/>
    </timestep>
    <timestep time="8.50">
        <vehicle id="f.0" acceleration="-0.17"/>
        <vehicle id="f.1" acceleration="0.00"/>
    </timestep>
    <timestep time="8.60">
        <vehicle id="f.0" acceleration="-0.16"/>
        <vehicle id="f.1" acceleration="0.00"/>
    </timestep>
    <timestep time="8.70">
        <vehicle id="f.0" acceleration="-0.15"/>
        <vehicle id="f.1" acceleration="0.00"/>
    </timestep>
    <timestep time="8.80">
        <vehicle id="f.0" acceleration="-0.14"/>
        <vehicle id="f.1" acceleration="0.00"/>
    </timestep>
    <timestep time="8.90">
        <vehicle id="f.0" acceleration="-0.14"/>
        <vehicle id="f.1" acceleration="0.00"/>
    </timestep>
    <timestep time="9.00">
        <vehicle id="f.0" acceleration="-0.13"/>
        <vehicle id="f.1" acceleration="0.00"/>
    </timestep>
    <timestep time="9.10">
        <vehicle id="f.0" acceleration="-0.12"/>
        <vehicle id="f.1" acceleration="0.00"/>
    </timestep>
    <timestep time="9.20">
        <vehicle id="f.0" acceleration="-0.12"/>
        <vehicle id="f.1" acceleration="0.00"/>
    </timestep>
    <timestep time="9.30">
        <vehicle id="f.0" acceleration="-0.11"/>
        <vehicle id="f.1" acceleration="0.00"/>
    </timestep>
    <timestep time="9.40">
        <vehicle id="f.0" acceleration="-0.11"/>
        <vehicle id="f.1" acceleration="0.00"/>
    </timestep>
    <timestep time="9.50">
        <vehicle id="f.0" acceleration="-0.11"/>
        <vehicle id="f.1" acceleration="0.00"/>
    </timestep>
    <timestep time="9.60">
        <vehicle id="f.0" acceleration="-0.10"/>
        <vehicle id="f.1" acceleration="-2.37"/>
    </timestep>
    <timestep time="9.70">
        <vehicle id="f.0" acceleration="-0.10"/>
        <vehicle id="f.1" acceleration="-3.46"/>
    </timestep>
    <timestep time="9.80">
        <vehicle id="f.0" acceleration="-0.10"/>
        <vehicle id="f.1" acceleration="-3.84"/>
    </timestep>
    <timestep time="9.90">
        <vehicle id="f.0" acceleration="-0.09"/>
        <vehicle id="f.1" acceleration="-3.85"/>
    </timestep>
    <timestep time="10.00">
        <vehicle id="f.0" acceleration="-0.09"/>
        <vehicle id="f.1" acceleration="-3.67"/>
    </timestep>
    <timestep time="10.10">
        <vehicle id="f.0" acceleration="-0.09"/>
        <vehicle id="f.1" acceleration="-3.41"/>
    </timestep>
    <timestep time="10.20">
        <vehicle id="f.0" acceleration="-0.09"/>
        <vehicle id="f.1" acceleration="-3.11"/>
    </timestep>
    <timestep time="10.30">
        <vehicle id="f.0" acceleration="-0.09"/>
        <vehicle id="f.1" acceleration="-2.81"/>
    </timestep>
    <timestep time="10.40">
        <vehicle id="f.0" acceleration="-0.08"/>
        <vehicle id="f.1" acceleration="-2.53"/>
    </timestep>
    <timestep time="10.50">
        <vehicle id="f.0" acceleration="-0.08"/>
        <vehicle id="f.1" acceleration="-2.27"/>
    </timestep>
    <timestep time="10.60">
        <vehicle id="f.0" acceleration="-0.08"/>
        <vehicle id="f.1" acceleration="-2.03"/>
    </timestep>
    <timestep time="10.70">
        <vehicle id="f.0" acceleration="-0.08"/>
        <vehicle id="f.1" acceleration="-1.81"/>
    </timestep>
    <timestep time="10.80">
        <vehicle id="f.0" acceleration="-0.08"/>
        <vehicle id="f.1" acceleration="-1.62"/>
    </timestep>
    <timestep time="10.90">
        <vehicle id="f.0" acceleration="-0.08"/>
        <vehicle id="f.1" acceleration="-1.45"/>
    </timestep>
    <timestep time="11.00">
        <vehicle id="f.0" acceleration="-0.08"/>
        <vehicle id="f.1" acceleration="-1.30"/>
    </timestep>
    <timestep time="11.10">
        <vehicle id="f.0" acceleration="-0.07"/>
        <vehicle id="f.1" acceleration="-1.17"/>
    </timestep>
    <timestep time="11.20">
        <vehicle id="f.0" acceleration="-0.07"/>
        <vehicle id="f.1" acceleration="-1.05"/>
    </timestep>
    <timestep time="11.30">
        <vehicle id="f.0" acceleration="-0.07"/>
        <vehicle id="f.1" acceleration="-0.95"/>
    </timestep>
    <timestep time="11.40">
        <vehicle id="f.0" acceleration="-0.07"/>
        <vehicle id="f.1" acceleration="-0.85"/>
    </timestep>
    <timestep time="11.50">
        <vehicle id="f.0" acceleration="-0.07"/>
        <vehicle id="f.1" acceleration="-0.77"/>
    </timestep>
    <timestep time="11.60">
        <vehicle id="f.0" acceleration="-0.07"/>
        <vehicle id="f.1" acceleration="-0.70"/>
    </timestep>
    <timestep time="11.70">
        <vehicle id="f.0" acceleration="-0.07"/>
        <vehicle id="f.1" acceleration="-0.64"/>
    </timestep>
    <timestep time="11.80">
        <vehicle id="f.0" acceleration="-0.07"/>
        <vehicle id="f.1" acceleration="-0.58"/>
    </timestep>
    <timestep time="11.90">
        <vehicle id="f.0" acceleration="-0.07"/>
        <vehicle id="f.1" acceleration="-0.53"/>
    </timestep>
    <timestep time="12.00">
        <vehicle id="f.0" acceleration="-0.07"/>
        <vehicle id="f.1" acceleration="-0.48"/>
    </timestep>
    <timestep time="12.10">
        <vehicle id="f.0" acceleration="-0.07"/>
        <vehicle id="f.1" acceleration="-0.45"/>
    </timestep>
    <timestep time="12.20">
        <vehicle id="f.0" acceleration="-0.06"/>
        <vehicle id="f.1" acceleration="-0.41"/>
    </timestep>
    <timestep time="12.30">
        <vehicle id="f.0" acceleration="-0.06"/>
        <vehicle id="f.1" acceleration="-0.38"/>
    </timestep>
    <timestep time="12.40">
        <vehicle id="f.0" acceleration="-0.06"/>
        <vehicle id="f.1" acceleration="-0.35"/>
    </timestep>
    <timestep time="12.50">
        <vehicle id="f.0" acceleration="-0.06"/>
        <vehicle id="f.1" acceleration="-0.33"/>
    </timestep>
    <timestep time="12.60">
        <vehicle id="f.0" acceleration="-0.06"/>
        <vehicle id="f.1" acceleration="-0.31"/>
    </timestep>
    <timestep time="12.70">
        <vehicle id="f.0" acceleration="-0.06"/>
        <vehicle id="f.1" acceleration="-0.29"/>
    </timestep>
    <timestep time="12.80">
        <vehicle id="f.0" acceleration="-0.06"/>
        <vehicle id="f.1" acceleration="-0.27"/>
    </timestep>
    <timestep time="12.90">
        <vehicle id="f.0" acceleration="-0.06"/>
        <vehicle id="f.1" acceleration="-0.25"/>
    </timestep>
    <timestep time="13.00">
        <vehicle id="f.0" acceleration="-0.06"/>
        <vehicle id="f.1" acceleration="-0.24"/>
    </timestep>
    <timestep time="13.10">
        <vehicle id="f.0" acceleration="-0.06"/>
        <vehicle id="f.1" acceleration="-0.23"/>
    </timestep>
    <timestep time="13.20">
        <vehicle id="f.0" acceleration="-0.06"/>
        <vehicle id="f.1" acceleration="-0.22"/>
    </timestep>
    <timestep time="13.30">
        <vehicle id="f.0" acceleration="-0.06"/>
        <vehicle id="f.1" acceleration="-0.21"/>
    </timestep>
    <timestep time="13.40">
        <vehicle id="f.0" acceleration="-0.06"/>
        <vehicle id="f.1" acceleration="-0.20"/>
    </timestep>
    <timestep time="13.50">
        <vehicle id="f.0" acceleration="-0.06"/>
        <vehicle id="f.1" acceleration="-0.19"/>
    </timestep>
    <timestep time="13.60">
        <vehicle id="f.0" acceleration="-0.06"/>
        <vehicle id="f.1" acceleration="-0.18"/>
    </timestep>
    <timestep time="13.70">
        <vehicle id="f.0" acceleration="-0.05"/>
        <vehicle id="f.1" acceleration="-0.18"/>
    </timestep>
    <timestep time="13.80">
        <vehicle id="f.0" acceleration="-0.05"/>
        <vehicle id="f.1" acceleration="-0.17"/>
    </timestep>
    <timestep time="13.90">
        <vehicle id="f.0" acceleration="-0.05"/>
        <vehicle id="f.1" acceleration="-0.17"/>
    </timestep>
    <timestep time="14.00">
        <vehicle id="f.0" acceleration="-0.05"/>
        <vehicle id="f.1" acceleration="-0.16"/>
    </timestep>
    <timestep time="14.10">
        <vehicle id="f.0" acceleration="-0.05"/>
        <vehicle id="f.1" acceleration="-0.16"/>
    </timestep>
    <timestep time="14.20">
        <vehicle id="f.0" acceleration="-0.05"/>
        <vehicle id="f.1" acceleration="-0.15"/>
    </timestep>
    <timestep time="14.30">
        <vehicle id="f.0" acceleration="-0.05"/>
        <vehicle id="f.1" acceleration="-0.15"/>
    </timestep>
    <timestep time="14.40">
        <vehicle id="f.0" acceleration="-0.05"/>
        <vehicle id="f.1" acceleration="-0.15"/>
    </timestep>
    <timestep time="14.50">
        <vehicle id="f.0" acceleration="-0.05"/>
        <vehicle id="f.1" acceleration="-0.14"/>
    </timestep>
    <timestep time="14.60">
        <vehicle id="f.0" acceleration="-0.05"/>
        <vehicle id="f.1" acceleration="-0.14"/>
    </timestep>
    <timestep time="14.70">
        <vehicle id="f.0" acceleration="-0.05"/>
        <vehicle id="f.1" acceleration="-0.14"/>
    </timestep>
    <timestep time="14.80">
        <vehicle id="f.0" acceleration="-0.05"/>
        <vehicle id="f.1" acceleration="-0.13"/>
    </timestep>
    <timestep time="14.90">
        <vehicle id="f.0" acceleration="-0.05"/>
        <vehicle id="f.1" acceleration="-0.13"/>
    </timestep>
    <timestep time="15.00">
        <vehicle id="f.0" acceleration="-0.05"/>
        <vehicle id="f.1" acceleration="-0.13"/>
    </timestep>
    <timestep time="15.10">
        <vehicle id="f.0" acceleration="-0.05"/>
        <vehicle id="f.1" acceleration="-0.13"/>
    </timestep>
    <timestep time="15.20">
        <vehicle id="f.0" acceleration="-0.05"/>
        <vehicle id="f.1" acceleration="-0.13"/>
    </timestep>
    <timestep time="15.30">
        <vehicle id="f.0" acceleration="-0.05"/>
        <vehicle id="f.1" acceleration="-0.12"/>
    </timestep>
    <timestep time="15.40">
        <vehicle id="f.0" acceleration="-0.05"/>
        <vehicle id="f.1" acceleration="-0.12"/>
    </timestep>
    <timestep time="15.50">
        <vehicle id="f.0" acceleration="-0.05"/>
        <vehicle id="f.1" acceleration="-0.12"/>
    </timestep>
    <timestep time="15.60">
        <vehicle id="f.0" acceleration="-0.05"/>
        <vehicle id="f.1" acceleration="-0.12"/>
    </timestep>
    <timestep time="15.70">
        <vehicle id="f.0" acceleration="-0.04"/>
        <vehicle id="f.1" acceleration="-0.12"/>
    </timestep>
    <timestep time="15.80">
        <vehicle id="f.0" acceleration="-0.04"/>
        <vehicle id="f.1" acceleration="-0.12"/>
    </timestep>
    <timestep time="15.90">
        <vehicle id="f.0" acceleration="-0.04"/>
        <vehicle id="f.1" acceleration="-0.11"/>
    </timestep>
    <timestep time="16.00">
        <vehicle id="f.0" acceleration="-0.04"/>
        <vehicle id="f.1" acceleration="-0.11"/>
    </timestep>
    <timestep time="16.10">
        <vehicle id="f.0" acceleration="-0.04"/>
        <vehicle id="f.1" acceleration="-0.11"/>
    </timestep>
    <timestep time="16.20">
        <vehicle id="f.0" acceleration="-0.04"/>
        <vehicle id="f.1" acceleration="-0.11"/>
    </timestep>
    <timestep time="16.30">
        <vehicle id="f.0" acceleration="-0.04"/>
        <vehicle id="f.1" acceleration="-0.11"/>
    </timestep>
    <timestep time="16.40">
        <vehicle id="f.0" acceleration="-0.04"/>
        <vehicle id="f.1" acceleration="-0.11"/>
    </timestep>
    <timestep time="16.50">
        <vehicle id="f.0" acceleration="-0.04"/>
        <vehicle id="f.1" acceleration="-0.11"/>
    </timestep>
    <timestep time="16.60">
        <vehicle id="f.0" acceleration="-0.04"/>
        <vehicle id="f.1" acceleration="-0.11"/>
    </timestep>
    <timestep time="16.70">
        <vehicle id="f.0" acceleration="-0.04"/>
        <vehicle id="f.1" acceleration="-0.10"/>
    </timestep>
    <timestep time="16.80">
        <vehicle id="f.0" acceleration="-0.04"/>
        <vehicle id="f.1" acceleration="-0.10"/>
    </timestep>
    <timestep time="16.90">
        <vehicle id="f.0" acceleration="-0.04"/>
        <vehicle id="f.1" acceleration="-0.10"/>
    </timestep>
    <timestep time="17.00">
        <vehicle id="f.0" acceleration="-0.04"/>
        <vehicle id="f.1" acceleration="-0.10"/>
    </timestep>
    <timestep time="17.10">
        <vehicle id="f.0" acceleration="-0.04"/>
        <vehicle id="f.1" acceleration="-0.10"/>
    </timestep>
    <timestep time="17.20">
        <vehicle id="f.0" acceleration="-0.04"/>
        <vehicle id="f.1" acceleration="-0.10"/>
    </timestep>
    <timestep time="17.30">
        <vehicle id="f.0" acceleration="-0.04"/>
        <vehicle id="f.1" acceleration="-0.10"/>
    </timestep>
    <timestep time="17.40">
        <vehicle id="f.0" acceleration="-0.04"/>
        <vehicle id="f.1" acceleration="-0.10"/>
    </timestep>
    <timestep time="17.50">
        <vehicle id="f.0" acceleration="-0.04"/>
        <vehicle id="f.1" acceleration="-0.10"/>
    </timestep>
    <timestep time="17.60">
        <vehicle id="f.0" acceleration="-0.04"/>
        <vehicle id="f.1" acceleration="-0.09"/>
    </timestep>
    <timestep time="17.70">
        <vehicle id="f.0" acceleration="-0.04"/>
        <vehicle id="f.1" acceleration="-0.09"/>
    </timestep>
    <timestep time="17.80">
        <vehicle id="f.0" acceleration="-0.04"/>
        <vehicle id="f.1" acceleration="-0.09"/>
    </timestep>
    <timestep time="17.90">
        <vehicle id="f.0" acceleration="-0.04"/>
        <vehicle id="f.1" acceleration="-0.09"/>
    </timestep>
    <timestep time="18.00">
        <vehicle id="f.0" acceleration="-0.04"/>
        <vehicle id="f.1" acceleration="-0.09"/>
    </timestep>
    <timestep time="18.10">
        <vehicle id="f.0" acceleration="-0.04"/>
        <vehicle id="f.1" acceleration="-0.09"/>
    </timestep>
    <timestep time="18.20">
        <vehicle id="f.0" acceleration="-0.04"/>
        <vehicle id="f.1" acceleration="-0.09"/>
    </timestep>
    <timestep time="18.30">
        <vehicle id="f.0" acceleration="-0.03"/>
        <vehicle id="f.1" acceleration="-0.09"/>
    </timestep>
    <timestep time="18.40">
        <vehicle id="f.0" acceleration="-0.03"/>
        <vehicle id="f.1" acceleration="-0.09"/>
    </timestep>
    <timestep time="18.50">
        <vehicle id="f.0" acceleration="-0.03"/>
        <vehicle id="f.1" acceleration="-0.09"/>
    </timestep>
    <timestep time="18.60">
        <vehicle id="f.0" acceleration="-0.03"/>
        <vehicle id="f.1" acceleration="-0.09"/>
    </timestep>
    <timestep time="18.70">
        <vehicle id="f.0" acceleration="-0.03"/>
        <vehicle id="f.1" acceleration="-0.08"/>
    </timestep>
    <timestep time="18.80">
        <vehicle id="f.0" acceleration="-0.03"/>
        <vehicle id="f.1" acceleration="-0.08"/>
    </timestep>
    <timestep time="18.90">
        <vehicle id="f.0" acceleration="-0.03"/>
        <vehicle id="f.1" acceleration="-0.08"/>
    </timestep>
    <timestep time="19.00">
        <vehicle id="f.0" acceleration="-0.03"/>
        <vehicle id="f.1" acceleration="-0.08"/>
    </timestep>
    <timestep time="19.10">
        <vehicle id="f.0" acceleration="-0.03"/>
        <vehicle id="f.1" acceleration="-0.08"/>
    </timestep>
    <timestep time="19.20">
        <vehicle id="f.0" acceleration="-0.03"/>
        <vehicle id="f.1" acceleration="-0.08"/>
    </timestep>
    <timestep time="19.30">
        <vehicle id="f.0" acceleration="-0.03"/>
        <vehicle id="f.1" acceleration="-0.08"/>
    </timestep>
    <timestep time="19.40">
        <vehicle id="f.0" acceleration="-0.03"/>
        <vehicle id="f.1" acceleration="-0.08"/>
    </timestep>
    <timestep time="19.50">
        <vehicle id="f.0" acceleration="-0.03"/>
        <vehicle id="f.1" acceleration="-0.08"/>
    </timestep>
    <timestep time="19.60">
        <vehicle id="f.0" acceleration="-0.03"/>
        <vehicle id="f.1" acceleration="-0.08"/>
    </timestep>
    <timestep time="19.70">
        <vehicle id="f.0" acceleration="-0.03"/>
        <vehicle id="f.1" acceleration="-0.08"/>
    </timestep>
    <timestep time="19.80">
        <vehicle id="f.0" acceleration="-0.03"/>
        <vehicle id="f.1" acceleration="-0.08"/>
    </timestep>
    <timestep time="19.90">
        <vehicle id="f.0" acceleration="-0.03"/>
        <vehicle id="f.1" acceleration="-0.08"/>
    </timestep>
    <timestep time="20.00">
        <vehicle id="f.0" acceleration="-0.03"/>
        <vehicle id="f.1" acceleration="-0.07"/>
    </timestep>
    <timestep time="20.10">
        <vehicle id="f.0" acceleration="-0.03"/>
        <vehicle id="f.1" acceleration="-0.07"/>
    </timestep>
    <timestep time="20.20">
        <vehicle id="f.0" acceleration="-0.03"/>
        <vehicle id="f.1" acceleration="-0.07"/>
    </timestep>
    <timestep time="20.30">
        <vehicle id="f.0" acceleration="-0.03"/>
        <vehicle id="f.1" acceleration="-0.07"/>
    </timestep>
    <timestep time="20.40">
        <vehicle id="f.0" acceleration="-0.03"/>
        <vehicle id="f.1" acceleration="-0.07"/>
    </timestep>
    <timestep time="20.50">
        <vehicle id="f.0" acceleration="-0.03"/>
        <vehicle id="f.1" acceleration="-0.07"/>
    </timestep>
    <timestep time="20.60">
        <vehicle id="f.0" acceleration="-0.03"/>
        <vehicle id="f.1" acceleration="-0.07"/>
    </timestep>
    <timestep time="20.70">
        <vehicle id="f.0" acceleration="-0.03"/>
        <vehicle id="f.1" acceleration="-0.07"/>
    </timestep>
    <timestep time="20.80">
        <vehicle id="f.0" acceleration="-0.03"/>
        <vehicle id="f.1" acceleration="-0.07"/>
    </timestep>
    <timestep time="20.90">
        <vehicle id="f.0" acceleration="-0.03"/>
        <vehicle id="f.1" acceleration="-0.07"/>
    </timestep>