<?xml version="1.0" encoding="UTF-8"?>

<!-- generated on 2024-12-03 12:17:09 by Eclipse SUMO sumo Version v1_21_0+1142-1c7e6dd0a22
This data file and the accompanying materials
are made available under the terms of the Eclipse Public License v2.0
which accompanies this distribution, and is available at
http://www.eclipse.org/legal/epl-v20.html
This file may also be made available under the following Secondary
Licenses when the conditions for such availability set forth in the Eclipse
Public License 2.0 are satisfied: GNU General Public License, version 2
or later which is available at
https://www.gnu.org/licenses/old-licenses/gpl-2.0-standalone.html
SPDX-License-Identifier: EPL-2.0 OR GPL-2.0-or-later
<sumoConfiguration xmlns:xsi="http://www.w3.org/2001/XMLSchema-instance" xsi:noNamespaceSchemaLocation="http://sumo.dlr.de/xsd/sumoConfiguration.xsd">

    <input>
        <net-file value="net.net.xml"/>
        <route-files value="input_routes.rou.xml"/>
    </input>

    <output>
        <write-license value="true"/>
        <fcd-output value="fcd.xml"/>
        <fcd-output.attributes value="acceleration"/>
    </output>

    <processing>
        <default.speeddev value="0"/>
    </processing>

    <report>
        <xml-validation value="never"/>
        <no-step-log value="true"/>
    </report>

    <fcd_device>
        <person-device.fcd.probability value="0"/>
    </fcd_device>

</sumoConfiguration>
-->

<fcd-export xmlns:xsi="http://www.w3.org/2001/XMLSchema-instance" xsi:noNamespaceSchemaLocation="http://sumo.dlr.de/xsd/fcd_file.xsd">
    <timestep time="0.00">
        <vehicle id="v_0" acceleration="0.00"/>
    </timestep>
    <timestep time="1.00">
        <vehicle id="v_0" acceleration="0.00"/>
    </timestep>
    <timestep time="2.00">
        <vehicle id="v_0" acceleration="0.00"/>
    </timestep>
    <timestep time="3.00">
        <vehicle id="v_0" acceleration="-4.13"/>
    </timestep>
    <timestep time="4.00">
        <vehicle id="v_0" acceleration="-4.50"/>
    </timestep>
    <timestep time="5.00">
        <vehicle id="v_0" acceleration="-4.50"/>
    </timestep>
    <timestep time="6.00">
        <vehicle id="v_0" acceleration="-0.76"/>
    </timestep>
    <timestep time="7.00">
        <vehicle id="v_0" acceleration="0.00"/>
    </timestep>
    <timestep time="8.00">
        <vehicle id="v_0" acceleration="2.60"/>
    </timestep>
    <timestep time="9.00">
        <vehicle id="v_0" acceleration="2.60"/>
    </timestep>
    <timestep time="10.00">
        <vehicle id="v_0" acceleration="2.60"/>
    </timestep>
    <timestep time="11.00">
        <vehicle id="v_0" acceleration="2.60"/>
    </timestep>
    <timestep time="12.00"/>
    <timestep time="13.00"/>
    <timestep time="14.00"/>
    <timestep time="15.00"/>
    <timestep time="16.00"/>
    <timestep time="17.00"/>
    <timestep time="18.00"/>
    <timestep time="19.00"/>
    <timestep time="20.00"/>
    <timestep time="21.00"/>
    <timestep time="22.00"/>
    <timestep time="23.00"/>
    <timestep time="24.00"/>
    <timestep time="25.00"/>
    <timestep time="26.00"/>
    <timestep time="27.00"/>
    <timestep time="28.00"/>
    <timestep time="29.00"/>
    <timestep time="30.00"/>
    <timestep time="31.00"/>
</fcd-export>
