<?xml version="1.0" encoding="UTF-8"?>

<!-- generated on Fri Nov 11 10:41:07 2016 by SUMO Version dev-SVN-r21965
<?xml version="1.0" encoding="UTF-8"?>

<configuration xmlns:xsi="http://www.w3.org/2001/XMLSchema-instance" xsi:noNamespaceSchemaLocation="http://sumo.dlr.de/xsd/sumoConfiguration.xsd">

    <input>
        <net-file value="motorway.net.xml"/>
        <route-files value="input_routes.rou.xml"/>
        <additional-files value="input_additional.add.xml"/>
    </input>

    <time>
        <end value="1800"/>
    </time>

    <processing>
        <max-depart-delay value="1"/>
    </processing>

    <report>
        <verbose value="true"/>
        <xml-validation value="never"/>
        <duration-log.statistics value="true"/>
        <no-step-log value="true"/>
    </report>

</configuration>
-->

<detector xmlns:xsi="http://www.w3.org/2001/XMLSchema-instance" xsi:noNamespaceSchemaLocation="http://sumo.dlr.de/xsd/det_e1_file.xsd">
    <interval begin="0.00" end="900.00" id="beg2_0" nVehContrib="743" flow="2972.00" occupancy="11.57" speed="35.96" length="5.00" nVehEntered="743"/>
    <interval begin="0.00" end="900.00" id="beg2_1" nVehContrib="743" flow="2972.00" occupancy="11.57" speed="35.96" length="5.00" nVehEntered="743"/>
    <interval begin="900.00" end="1800.00" id="beg2_0" nVehContrib="743" flow="2972.00" occupancy="11.47" speed="36.00" length="5.00" nVehEntered="743"/>
    <interval begin="900.00" end="1800.00" id="beg2_1" nVehContrib="743" flow="2972.00" occupancy="11.47" speed="36.00" length="5.00" nVehEntered="743"/>
</detector>
