<?xml version="1.0" encoding="UTF-8"?>

<!-- generated on 2021-11-08 11:01:56 by Eclipse SUMO sumo Version v1_10_0+2018-ffbef81
This data file and the accompanying materials
are made available under the terms of the Eclipse Public License v2.0
which accompanies this distribution, and is available at
http://www.eclipse.org/legal/epl-v20.html
SPDX-License-Identifier: EPL-2.0
<configuration xmlns:xsi="http://www.w3.org/2001/XMLSchema-instance" xsi:noNamespaceSchemaLocation="http://sumo.dlr.de/xsd/sumoConfiguration.xsd">

    <input>
        <net-file value="net.net.xml"/>
        <route-files value="input_routes.rou.xml"/>
    </input>

    <output>
        <write-license value="true"/>
        <tripinfo-output value="tripinfos.xml"/>
    </output>

    <processing>
        <lateral-resolution value="0.64"/>
        <default.speeddev value="0"/>
    </processing>

    <report>
        <verbose value="true"/>
        <xml-validation value="never"/>
        <xml-validation.routes value="never"/>
        <duration-log.statistics value="true"/>
        <no-step-log value="true"/>
    </report>

</configuration>
-->

<tripinfos xmlns:xsi="http://www.w3.org/2001/XMLSchema-instance" xsi:noNamespaceSchemaLocation="http://sumo.dlr.de/xsd/tripinfo_file.xsd">
    <tripinfo id="mixed.6" depart="10.00" departLane="beg_1" departPos="2.20" departPosLat="0.17" departSpeed="0.00" departDelay="4.00" arrival="221.00" arrivalLane="end_0" arrivalPos="200.00" arrivalPosLat="-1.21" arrivalSpeed="16.52" duration="211.00" routeLength="497.80" waitingTime="159.00" waitingCount="1" stopTime="0.00" timeLoss="180.54" rerouteNo="0" devices="tripinfo_mixed.6" vType="moped" speedFactor="1.36" vaporized=""/>
    <tripinfo id="mixed.3" depart="3.00" departLane="beg_1" departPos="2.20" departPosLat="0.59" departSpeed="0.00" departDelay="0.00" arrival="222.00" arrivalLane="end_0" arrivalPos="200.00" arrivalPosLat="-1.21" arrivalSpeed="13.63" duration="219.00" routeLength="497.80" waitingTime="164.00" waitingCount="1" stopTime="0.00" timeLoss="182.21" rerouteNo="0" devices="tripinfo_mixed.3" vType="moped" speedFactor="0.98" vaporized=""/>
    <tripinfo id="mixed.15" depart="18.00" departLane="beg_1" departPos="2.20" departPosLat="1.16" departSpeed="0.00" departDelay="3.00" arrival="222.00" arrivalLane="end_1" arrivalPos="200.00" arrivalPosLat="0.21" arrivalSpeed="15.17" duration="204.00" routeLength="497.80" waitingTime="150.00" waitingCount="1" stopTime="0.00" timeLoss="171.44" rerouteNo="0" devices="tripinfo_mixed.15" vType="moped" speedFactor="1.12" vaporized=""/>
    <tripinfo id="mixed.11" depart="16.00" departLane="beg_0" departPos="5.10" departPosLat="-0.10" departSpeed="0.00" departDelay="5.00" arrival="223.00" arrivalLane="end_0" arrivalPos="200.00" arrivalPosLat="1.22" arrivalSpeed="14.95" duration="207.00" routeLength="494.90" waitingTime="153.00" waitingCount="1" stopTime="0.00" timeLoss="173.75" rerouteNo="0" devices="tripinfo_mixed.11" vType="car" speedFactor="1.08" vaporized=""/>
    <tripinfo id="mixed.13" depart="18.00" departLane="beg_1" departPos="2.20" departPosLat="-1.11" departSpeed="0.00" departDelay="5.00" arrival="224.00" arrivalLane="end_1" arrivalPos="200.00" arrivalPosLat="-0.33" arrivalSpeed="16.22" duration="206.00" routeLength="497.80" waitingTime="150.00" waitingCount="1" stopTime="0.00" timeLoss="175.31" rerouteNo="0" devices="tripinfo_mixed.13" vType="moped" speedFactor="1.33" vaporized=""/>
    <tripinfo id="mixed.0" depart="0.00" departLane="beg_0" departPos="2.20" departPosLat="0.51" departSpeed="0.00" departDelay="0.00" arrival="225.00" arrivalLane="end_0" arrivalPos="200.00" arrivalPosLat="-1.21" arrivalSpeed="10.31" duration="225.00" routeLength="497.80" waitingTime="161.00" waitingCount="1" stopTime="0.00" timeLoss="176.81" rerouteNo="0" devices="tripinfo_mixed.0" vType="moped" speedFactor="0.75" vaporized=""/>
    <tripinfo id="mixed.5" depart="10.00" departLane="beg_0" departPos="5.10" departPosLat="-0.39" departSpeed="0.00" departDelay="5.00" arrival="227.00" arrivalLane="end_0" arrivalPos="200.00" arrivalPosLat="-0.58" arrivalSpeed="13.53" duration="217.00" routeLength="494.90" waitingTime="159.00" waitingCount="2" stopTime="0.00" timeLoss="181.57" rerouteNo="0" devices="tripinfo_mixed.5" vType="car" speedFactor="1.03" vaporized=""/>
    <tripinfo id="mixed.8" depart="22.00" departLane="beg_1" departPos="5.10" departPosLat="0.45" departSpeed="0.00" departDelay="14.00" arrival="227.00" arrivalLane="end_1" arrivalPos="200.00" arrivalPosLat="-1.38" arrivalSpeed="17.25" duration="205.00" routeLength="494.90" waitingTime="148.00" waitingCount="2" stopTime="0.00" timeLoss="175.50" rerouteNo="0" devices="tripinfo_mixed.8" vType="car" speedFactor="1.25" vaporized=""/>
    <tripinfo id="mixed.23" depart="34.00" departLane="beg_1" departPos="2.20" departPosLat="0.82" departSpeed="0.00" departDelay="11.00" arrival="228.00" arrivalLane="end_1" arrivalPos="200.00" arrivalPosLat="-1.57" arrivalSpeed="16.29" duration="194.00" routeLength="497.80" waitingTime="141.00" waitingCount="1" stopTime="0.00" timeLoss="163.71" rerouteNo="0" devices="tripinfo_mixed.23" vType="moped" speedFactor="1.49" vaporized=""/>
    <tripinfo id="mixed.9" depart="19.00" departLane="beg_0" departPos="5.10" departPosLat="-0.31" departSpeed="0.00" departDelay="10.00" arrival="229.00" arrivalLane="end_0" arrivalPos="200.00" arrivalPosLat="-0.70" arrivalSpeed="10.65" duration="210.00" routeLength="494.90" waitingTime="149.00" waitingCount="1" stopTime="0.00" timeLoss="164.92" rerouteNo="0" devices="tripinfo_mixed.9" vType="car" speedFactor="0.80" vaporized=""/>
    <tripinfo id="mixed.22" depart="34.00" departLane="beg_1" departPos="2.20" departPosLat="-1.01" departSpeed="0.00" departDelay="12.00" arrival="229.00" arrivalLane="end_1" arrivalPos="200.00" arrivalPosLat="0.21" arrivalSpeed="16.53" duration="195.00" routeLength="497.80" waitingTime="140.00" waitingCount="1" stopTime="0.00" timeLoss="165.07" rerouteNo="0" devices="tripinfo_mixed.22" vType="moped" speedFactor="1.62" vaporized=""/>
    <tripinfo id="mixed.7" depart="13.00" departLane="beg_0" departPos="2.20" departPosLat="-1.05" departSpeed="0.00" departDelay="6.00" arrival="230.00" arrivalLane="end_0" arrivalPos="200.00" arrivalPosLat="0.71" arrivalSpeed="9.24" duration="217.00" routeLength="497.80" waitingTime="149.00" waitingCount="2" stopTime="0.00" timeLoss="164.88" rerouteNo="0" devices="tripinfo_mixed.7" vType="moped" speedFactor="0.69" vaporized=""/>
    <tripinfo id="mixed.14" depart="25.00" departLane="beg_1" departPos="2.20" departPosLat="0.71" departSpeed="0.00" departDelay="11.00" arrival="230.00" arrivalLane="end_1" arrivalPos="200.00" arrivalPosLat="-0.61" arrivalSpeed="14.41" duration="205.00" routeLength="497.80" waitingTime="147.00" waitingCount="1" stopTime="0.00" timeLoss="170.22" rerouteNo="0" devices="tripinfo_mixed.14" vType="moped" speedFactor="1.04" vaporized=""/>
    <tripinfo id="mixed.10" depart="14.00" departLane="beg_1" departPos="2.20" departPosLat="-0.51" departSpeed="0.00" departDelay="4.00" arrival="232.00" arrivalLane="end_0" arrivalPos="200.00" arrivalPosLat="-1.21" arrivalSpeed="9.52" duration="218.00" routeLength="497.80" waitingTime="150.00" waitingCount="1" stopTime="0.00" timeLoss="166.45" rerouteNo="0" devices="tripinfo_mixed.10" vType="moped" speedFactor="0.71" vaporized=""/>
    <tripinfo id="mixed.26" depart="38.00" departLane="beg_1" departPos="2.20" departPosLat="0.75" departSpeed="0.00" departDelay="12.00" arrival="232.00" arrivalLane="end_1" arrivalPos="200.00" arrivalPosLat="0.07" arrivalSpeed="14.44" duration="194.00" routeLength="497.80" waitingTime="138.00" waitingCount="1" stopTime="0.00" timeLoss="160.33" rerouteNo="0" devices="tripinfo_mixed.26" vType="moped" speedFactor="1.08" vaporized=""/>
    <tripinfo id="mixed.28" depart="38.00" departLane="beg_1" departPos="2.20" departPosLat="-0.52" departSpeed="0.00" departDelay="10.00" arrival="233.00" arrivalLane="end_1" arrivalPos="200.00" arrivalPosLat="-1.21" arrivalSpeed="16.17" duration="195.00" routeLength="497.80" waitingTime="138.00" waitingCount="1" stopTime="0.00" timeLoss="164.88" rerouteNo="0" devices="tripinfo_mixed.28" vType="moped" speedFactor="1.41" vaporized=""/>
    <tripinfo id="mixed.12" depart="22.00" departLane="beg_0" departPos="2.20" departPosLat="1.20" departSpeed="0.00" departDelay="10.00" arrival="234.00" arrivalLane="end_0" arrivalPos="200.00" arrivalPosLat="0.07" arrivalSpeed="10.07" duration="212.00" routeLength="497.80" waitingTime="142.00" waitingCount="1" stopTime="0.00" timeLoss="163.84" rerouteNo="0" devices="tripinfo_mixed.12" vType="moped" speedFactor="0.74" vaporized=""/>
    <tripinfo id="mixed.4" depart="6.00" departLane="beg_0" departPos="2.20" departPosLat="0.44" departSpeed="0.00" departDelay="2.00" arrival="235.00" arrivalLane="end_0" arrivalPos="200.00" arrivalPosLat="-1.21" arrivalSpeed="7.13" duration="229.00" routeLength="497.80" waitingTime="149.00" waitingCount="1" stopTime="0.00" timeLoss="162.99" rerouteNo="0" devices="tripinfo_mixed.4" vType="moped" speedFactor="0.54" vaporized=""/>
    <tripinfo id="mixed.20" depart="33.00" departLane="beg_0" departPos="5.10" departPosLat="-0.35" departSpeed="0.00" departDelay="13.00" arrival="236.00" arrivalLane="end_1" arrivalPos="200.00" arrivalPosLat="-1.22" arrivalSpeed="15.64" duration="203.00" routeLength="494.90" waitingTime="146.00" waitingCount="1" stopTime="0.00" timeLoss="174.12" rerouteNo="0" devices="tripinfo_mixed.20" vType="car" speedFactor="1.26" vaporized=""/>
    <tripinfo id="mixed.32" depart="45.00" departLane="beg_1" departPos="5.10" departPosLat="0.28" departSpeed="0.00" departDelay="13.00" arrival="236.00" arrivalLane="end_1" arrivalPos="200.00" arrivalPosLat="0.70" arrivalSpeed="13.81" duration="191.00" routeLength="494.90" waitingTime="138.00" waitingCount="1" stopTime="0.00" timeLoss="157.14" rerouteNo="0" devices="tripinfo_mixed.32" vType="car" speedFactor="1.08" vaporized=""/>
    <tripinfo id="mixed.17" depart="26.00" departLane="beg_0" departPos="5.10" departPosLat="0.15" departSpeed="0.00" departDelay="9.00" arrival="237.00" arrivalLane="end_0" arrivalPos="200.00" arrivalPosLat="1.06" arrivalSpeed="10.55" duration="211.00" routeLength="494.90" waitingTime="146.00" waitingCount="2" stopTime="0.00" timeLoss="175.63" rerouteNo="0" devices="tripinfo_mixed.17" vType="car" speedFactor="1.02" vaporized=""/>
    <tripinfo id="mixed.38" depart="60.00" departLane="beg_1" departPos="2.20" departPosLat="0.35" departSpeed="0.00" departDelay="22.00" arrival="238.00" arrivalLane="end_1" arrivalPos="200.00" arrivalPosLat="-0.33" arrivalSpeed="13.94" duration="178.00" routeLength="497.80" waitingTime="119.00" waitingCount="1" stopTime="0.00" timeLoss="141.68" rerouteNo="0" devices="tripinfo_mixed.38" vType="moped" speedFactor="1.01" vaporized=""/>
    <tripinfo id="mixed.18" depart="30.00" departLane="beg_0" departPos="5.10" departPosLat="0.55" departSpeed="0.00" departDelay="12.00" arrival="239.00" arrivalLane="end_1" arrivalPos="200.00" arrivalPosLat="-1.22" arrivalSpeed="9.51" duration="209.00" routeLength="494.90" waitingTime="143.00" waitingCount="1" stopTime="0.00" timeLoss="160.84" rerouteNo="0" devices="tripinfo_mixed.18" vType="car" speedFactor="0.75" vaporized=""/>
    <tripinfo id="mixed.19" depart="32.00" departLane="beg_1" departPos="5.10" departPosLat="0.57" departSpeed="0.00" departDelay="13.00" arrival="239.00" arrivalLane="end_0" arrivalPos="200.00" arrivalPosLat="-0.54" arrivalSpeed="11.67" duration="207.00" routeLength="494.90" waitingTime="142.00" waitingCount="1" stopTime="0.00" timeLoss="173.00" rerouteNo="0" devices="tripinfo_mixed.19" vType="car" speedFactor="1.06" vaporized=""/>
    <tripinfo id="mixed.31" depart="44.00" departLane="beg_0" departPos="2.20" departPosLat="-0.87" departSpeed="0.00" departDelay="13.00" arrival="239.00" arrivalLane="end_1" arrivalPos="200.00" arrivalPosLat="0.67" arrivalSpeed="14.86" duration="195.00" routeLength="497.80" waitingTime="138.00" waitingCount="1" stopTime="0.00" timeLoss="164.91" rerouteNo="0" devices="tripinfo_mixed.31" vType="moped" speedFactor="1.26" vaporized=""/>
    <tripinfo id="mixed.21" depart="36.00" departLane="beg_0" departPos="5.10" departPosLat="-0.50" departSpeed="0.00" departDelay="15.00" arrival="241.00" arrivalLane="end_0" arrivalPos="200.00" arrivalPosLat="0.38" arrivalSpeed="9.77" duration="205.00" routeLength="494.90" waitingTime="140.00" waitingCount="1" stopTime="0.00" timeLoss="159.19" rerouteNo="0" devices="tripinfo_mixed.21" vType="car" speedFactor="0.79" vaporized=""/>
    <tripinfo id="mixed.35" depart="55.00" departLane="beg_1" departPos="2.20" departPosLat="0.17" departSpeed="0.00" departDelay="20.00" arrival="241.00" arrivalLane="end_1" arrivalPos="200.00" arrivalPosLat="-0.07" arrivalSpeed="11.72" duration="186.00" routeLength="497.80" waitingTime="123.00" waitingCount="2" stopTime="0.00" timeLoss="155.64" rerouteNo="0" devices="tripinfo_mixed.35" vType="moped" speedFactor="1.25" vaporized=""/>
    <tripinfo id="mixed.45" depart="59.00" departLane="beg_1" departPos="2.20" departPosLat="-0.80" departSpeed="0.00" departDelay="14.00" arrival="241.00" arrivalLane="end_1" arrivalPos="200.00" arrivalPosLat="1.21" arrivalSpeed="13.66" duration="182.00" routeLength="497.80" waitingTime="118.00" waitingCount="1" stopTime="0.00" timeLoss="145.09" rerouteNo="0" devices="tripinfo_mixed.45" vType="moped" speedFactor="0.99" vaporized=""/>
    <tripinfo id="mixed.39" depart="58.00" departLane="beg_0" departPos="2.20" departPosLat="-0.77" departSpeed="0.00" departDelay="19.00" arrival="242.00" arrivalLane="end_1" arrivalPos="200.00" arrivalPosLat="1.21" arrivalSpeed="14.44" duration="184.00" routeLength="497.80" waitingTime="118.00" waitingCount="1" stopTime="0.00" timeLoss="153.75" rerouteNo="0" devices="tripinfo_mixed.39" vType="moped" speedFactor="1.40" vaporized=""/>
    <tripinfo id="mixed.44" depart="61.00" departLane="beg_0" departPos="2.20" departPosLat="0.19" departSpeed="0.00" departDelay="17.00" arrival="242.00" arrivalLane="end_1" arrivalPos="200.00" arrivalPosLat="-0.07" arrivalSpeed="11.31" duration="181.00" routeLength="497.80" waitingTime="118.00" waitingCount="1" stopTime="0.00" timeLoss="151.00" rerouteNo="0" devices="tripinfo_mixed.44" vType="moped" speedFactor="1.48" vaporized=""/>
    <tripinfo id="mixed.24" depart="38.00" departLane="beg_0" departPos="2.20" departPosLat="0.27" departSpeed="0.00" departDelay="14.00" arrival="243.00" arrivalLane="end_1" arrivalPos="200.00" arrivalPosLat="-0.95" arrivalSpeed="11.16" duration="205.00" routeLength="497.80" waitingTime="136.00" waitingCount="2" stopTime="0.00" timeLoss="167.83" rerouteNo="0" devices="tripinfo_mixed.24" vType="moped" speedFactor="0.98" vaporized=""/>
    <tripinfo id="mixed.37" depart="49.00" departLane="beg_0" departPos="2.20" departPosLat="0.17" departSpeed="0.00" departDelay="12.00" arrival="245.00" arrivalLane="end_0" arrivalPos="200.00" arrivalPosLat="1.35" arrivalSpeed="15.11" duration="196.00" routeLength="497.80" waitingTime="128.00" waitingCount="1" stopTime="0.00" timeLoss="165.86" rerouteNo="0" devices="tripinfo_mixed.37" vType="moped" speedFactor="1.19" vaporized=""/>
    <tripinfo id="mixed.27" depart="41.00" departLane="beg_1" departPos="2.20" departPosLat="-0.76" departSpeed="0.00" departDelay="14.00" arrival="246.00" arrivalLane="end_0" arrivalPos="200.00" arrivalPosLat="-1.21" arrivalSpeed="10.40" duration="205.00" routeLength="497.80" waitingTime="139.00" waitingCount="2" stopTime="0.00" timeLoss="156.89" rerouteNo="0" devices="tripinfo_mixed.27" vType="moped" speedFactor="0.76" vaporized=""/>
    <tripinfo id="mixed.30" depart="44.00" departLane="beg_0" departPos="2.20" departPosLat="0.51" departSpeed="0.00" departDelay="14.00" arrival="246.00" arrivalLane="end_0" arrivalPos="200.00" arrivalPosLat="0.32" arrivalSpeed="15.06" duration="202.00" routeLength="497.80" waitingTime="126.00" waitingCount="1" stopTime="0.00" timeLoss="169.86" rerouteNo="0" devices="tripinfo_mixed.30" vType="moped" speedFactor="1.12" vaporized=""/>
    <tripinfo id="mixed.41" depart="55.00" departLane="beg_1" departPos="2.20" departPosLat="-0.77" departSpeed="0.00" departDelay="14.00" arrival="246.00" arrivalLane="end_1" arrivalPos="200.00" arrivalPosLat="0.71" arrivalSpeed="11.68" duration="191.00" routeLength="497.80" waitingTime="128.00" waitingCount="1" stopTime="0.00" timeLoss="147.84" rerouteNo="0" devices="tripinfo_mixed.41" vType="moped" speedFactor="0.85" vaporized=""/>
    <tripinfo id="mixed.36" depart="56.00" departLane="beg_0" departPos="2.20" departPosLat="0.67" departSpeed="0.00" departDelay="20.00" arrival="247.00" arrivalLane="end_0" arrivalPos="200.00" arrivalPosLat="0.91" arrivalSpeed="13.96" duration="191.00" routeLength="497.80" waitingTime="127.00" waitingCount="1" stopTime="0.00" timeLoss="160.56" rerouteNo="0" devices="tripinfo_mixed.36" vType="moped" speedFactor="1.68" vaporized=""/>
    <tripinfo id="mixed.33" depart="47.00" departLane="beg_1" departPos="2.20" departPosLat="-1.08" departSpeed="0.00" departDelay="14.00" arrival="249.00" arrivalLane="end_0" arrivalPos="200.00" arrivalPosLat="0.32" arrivalSpeed="11.19" duration="202.00" routeLength="497.80" waitingTime="123.00" waitingCount="1" stopTime="0.00" timeLoss="157.40" rerouteNo="0" devices="tripinfo_mixed.33" vType="moped" speedFactor="0.81" vaporized=""/>
    <tripinfo id="mixed.40" depart="52.00" departLane="beg_1" departPos="2.20" departPosLat="0.88" departSpeed="0.00" departDelay="12.00" arrival="249.00" arrivalLane="end_0" arrivalPos="200.00" arrivalPosLat="-1.21" arrivalSpeed="7.91" duration="197.00" routeLength="497.80" waitingTime="119.00" waitingCount="1" stopTime="0.00" timeLoss="136.44" rerouteNo="0" devices="tripinfo_mixed.40" vType="moped" speedFactor="0.60" vaporized=""/>
    <tripinfo id="mixed.42" depart="65.00" departLane="beg_0" departPos="5.10" departPosLat="-0.15" departSpeed="0.00" departDelay="23.00" arrival="249.00" arrivalLane="end_1" arrivalPos="200.00" arrivalPosLat="0.54" arrivalSpeed="14.06" duration="184.00" routeLength="494.90" waitingTime="117.00" waitingCount="1" stopTime="0.00" timeLoss="149.18" rerouteNo="0" devices="tripinfo_mixed.42" vType="car" speedFactor="1.05" vaporized=""/>
    <tripinfo id="mixed.16" depart="28.00" departLane="beg_1" departPos="2.20" departPosLat="-1.18" departSpeed="0.00" departDelay="12.00" arrival="250.00" arrivalLane="end_0" arrivalPos="200.00" arrivalPosLat="0.85" arrivalSpeed="7.21" duration="222.00" routeLength="497.80" waitingTime="137.00" waitingCount="2" stopTime="0.00" timeLoss="157.02" rerouteNo="0" devices="tripinfo_mixed.16" vType="moped" speedFactor="0.56" vaporized=""/>
    <tripinfo id="mixed.54" depart="78.00" departLane="beg_1" departPos="5.10" departPosLat="0.10" departSpeed="0.00" departDelay="24.00" arrival="250.00" arrivalLane="end_1" arrivalPos="200.00" arrivalPosLat="0.54" arrivalSpeed="14.25" duration="172.00" routeLength="494.90" waitingTime="116.00" waitingCount="1" stopTime="0.00" timeLoss="138.49" rerouteNo="0" devices="tripinfo_mixed.54" vType="car" speedFactor="1.06" vaporized=""/>
    <tripinfo id="mixed.25" depart="54.00" departLane="beg_0" departPos="5.10" departPosLat="-0.15" departSpeed="0.00" departDelay="29.00" arrival="251.00" arrivalLane="end_1" arrivalPos="200.00" arrivalPosLat="-1.46" arrivalSpeed="10.89" duration="197.00" routeLength="494.90" waitingTime="119.00" waitingCount="1" stopTime="0.00" timeLoss="158.98" rerouteNo="0" devices="tripinfo_mixed.25" vType="car" speedFactor="0.94" vaporized=""/>
    <tripinfo id="mixed.46" depart="63.00" departLane="beg_1" departPos="2.20" departPosLat="0.38" departSpeed="0.00" departDelay="17.00" arrival="253.00" arrivalLane="end_0" arrivalPos="200.00" arrivalPosLat="-1.21" arrivalSpeed="12.91" duration="190.00" routeLength="497.80" waitingTime="118.00" waitingCount="2" stopTime="0.00" timeLoss="151.41" rerouteNo="0" devices="tripinfo_mixed.46" vType="moped" speedFactor="0.95" vaporized=""/>
    <tripinfo id="mixed.49" depart="73.00" departLane="beg_1" departPos="2.20" departPosLat="0.80" departSpeed="0.00" departDelay="24.00" arrival="254.00" arrivalLane="end_1" arrivalPos="200.00" arrivalPosLat="-1.21" arrivalSpeed="10.54" duration="181.00" routeLength="497.80" waitingTime="115.00" waitingCount="1" stopTime="0.00" timeLoss="135.21" rerouteNo="0" devices="tripinfo_mixed.49" vType="moped" speedFactor="0.79" vaporized=""/>
    <tripinfo id="mixed.50" depart="70.00" departLane="beg_1" departPos="5.10" departPosLat="0.29" departSpeed="0.00" departDelay="20.00" arrival="254.00" arrivalLane="end_0" arrivalPos="200.00" arrivalPosLat="0.10" arrivalSpeed="13.83" duration="184.00" routeLength="494.90" waitingTime="118.00" waitingCount="1" stopTime="0.00" timeLoss="149.45" rerouteNo="0" devices="tripinfo_mixed.50" vType="car" speedFactor="1.04" vaporized=""/>
    <tripinfo id="mixed.56" depart="83.00" departLane="beg_1" departPos="5.10" departPosLat="-0.53" departSpeed="0.00" departDelay="27.00" arrival="254.00" arrivalLane="end_1" arrivalPos="200.00" arrivalPosLat="0.58" arrivalSpeed="15.74" duration="171.00" routeLength="494.90" waitingTime="115.00" waitingCount="1" stopTime="0.00" timeLoss="140.48" rerouteNo="0" devices="tripinfo_mixed.56" vType="car" speedFactor="1.17" vaporized=""/>
    <tripinfo id="mixed.52" depart="75.00" departLane="beg_0" departPos="5.10" departPosLat="0.24" departSpeed="0.00" departDelay="23.00" arrival="256.00" arrivalLane="end_0" arrivalPos="200.00" arrivalPosLat="0.58" arrivalSpeed="14.27" duration="181.00" routeLength="494.90" waitingTime="114.00" waitingCount="2" stopTime="0.00" timeLoss="148.42" rerouteNo="0" devices="tripinfo_mixed.52" vType="car" speedFactor="1.11" vaporized=""/>
    <tripinfo id="mixed.62" depart="94.00" departLane="beg_1" departPos="5.10" departPosLat="-0.38" departSpeed="0.00" departDelay="32.00" arrival="257.00" arrivalLane="end_1" arrivalPos="200.00" arrivalPosLat="-1.06" arrivalSpeed="13.90" duration="163.00" routeLength="494.90" waitingTime="103.00" waitingCount="2" stopTime="0.00" timeLoss="126.95" rerouteNo="0" devices="tripinfo_mixed.62" vType="car" speedFactor="1.01" vaporized=""/>
    <tripinfo id="mixed.69" depart="101.00" departLane="beg_0" departPos="5.10" departPosLat="-0.41" departSpeed="0.00" departDelay="32.00" arrival="258.00" arrivalLane="end_1" arrivalPos="200.00" arrivalPosLat="0.58" arrivalSpeed="14.23" duration="157.00" routeLength="494.90" waitingTime="102.00" waitingCount="1" stopTime="0.00" timeLoss="129.06" rerouteNo="0" devices="tripinfo_mixed.69" vType="car" speedFactor="1.28" vaporized=""/>
    <tripinfo id="mixed.51" depart="72.00" departLane="beg_1" departPos="2.20" departPosLat="-0.47" departSpeed="0.00" departDelay="21.00" arrival="259.00" arrivalLane="end_1" arrivalPos="200.00" arrivalPosLat="-1.31" arrivalSpeed="9.79" duration="187.00" routeLength="497.80" waitingTime="112.00" waitingCount="2" stopTime="0.00" timeLoss="136.48" rerouteNo="0" devices="tripinfo_mixed.51" vType="moped" speedFactor="0.71" vaporized=""/>
    <tripinfo id="mixed.71" depart="101.00" departLane="beg_1" departPos="2.20" departPosLat="0.26" departSpeed="0.00" departDelay="30.00" arrival="260.00" arrivalLane="end_1" arrivalPos="200.00" arrivalPosLat="0.67" arrivalSpeed="14.82" duration="159.00" routeLength="497.80" waitingTime="98.00" waitingCount="1" stopTime="0.00" timeLoss="128.55" rerouteNo="0" devices="tripinfo_mixed.71" vType="moped" speedFactor="1.58" vaporized=""/>
    <tripinfo id="mixed.34" depart="48.00" departLane="beg_1" departPos="2.20" departPosLat="1.02" departSpeed="0.00" departDelay="14.00" arrival="261.00" arrivalLane="end_0" arrivalPos="200.00" arrivalPosLat="0.07" arrivalSpeed="6.54" duration="213.00" routeLength="497.80" waitingTime="123.00" waitingCount="1" stopTime="0.00" timeLoss="141.92" rerouteNo="0" devices="tripinfo_mixed.34" vType="moped" speedFactor="0.51" vaporized=""/>
    <tripinfo id="mixed.43" depart="71.00" departLane="beg_0" departPos="5.10" departPosLat="0.64" departSpeed="0.00" departDelay="28.00" arrival="261.00" arrivalLane="end_1" arrivalPos="200.00" arrivalPosLat="-1.22" arrivalSpeed="12.74" duration="190.00" routeLength="494.90" waitingTime="118.00" waitingCount="1" stopTime="0.00" timeLoss="153.64" rerouteNo="0" devices="tripinfo_mixed.43" vType="car" speedFactor="0.99" vaporized=""/>
    <tripinfo id="mixed.59" depart="85.00" departLane="beg_1" departPos="2.20" departPosLat="-0.89" departSpeed="0.00" departDelay="26.00" arrival="261.00" arrivalLane="end_1" arrivalPos="200.00" arrivalPosLat="0.67" arrivalSpeed="14.40" duration="176.00" routeLength="497.80" waitingTime="109.00" waitingCount="1" stopTime="0.00" timeLoss="145.89" rerouteNo="0" devices="tripinfo_mixed.59" vType="moped" speedFactor="1.33" vaporized=""/>
    <tripinfo id="mixed.1" depart="1.00" departLane="beg_1" departPos="2.20" departPosLat="-0.02" departSpeed="0.00" departDelay="0.00" arrival="262.00" arrivalLane="end_0" arrivalPos="200.00" arrivalPosLat="-1.21" arrivalSpeed="4.83" duration="261.00" routeLength="497.80" waitingTime="141.00" waitingCount="1" stopTime="0.00" timeLoss="160.02" rerouteNo="0" devices="tripinfo_mixed.1" vType="moped" speedFactor="0.36" vaporized=""/>
    <tripinfo id="mixed.47" depart="67.00" departLane="beg_1" departPos="2.20" departPosLat="0.29" departSpeed="0.00" departDelay="20.00" arrival="263.00" arrivalLane="end_0" arrivalPos="200.00" arrivalPosLat="0.57" arrivalSpeed="8.75" duration="196.00" routeLength="497.80" waitingTime="113.00" waitingCount="1" stopTime="0.00" timeLoss="152.59" rerouteNo="0" devices="tripinfo_mixed.47" vType="moped" speedFactor="0.84" vaporized=""/>
    <tripinfo id="mixed.58" depart="85.00" departLane="beg_0" departPos="5.10" departPosLat="0.68" departSpeed="0.00" departDelay="27.00" arrival="263.00" arrivalLane="end_1" arrivalPos="200.00" arrivalPosLat="-1.22" arrivalSpeed="14.10" duration="178.00" routeLength="494.90" waitingTime="109.00" waitingCount="1" stopTime="0.00" timeLoss="142.61" rerouteNo="0" devices="tripinfo_mixed.58" vType="car" speedFactor="1.03" vaporized=""/>
    <tripinfo id="mixed.75" depart="104.00" departLane="beg_1" departPos="2.20" departPosLat="0.63" departSpeed="0.00" departDelay="29.00" arrival="263.00" arrivalLane="end_1" arrivalPos="200.00" arrivalPosLat="0.67" arrivalSpeed="15.53" duration="159.00" routeLength="497.80" waitingTime="91.00" waitingCount="2" stopTime="0.00" timeLoss="128.25" rerouteNo="0" devices="tripinfo_mixed.75" vType="moped" speedFactor="1.30" vaporized=""/>
    <tripinfo id="mixed.48" depart="68.00" departLane="beg_0" departPos="2.20" departPosLat="-0.65" departSpeed="0.00" departDelay="20.00" arrival="264.00" arrivalLane="end_0" arrivalPos="200.00" arrivalPosLat="-1.03" arrivalSpeed="8.23" duration="196.00" routeLength="497.80" waitingTime="113.00" waitingCount="1" stopTime="0.00" timeLoss="138.60" rerouteNo="0" devices="tripinfo_mixed.48" vType="moped" speedFactor="0.63" vaporized=""/>
    <tripinfo id="mixed.53" depart="78.00" departLane="beg_0" departPos="5.10" departPosLat="-0.59" departSpeed="0.00" departDelay="25.00" arrival="264.00" arrivalLane="end_1" arrivalPos="200.00" arrivalPosLat="-1.22" arrivalSpeed="15.22" duration="186.00" routeLength="494.90" waitingTime="115.00" waitingCount="1" stopTime="0.00" timeLoss="156.91" rerouteNo="0" devices="tripinfo_mixed.53" vType="car" speedFactor="1.24" vaporized=""/>
    <tripinfo id="mixed.65" depart="90.00" departLane="beg_1" departPos="2.20" departPosLat="-1.01" departSpeed="0.00" departDelay="25.00" arrival="264.00" arrivalLane="end_1" arrivalPos="200.00" arrivalPosLat="0.67" arrivalSpeed="15.70" duration="174.00" routeLength="497.80" waitingTime="107.00" waitingCount="1" stopTime="0.00" timeLoss="143.57" rerouteNo="0" devices="tripinfo_mixed.65" vType="moped" speedFactor="1.21" vaporized=""/>
    <tripinfo id="mixed.61" depart="89.00" departLane="beg_0" departPos="2.20" departPosLat="0.47" departSpeed="0.00" departDelay="28.00" arrival="267.00" arrivalLane="end_0" arrivalPos="200.00" arrivalPosLat="1.25" arrivalSpeed="12.38" duration="178.00" routeLength="497.80" waitingTime="103.00" waitingCount="1" stopTime="0.00" timeLoss="138.96" rerouteNo="0" devices="tripinfo_mixed.61" vType="moped" speedFactor="0.92" vaporized=""/>
    <tripinfo id="mixed.73" depart="112.00" departLane="beg_1" departPos="5.10" departPosLat="0.41" departSpeed="0.00" departDelay="39.00" arrival="267.00" arrivalLane="end_1" arrivalPos="200.00" arrivalPosLat="-0.06" arrivalSpeed="12.18" duration="155.00" routeLength="494.90" waitingTime="83.00" waitingCount="2" stopTime="0.00" timeLoss="115.28" rerouteNo="0" devices="tripinfo_mixed.73" vType="car" speedFactor="0.90" vaporized=""/>
    <tripinfo id="mixed.2" depart="5.00" departLane="beg_1" departPos="2.20" departPosLat="0.16" departSpeed="0.00" departDelay="3.00" arrival="268.00" arrivalLane="end_0" arrivalPos="200.00" arrivalPosLat="-1.21" arrivalSpeed="4.43" duration="263.00" routeLength="497.80" waitingTime="138.00" waitingCount="1" stopTime="0.00" timeLoss="152.36" rerouteNo="0" devices="tripinfo_mixed.2" vType="moped" speedFactor="0.32" vaporized=""/>
    <tripinfo id="mixed.60" depart="87.00" departLane="beg_0" departPos="2.20" departPosLat="-0.45" departSpeed="0.00" departDelay="27.00" arrival="269.00" arrivalLane="end_0" arrivalPos="200.00" arrivalPosLat="0.61" arrivalSpeed="12.52" duration="182.00" routeLength="497.80" waitingTime="109.00" waitingCount="1" stopTime="0.00" timeLoss="142.28" rerouteNo="0" devices="tripinfo_mixed.60" vType="moped" speedFactor="0.90" vaporized=""/>