<?xml version="1.0" encoding="UTF-8"?>

<!-- generated on Thu Nov 16 00:10:58 2017 by SUMO Version v0_31_0+1151-53ec744
<?xml version="1.0" encoding="UTF-8"?>

<configuration xmlns:xsi="http://www.w3.org/2001/XMLSchema-instance" xsi:noNamespaceSchemaLocation="http://sumo.dlr.de/xsd/sumoConfiguration.xsd">

    <input>
        <net-file value="net.net.xml"/>
        <route-files value="input_routes.rou.xml"/>
    </input>

    <output>
        <tripinfo-output value="tripinfos.xml"/>
    </output>

    <processing>
        <lateral-resolution value="0.64"/>
    </processing>

    <report>
        <verbose value="true"/>
        <xml-validation value="never"/>
        <duration-log.statistics value="true"/>
        <no-step-log value="true"/>
    </report>

</configuration>
-->

<tripinfos xmlns:xsi="http://www.w3.org/2001/XMLSchema-instance" xsi:noNamespaceSchemaLocation="http://sumo.dlr.de/xsd/tripinfo_file.xsd">
    <tripinfo id="mixed.6" depart="6.00" departLane="beg_0" departPos="2.20" departPosLat="-0.40" departSpeed="0.00" departDelay="0.00" arrival="222.00" arrivalLane="end_1" arrivalPos="200.00" arrivalPosLat="-1.60" arrivalSpeed="16.40" duration="216.00" routeLength="497.80" waitSteps="161" timeLoss="185.24" rerouteNo="0" devices="tripinfo_mixed.6" vType="moped" speedFactor="1.36" vaporized=""/>
    <tripinfo id="mixed.3" depart="4.00" departLane="beg_1" departPos="2.20" departPosLat="-0.43" departSpeed="0.00" departDelay="1.00" arrival="222.00" arrivalLane="end_0" arrivalPos="200.00" arrivalPosLat="-1.20" arrivalSpeed="13.45" duration="218.00" routeLength="497.80" waitSteps="164" timeLoss="181.36" rerouteNo="0" devices="tripinfo_mixed.3" vType="moped" speedFactor="0.98" vaporized=""/>
    <tripinfo id="mixed.8" depart="12.00" departLane="beg_1" departPos="5.10" departPosLat="-0.56" departSpeed="0.00" departDelay="4.00" arrival="224.00" arrivalLane="end_1" arrivalPos="200.00" arrivalPosLat="-0.10" arrivalSpeed="16.16" duration="212.00" routeLength="494.90" waitSteps="158" timeLoss="182.55" rerouteNo="0" devices="tripinfo_mixed.8" vType="car" speedFactor="1.25" vaporized=""/>
    <tripinfo id="mixed.5" depart="8.00" departLane="beg_0" departPos="5.10" departPosLat="-0.27" departSpeed="0.00" departDelay="3.00" arrival="224.00" arrivalLane="end_0" arrivalPos="200.00" arrivalPosLat="0.64" arrivalSpeed="13.69" duration="216.00" routeLength="494.90" waitSteps="159" timeLoss="181.03" rerouteNo="0" devices="tripinfo_mixed.5" vType="car" speedFactor="1.03" vaporized=""/>
    <tripinfo id="mixed.0" depart="0.00" departLane="beg_0" departPos="2.20" departPosLat="0.51" departSpeed="0.00" departDelay="0.00" arrival="225.00" arrivalLane="end_0" arrivalPos="200.00" arrivalPosLat="-1.20" arrivalSpeed="10.43" duration="225.00" routeLength="497.80" waitSteps="164" timeLoss="176.48" rerouteNo="0" devices="tripinfo_mixed.0" vType="moped" speedFactor="0.75" vaporized=""/>
    <tripinfo id="mixed.11" depart="18.00" departLane="beg_0" departPos="5.10" departPosLat="0.06" departSpeed="0.00" departDelay="7.00" arrival="226.00" arrivalLane="end_1" arrivalPos="200.00" arrivalPosLat="-0.70" arrivalSpeed="14.39" duration="208.00" routeLength="494.90" waitSteps="157" timeLoss="174.36" rerouteNo="0" devices="tripinfo_mixed.11" vType="car" speedFactor="1.08" vaporized=""/>
    <tripinfo id="mixed.15" depart="17.00" departLane="beg_1" departPos="2.20" departPosLat="0.58" departSpeed="0.00" departDelay="2.00" arrival="227.00" arrivalLane="end_1" arrivalPos="200.00" arrivalPosLat="0.04" arrivalSpeed="15.49" duration="210.00" routeLength="497.80" waitSteps="156" timeLoss="177.66" rerouteNo="0" devices="tripinfo_mixed.15" vType="moped" speedFactor="1.12" vaporized=""/>
    <tripinfo id="mixed.20" depart="25.00" departLane="beg_1" departPos="5.10" departPosLat="0.43" departSpeed="0.00" departDelay="5.00" arrival="229.00" arrivalLane="end_1" arrivalPos="200.00" arrivalPosLat="0.54" arrivalSpeed="17.38" duration="204.00" routeLength="494.90" waitSteps="153" timeLoss="175.37" rerouteNo="0" devices="tripinfo_mixed.20" vType="car" speedFactor="1.26" vaporized=""/>
    <tripinfo id="mixed.9" depart="15.00" departLane="beg_1" departPos="5.10" departPosLat="0.49" departSpeed="0.00" departDelay="6.00" arrival="229.00" arrivalLane="end_0" arrivalPos="200.00" arrivalPosLat="0.74" arrivalSpeed="10.94" duration="214.00" routeLength="494.90" waitSteps="154" timeLoss="168.82" rerouteNo="0" devices="tripinfo_mixed.9" vType="car" speedFactor="0.80" vaporized=""/>
    <tripinfo id="mixed.7" depart="8.00" departLane="beg_1" departPos="2.20" departPosLat="0.19" departSpeed="0.00" departDelay="1.00" arrival="230.00" arrivalLane="end_0" arrivalPos="200.00" arrivalPosLat="-1.20" arrivalSpeed="9.48" duration="222.00" routeLength="497.80" waitSteps="155" timeLoss="170.16" rerouteNo="0" devices="tripinfo_mixed.7" vType="moped" speedFactor="0.69" vaporized=""/>
    <tripinfo id="mixed.13" depart="21.00" departLane="beg_0" departPos="2.20" departPosLat="-0.22" departSpeed="0.00" departDelay="8.00" arrival="231.00" arrivalLane="end_1" arrivalPos="200.00" arrivalPosLat="0.04" arrivalSpeed="16.25" duration="210.00" routeLength="497.80" waitSteps="150" timeLoss="179.36" rerouteNo="0" devices="tripinfo_mixed.13" vType="moped" speedFactor="1.33" vaporized=""/>
    <tripinfo id="mixed.17" depart="22.00" departLane="beg_1" departPos="5.10" departPosLat="0.26" departSpeed="0.00" departDelay="5.00" arrival="231.00" arrivalLane="end_0" arrivalPos="200.00" arrivalPosLat="0.74" arrivalSpeed="13.26" duration="209.00" routeLength="494.90" waitSteps="153" timeLoss="173.51" rerouteNo="0" devices="tripinfo_mixed.17" vType="car" speedFactor="1.02" vaporized=""/>
    <tripinfo id="mixed.10" depart="10.00" departLane="beg_0" departPos="2.20" departPosLat="0.28" departSpeed="0.00" departDelay="0.00" arrival="232.00" arrivalLane="end_0" arrivalPos="200.00" arrivalPosLat="-1.20" arrivalSpeed="9.31" duration="222.00" routeLength="497.80" waitSteps="153" timeLoss="171.34" rerouteNo="0" devices="tripinfo_mixed.10" vType="moped" speedFactor="0.71" vaporized=""/>
    <tripinfo id="mixed.18" depart="25.00" departLane="beg_0" departPos="5.10" departPosLat="0.16" departSpeed="0.00" departDelay="7.00" arrival="236.00" arrivalLane="end_0" arrivalPos="200.00" arrivalPosLat="1.18" arrivalSpeed="10.20" duration="211.00" routeLength="494.90" waitSteps="147" timeLoss="162.91" rerouteNo="0" devices="tripinfo_mixed.18" vType="car" speedFactor="0.75" vaporized=""/>
    <tripinfo id="mixed.21" depart="28.00" departLane="beg_0" departPos="5.10" departPosLat="-0.52" departSpeed="0.00" departDelay="7.00" arrival="237.00" arrivalLane="end_1" arrivalPos="200.00" arrivalPosLat="0.54" arrivalSpeed="9.96" duration="209.00" routeLength="494.90" waitSteps="147" timeLoss="163.36" rerouteNo="0" devices="tripinfo_mixed.21" vType="car" speedFactor="0.79" vaporized=""/>
    <tripinfo id="mixed.4" depart="5.00" departLane="beg_1" departPos="2.20" departPosLat="0.93" departSpeed="0.00" departDelay="1.00" arrival="238.00" arrivalLane="end_0" arrivalPos="200.00" arrivalPosLat="-1.20" arrivalSpeed="7.42" duration="233.00" routeLength="497.80" waitSteps="154" timeLoss="166.27" rerouteNo="0" devices="tripinfo_mixed.4" vType="moped" speedFactor="0.54" vaporized=""/>
    <tripinfo id="mixed.27" depart="27.00" departLane="beg_1" departPos="2.20" departPosLat="0.76" departSpeed="0.00" departDelay="0.00" arrival="238.00" arrivalLane="end_0" arrivalPos="200.00" arrivalPosLat="0.68" arrivalSpeed="10.07" duration="211.00" routeLength="497.80" waitSteps="146" timeLoss="163.35" rerouteNo="0" devices="tripinfo_mixed.27" vType="moped" speedFactor="0.76" vaporized=""/>
    <tripinfo id="mixed.26" depart="32.00" departLane="beg_1" departPos="2.20" departPosLat="0.91" departSpeed="0.00" departDelay="6.00" arrival="239.00" arrivalLane="end_1" arrivalPos="200.00" arrivalPosLat="-0.56" arrivalSpeed="10.98" duration="207.00" routeLength="497.80" waitSteps="146" timeLoss="173.24" rerouteNo="0" devices="tripinfo_mixed.26" vType="moped" speedFactor="1.08" vaporized=""/>
    <tripinfo id="mixed.12" depart="14.00" departLane="beg_0" departPos="2.20" departPosLat="0.93" departSpeed="0.00" departDelay="2.00" arrival="239.00" arrivalLane="end_0" arrivalPos="200.00" arrivalPosLat="-1.20" arrivalSpeed="8.07" duration="225.00" routeLength="497.80" waitSteps="154" timeLoss="176.72" rerouteNo="0" devices="tripinfo_mixed.12" vType="moped" speedFactor="0.74" vaporized=""/>
    <tripinfo id="mixed.28" depart="32.00" departLane="beg_1" departPos="2.20" departPosLat="-0.67" departSpeed="0.00" departDelay="4.00" arrival="240.00" arrivalLane="end_1" arrivalPos="200.00" arrivalPosLat="0.72" arrivalSpeed="13.02" duration="208.00" routeLength="497.80" waitSteps="146" timeLoss="177.62" rerouteNo="0" devices="tripinfo_mixed.28" vType="moped" speedFactor="1.41" vaporized=""/>
    <tripinfo id="mixed.19" depart="32.00" departLane="beg_0" departPos="5.10" departPosLat="0.38" departSpeed="0.00" departDelay="13.00" arrival="240.00" arrivalLane="end_0" arrivalPos="200.00" arrivalPosLat="1.18" arrivalSpeed="13.78" duration="208.00" routeLength="494.90" waitSteps="138" timeLoss="173.75" rerouteNo="0" devices="tripinfo_mixed.19" vType="car" speedFactor="1.06" vaporized=""/>
    <tripinfo id="mixed.31" depart="40.00" departLane="beg_1" departPos="2.20" departPosLat="0.56" departSpeed="0.00" departDelay="9.00" arrival="241.00" arrivalLane="end_1" arrivalPos="200.00" arrivalPosLat="-1.36" arrivalSpeed="12.51" duration="201.00" routeLength="497.80" waitSteps="134" timeLoss="171.08" rerouteNo="0" devices="tripinfo_mixed.31" vType="moped" speedFactor="1.26" vaporized=""/>
    <tripinfo id="mixed.14" depart="17.00" departLane="beg_1" departPos="2.20" departPosLat="-1.12" departSpeed="0.00" departDelay="3.00" arrival="241.00" arrivalLane="end_0" arrivalPos="200.00" arrivalPosLat="-1.20" arrivalSpeed="8.80" duration="224.00" routeLength="497.80" waitSteps="148" timeLoss="189.20" rerouteNo="0" devices="tripinfo_mixed.14" vType="moped" speedFactor="1.04" vaporized=""/>
    <tripinfo id="mixed.25" depart="37.00" departLane="beg_1" departPos="5.10" departPosLat="0.02" departSpeed="0.00" departDelay="12.00" arrival="242.00" arrivalLane="end_1" arrivalPos="200.00" arrivalPosLat="-0.46" arrivalSpeed="12.78" duration="205.00" routeLength="494.90" waitSteps="143" timeLoss="166.26" rerouteNo="0" devices="tripinfo_mixed.25" vType="car" speedFactor="0.94" vaporized=""/>
    <tripinfo id="mixed.37" depart="56.00" departLane="beg_0" departPos="2.20" departPosLat="0.31" departSpeed="0.00" departDelay="19.00" arrival="243.00" arrivalLane="end_1" arrivalPos="200.00" arrivalPosLat="0.68" arrivalSpeed="12.61" duration="187.00" routeLength="497.80" waitSteps="131" timeLoss="156.84" rerouteNo="0" devices="tripinfo_mixed.37" vType="moped" speedFactor="1.19" vaporized=""/>
    <tripinfo id="mixed.36" depart="53.00" departLane="beg_1" departPos="2.20" departPosLat="0.13" departSpeed="0.00" departDelay="17.00" arrival="243.00" arrivalLane="end_1" arrivalPos="200.00" arrivalPosLat="-1.20" arrivalSpeed="12.92" duration="190.00" routeLength="497.80" waitSteps="131" timeLoss="160.03" rerouteNo="0" devices="tripinfo_mixed.36" vType="moped" speedFactor="1.68" vaporized=""/>
    <tripinfo id="mixed.35" depart="42.00" departLane="beg_1" departPos="2.20" departPosLat="0.33" departSpeed="0.00" departDelay="7.00" arrival="243.00" arrivalLane="end_0" arrivalPos="200.00" arrivalPosLat="0.68" arrivalSpeed="12.78" duration="201.00" routeLength="497.80" waitSteps="134" timeLoss="170.72" rerouteNo="0" devices="tripinfo_mixed.35" vType="moped" speedFactor="1.25" vaporized=""/>
    <tripinfo id="mixed.16" depart="21.00" departLane="beg_0" departPos="2.20" departPosLat="0.96" departSpeed="0.00" departDelay="5.00" arrival="244.00" arrivalLane="end_0" arrivalPos="200.00" arrivalPosLat="-1.20" arrivalSpeed="7.38" duration="223.00" routeLength="497.80" waitSteps="139" timeLoss="158.71" rerouteNo="0" devices="tripinfo_mixed.16" vType="moped" speedFactor="0.56" vaporized=""/>
    <tripinfo id="mixed.38" depart="45.00" departLane="beg_1" departPos="2.20" departPosLat="0.72" departSpeed="0.00" departDelay="7.00" arrival="244.00" arrivalLane="end_0" arrivalPos="200.00" arrivalPosLat="0.68" arrivalSpeed="13.06" duration="199.00" routeLength="497.80" waitSteps="134" timeLoss="163.45" rerouteNo="0" devices="tripinfo_mixed.38" vType="moped" speedFactor="1.01" vaporized=""/>
    <tripinfo id="mixed.44" depart="56.00" departLane="beg_0" departPos="2.20" departPosLat="-1.01" departSpeed="0.00" departDelay="12.00" arrival="245.00" arrivalLane="end_1" arrivalPos="200.00" arrivalPosLat="0.08" arrivalSpeed="13.38" duration="189.00" routeLength="497.80" waitSteps="127" timeLoss="158.54" rerouteNo="0" devices="tripinfo_mixed.44" vType="moped" speedFactor="1.48" vaporized=""/>
    <tripinfo id="mixed.41" depart="50.00" departLane="beg_1" departPos="2.20" departPosLat="0.88" departSpeed="0.00" departDelay="9.00" arrival="245.00" arrivalLane="end_1" arrivalPos="200.00" arrivalPosLat="-1.20" arrivalSpeed="11.42" duration="195.00" routeLength="497.80" waitSteps="131" timeLoss="152.19" rerouteNo="0" devices="tripinfo_mixed.41" vType="moped" speedFactor="0.85" vaporized=""/>
    <tripinfo id="mixed.33" depart="49.00" departLane="beg_1" departPos="2.20" departPosLat="-0.64" departSpeed="0.00" departDelay="16.00" arrival="246.00" arrivalLane="end_0" arrivalPos="200.00" arrivalPosLat="1.20" arrivalSpeed="10.85" duration="197.00" routeLength="497.80" waitSteps="134" timeLoss="152.34" rerouteNo="0" devices="tripinfo_mixed.33" vType="moped" speedFactor="0.81" vaporized=""/>
    <tripinfo id="mixed.42" depart="53.00" departLane="beg_0" departPos="5.10" departPosLat="0.20" departSpeed="0.00" departDelay="11.00" arrival="247.00" arrivalLane="end_1" arrivalPos="200.00" arrivalPosLat="-0.58" arrivalSpeed="14.39" duration="194.00" routeLength="494.90" waitSteps="127" timeLoss="159.19" rerouteNo="0" devices="tripinfo_mixed.42" vType="car" speedFactor="1.05" vaporized=""/>
    <tripinfo id="mixed.47" depart="61.00" departLane="beg_1" departPos="2.20" departPosLat="1.05" departSpeed="0.00" departDelay="14.00" arrival="248.00" arrivalLane="end_1" arrivalPos="200.00" arrivalPosLat="1.20" arrivalSpeed="11.21" duration="187.00" routeLength="497.80" waitSteps="125" timeLoss="143.41" rerouteNo="0" devices="tripinfo_mixed.47" vType="moped" speedFactor="0.84" vaporized=""/>
    <tripinfo id="mixed.39" depart="45.00" departLane="beg_1" departPos="2.20" departPosLat="-0.81" departSpeed="0.00" departDelay="6.00" arrival="248.00" arrivalLane="end_0" arrivalPos="200.00" arrivalPosLat="0.60" arrivalSpeed="12.35" duration="203.00" routeLength="497.80" waitSteps="129" timeLoss="172.46" rerouteNo="0" devices="tripinfo_mixed.39" vType="moped" speedFactor="1.40" vaporized=""/>
    <tripinfo id="mixed.43" depart="66.00" departLane="beg_1" departPos="5.10" departPosLat="0.52" departSpeed="0.00" departDelay="23.00" arrival="249.00" arrivalLane="end_1" arrivalPos="200.00" arrivalPosLat="-0.70" arrivalSpeed="13.39" duration="183.00" routeLength="494.90" waitSteps="122" timeLoss="147.09" rerouteNo="0" devices="tripinfo_mixed.43" vType="car" speedFactor="0.99" vaporized=""/>
    <tripinfo id="mixed.32" depart="50.00" departLane="beg_0" departPos="5.10" departPosLat="0.05" departSpeed="0.00" departDelay="18.00" arrival="249.00" arrivalLane="end_0" arrivalPos="200.00" arrivalPosLat="-0.70" arrivalSpeed="13.59" duration="199.00" routeLength="494.90" waitSteps="131" timeLoss="165.84" rerouteNo="0" devices="tripinfo_mixed.32" vType="car" speedFactor="1.08" vaporized=""/>
    <tripinfo id="mixed.53" depart="69.00" departLane="beg_1" departPos="5.10" departPosLat="-0.39" departSpeed="0.00" departDelay="16.00" arrival="251.00" arrivalLane="end_1" arrivalPos="200.00" arrivalPosLat="-0.10" arrivalSpeed="14.87" duration="182.00" routeLength="494.90" waitSteps="118" timeLoss="152.84" rerouteNo="0" devices="tripinfo_mixed.53" vType="car" speedFactor="1.24" vaporized=""/>
    <tripinfo id="mixed.46" depart="61.00" departLane="beg_1" departPos="2.20" departPosLat="-1.17" departSpeed="0.00" departDelay="15.00" arrival="251.00" arrivalLane="end_0" arrivalPos="200.00" arrivalPosLat="0.72" arrivalSpeed="12.77" duration="190.00" routeLength="497.80" waitSteps="124" timeLoss="151.56" rerouteNo="0" devices="tripinfo_mixed.46" vType="moped" speedFactor="0.95" vaporized=""/>
    <tripinfo id="mixed.52" depart="73.00" departLane="beg_0" departPos="5.10" departPosLat="-0.37" departSpeed="0.00" departDelay="21.00" arrival="253.00" arrivalLane="end_1" arrivalPos="200.00" arrivalPosLat="0.54" arrivalSpeed="14.56" duration="180.00" routeLength="494.90" waitSteps="119" timeLoss="147.21" rerouteNo="0" devices="tripinfo_mixed.52" vType="car" speedFactor="1.11" vaporized=""/>
    <tripinfo id="mixed.23" depart="35.00" departLane="beg_0" departPos="2.20" departPosLat="0.41" departSpeed="0.00" departDelay="12.00" arrival="253.00" arrivalLane="end_0" arrivalPos="200.00" arrivalPosLat="-0.56" arrivalSpeed="13.50" duration="218.00" routeLength="497.80" waitSteps="138" timeLoss="187.67" rerouteNo="0" devices="tripinfo_mixed.23" vType="moped" speedFactor="1.49" vaporized=""/>
    <tripinfo id="mixed.54" depart="83.00" departLane="beg_1" departPos="5.10" departPosLat="0.62" departSpeed="0.00" departDelay="29.00" arrival="254.00" arrivalLane="end_1" arrivalPos="200.00" arrivalPosLat="-0.10" arrivalSpeed="13.88" duration="171.00" routeLength="494.90" waitSteps="117" timeLoss="137.51" rerouteNo="0" devices="tripinfo_mixed.54" vType="car" speedFactor="1.06" vaporized=""/>
    <tripinfo id="mixed.22" depart="39.00" departLane="beg_0" departPos="2.20" departPosLat="-1.08" departSpeed="0.00" departDelay="17.00" arrival="254.00" arrivalLane="end_0" arrivalPos="200.00" arrivalPosLat="0.20" arrivalSpeed="14.01" duration="215.00" routeLength="497.80" waitSteps="136" timeLoss="184.93" rerouteNo="0" devices="tripinfo_mixed.22" vType="moped" speedFactor="1.62" vaporized=""/>
    <tripinfo id="mixed.58" depart="79.00" departLane="beg_1" departPos="5.10" departPosLat="-0.21" departSpeed="0.00" departDelay="21.00" arrival="256.00" arrivalLane="end_1" arrivalPos="200.00" arrivalPosLat="-0.70" arrivalSpeed="13.38" duration="177.00" routeLength="494.90" waitSteps="117" timeLoss="142.26" rerouteNo="0" devices="tripinfo_mixed.58" vType="car" speedFactor="1.03" vaporized=""/>
    <tripinfo id="mixed.30" depart="42.00" departLane="beg_0" departPos="2.20" departPosLat="0.45" departSpeed="0.00" departDelay="12.00" arrival="256.00" arrivalLane="end_0" arrivalPos="200.00" arrivalPosLat="0.72" arrivalSpeed="14.97" duration="214.00" routeLength="497.80" waitSteps="136" timeLoss="181.20" rerouteNo="0" devices="tripinfo_mixed.30" vType="moped" speedFactor="1.12" vaporized=""/>
    <tripinfo id="mixed.65" depart="85.00" departLane="beg_1" departPos="2.20" departPosLat="1.09" departSpeed="0.00" departDelay="20.00" arrival="258.00" arrivalLane="end_1" arrivalPos="200.00" arrivalPosLat="-0.32" arrivalSpeed="15.63" duration="173.00" routeLength="497.80" waitSteps="112" timeLoss="142.57" rerouteNo="0" devices="tripinfo_mixed.65" vType="moped" speedFactor="1.21" vaporized=""/>
    <tripinfo id="mixed.49" depart="65.00" departLane="beg_0" departPos="2.20" departPosLat="0.72" departSpeed="0.00" departDelay="16.00" arrival="259.00" arrivalLane="end_1" arrivalPos="200.00" arrivalPosLat="-1.20" arrivalSpeed="10.78" duration="194.00" routeLength="497.80" waitSteps="120" timeLoss="148.46" rerouteNo="0" devices="tripinfo_mixed.49" vType="moped" speedFactor="0.79" vaporized=""/>
    <tripinfo id="mixed.1" depart="1.00" departLane="beg_1" departPos="2.20" departPosLat="0.22" departSpeed="0.00" departDelay="0.00" arrival="259.00" arrivalLane="end_0" arrivalPos="200.00" arrivalPosLat="-1.20" arrivalSpeed="4.55" duration="258.00" routeLength="497.80" waitSteps="142" timeLoss="157.35" rerouteNo="0" devices="tripinfo_mixed.1" vType="moped" speedFactor="0.36" vaporized=""/>
    <tripinfo id="mixed.62" depart="89.00" departLane="beg_1" departPos="5.10" departPosLat="0.10" departSpeed="0.00" departDelay="27.00" arrival="260.00" arrivalLane="end_1" arrivalPos="200.00" arrivalPosLat="0.70" arrivalSpeed="12.98" duration="171.00" routeLength="494.90" waitSteps="112" timeLoss="135.39" rerouteNo="0" devices="tripinfo_mixed.62" vType="car" speedFactor="1.01" vaporized=""/>
    <tripinfo id="mixed.40" depart="57.00" departLane="beg_1" departPos="2.20" departPosLat="-0.94" departSpeed="0.00" departDelay="17.00" arrival="260.00" arrivalLane="end_0" arrivalPos="200.00" arrivalPosLat="0.72" arrivalSpeed="7.94" duration="203.00" routeLength="497.80" waitSteps="123" timeLoss="141.94" rerouteNo="0" devices="tripinfo_mixed.40" vType="moped" speedFactor="0.60" vaporized=""/>
    <tripinfo id="mixed.45" depart="60.00" departLane="beg_0" departPos="2.20" departPosLat="-0.40" departSpeed="0.00" departDelay="15.00" arrival="261.00" arrivalLane="end_1" arrivalPos="200.00" arrivalPosLat="-1.20" arrivalSpeed="10.83" duration="201.00" routeLength="497.80" waitSteps="126" timeLoss="164.47" rerouteNo="0" devices="tripinfo_mixed.45" vType="moped" speedFactor="0.99" vaporized=""/>
    <tripinfo id="mixed.24" depart="27.00" departLane="beg_1" departPos="2.20" departPosLat="-0.89" departSpeed="0.00" departDelay="3.00" arrival="261.00" arrivalLane="end_0" arrivalPos="200.00" arrivalPosLat="0.92" arrivalSpeed="6.52" duration="234.00" routeLength="497.80" waitSteps="143" timeLoss="197.11" rerouteNo="0" devices="tripinfo_mixed.24" vType="moped" speedFactor="0.98" vaporized=""/>
    <tripinfo id="mixed.74" depart="99.00" departLane="beg_1" departPos="2.20" departPosLat="0.94" departSpeed="0.00" departDelay="25.00" arrival="262.00" arrivalLane="end_1" arrivalPos="200.00" arrivalPosLat="0.68" arrivalSpeed="15.79" duration="163.00" routeLength="497.80" waitSteps="97" timeLoss="132.21" rerouteNo="0" devices="tripinfo_mixed.74" vType="moped" speedFactor="1.29" vaporized=""/>
    <tripinfo id="mixed.81" depart="105.00" departLane="beg_1" departPos="2.20" departPosLat="1.05" departSpeed="0.00" departDelay="24.00" arrival="263.00" arrivalLane="end_1" arrivalPos="200.00" arrivalPosLat="0.68" arrivalSpeed="14.79" duration="158.00" routeLength="497.80" waitSteps="93" timeLoss="124.45" rerouteNo="0" devices="tripinfo_mixed.81" vType="moped" speedFactor="1.08" vaporized=""/>
    <tripinfo id="mixed.75" depart="99.00" departLane="beg_1" departPos="2.20" departPosLat="-0.30" departSpeed="0.00" departDelay="24.00" arrival="264.00" arrivalLane="end_1" arrivalPos="200.00" arrivalPosLat="1.20" arrivalSpeed="15.69" duration="165.00" routeLength="497.80" waitSteps="97" timeLoss="134.92" rerouteNo="0" devices="tripinfo_mixed.75" vType="moped" speedFactor="1.30" vaporized=""/>
    <tripinfo id="mixed.48" depart="63.00" departLane="beg_0" departPos="2.20" departPosLat="-1.12" departSpeed="0.00" departDelay="15.00" arrival="265.00" arrivalLane="end_1" arrivalPos="200.00" arrivalPosLat="-1.20" arrivalSpeed="8.55" duration="202.00" routeLength="497.80" waitSteps="116" timeLoss="144.38" rerouteNo="0" devices="tripinfo_mixed.48" vType="moped" speedFactor="0.63" vaporized=""/>
    <tripinfo id="mixed.34" depart="44.00" departLane="beg_0" departPos="2.20" departPosLat="-1.02" departSpeed="0.00" departDelay="10.00" arrival="265.00" arrivalLane="end_0" arrivalPos="200.00" arrivalPosLat="-1.20" arrivalSpeed="6.70" duration="221.00" routeLength="497.80" waitSteps="129" timeLoss="149.95" rerouteNo="0" devices="tripinfo_mixed.34" vType="moped" speedFactor="0.51" vaporized=""/>
    <tripinfo id="mixed.85" depart="116.00" departLane="beg_1" departPos="2.20" departPosLat="1.03" departSpeed="0.00" departDelay="31.00" arrival="266.00" arrivalLane="end_1" arrivalPos="200.00" arrivalPosLat="1.20" arrivalSpeed="16.16" duration="150.00" routeLength="497.80" waitSteps="91" timeLoss="119.28" rerouteNo="0" devices="tripinfo_mixed.85" vType="moped" speedFactor="1.52" vaporized=""/>
    <tripinfo id="mixed.51" depart="68.00" departLane="beg_0" departPos="2.20" departPosLat="0.72" departSpeed="0.00" departDelay="17.00" arrival="266.00" arrivalLane="end_0" arrivalPos="200.00" arrivalPosLat="0.68" arrivalSpeed="9.56" duration="198.00" routeLength="497.80" waitSteps="115" timeLoss="146.92" rerouteNo="0" devices="tripinfo_mixed.51" vType="moped" speedFactor="0.71" vaporized=""/>
    <tripinfo id="mixed.56" depart="80.00" departLane="beg_0" departPos="5.10" departPosLat="-0.44" departSpeed="0.00" departDelay="24.00" arrival="267.00" arrivalLane="end_1" arrivalPos="200.00" arrivalPosLat="-0.64" arrivalSpeed="12.88" duration="187.00" routeLength="494.90" waitSteps="118" timeLoss="155.97" rerouteNo="0" devices="tripinfo_mixed.56" vType="car" speedFactor="1.17" vaporized=""/>
    <tripinfo id="mixed.78" depart="106.00" departLane="beg_0" departPos="2.20" departPosLat="0.95" departSpeed="0.00" departDelay="28.00" arrival="267.00" arrivalLane="end_1" arrivalPos="200.00" arrivalPosLat="1.20" arrivalSpeed="16.39" duration="161.00" routeLength="497.80" waitSteps="99" timeLoss="130.65" rerouteNo="0" devices="tripinfo_mixed.78" vType="moped" speedFactor="1.26" vaporized=""/>
    <tripinfo id="mixed.50" depart="72.00" departLane="beg_1" departPos="5.10" departPosLat="-0.06" departSpeed="0.00" departDelay="22.00" arrival="267.00" arrivalLane="end_0" arrivalPos="200.00" arrivalPosLat="0.58" arrivalSpeed="12.02" duration="195.00" routeLength="494.90" waitSteps="118" timeLoss="160.82" rerouteNo="0" devices="tripinfo_mixed.50" vType="car" speedFactor="1.04" vaporized=""/>
    <tripinfo id="mixed.61" depart="82.00" departLane="beg_1" departPos="2.20" departPosLat="-0.81" departSpeed="0.00" departDelay="21.00" arrival="269.00" arrivalLane="end_1" arrivalPos="200.00" arrivalPosLat="-0.08" arrivalSpeed="11.01" duration="187.00" routeLength="497.80" waitSteps="114" timeLoss="147.19" rerouteNo="0" devices="tripinfo_mixed.61" vType="moped" speedFactor="0.92" vaporized=""/>
    <tripinfo id="mixed.71" depart="100.00" departLane="beg_0" departPos="2.20" departPosLat="1.09" departSpeed="0.00" departDelay="29.00" arrival="269.00" arrivalLane="end_1" arrivalPos="200.00" arrivalPosLat="-1.36" arrivalSpeed="11.61" duration="169.00" routeLength="497.80" waitSteps="102" timeLoss="138.96" rerouteNo="0" devices="tripinfo_mixed.71" vType="moped" speedFactor="1.58" vaporized=""/>
    <tripinfo id="mixed.59" depart="84.00" departLane="beg_0" departPos="2.20" departPosLat="-0.51" departSpeed="0.00" departDelay="25.00" arrival="269.00" arrivalLane="end_1" arrivalPos="200.00" arrivalPosLat="0.72" arrivalSpeed="12.39" duration="185.00" routeLength="497.80" waitSteps="114" timeLoss="155.05" rerouteNo="0" devices="tripinfo_mixed.59" vType="moped" speedFactor="1.33" vaporized=""/>
    <tripinfo id="mixed.2" depart="2.00" departLane="beg_0" departPos="2.20" departPosLat="0.11" departSpeed="0.00" departDelay="0.00" arrival="269.00" arrivalLane="end_0" arrivalPos="200.00" arrivalPosLat="-1.20" arrivalSpeed="4.18" duration="267.00" routeLength="497.80" waitSteps="139" timeLoss="156.19" rerouteNo="0" devices="tripinfo_mixed.2" vType="moped" speedFactor="0.32" vaporized=""/>
    <tripinfo id="mixed.63" depart="88.00" departLane="beg_0" departPos="2.20" departPosLat="0.92" departSpeed="0.00" departDelay="25.00" arrival="271.00" arrivalLane="end_1" arrivalPos="200.00" arrivalPosLat="-1.60" arrivalSpeed="10.35" duration="183.00" routeLength="497.80" waitSteps="109" timeLoss="135.89" rerouteNo="0" devices="tripinfo_mixed.63" vType="moped" speedFactor="0.77" vaporized=""/>
    <tripinfo id="mixed.60" depart="85.00" departLane="beg_1" departPos="2.20" departPosLat="-0.94" departSpeed="0.00" departDelay="25.00" arrival="271.00" arrivalLane="end_1" arrivalPos="200.00" arrivalPosLat="0.04" arrivalSpeed="12.45" duration="186.00" routeLength="497.80" waitSteps="114" timeLoss="145.77" rerouteNo="0" devices="tripinfo_mixed.60" vType="moped" speedFactor="0.90" vaporized=""/>
    <tripinfo id="mixed.55" depart="75.00" departLane="beg_1" departPos="2.20" departPosLat="0.89" departSpeed="0.00" departDelay="20.00" arrival="271.00" arrivalLane="end_0" arrivalPos="200.00" arrivalPosLat="0.56" arrivalSpeed="7.33" duration="196.00" routeLength="497.80" waitSteps="116" timeLoss="142.13" rerouteNo="0" devices="tripinfo_mixed.55" vType="moped" speedFactor="0.67" vaporized=""/>
    <tripinfo id="mixed.68" depart="94.00" departLane="beg_0" departPos="5.10" departPosLat="0.67" departSpeed="0.00" departDelay="26.00" arrival="273.00" arrivalLane="end_1" arrivalPos="200.00" arrivalPosLat="-0.06" arrivalSpeed="10.80" duration="179.00" routeLength="494.90" waitSteps="105" timeLoss="134.74" rerouteNo="0" devices="tripinfo_mixed.68" vType="car" speedFactor="0.81" vaporized=""/>
    <tripinfo id="mixed.66" depart="88.00" departLane="beg_0" departPos="2.20" departPosLat="-0.67" departSpeed="0.00" departDelay="22.00" arrival="273.00" arrivalLane="end_0" arrivalPos="200.00" arrivalPosLat="1.24" arrivalSpeed="13.47" duration="185.00" routeLength="497.80" waitSteps="110" timeLoss="154.99" rerouteNo="0" devices="tripinfo_mixed.66" vType="moped" speedFactor="1.23" vaporized=""/>
    <tripinfo id="mixed.70" depart="95.00" departLane="beg_1" departPos="2.20" departPosLat="-0.42" departSpeed="0.00" departDelay="25.00" arrival="275.00" arrivalLane="end_1" arrivalPos="200.00" arrivalPosLat="-0.56" arrivalSpeed="11.57" duration="180.00" routeLength="497.80" waitSteps="104" timeLoss="149.61" rerouteNo="0" devices="tripinfo_mixed.70" vType="moped" speedFactor="1.39" vaporized=""/>