<?xml version="1.0" encoding="UTF-8"?>

<!-- generated on 2025-02-13 09:09:35 by Eclipse SUMO sumo Version v1_22_0+0197-345c6419242
This data file and the accompanying materials
are made available under the terms of the Eclipse Public License v2.0
which accompanies this distribution, and is available at
http://www.eclipse.org/legal/epl-v20.html
This file may also be made available under the following Secondary
Licenses when the conditions for such availability set forth in the Eclipse
Public License 2.0 are satisfied: GNU General Public License, version 2
or later which is available at
https://www.gnu.org/licenses/old-licenses/gpl-2.0-standalone.html
SPDX-License-Identifier: EPL-2.0 OR GPL-2.0-or-later
<sumoConfiguration xmlns:xsi="http://www.w3.org/2001/XMLSchema-instance" xsi:noNamespaceSchemaLocation="http://sumo.dlr.de/xsd/sumoConfiguration.xsd">

    <input>
        <net-file value="net.net.xml"/>
        <route-files value="routes.rou.xml"/>
    </input>

    <output>
        <write-license value="true"/>
        <netstate-dump value="netstate_dump.xml"/>
    </output>

    <report>
        <xml-validation value="never"/>
        <no-step-log value="true"/>
    </report>

    <traci_server>
        <remote-port value="46707"/>
    </traci_server>

</sumoConfiguration>
-->

<netstate xmlns:xsi="http://www.w3.org/2001/XMLSchema-instance" xsi:noNamespaceSchemaLocation="http://sumo.dlr.de/xsd/netstate_file.xsd">
    <timestep time="0.00">
        <edge id="e_m0">
            <lane id="e_m0_0">
                <vehicle id="veh0" pos="0.00" speed="0.00"/>
            </lane>
            <lane id="e_m0_1"/>
            <lane id="e_m0_2"/>
        </edge>
    </timestep>
    <timestep time="1.00">
        <edge id="e_m0">
            <lane id="e_m0_0">
                <vehicle id="veh0" pos="0.80" speed="0.80"/>
            </lane>
            <lane id="e_m0_1"/>
            <lane id="e_m0_2"/>
        </edge>
    </timestep>
    <timestep time="2.00">
        <edge id="e_m0">
            <lane id="e_m0_0">
                <vehicle id="veh0" pos="2.40" speed="1.60"/>
            </lane>
            <lane id="e_m0_1"/>
            <lane id="e_m0_2"/>
        </edge>
    </timestep>
    <timestep time="3.00">
        <edge id="e_m0">
            <lane id="e_m0_0">
                <vehicle id="veh0" pos="4.80" speed="2.40"/>
            </lane>
            <lane id="e_m0_1"/>
            <lane id="e_m0_2"/>
        </edge>
    </timestep>
    <timestep time="4.00">
        <edge id="e_m0">
            <lane id="e_m0_0">
                <vehicle id="veh0" pos="8.00" speed="3.20"/>
            </lane>
            <lane id="e_m0_1"/>
            <lane id="e_m0_2"/>
        </edge>
    </timestep>
    <timestep time="5.00">
        <edge id="e_m0">
            <lane id="e_m0_0">
                <vehicle id="veh0" pos="12.00" speed="4.00"/>
            </lane>
            <lane id="e_m0_1"/>
            <lane id="e_m0_2"/>
        </edge>
    </timestep>
    <timestep time="6.00">
        <edge id="e_m0">
            <lane id="e_m0_0">
                <vehicle id="veh0" pos="16.80" speed="4.80"/>
            </lane>
            <lane id="e_m0_1"/>
            <lane id="e_m0_2"/>
        </edge>
    </timestep>
    <timestep time="7.00">
        <edge id="e_m0">
            <lane id="e_m0_0">
                <vehicle id="veh0" pos="22.40" speed="5.60"/>
            </lane>
            <lane id="e_m0_1"/>
            <lane id="e_m0_2"/>
        </edge>
    </timestep>
    <timestep time="8.00">
        <edge id="e_m0">
            <lane id="e_m0_0">
                <vehicle id="veh0" pos="28.80" speed="6.40"/>
            </lane>
            <lane id="e_m0_1"/>
            <lane id="e_m0_2"/>
        </edge>
    </timestep>
    <timestep time="9.00">
        <edge id="e_m0">
            <lane id="e_m0_0">
                <vehicle id="veh0" pos="36.00" speed="7.20"/>
            </lane>
            <lane id="e_m0_1"/>
            <lane id="e_m0_2"/>
        </edge>
    </timestep>
    <timestep time="10.00">
        <edge id="e_m0">
            <lane id="e_m0_0">
                <vehicle id="veh0" pos="44.00" speed="8.00"/>
            </lane>
            <lane id="e_m0_1"/>
            <lane id="e_m0_2"/>
        </edge>
    </timestep>
    <timestep time="11.00">
        <edge id="e_m0">
            <lane id="e_m0_0">
                <vehicle id="veh0" pos="52.80" speed="8.80"/>
            </lane>
            <lane id="e_m0_1"/>
            <lane id="e_m0_2"/>
        </edge>
    </timestep>
    <timestep time="12.00">
        <edge id="e_m0">
            <lane id="e_m0_0">
                <vehicle id="veh0" pos="62.40" speed="9.60"/>
            </lane>
            <lane id="e_m0_1"/>
            <lane id="e_m0_2"/>
        </edge>
    </timestep>
    <timestep time="13.00">
        <edge id="e_m0">
            <lane id="e_m0_0">
                <vehicle id="veh0" pos="72.80" speed="10.40"/>
            </lane>
            <lane id="e_m0_1"/>
            <lane id="e_m0_2"/>
        </edge>
    </timestep>
    <timestep time="14.00">
        <edge id="e_m0">
            <lane id="e_m0_0">
                <vehicle id="veh0" pos="84.00" speed="11.20"/>
            </lane>
            <lane id="e_m0_1"/>
            <lane id="e_m0_2"/>
        </edge>
    </timestep>
    <timestep time="15.00">
        <edge id="e_m0">
            <lane id="e_m0_0">
                <vehicle id="veh0" pos="96.00" speed="12.00"/>
            </lane>
            <lane id="e_m0_1"/>
            <lane id="e_m0_2"/>
        </edge>
    </timestep>
    <timestep time="16.00">
        <edge id="e_m0">
            <lane id="e_m0_0">
                <vehicle id="veh0" pos="108.80" speed="12.80"/>
            </lane>
            <lane id="e_m0_1"/>
            <lane id="e_m0_2"/>
        </edge>
    </timestep>
    <timestep time="17.00">
        <edge id="e_m0">
            <lane id="e_m0_0">
                <vehicle id="veh0" pos="122.40" speed="13.60"/>
            </lane>
            <lane id="e_m0_1"/>
            <lane id="e_m0_2"/>
        </edge>
    </timestep>
    <timestep time="18.00">
        <edge id="e_m0">
            <lane id="e_m0_0">
                <vehicle id="veh0" pos="136.80" speed="14.40"/>
            </lane>
            <lane id="e_m0_1"/>
            <lane id="e_m0_2"/>
        </edge>
    </timestep>
    <timestep time="19.00">
        <edge id="e_m0">
            <lane id="e_m0_0">
                <vehicle id="veh0" pos="152.00" speed="15.20"/>
            </lane>
            <lane id="e_m0_1"/>
            <lane id="e_m0_2"/>
        </edge>
    </timestep>
    <timestep time="20.00">
        <edge id="e_m0">
            <lane id="e_m0_0">
                <vehicle id="veh0" pos="168.00" speed="16.00"/>
            </lane>
            <lane id="e_m0_1"/>
            <lane id="e_m0_2"/>
        </edge>
    </timestep>
    <timestep time="21.00">
        <edge id="e_m0">
            <lane id="e_m0_0">
                <vehicle id="veh0" pos="184.80" speed="16.80"/>
            </lane>
            <lane id="e_m0_1"/>
            <lane id="e_m0_2"/>
        </edge>
    </timestep>
    <timestep time="22.00">
        <edge id="e_m0">
            <lane id="e_m0_0">
                <vehicle id="veh0" pos="202.40" speed="17.60"/>
            </lane>
            <lane id="e_m0_1"/>
            <lane id="e_m0_2"/>
        </edge>
    </timestep>
    <timestep time="23.00">
        <edge id="e_m0">
            <lane id="e_m0_0">
                <vehicle id="veh0" pos="220.80" speed="18.40"/>
            </lane>
            <lane id="e_m0_1"/>
            <lane id="e_m0_2"/>
        </edge>
    </timestep>
    <timestep time="24.00">
        <edge id="e_m0">
            <lane id="e_m0_0">
                <vehicle id="veh0" pos="240.00" speed="19.20"/>
            </lane>
            <lane id="e_m0_1"/>
            <lane id="e_m0_2"/>
        </edge>
    </timestep>
    <timestep time="25.00">
        <edge id="e_m0">
            <lane id="e_m0_0">
                <vehicle id="veh0" pos="258.49" speed="18.49"/>
            </lane>
            <lane id="e_m0_1"/>
            <lane id="e_m0_2"/>
        </edge>
    </timestep>
    <timestep time="26.00">
        <edge id="e_m0">
            <lane id="e_m0_0">
                <vehicle id="veh0" pos="276.27" speed="17.78"/>
            </lane>
            <lane id="e_m0_1"/>
            <lane id="e_m0_2"/>
        </edge>
    </timestep>
    <timestep time="27.00">
        <edge id="e_m0">
            <lane id="e_m0_0">
                <vehicle id="veh0" pos="293.34" speed="17.07"/>
            </lane>
            <lane id="e_m0_1"/>
            <lane id="e_m0_2"/>
        </edge>
    </timestep>
    <timestep time="28.00">
        <edge id="e_m0">
            <lane id="e_m0_0">
                <vehicle id="veh0" pos="309.70" speed="16.36"/>
            </lane>
            <lane id="e_m0_1"/>
            <lane id="e_m0_2"/>
        </edge>
    </timestep>
    <timestep time="29.00">
        <edge id="e_m0">
            <lane id="e_m0_0">
                <vehicle id="veh0" pos="325.35" speed="15.65"/>
            </lane>
            <lane id="e_m0_1"/>
            <lane id="e_m0_2"/>
        </edge>
    </timestep>
    <timestep time="30.00">
        <edge id="e_m0">
            <lane id="e_m0_0">
                <vehicle id="veh0" pos="340.29" speed="14.94"/>
            </lane>
            <lane id="e_m0_1"/>
            <lane id="e_m0_2"/>
        </edge>
    </timestep>
    <timestep time="31.00">
        <edge id="e_m0">
            <lane id="e_m0_0">
                <vehicle id="veh0" pos="354.52" speed="14.23"/>
            </lane>
            <lane id="e_m0_1"/>
            <lane id="e_m0_2"/>
        </edge>
    </timestep>
    <timestep time="32.00">
        <edge id="e_m0">
            <lane id="e_m0_0">
                <vehicle id="veh0" pos="368.04" speed="13.52"/>
            </lane>
            <lane id="e_m0_1"/>
            <lane id="e_m0_2"/>
        </edge>
    </timestep>
    <timestep time="33.00">
        <edge id="e_m0">
            <lane id="e_m0_0">
                <vehicle id="veh0" pos="380.85" speed="12.81"/>
            </lane>
            <lane id="e_m0_1"/>
            <lane id="e_m0_2"/>
        </edge>
    </timestep>
    <timestep time="34.00">
        <edge id="e_m0">
            <lane id="e_m0_0">
                <vehicle id="veh0" pos="392.95" speed="12.10"/>
            </lane>
            <lane id="e_m0_1"/>
            <lane id="e_m0_2"/>
        </edge>
    </timestep>
    <timestep time="35.00">
        <edge id="e_m0">
            <lane id="e_m0_0">
                <vehicle id="veh0" pos="404.34" speed="11.39"/>
            </lane>
            <lane id="e_m0_1"/>
            <lane id="e_m0_2"/>
        </edge>
    </timestep>
    <timestep time="36.00">
        <edge id="e_m0">
            <lane id="e_m0_0">
                <vehicle id="veh0" pos="415.02" speed="10.68"/>
            </lane>
            <lane id="e_m0_1"/>
            <lane id="e_m0_2"/>
        </edge>
    </timestep>
    <timestep time="37.00">
        <edge id="e_m0">
            <lane id="e_m0_0">
                <vehicle id="veh0" pos="424.99" speed="9.97"/>
            </lane>
            <lane id="e_m0_1"/>
            <lane id="e_m0_2"/>
        </edge>
    </timestep>
    <timestep time="38.00">
        <edge id="e_m0">
            <lane id="e_m0_0">
                <vehicle id="veh0" pos="434.25" speed="9.26"/>
            </lane>
            <lane id="e_m0_1"/>
            <lane id="e_m0_2"/>
        </edge>
    </timestep>
    <timestep time="39.00">
        <edge id="e_m0">
            <lane id="e_m0_0">
                <vehicle id="veh0" pos="442.80" speed="8.55"/>
            </lane>
            <lane id="e_m0_1"/>
            <lane id="e_m0_2"/>
        </edge>
    </timestep>
    <timestep time="40.00">
        <edge id="e_m0">
            <lane id="e_m0_0">
                <vehicle id="veh0" pos="450.64" speed="7.84"/>
            </lane>
            <lane id="e_m0_1"/>
            <lane id="e_m0_2"/>
        </edge>
    </timestep>
    <timestep time="41.00">
        <edge id="e_m0">
            <lane id="e_m0_0">
                <vehicle id="veh0" pos="457.77" speed="7.13"/>
            </lane>
            <lane id="e_m0_1"/>
            <lane id="e_m0_2"/>
        </edge>
    </timestep>
    <timestep time="42.00">
        <edge id="e_m0">
            <lane id="e_m0_0">
                <vehicle id="veh0" pos="464.19" speed="6.42"/>
            </lane>
            <lane id="e_m0_1"/>
            <lane id="e_m0_2"/>
        </edge>
    </timestep>
    <timestep time="43.00">
        <edge id="e_m0">
            <lane id="e_m0_0">
                <vehicle id="veh0" pos="469.90" speed="5.71"/>
            </lane>
            <lane id="e_m0_1"/>
            <lane id="e_m0_2"/>
        </edge>
    </timestep>
    <timestep time="44.00">
        <edge id="e_m0">
            <lane id="e_m0_0">
                <vehicle id="veh0" pos="474.90" speed="5.00"/>
            </lane>
            <lane id="e_m0_1"/>
            <lane id="e_m0_2"/>
        </edge>
    </timestep>
    <timestep time="45.00">
        <edge id="e_m0">
            <lane id="e_m0_0">
                <vehicle id="veh0" pos="479.19" speed="4.29"/>
            </lane>
            <lane id="e_m0_1"/>
            <lane id="e_m0_2"/>
        </edge>
    </timestep>
    <timestep time="46.00">
        <edge id="e_m0">
            <lane id="e_m0_0">
                <vehicle id="veh0" pos="484.28" speed="5.09"/>
            </lane>
            <lane id="e_m0_1"/>
            <lane id="e_m0_2"/>
        </edge>
    </timestep>
    <timestep time="47.00">
        <edge id="e_m0">
            <lane id="e_m0_0">
                <vehicle id="veh0" pos="490.17" speed="5.89"/>
            </lane>
            <lane id="e_m0_1"/>
            <lane id="e_m0_2"/>
        </edge>
    </timestep>
    <timestep time="48.00">
        <edge id="e_m0">
            <lane id="e_m0_0">
                <vehicle id="veh0" pos="496.86" speed="6.69"/>
            </lane>
            <lane id="e_m0_1"/>
            <lane id="e_m0_2"/>
        </edge>
    </timestep>
    <timestep time="49.00">
        <edge id="e_m1">
            <lane id="e_m1_0">
                <vehicle id="veh0" pos="4.35" speed="7.49"/>
            </lane>
            <lane id="e_m1_1"/>
            <lane id="e_m1_2"/>
        </edge>
    </timestep>
    <timestep time="50.00">
        <edge id="e_m1">
            <lane id="e_m1_0">
                <vehicle id="veh0" pos="11.99" speed="7.64"/>
            </lane>
            <lane id="e_m1_1"/>
            <lane id="e_m1_2"/>
        </edge>
    </timestep>
    <timestep time="51.00">
        <edge id="e_m1">
            <lane id="e_m1_0">
                <vehicle id="veh0" pos="19.78" speed="7.79"/>
            </lane>
            <lane id="e_m1_1"/>
            <lane id="e_m1_2"/>
        </edge>
    </timestep>
    <timestep time="52.00">
        <edge id="e_m1">
            <lane id="e_m1_0">
                <vehicle id="veh0" pos="27.72" speed="7.94"/>
            </lane>
            <lane id="e_m1_1"/>
            <lane id="e_m1_2"/>
        </edge>
    </timestep>
    <timestep time="53.00">
        <edge id="e_m1">
            <lane id="e_m1_0">
                <vehicle id="veh0" pos="35.82" speed="8.09"/>
            </lane>
            <lane id="e_m1_1"/>
            <lane id="e_m1_2"/>
        </edge>
    </timestep>
    <timestep time="54.00">
        <edge id="e_m1">
            <lane id="e_m1_0">
                <vehicle id="veh0" pos="44.06" speed="8.24"/>
            </lane>
            <lane id="e_m1_1"/>
            <lane id="e_m1_2"/>
        </edge>
    </timestep>
    <timestep time="55.00">
        <edge id="e_m1">
            <lane id="e_m1_0">
                <vehicle id="veh0" pos="52.45" speed="8.39"/>
            </lane>
            <lane id="e_m1_1"/>
            <lane id="e_m1_2"/>
        </edge>
    </timestep>
    <timestep time="56.00">
        <edge id="e_m1">
            <lane id="e_m1_0">
                <vehicle id="veh0" pos="60.99" speed="8.54"/>
            </lane>
            <lane id="e_m1_1"/>
            <lane id="e_m1_2"/>
        </edge>
    </timestep>
    <timestep time="57.00">
        <edge id="e_m1">
            <lane id="e_m1_0">
                <vehicle id="veh0" pos="69.69" speed="8.69"/>
            </lane>
            <lane id="e_m1_1"/>
            <lane id="e_m1_2"/>
        </edge>
    </timestep>
    <timestep time="58.00">
        <edge id="e_m1">
            <lane id="e_m1_0">
                <vehicle id="veh0" pos="78.53" speed="8.84"/>
            </lane>
            <lane id="e_m1_1"/>
            <lane id="e_m1_2"/>
        </edge>
    </timestep>
    <timestep time="59.00">
        <edge id="e_m1">
            <lane id="e_m1_0">
                <vehicle id="veh0" pos="87.53" speed="8.99"/>
            </lane>
            <lane id="e_m1_1"/>
            <lane id="e_m1_2"/>
        </edge>
    </timestep>
    <timestep time="60.00">
        <edge id="e_m1">
            <lane id="e_m1_0">
                <vehicle id="veh0" pos="96.67" speed="9.15"/>
            </lane>
            <lane id="e_m1_1"/>
            <lane id="e_m1_2"/>
        </edge>
    </timestep>
    <timestep time="61.00">
        <edge id="e_m1">
            <lane id="e_m1_0">
                <vehicle id="veh0" pos="105.97" speed="9.30"/>
            </lane>
            <lane id="e_m1_1"/>
            <lane id="e_m1_2"/>
        </edge>
    </timestep>
    <timestep time="62.00">
        <edge id="e_m1">
            <lane id="e_m1_0">
                <vehicle id="veh0" pos="115.42" speed="9.45"/>
            </lane>
            <lane id="e_m1_1"/>
            <lane id="e_m1_2"/>
        </edge>
    </timestep>
    <timestep time="63.00">
        <edge id="e_m1">
            <lane id="e_m1_0">
                <vehicle id="veh0" pos="125.01" speed="9.60"/>
            </lane>
            <lane id="e_m1_1"/>
            <lane id="e_m1_2"/>
        </edge>
    </timestep>
    <timestep time="64.00">
        <edge id="e_m1">
            <lane id="e_m1_0">
                <vehicle id="veh0" pos="134.76" speed="9.75"/>
            </lane>
            <lane id="e_m1_1"/>
            <lane id="e_m1_2"/>
        </edge>
    </timestep>
    <timestep time="65.00">
        <edge id="e_m1">
            <lane id="e_m1_0">
                <vehicle id="veh0" pos="144.66" speed="9.90"/>
            </lane>
            <lane id="e_m1_1"/>
            <lane id="e_m1_2"/>
        </edge>
    </timestep>
    <timestep time="66.00">
        <edge id="e_m1">
            <lane id="e_m1_0">
                <vehicle id="veh0" pos="154.71" speed="10.05"/>
            </lane>
            <lane id="e_m1_1"/>
            <lane id="e_m1_2"/>
        </edge>
    </timestep>
    <timestep time="67.00">
        <edge id="e_m1">
            <lane id="e_m1_0">
                <vehicle id="veh0" pos="164.91" speed="10.20"/>
            </lane>
            <lane id="e_m1_1"/>
            <lane id="e_m1_2"/>
        </edge>
    </timestep>
    <timestep time="68.00">
        <edge id="e_m1">
            <lane id="e_m1_0">
                <vehicle id="veh0" pos="175.26" speed="10.35"/>
            </lane>
            <lane id="e_m1_1"/>
            <lane id="e_m1_2"/>
        </edge>
    </timestep>
    <timestep time="69.00">
        <edge id="e_m1">
            <lane id="e_m1_0">
                <vehicle id="veh0" pos="185.76" speed="10.50"/>
            </lane>
            <lane id="e_m1_1"/>
            <lane id="e_m1_2"/>
        </edge>
    </timestep>
    <timestep time="70.00">
        <edge id="e_m1">
            <lane id="e_m1_0">
                <vehicle id="veh0" pos="196.41" speed="10.65"/>
            </lane>
            <lane id="e_m1_1"/>
            <lane id="e_m1_2"/>
        </edge>
    </timestep>
    <timestep time="71.00">
        <edge id="e_m1">
            <lane id="e_m1_0">
                <vehicle id="veh0" pos="207.86" speed="11.45"/>
            </lane>
            <lane id="e_m1_1"/>
            <lane id="e_m1_2"/>
        </edge>
    </timestep>
    <timestep time="72.00">
        <edge id="e_m1">
            <lane id="e_m1_0">
                <vehicle id="veh0" pos="220.11" speed="12.25"/>
            </lane>
            <lane id="e_m1_1"/>
            <lane id="e_m1_2"/>
        </edge>
    </timestep>
    <timestep time="73.00">
        <edge id="e_m1">
            <lane id="e_m1_0">
                <vehicle id="veh0" pos="233.16" speed="13.05"/>
            </lane>
            <lane id="e_m1_1"/>
            <lane id="e_m1_2"/>
        </edge>
    </timestep>
    <timestep time="74.00">
        <edge id="e_m1">
            <lane id="e_m1_0">
                <vehicle id="veh0" pos="247.01" speed="13.85"/>
            </lane>
            <lane id="e_m1_1"/>
            <lane id="e_m1_2"/>
        </edge>
    </timestep>
    <timestep time="75.00">
        <edge id="e_m1">
            <lane id="e_m1_0">
                <vehicle id="veh0" pos="261.66" speed="14.65"/>
            </lane>
            <lane id="e_m1_1"/>
            <lane id="e_m1_2"/>
        </edge>
    </timestep>
    <timestep time="76.00">
        <edge id="e_m1">
            <lane id="e_m1_0">
                <vehicle id="veh0" pos="277.11" speed="15.45"/>
            </lane>
            <lane id="e_m1_1"/>
            <lane id="e_m1_2"/>
        </edge>
    </timestep>
    <timestep time="77.00">
        <edge id="e_m1">
            <lane id="e_m1_0">
                <vehicle id="veh0" pos="293.36" speed="16.25"/>
            </lane>
            <lane id="e_m1_1"/>
            <lane id="e_m1_2"/>
        </edge>
    </timestep>
    <timestep time="78.00">
        <edge id="e_m1">
            <lane id="e_m1_0">
                <vehicle id="veh0" pos="310.41" speed="17.05"/>
            </lane>
            <lane id="e_m1_1"/>
            <lane id="e_m1_2"/>
        </edge>
    </timestep>
    <timestep time="79.00">
        <edge id="e_m1">
            <lane id="e_m1_0">
                <vehicle id="veh0" pos="328.26" speed="17.85"/>
            </lane>
            <lane id="e_m1_1"/>
            <lane id="e_m1_2"/>
        </edge>
    </timestep>
    <timestep time="80.00">
        <edge id="e_m1">
            <lane id="e_m1_0">
                <vehicle id="veh0" pos="346.91" speed="18.65"/>
            </lane>
            <lane id="e_m1_1"/>
            <lane id="e_m1_2"/>
        </edge>
    </timestep>
    <timestep time="81.00">
        <edge id="e_m1">
            <lane id="e_m1_0">
                <vehicle id="veh0" pos="366.36" speed="19.45"/>
            </lane>
            <lane id="e_m1_1"/>
            <lane id="e_m1_2"/>
        </edge>
    </timestep>
    <timestep time="82.00">
        <edge id="e_m1">
            <lane id="e_m1_0">
                <vehicle id="veh0" pos="386.61" speed="20.25"/>
            </lane>
            <lane id="e_m1_1"/>
            <lane id="e_m1_2"/>
        </edge>
    </timestep>
    <timestep time="83.00">
        <edge id="e_m1">
            <lane id="e_m1_0">
                <vehicle id="veh0" pos="407.66" speed="21.05"/>
            </lane>
            <lane id="e_m1_1"/>
            <lane id="e_m1_2"/>
        </edge>
    </timestep>
    <timestep time="84.00">
        <edge id="e_m1">
            <lane id="e_m1_0">
                <vehicle id="veh0" pos="429.51" speed="21.85"/>
            </lane>
            <lane id="e_m1_1"/>
            <lane id="e_m1_2"/>
        </edge>
    </timestep>
    <timestep time="85.00">
        <edge id="e_m1">
            <lane id="e_m1_0">
                <vehicle id="veh0" pos="452.16" speed="22.65"/>
            </lane>
            <lane id="e_m1_1"/>
            <lane id="e_m1_2"/>
        </edge>
    </timestep>
    <timestep time="86.00">
        <edge id="e_m1">
            <lane id="e_m1_0">
                <vehicle id="veh0" pos="475.61" speed="23.45"/>
            </lane>
            <lane id="e_m1_1"/>
            <lane id="e_m1_2"/>
        </edge>
    </timestep>
    <timestep time="87.00">
        <edge id="e_m1">
            <lane id="e_m1_0">
                <vehicle id="veh0" pos="499.86" speed="24.25"/>
            </lane>
            <lane id="e_m1_1"/>
            <lane id="e_m1_2"/>
        </edge>
    </timestep>
    <timestep time="88.00">
        <edge id="e_m2">
            <lane id="e_m2_0">
                <vehicle id="veh0" pos="24.91" speed="25.05"/>
            </lane>
            <lane id="e_m2_1"/>
            <lane id="e_m2_2"/>
        </edge>
    </timestep>
    <timestep time="89.00">
        <edge id="e_m2">
            <lane id="e_m2_0">
                <vehicle id="veh0" pos="50.77" speed="25.85"/>
            </lane>
            <lane id="e_m2_1"/>
            <lane id="e_m2_2"/>
        </edge>
    </timestep>
    <timestep time="90.00">
        <edge id="e_m2">
            <lane id="e_m2_0">
                <vehicle id="veh0" pos="77.42" speed="26.65"/>
            </lane>
            <lane id="e_m2_1"/>
            <lane id="e_m2_2"/>
        </edge>
    </timestep>
    <timestep time="91.00">
        <edge id="e_m2">
            <lane id="e_m2_0">
                <vehicle id="veh0" pos="104.87" speed="27.45"/>
            </lane>
            <lane id="e_m2_1"/>
            <lane id="e_m2_2"/>
        </edge>
    </timestep>
    <timestep time="92.00">
        <edge id="e_m2">
            <lane id="e_m2_0">
                <vehicle id="veh0" pos="133.12" speed="28.25"/>
            </lane>
            <lane id="e_m2_1"/>
            <lane id="e_m2_2"/>
        </edge>
    </timestep>
    <timestep time="93.00">
        <edge id="e_m2">
            <lane id="e_m2_0">
                <vehicle id="veh0" pos="162.17" speed="29.05"/>
            </lane>
            <lane id="e_m2_1"/>
            <lane id="e_m2_2"/>
        </edge>
    </timestep>
    <timestep time="94.00">
        <edge id="e_m2">
            <lane id="e_m2_0">
                <vehicle id="veh0" pos="192.02" speed="29.85"/>
            </lane>
            <lane id="e_m2_1"/>
            <lane id="e_m2_2"/>
        </edge>
    </timestep>
    <timestep time="95.00">
        <edge id="e_m2">
            <lane id="e_m2_0">
                <vehicle id="veh0" pos="222.67" speed="30.65"/>
            </lane>
            <lane id="e_m2_1"/>
            <lane id="e_m2_2"/>
        </edge>
    </timestep>
    <timestep time="96.00">
        <edge id="e_m2">
            <lane id="e_m2_0">
                <vehicle id="veh0" pos="254.12" speed="31.45"/>
            </lane>
            <lane id="e_m2_1"/>
            <lane id="e_m2_2"/>
        </edge>
    </timestep>
    <timestep time="97.00">
        <edge id="e_m2">
            <lane id="e_m2_0">
                <vehicle id="veh0" pos="286.37" speed="32.25"/>
            </lane>
            <lane id="e_m2_1"/>
            <lane id="e_m2_2"/>
        </edge>
    </timestep>
    <timestep time="98.00">
        <edge id="e_m2">
            <lane id="e_m2_0">
                <vehicle id="veh0" pos="319.42" speed="33.05"/>
            </lane>
            <lane id="e_m2_1"/>
            <lane id="e_m2_2"/>
        </edge>
    </timestep>
    <timestep time="99.00">
        <edge id="e_m2">
            <lane id="e_m2_0">
                <vehicle id="veh0" pos="353.27" speed="33.85"/>
            </lane>
            <lane id="e_m2_1"/>
            <lane id="e_m2_2"/>
        </edge>
    </timestep>
    <timestep time="100.00">
        <edge id="e_m2">
            <lane id="e_m2_0">
                <vehicle id="veh0" pos="383.74" speed="30.47"/>
            </lane>
            <lane id="e_m2_1"/>
            <lane id="e_m2_2"/>
        </edge>
    </timestep>
    <timestep time="101.00">
        <edge id="e_m2">
            <lane id="e_m2_0">
                <vehicle id="veh0" pos="410.82" speed="27.08"/>
            </lane>
            <lane id="e_m2_1"/>
            <lane id="e_m2_2"/>
        </edge>
    </timestep>
    <timestep time="102.00">
        <edge id="e_m2">
            <lane id="e_m2_0">
                <vehicle id="veh0" pos="434.51" speed="23.70"/>
            </lane>
            <lane id="e_m2_1"/>
            <lane id="e_m2_2"/>
        </edge>
    </timestep>
    <timestep time="103.00">
        <edge id="e_m2">
            <lane id="e_m2_0">
                <vehicle id="veh0" pos="454.82" speed="20.31"/>
            </lane>
            <lane id="e_m2_1"/>
            <lane id="e_m2_2"/>
        </edge>
    </timestep>
    <timestep time="104.00">
        <edge id="e_m2">
            <lane id="e_m2_0">
                <vehicle id="veh0" pos="471.75" speed="16.93"/>
            </lane>
            <lane id="e_m2_1"/>
            <lane id="e_m2_2"/>
        </edge>
    </timestep>
    <timestep time="105.00">
        <edge id="e_m2">
            <lane id="e_m2_0">
                <vehicle id="veh0" pos="485.29" speed="13.54"/>
            </lane>
            <lane id="e_m2_1"/>
            <lane id="e_m2_2"/>
        </edge>
    </timestep>
    <timestep time="106.00">
        <edge id="e_m2">
            <lane id="e_m2_0">
                <vehicle id="veh0" pos="495.44" speed="10.16"/>
            </lane>
            <lane id="e_m2_1"/>
            <lane id="e_m2_2"/>
        </edge>
    </timestep>
    <timestep time="107.00">
        <edge id="e_m3">
            <lane id="e_m3_0">
                <vehicle id="veh0" pos="2.21" speed="6.77"/>
            </lane>
            <lane id="e_m3_1"/>
            <lane id="e_m3_2"/>
        </edge>
    </timestep>
    <timestep time="108.00">
        <edge id="e_m3">
            <lane id="e_m3_0">