<?xml version="1.0" encoding="UTF-8"?>

<!-- generated on 2025-11-02T19:54:07.052659+01:00 by Eclipse SUMO sumo v1_24_0+1715-28a54f8871d
This data file and the accompanying materials
are made available under the terms of the Eclipse Public License v2.0
which accompanies this distribution, and is available at
http://www.eclipse.org/legal/epl-v20.html
This file may also be made available under the following Secondary
Licenses when the conditions for such availability set forth in the Eclipse
Public License 2.0 are satisfied: GNU General Public License, version 2
or later which is available at
https://www.gnu.org/licenses/old-licenses/gpl-2.0-standalone.html
SPDX-License-Identifier: EPL-2.0 OR GPL-2.0-or-later
<sumoConfiguration xmlns:xsi="http://www.w3.org/2001/XMLSchema-instance" xsi:noNamespaceSchemaLocation="http://sumo.dlr.de/xsd/sumoConfiguration.xsd">

    <input>
        <net-file value="net.net.xml"/>
        <route-files value="input_routes.rou.xml"/>
        <additional-files value="input_additional.add.xml,input_additional2.add.xml"/>
    </input>

    <output>
        <write-license value="true"/>
        <tripinfo-output.write-unfinished value="true"/>
    </output>

    <time>
        <begin value="0"/>
        <end value="300"/>
        <step-length value="0.1"/>
    </time>

    <processing>
        <default.speeddev value="0"/>
    </processing>

    <report>
        <xml-validation value="never"/>
        <duration-log.statistics value="true"/>
        <no-step-log value="true"/>
    </report>

</sumoConfiguration>
-->

<meandata xmlns:xsi="http://www.w3.org/2001/XMLSchema-instance" xsi:noNamespaceSchemaLocation="http://sumo.dlr.de/xsd/meandata_file.xsd">
    <interval begin="0.00" end="6.00" id="dump_6">
        <edge id="1/1to2/1" sampledSeconds="13.89" traveltime="32.24" overlapTraveltime="30.24" density="18.29" overlapDensity="24.08" laneDensity="18.29" occupancy="10.75" waitingTime="0.00" timeLoss="11.52" speed="3.34" speedRelative="0.17" departed="6" arrived="0" entered="0" left="3" laneChangedFrom="0" laneChangedTo="0" flow="220.20"/>
        <edge id="2/1to3/1" sampledSeconds="7.58" traveltime="11.87" overlapTraveltime="12.48" density="13.14" overlapDensity="13.14" laneDensity="13.14" occupancy="5.44" waitingTime="0.00" timeLoss="4.45" speed="8.10" speedRelative="0.41" departed="0" arrived="0" entered="3" left="0" laneChangedFrom="0" laneChangedTo="0" flow="383.17"/>
    </interval>
    <interval begin="6.00" end="12.00" id="dump_6">
        <edge id="1/1to2/1" sampledSeconds="28.89" traveltime="18.07" overlapTraveltime="17.91" density="46.62" overlapDensity="50.08" laneDensity="46.62" occupancy="24.19" waitingTime="0.00" timeLoss="20.57" speed="5.65" speedRelative="0.29" departed="6" arrived="0" entered="0" left="4" laneChangedFrom="0" laneChangedTo="0" flow="947.51"/>
        <edge id="2/1to3/1" sampledSeconds="25.33" traveltime="6.74" overlapTraveltime="7.04" density="43.03" overlapDensity="43.91" laneDensity="43.03" occupancy="20.90" waitingTime="0.00" timeLoss="6.76" speed="14.37" speedRelative="0.73" departed="0" arrived="0" entered="4" left="2" laneChangedFrom="0" laneChangedTo="0" flow="2226.26"/>
        <edge id="3/1to4/1" sampledSeconds="3.14" traveltime="4.92" overlapTraveltime="5.18" density="5.44" overlapDensity="5.44" laneDensity="5.44" occupancy="2.50" waitingTime="0.00" timeLoss="0.01" speed="19.53" speedRelative="1.00" departed="0" arrived="0" entered="2" left="0" laneChangedFrom="0" laneChangedTo="0" flow="382.82"/>
    </interval>
    <interval begin="12.00" end="18.00" id="dump_6">
        <edge id="1/1to2/1" sampledSeconds="39.50" traveltime="13.51" overlapTraveltime="13.74" density="65.98" overlapDensity="68.48" laneDensity="65.98" occupancy="33.62" waitingTime="0.00" timeLoss="24.66" speed="7.36" speedRelative="0.38" departed="6" arrived="0" entered="0" left="4" laneChangedFrom="0" laneChangedTo="0" flow="1748.05"/>
        <edge id="2/1to3/1" sampledSeconds="27.48" traveltime="5.65" overlapTraveltime="5.91" density="45.35" overlapDensity="47.64" laneDensity="45.35" occupancy="22.64" waitingTime="0.00" timeLoss="3.49" speed="17.11" speedRelative="0.87" departed="0" arrived="0" entered="4" left="5" laneChangedFrom="0" laneChangedTo="0" flow="2794.26"/>
        <edge id="3/1to4/1" sampledSeconds="21.38" traveltime="4.96" overlapTraveltime="5.22" density="35.73" overlapDensity="37.06" laneDensity="35.73" occupancy="17.63" waitingTime="0.00" timeLoss="0.23" speed="19.39" speedRelative="0.99" departed="0" arrived="0" entered="5" left="3" laneChangedFrom="0" laneChangedTo="0" flow="2494.58"/>
        <edge id="4/1to5/1" sampledSeconds="5.42" traveltime="4.92" overlapTraveltime="5.17" density="9.39" overlapDensity="9.39" laneDensity="9.39" occupancy="4.36" waitingTime="0.00" timeLoss="0.02" speed="19.54" speedRelative="1.00" departed="0" arrived="0" entered="3" left="0" laneChangedFrom="0" laneChangedTo="0" flow="660.77"/>
    </interval>
    <interval begin="18.00" end="24.00" id="dump_6">
        <edge id="1/1to2/1" sampledSeconds="40.15" traveltime="9.95" overlapTraveltime="10.23" density="67.16" overlapDensity="69.61" laneDensity="67.16" occupancy="31.64" waitingTime="0.00" timeLoss="19.89" speed="9.89" speedRelative="0.50" departed="3" arrived="0" entered="0" left="5" laneChangedFrom="0" laneChangedTo="0" flow="2390.92"/>
        <edge id="2/1to3/1" sampledSeconds="25.48" traveltime="5.49" overlapTraveltime="5.77" density="42.26" overlapDensity="44.17" laneDensity="42.26" occupancy="21.08" waitingTime="0.00" timeLoss="2.70" speed="17.52" speedRelative="0.89" departed="0" arrived="0" entered="4" left="4" laneChangedFrom="0" laneChangedTo="0" flow="2665.97"/>
        <edge id="3/1to4/1" sampledSeconds="24.38" traveltime="5.13" overlapTraveltime="5.39" density="40.46" overlapDensity="42.26" laneDensity="40.46" occupancy="20.20" waitingTime="0.00" timeLoss="1.05" speed="18.76" speedRelative="0.96" departed="0" arrived="0" entered="4" left="4" laneChangedFrom="0" laneChangedTo="0" flow="2732.31"/>
        <edge id="4/1to5/1" sampledSeconds="22.33" traveltime="4.94" overlapTraveltime="5.20" density="37.17" overlapDensity="38.71" laneDensity="37.17" occupancy="18.55" waitingTime="0.00" timeLoss="0.17" speed="19.45" speedRelative="0.99" departed="0" arrived="0" entered="4" left="4" laneChangedFrom="0" laneChangedTo="0" flow="2602.57"/>
        <edge id="5/1to6/1" sampledSeconds="8.18" traveltime="4.92" overlapTraveltime="5.18" density="14.18" overlapDensity="14.18" laneDensity="14.18" occupancy="6.76" waitingTime="0.00" timeLoss="0.03" speed="19.53" speedRelative="1.00" departed="0" arrived="0" entered="3" left="0" laneChangedFrom="0" laneChangedTo="0" flow="996.75"/>
    </interval>
    <interval begin="24.00" end="30.00" id="dump_6">
        <edge id="1/1to2/1" sampledSeconds="29.55" traveltime="9.15" overlapTraveltime="9.39" density="49.12" overlapDensity="51.23" laneDensity="49.12" occupancy="22.85" waitingTime="0.00" timeLoss="13.32" speed="10.77" speedRelative="0.55" departed="3" arrived="0" entered="0" left="4" laneChangedFrom="0" laneChangedTo="0" flow="1903.70"/>
        <edge id="2/1to3/1" sampledSeconds="25.79" traveltime="5.54" overlapTraveltime="5.82" density="42.32" overlapDensity="44.72" laneDensity="42.32" occupancy="21.22" waitingTime="0.00" timeLoss="2.92" speed="17.38" speedRelative="0.89" departed="0" arrived="0" entered="5" left="5" laneChangedFrom="0" laneChangedTo="0" flow="2648.31"/>
        <edge id="3/1to4/1" sampledSeconds="24.28" traveltime="5.20" overlapTraveltime="5.46" density="39.80" overlapDensity="42.10" laneDensity="39.80" occupancy="19.88" waitingTime="0.00" timeLoss="1.35" speed="18.51" speedRelative="0.94" departed="0" arrived="0" entered="5" left="5" laneChangedFrom="0" laneChangedTo="0" flow="2652.19"/>
        <edge id="4/1to5/1" sampledSeconds="23.37" traveltime="5.02" overlapTraveltime="5.28" density="38.49" overlapDensity="40.51" laneDensity="38.49" occupancy="19.15" waitingTime="0.00" timeLoss="0.54" speed="19.15" speedRelative="0.98" departed="0" arrived="0" entered="5" left="4" laneChangedFrom="0" laneChangedTo="0" flow="2653.21"/>
        <edge id="5/1to6/1" sampledSeconds="22.84" traveltime="4.94" overlapTraveltime="5.19" density="37.82" overlapDensity="39.59" laneDensity="37.82" occupancy="18.79" waitingTime="0.00" timeLoss="0.15" speed="19.47" speedRelative="0.99" departed="0" arrived="0" entered="5" left="4" laneChangedFrom="0" laneChangedTo="0" flow="2651.18"/>
        <edge id="6/1to7/1" sampledSeconds="11.82" traveltime="4.92" overlapTraveltime="5.18" density="20.31" overlapDensity="20.50" laneDensity="20.31" occupancy="9.79" waitingTime="0.00" timeLoss="0.04" speed="19.53" speedRelative="1.00" departed="0" arrived="0" entered="4" left="1" laneChangedFrom="0" laneChangedTo="0" flow="1428.06"/>
    </interval>
    <interval begin="30.00" end="36.00" id="dump_6">
        <edge id="1/1to2/1" sampledSeconds="26.58" traveltime="9.34" overlapTraveltime="9.63" density="45.04" overlapDensity="46.08" laneDensity="45.04" occupancy="20.63" waitingTime="0.00" timeLoss="12.34" speed="10.50" speedRelative="0.54" departed="3" arrived="0" entered="0" left="2" laneChangedFrom="0" laneChangedTo="0" flow="1702.94"/>
        <edge id="2/1to3/1" sampledSeconds="18.50" traveltime="5.20" overlapTraveltime="5.47" density="30.15" overlapDensity="32.07" laneDensity="30.15" occupancy="15.23" waitingTime="0.00" timeLoss="1.06" speed="18.47" speedRelative="0.94" departed="0" arrived="0" entered="2" left="4" laneChangedFrom="0" laneChangedTo="0" flow="2004.84"/>
        <edge id="3/1to4/1" sampledSeconds="24.26" traveltime="5.24" overlapTraveltime="5.50" density="40.21" overlapDensity="42.06" laneDensity="40.21" occupancy="20.09" waitingTime="0.00" timeLoss="1.52" speed="18.37" speedRelative="0.94" departed="0" arrived="0" entered="4" left="4" laneChangedFrom="0" laneChangedTo="0" flow="2659.73"/>
        <edge id="4/1to5/1" sampledSeconds="23.55" traveltime="5.07" overlapTraveltime="5.33" density="39.03" overlapDensity="40.83" laneDensity="39.03" occupancy="19.50" waitingTime="0.00" timeLoss="0.74" speed="18.99" speedRelative="0.97" departed="0" arrived="0" entered="4" left="4" laneChangedFrom="0" laneChangedTo="0" flow="2667.23"/>
        <edge id="5/1to6/1" sampledSeconds="23.10" traveltime="4.98" overlapTraveltime="5.23" density="37.93" overlapDensity="40.05" laneDensity="37.93" occupancy="19.06" waitingTime="0.00" timeLoss="0.32" speed="19.33" speedRelative="0.99" departed="0" arrived="0" entered="4" left="5" laneChangedFrom="0" laneChangedTo="0" flow="2638.93"/>
        <edge id="6/1to7/1" sampledSeconds="22.46" traveltime="4.93" overlapTraveltime="5.19" density="36.90" overlapDensity="38.94" laneDensity="36.90" occupancy="18.45" waitingTime="0.00" timeLoss="0.12" speed="19.49" speedRelative="0.99" departed="0" arrived="0" entered="5" left="4" laneChangedFrom="0" laneChangedTo="0" flow="2589.26"/>
        <edge id="7/1to8/1" sampledSeconds="15.16" traveltime="4.92" overlapTraveltime="5.18" density="25.83" overlapDensity="26.28" laneDensity="25.83" occupancy="12.47" waitingTime="0.00" timeLoss="0.05" speed="19.53" speedRelative="1.00" departed="0" arrived="0" entered="5" left="1" laneChangedFrom="0" laneChangedTo="0" flow="1816.65"/>
        <edge id="8/1to9/1" sampledSeconds="0.87" traveltime="4.92" overlapTraveltime="5.17" density="1.51" overlapDensity="1.51" laneDensity="1.51" occupancy="0.65" waitingTime="0.00" timeLoss="0.00" speed="19.56" speedRelative="1.00" departed="0" arrived="0" entered="1" left="0" laneChangedFrom="0" laneChangedTo="0" flow="106.63"/>
    </interval>
    <interval begin="36.00" end="42.00" id="dump_6">
        <edge id="1/1to2/1" sampledSeconds="26.46" traveltime="9.40" overlapTraveltime="9.63" density="44.54" overlapDensity="45.87" laneDensity="44.54" occupancy="20.51" waitingTime="0.00" timeLoss="12.28" speed="10.50" speedRelative="0.54" departed="3" arrived="0" entered="0" left="3" laneChangedFrom="0" laneChangedTo="0" flow="1683.87"/>
        <edge id="2/1to3/1" sampledSeconds="14.62" traveltime="4.92" overlapTraveltime="5.18" density="24.01" overlapDensity="25.34" laneDensity="24.01" occupancy="12.01" waitingTime="0.00" timeLoss="0.05" speed="19.53" speedRelative="1.00" departed="0" arrived="0" entered="3" left="3" laneChangedFrom="0" laneChangedTo="0" flow="1688.73"/>
        <edge id="3/1to4/1" sampledSeconds="18.49" traveltime="5.06" overlapTraveltime="5.33" density="30.19" overlapDensity="32.05" laneDensity="30.19" occupancy="15.23" waitingTime="0.00" timeLoss="0.58" speed="18.98" speedRelative="0.97" departed="0" arrived="0" entered="3" left="4" laneChangedFrom="0" laneChangedTo="0" flow="2063.37"/>
        <edge id="4/1to5/1" sampledSeconds="23.44" traveltime="5.10" overlapTraveltime="5.36" density="38.38" overlapDensity="40.65" laneDensity="38.38" occupancy="19.29" waitingTime="0.00" timeLoss="0.87" speed="18.87" speedRelative="0.96" departed="0" arrived="0" entered="4" left="5" laneChangedFrom="0" laneChangedTo="0" flow="2607.45"/>
        <edge id="5/1to6/1" sampledSeconds="22.98" traveltime="5.00" overlapTraveltime="5.26" density="37.95" overlapDensity="39.84" laneDensity="37.95" occupancy="18.86" waitingTime="0.00" timeLoss="0.44" speed="19.22" speedRelative="0.98" departed="0" arrived="0" entered="5" left="4" laneChangedFrom="0" laneChangedTo="0" flow="2626.30"/>
        <edge id="6/1to7/1" sampledSeconds="22.92" traveltime="4.95" overlapTraveltime="5.21" density="37.96" overlapDensity="39.74" laneDensity="37.96" occupancy="18.90" waitingTime="0.00" timeLoss="0.21" speed="19.42" speedRelative="0.99" departed="0" arrived="0" entered="4" left="4" laneChangedFrom="0" laneChangedTo="0" flow="2653.46"/>
        <edge id="7/1to8/1" sampledSeconds="22.71" traveltime="4.93" overlapTraveltime="5.18" density="37.39" overlapDensity="39.38" laneDensity="37.39" occupancy="18.77" waitingTime="0.00" timeLoss="0.11" speed="19.51" speedRelative="1.00" departed="0" arrived="0" entered="4" left="5" laneChangedFrom="0" laneChangedTo="0" flow="2625.56"/>
        <edge id="8/1to9/1" sampledSeconds="17.66" traveltime="4.92" overlapTraveltime="5.18" density="29.72" overlapDensity="30.61" laneDensity="29.72" occupancy="14.64" waitingTime="0.00" timeLoss="0.07" speed="19.53" speedRelative="1.00" departed="0" arrived="0" entered="4" left="2" laneChangedFrom="0" laneChangedTo="0" flow="2089.46"/>
        <edge id="9/1to10/1" sampledSeconds="2.21" traveltime="4.92" overlapTraveltime="5.18" density="3.83" overlapDensity="3.83" laneDensity="3.83" occupancy="1.69" waitingTime="0.00" timeLoss="0.01" speed="19.53" speedRelative="1.00" departed="0" arrived="0" entered="2" left="0" laneChangedFrom="0" laneChangedTo="0" flow="269.08"/>
    </interval>
    <interval begin="42.00" end="48.00" id="dump_6">
        <edge id="1/1to2/1" sampledSeconds="27.06" traveltime="9.39" overlapTraveltime="9.63" density="45.59" overlapDensity="46.92" laneDensity="45.59" occupancy="20.70" waitingTime="0.00" timeLoss="12.56" speed="10.51" speedRelative="0.54" departed="2" arrived="0" entered="0" left="3" laneChangedFrom="0" laneChangedTo="0" flow="1724.14"/>
        <edge id="10/1to1/1" sampledSeconds="4.06" traveltime="5.06" overlapTraveltime="5.32" density="7.03" overlapDensity="7.03" laneDensity="7.03" occupancy="3.29" waitingTime="0.00" timeLoss="0.12" speed="19.00" speedRelative="0.97" departed="0" arrived="0" entered="2" left="0" laneChangedFrom="0" laneChangedTo="0" flow="480.98"/>
        <edge id="2/1to3/1" sampledSeconds="14.59" traveltime="4.92" overlapTraveltime="5.18" density="24.01" overlapDensity="25.30" laneDensity="24.01" occupancy="12.00" waitingTime="0.00" timeLoss="0.05" speed="19.54" speedRelative="1.00" departed="0" arrived="0" entered="3" left="3" laneChangedFrom="0" laneChangedTo="0" flow="1688.27"/>
        <edge id="3/1to4/1" sampledSeconds="14.13" traveltime="4.92" overlapTraveltime="5.18" density="23.17" overlapDensity="24.50" laneDensity="23.17" occupancy="11.64" waitingTime="0.00" timeLoss="0.05" speed="19.53" speedRelative="1.00" departed="0" arrived="0" entered="3" left="3" laneChangedFrom="0" laneChangedTo="0" flow="1629.48"/>
        <edge id="4/1to5/1" sampledSeconds="17.92" traveltime="4.98" overlapTraveltime="5.24" density="29.25" overlapDensity="31.06" laneDensity="29.25" occupancy="14.75" waitingTime="0.00" timeLoss="0.29" speed="19.29" speedRelative="0.98" departed="0" arrived="0" entered="3" left="4" laneChangedFrom="0" laneChangedTo="0" flow="2030.81"/>
        <edge id="5/1to6/1" sampledSeconds="23.07" traveltime="5.02" overlapTraveltime="5.28" density="38.20" overlapDensity="40.00" laneDensity="38.20" occupancy="19.10" waitingTime="0.00" timeLoss="0.51" speed="19.17" speedRelative="0.98" departed="0" arrived="0" entered="4" left="4" laneChangedFrom="0" laneChangedTo="0" flow="2636.08"/>
        <edge id="6/1to7/1" sampledSeconds="22.98" traveltime="4.97" overlapTraveltime="5.22" density="37.65" overlapDensity="39.84" laneDensity="37.65" occupancy="18.93" waitingTime="0.00" timeLoss="0.28" speed="19.36" speedRelative="0.99" departed="0" arrived="0" entered="4" left="5" laneChangedFrom="0" laneChangedTo="0" flow="2623.56"/>
        <edge id="7/1to8/1" sampledSeconds="22.52" traveltime="4.94" overlapTraveltime="5.20" density="37.04" overlapDensity="39.04" laneDensity="37.04" occupancy="18.49" waitingTime="0.00" timeLoss="0.15" speed="19.47" speedRelative="0.99" departed="0" arrived="0" entered="5" left="4" laneChangedFrom="0" laneChangedTo="0" flow="2595.71"/>
        <edge id="8/1to9/1" sampledSeconds="22.68" traveltime="4.93" overlapTraveltime="5.18" density="37.54" overlapDensity="39.32" laneDensity="37.54" occupancy="18.66" waitingTime="0.00" timeLoss="0.11" speed="19.51" speedRelative="1.00" departed="0" arrived="0" entered="5" left="4" laneChangedFrom="0" laneChangedTo="0" flow="2636.39"/>
        <edge id="9/1to10/1" sampledSeconds="19.96" traveltime="4.93" overlapTraveltime="5.19" density="33.58" overlapDensity="34.61" laneDensity="33.58" occupancy="16.63" waitingTime="0.00" timeLoss="0.12" speed="19.48" speedRelative="0.99" departed="0" arrived="0" entered="4" left="3" laneChangedFrom="0" laneChangedTo="0" flow="2355.02"/>
    </interval>
    <interval begin="48.00" end="54.00" id="dump_6">
        <edge id="1/1to2/1" sampledSeconds="20.60" traveltime="6.89" overlapTraveltime="7.15" density="34.38" overlapDensity="35.72" laneDensity="34.38" occupancy="17.23" waitingTime="0.00" timeLoss="5.73" speed="14.15" speedRelative="0.72" departed="0" arrived="0" entered="2" left="3" laneChangedFrom="0" laneChangedTo="0" flow="1751.55"/>
        <edge id="10/1to1/1" sampledSeconds="22.66" traveltime="6.07" overlapTraveltime="6.40" density="38.12" overlapDensity="39.29" laneDensity="38.12" occupancy="18.84" waitingTime="0.00" timeLoss="4.39" speed="15.80" speedRelative="0.81" departed="0" arrived="0" entered="4" left="2" laneChangedFrom="0" laneChangedTo="0" flow="2168.53"/>
        <edge id="2/1to3/1" sampledSeconds="14.31" traveltime="4.92" overlapTraveltime="5.18" density="23.89" overlapDensity="24.82" laneDensity="23.89" occupancy="11.84" waitingTime="0.00" timeLoss="0.05" speed="19.53" speedRelative="1.00" departed="0" arrived="0" entered="3" left="2" laneChangedFrom="0" laneChangedTo="0" flow="1680.22"/>
        <edge id="3/1to4/1" sampledSeconds="14.53" traveltime="4.92" overlapTraveltime="5.18" density="23.87" overlapDensity="25.20" laneDensity="23.87" occupancy="11.99" waitingTime="0.00" timeLoss="0.05" speed="19.53" speedRelative="1.00" departed="0" arrived="0" entered="2" left="3" laneChangedFrom="0" laneChangedTo="0" flow="1678.31"/>
        <edge id="4/1to5/1" sampledSeconds="14.66" traveltime="4.92" overlapTraveltime="5.18" density="24.08" overlapDensity="25.41" laneDensity="24.08" occupancy="12.04" waitingTime="0.00" timeLoss="0.04" speed="19.54" speedRelative="1.00" departed="0" arrived="0" entered="3" left="3" laneChangedFrom="0" laneChangedTo="0" flow="1694.15"/>
        <edge id="5/1to6/1" sampledSeconds="16.83" traveltime="4.96" overlapTraveltime="5.22" density="27.38" overlapDensity="29.19" laneDensity="27.38" occupancy="13.84" waitingTime="0.00" timeLoss="0.19" speed="19.37" speedRelative="0.99" departed="0" arrived="0" entered="3" left="4" laneChangedFrom="0" laneChangedTo="0" flow="1909.46"/>
        <edge id="6/1to7/1" sampledSeconds="22.58" traveltime="5.05" overlapTraveltime="5.31" density="37.27" overlapDensity="39.14" laneDensity="37.27" occupancy="18.64" waitingTime="0.00" timeLoss="0.64" speed="19.04" speedRelative="0.97" departed="0" arrived="0" entered="4" left="4" laneChangedFrom="0" laneChangedTo="0" flow="2555.47"/>
        <edge id="7/1to8/1" sampledSeconds="23.01" traveltime="5.09" overlapTraveltime="5.36" density="38.03" overlapDensity="39.89" laneDensity="38.03" occupancy="18.97" waitingTime="0.00" timeLoss="0.86" speed="18.87" speedRelative="0.96" departed="0" arrived="0" entered="4" left="4" laneChangedFrom="0" laneChangedTo="0" flow="2583.36"/>
        <edge id="8/1to9/1" sampledSeconds="23.06" traveltime="5.23" overlapTraveltime="5.50" density="38.06" overlapDensity="39.98" laneDensity="38.06" occupancy="19.04" waitingTime="0.00" timeLoss="1.44" speed="18.38" speedRelative="0.94" departed="0" arrived="0" entered="4" left="4" laneChangedFrom="0" laneChangedTo="0" flow="2518.07"/>
        <edge id="9/1to10/1" sampledSeconds="23.29" traveltime="5.51" overlapTraveltime="5.81" density="38.48" overlapDensity="40.38" laneDensity="38.48" occupancy="19.21" waitingTime="0.00" timeLoss="2.59" speed="17.42" speedRelative="0.89" departed="0" arrived="0" entered="4" left="3" laneChangedFrom="0" laneChangedTo="0" flow="2412.71"/>
    </interval>
    <interval begin="54.00" end="60.00" id="dump_6">
        <edge id="1/1to2/1" sampledSeconds="23.93" traveltime="5.20" overlapTraveltime="5.46" density="39.68" overlapDensity="41.48" laneDensity="39.68" occupancy="19.69" waitingTime="0.00" timeLoss="1.31" speed="18.53" speedRelative="0.95" departed="0" arrived="0" entered="5" left="4" laneChangedFrom="0" laneChangedTo="0" flow="2647.03"/>
        <edge id="10/1to1/1" sampledSeconds="24.32" traveltime="5.39" overlapTraveltime="5.67" density="39.74" overlapDensity="42.16" laneDensity="39.74" occupancy="19.90" waitingTime="0.00" timeLoss="2.19" speed="17.83" speedRelative="0.91" departed="0" arrived="0" entered="5" left="5" laneChangedFrom="0" laneChangedTo="0" flow="2551.11"/>
        <edge id="2/1to3/1" sampledSeconds="17.21" traveltime="4.93" overlapTraveltime="5.19" density="28.51" overlapDensity="29.84" laneDensity="28.51" occupancy="14.14" waitingTime="0.00" timeLoss="0.10" speed="19.48" speedRelative="0.99" departed="0" arrived="0" entered="4" left="3" laneChangedFrom="0" laneChangedTo="0" flow="1999.58"/>
        <edge id="3/1to4/1" sampledSeconds="14.81" traveltime="4.92" overlapTraveltime="5.18" density="24.35" overlapDensity="25.68" laneDensity="24.35" occupancy="12.17" waitingTime="0.00" timeLoss="0.05" speed="19.54" speedRelative="1.00" departed="0" arrived="0" entered="3" left="3" laneChangedFrom="0" laneChangedTo="0" flow="1712.31"/>
        <edge id="4/1to5/1" sampledSeconds="14.13" traveltime="4.92" overlapTraveltime="5.18" density="23.61" overlapDensity="24.50" laneDensity="23.61" occupancy="11.70" waitingTime="0.00" timeLoss="0.05" speed="19.54" speedRelative="1.00" departed="0" arrived="0" entered="3" left="2" laneChangedFrom="0" laneChangedTo="0" flow="1660.77"/>
        <edge id="5/1to6/1" sampledSeconds="14.55" traveltime="4.92" overlapTraveltime="5.18" density="23.89" overlapDensity="25.22" laneDensity="23.89" occupancy="12.02" waitingTime="0.00" timeLoss="0.05" speed="19.53" speedRelative="1.00" departed="0" arrived="0" entered="2" left="3" laneChangedFrom="0" laneChangedTo="0" flow="1680.07"/>
        <edge id="6/1to7/1" sampledSeconds="16.79" traveltime="5.01" overlapTraveltime="5.27" density="27.27" overlapDensity="29.11" laneDensity="27.27" occupancy="13.76" waitingTime="0.00" timeLoss="0.36" speed="19.18" speedRelative="0.98" departed="0" arrived="0" entered="3" left="4" laneChangedFrom="0" laneChangedTo="0" flow="1882.62"/>
        <edge id="7/1to8/1" sampledSeconds="22.77" traveltime="5.21" overlapTraveltime="5.48" density="37.58" overlapDensity="39.48" laneDensity="37.58" occupancy="18.80" waitingTime="0.00" timeLoss="1.33" speed="18.46" speedRelative="0.94" departed="0" arrived="0" entered="4" left="4" laneChangedFrom="0" laneChangedTo="0" flow="2497.41"/>
        <edge id="8/1to9/1" sampledSeconds="23.52" traveltime="5.30" overlapTraveltime="5.58" density="38.64" overlapDensity="40.77" laneDensity="38.64" occupancy="19.41" waitingTime="0.00" timeLoss="1.76" speed="18.13" speedRelative="0.93" departed="0" arrived="0" entered="4" left="5" laneChangedFrom="0" laneChangedTo="0" flow="2522.29"/>
        <edge id="9/1to10/1" sampledSeconds="23.85" traveltime="5.39" overlapTraveltime="5.67" density="38.91" overlapDensity="41.36" laneDensity="38.91" occupancy="19.58" waitingTime="0.00" timeLoss="2.14" speed="17.84" speedRelative="0.91" departed="0" arrived="0" entered="4" left="5" laneChangedFrom="0" laneChangedTo="0" flow="2498.87"/>
    </interval>
    <interval begin="60.00" end="66.00" id="dump_6">
        <edge id="1/1to2/1" sampledSeconds="23.68" traveltime="5.13" overlapTraveltime="5.40" density="39.22" overlapDensity="41.05" laneDensity="39.22" occupancy="19.60" waitingTime="0.00" timeLoss="1.04" speed="18.74" speedRelative="0.96" departed="0" arrived="0" entered="4" left="4" laneChangedFrom="0" laneChangedTo="0" flow="2646.43"/>
        <edge id="10/1to1/1" sampledSeconds="23.73" traveltime="5.21" overlapTraveltime="5.48" density="39.27" overlapDensity="41.14" laneDensity="39.27" occupancy="19.59" waitingTime="0.00" timeLoss="1.39" speed="18.45" speedRelative="0.94" departed="0" arrived="0" entered="4" left="4" laneChangedFrom="0" laneChangedTo="0" flow="2608.40"/>
        <edge id="2/1to3/1" sampledSeconds="23.42" traveltime="5.01" overlapTraveltime="5.27" density="38.82" overlapDensity="40.60" laneDensity="38.82" occupancy="19.40" waitingTime="0.00" timeLoss="0.47" speed="19.20" speedRelative="0.98" departed="0" arrived="0" entered="4" left="4" laneChangedFrom="0" laneChangedTo="0" flow="2683.96"/>
        <edge id="3/1to4/1" sampledSeconds="18.28" traveltime="4.93" overlapTraveltime="5.19" density="30.37" overlapDensity="31.70" laneDensity="30.37" occupancy="15.07" waitingTime="0.00" timeLoss="0.10" speed="19.50" speedRelative="0.99" departed="0" arrived="0" entered="4" left="3" laneChangedFrom="0" laneChangedTo="0" flow="2131.29"/>
        <edge id="4/1to5/1" sampledSeconds="14.49" traveltime="4.92" overlapTraveltime="5.17" density="23.79" overlapDensity="25.12" laneDensity="23.79" occupancy="11.90" waitingTime="0.00" timeLoss="0.04" speed="19.55" speedRelative="1.00" departed="0" arrived="0" entered="3" left="3" laneChangedFrom="0" laneChangedTo="0" flow="1673.81"/>
        <edge id="5/1to6/1" sampledSeconds="14.56" traveltime="4.92" overlapTraveltime="5.18" density="23.91" overlapDensity="25.24" laneDensity="23.91" occupancy="11.95" waitingTime="0.00" timeLoss="0.05" speed="19.54" speedRelative="1.00" departed="0" arrived="0" entered="3" left="3" laneChangedFrom="0" laneChangedTo="0" flow="1681.49"/>
        <edge id="6/1to7/1" sampledSeconds="14.47" traveltime="4.92" overlapTraveltime="5.18" density="23.99" overlapDensity="25.08" laneDensity="23.99" occupancy="11.96" waitingTime="0.00" timeLoss="0.05" speed="19.54" speedRelative="1.00" departed="0" arrived="0" entered="3" left="3" laneChangedFrom="0" laneChangedTo="0" flow="1686.99"/>
        <edge id="7/1to8/1" sampledSeconds="16.41" traveltime="5.00" overlapTraveltime="5.27" density="26.59" overlapDensity="28.45" laneDensity="26.59" occupancy="13.54" waitingTime="0.00" timeLoss="0.36" speed="19.17" speedRelative="0.98" departed="0" arrived="0" entered="2" left="4" laneChangedFrom="0" laneChangedTo="0" flow="1835.63"/>
        <edge id="8/1to9/1" sampledSeconds="23.06" traveltime="5.22" overlapTraveltime="5.49" density="37.82" overlapDensity="39.98" laneDensity="37.82" occupancy="18.95" waitingTime="0.00" timeLoss="1.38" speed="18.42" speedRelative="0.94" departed="0" arrived="0" entered="4" left="4" laneChangedFrom="0" laneChangedTo="0" flow="2508.02"/>
        <edge id="9/1to10/1" sampledSeconds="23.62" traveltime="5.24" overlapTraveltime="5.51" density="39.06" overlapDensity="40.95" laneDensity="39.06" occupancy="19.41" waitingTime="0.00" timeLoss="1.51" speed="18.35" speedRelative="0.94" departed="0" arrived="0" entered="5" left="4" laneChangedFrom="0" laneChangedTo="0" flow="2579.70"/>
    </interval>
    <interval begin="66.00" end="72.00" id="dump_6">
        <edge id="1/1to2/1" sampledSeconds="23.46" traveltime="5.10" overlapTraveltime="5.36" density="38.41" overlapDensity="40.67" laneDensity="38.41" occupancy="19.31" waitingTime="0.00" timeLoss="0.90" speed="18.85" speedRelative="0.96" departed="0" arrived="0" entered="4" left="5" laneChangedFrom="0" laneChangedTo="0" flow="2606.77"/>
        <edge id="10/1to1/1" sampledSeconds="23.54" traveltime="5.15" overlapTraveltime="5.42" density="38.97" overlapDensity="40.82" laneDensity="38.97" occupancy="19.48" waitingTime="0.00" timeLoss="1.14" speed="18.65" speedRelative="0.95" departed="0" arrived="0" entered="4" left="4" laneChangedFrom="0" laneChangedTo="0" flow="2616.86"/>
        <edge id="2/1to3/1" sampledSeconds="23.11" traveltime="5.03" overlapTraveltime="5.29" density="37.82" overlapDensity="40.07" laneDensity="37.82" occupancy="18.95" waitingTime="0.00" timeLoss="0.58" speed="19.10" speedRelative="0.97" departed="0" arrived="0" entered="5" left="5" laneChangedFrom="0" laneChangedTo="0" flow="2600.84"/>