<?xml version="1.0" encoding="UTF-8"?>

<!-- generated on Thu Feb 16 10:22:05 2017 by SUMO Version dev-SVN-r22972
<?xml version="1.0" encoding="UTF-8"?>

<configuration xmlns:xsi="http://www.w3.org/2001/XMLSchema-instance" xsi:noNamespaceSchemaLocation="http://sumo.dlr.de/xsd/sumoConfiguration.xsd">

    <input>
        <net-file value="input_net.net.xml"/>
        <route-files value="input_routes.rou.xml"/>
        <additional-files value="input_additional2.add.xml"/>
    </input>

    <output>
        <fcd-output value="fcd.xml"/>
    </output>

    <processing>
        <time-to-teleport value="-1"/>
    </processing>

    <report>
        <duration-log.disable value="true"/>
        <no-step-log value="true"/>
    </report>

    <traci_server>
        <remote-port value="52734"/>
    </traci_server>

</configuration>
-->

<fcd-export xmlns:xsi="http://www.w3.org/2001/XMLSchema-instance" xsi:noNamespaceSchemaLocation="http://sumo.dlr.de/xsd/fcd_file.xsd">
    <timestep time="0.00">
        <person id="horiz" x="761.50" y="504.98" angle="270.00" speed="0.00" pos="238.50" edge="2fi" slope="0.00"/>
        <person id="newPerson" x="511.57" y="476.55" angle="0.00" speed="0.00" pos="225.05" edge="3si" slope="0.00"/>
    </timestep>
    <timestep time="1.00">
        <person id="horiz" x="760.36" y="504.98" angle="270.00" speed="1.14" pos="239.64" edge="2fi" slope="0.00"/>
        <person id="newPerson" x="511.57" y="477.58" angle="0.00" speed="1.03" pos="226.08" edge="3si" slope="0.00"/>
    </timestep>
    <timestep time="2.00">
        <person id="horiz" x="758.98" y="504.98" angle="270.00" speed="1.38" pos="241.02" edge="2fi" slope="0.00"/>
        <person id="newPerson" x="511.57" y="478.66" angle="0.00" speed="1.08" pos="227.16" edge="3si" slope="0.00"/>
    </timestep>
    <timestep time="3.00">
        <person id="horiz" x="757.76" y="504.98" angle="270.00" speed="1.23" pos="242.24" edge="2fi" slope="0.00"/>
        <person id="newPerson" x="511.57" y="479.85" angle="0.00" speed="1.19" pos="228.35" edge="3si" slope="0.00"/>
    </timestep>
    <timestep time="4.00">
        <person id="horiz" x="756.57" y="504.98" angle="270.00" speed="1.18" pos="243.43" edge="2fi" slope="0.00"/>
        <person id="newPerson" x="511.57" y="480.99" angle="0.00" speed="1.14" pos="229.49" edge="3si" slope="0.00"/>
    </timestep>
    <timestep time="5.00">
        <person id="horiz" x="755.34" y="504.98" angle="270.00" speed="1.24" pos="244.66" edge="2fi" slope="0.00"/>
        <person id="newPerson" x="511.57" y="482.01" angle="0.00" speed="1.02" pos="230.51" edge="3si" slope="0.00"/>
    </timestep>
    <timestep time="6.00">
        <person id="horiz" x="753.95" y="504.98" angle="270.00" speed="1.39" pos="246.05" edge="2fi" slope="0.00"/>
        <person id="newPerson" x="511.57" y="483.05" angle="0.00" speed="1.04" pos="231.55" edge="3si" slope="0.00"/>
    </timestep>
    <timestep time="7.00">
        <vehicle id="veh0" x="508.25" y="481.50" angle="0.00" type="DEFAULT_VEHTYPE" speed="0.00" pos="230.00" lane="3si_1" slope="0.00"/>
        <person id="horiz" x="752.69" y="504.98" angle="270.00" speed="1.26" pos="247.31" edge="2fi" slope="0.00"/>
        <person id="newPerson" x="513.95" y="483.05" angle="270.00" speed="0.00" pos="231.55" edge="3si" slope="0.00"/>
    </timestep>
    <timestep time="8.00">
        <vehicle id="veh0" x="504.95" y="483.36" angle="0.00" type="DEFAULT_VEHTYPE" speed="1.86" pos="231.86" lane="3si_2" slope="0.00"/>
        <person id="horiz" x="751.43" y="504.98" angle="270.00" speed="1.26" pos="0.07" edge=":m2_w0" slope="0.00"/>
        <person id="newPerson" x="513.95" y="483.05" angle="270.00" speed="0.00" pos="231.55" edge="3si" slope="0.00"/>
    </timestep>
    <timestep time="9.00">
        <vehicle id="veh0" x="504.95" y="486.42" angle="0.00" type="DEFAULT_VEHTYPE" speed="3.06" pos="234.92" lane="3si_2" slope="0.00"/>
        <person id="horiz" x="751.06" y="504.83" angle="351.38" speed="1.32" pos="1.39" edge=":m2_w0" slope="0.00"/>
        <person id="newPerson" x="513.95" y="483.05" angle="270.00" speed="0.00" pos="231.55" edge="3si" slope="0.00"/>
    </timestep>
    <timestep time="10.00">
        <vehicle id="veh0" x="504.95" y="486.49" angle="0.00" type="DEFAULT_VEHTYPE" speed="0.07" pos="234.99" lane="3si_2" slope="0.00"/>
        <person id="horiz" x="750.89" y="505.96" angle="351.38" speed="1.15" pos="2.53" edge=":m2_w0" slope="0.00"/>
        <person id="newPerson" x="513.95" y="483.05" angle="270.00" speed="0.00" pos="231.55" edge="3si" slope="0.00"/>
    </timestep>
    <timestep time="11.00">
        <vehicle id="veh0" x="504.95" y="486.49" angle="0.00" type="DEFAULT_VEHTYPE" speed="0.00" pos="234.99" lane="3si_2" slope="0.00"/>
        <person id="newPerson" x="504.95" y="486.49" angle="0.00" speed="0.00" pos="234.99" edge="3si" slope="0.00"/>
        <person id="horiz" x="750.71" y="507.15" angle="351.38" speed="1.20" pos="3.73" edge=":m2_w0" slope="0.00"/>
    </timestep>
    <timestep time="12.00">
        <vehicle id="veh0" x="501.65" y="486.54" angle="0.00" type="DEFAULT_VEHTYPE" speed="0.05" pos="235.04" lane="3si_3" slope="0.00"/>
        <person id="newPerson" x="501.65" y="486.54" angle="0.00" speed="0.05" pos="235.04" edge="3si" slope="0.00"/>
        <person id="horiz" x="750.52" y="508.38" angle="351.38" speed="1.25" pos="4.98" edge=":m2_w0" slope="0.00"/>
    </timestep>
    <timestep time="13.00">
        <vehicle id="veh0" x="501.45" y="487.96" angle="357.70" type="DEFAULT_VEHTYPE" speed="1.43" pos="1.42" lane=":0_10_0" slope="0.00"/>
        <person id="newPerson" x="501.45" y="487.96" angle="357.70" speed="1.43" pos="1.42" edge=":0_10" slope="0.00"/>
        <person id="horiz" x="750.34" y="509.58" angle="351.38" speed="1.21" pos="6.19" edge=":m2_w0" slope="0.00"/>
    </timestep>
    <timestep time="14.00">
        <vehicle id="veh0" x="501.04" y="490.81" angle="353.04" type="DEFAULT_VEHTYPE" speed="2.88" pos="4.30" lane=":0_10_0" slope="0.00"/>
        <person id="newPerson" x="501.04" y="490.81" angle="353.04" speed="2.88" pos="4.30" edge=":0_10" slope="0.00"/>
        <person id="horiz" x="750.17" y="510.72" angle="351.38" speed="1.16" pos="7.35" edge=":m2_w0" slope="0.00"/>
    </timestep>
    <timestep time="15.00">
        <vehicle id="veh0" x="499.60" y="495.00" angle="342.08" type="DEFAULT_VEHTYPE" speed="4.52" pos="8.82" lane=":0_10_0" slope="0.00"/>
        <person id="newPerson" x="499.60" y="495.00" angle="342.08" speed="4.52" pos="8.82" edge=":0_10" slope="0.00"/>
        <person id="horiz" x="748.54" y="511.57" angle="270.00" speed="1.28" pos="8.63" edge=":m2_w0" slope="0.00"/>
    </timestep>
    <timestep time="16.00">
        <vehicle id="veh0" x="494.68" y="499.80" angle="308.04" type="DEFAULT_VEHTYPE" speed="7.08" pos="5.54" lane=":0_20_0" slope="0.00"/>
        <person id="newPerson" x="494.68" y="499.80" angle="308.04" speed="7.08" pos="5.54" edge=":0_20" slope="0.00"/>
        <person id="horiz" x="747.22" y="511.57" angle="270.00" speed="1.32" pos="1.28" edge="2si" slope="0.00"/>
    </timestep>
    <timestep time="17.00">
        <vehicle id="veh0" x="486.31" y="501.65" angle="277.71" type="DEFAULT_VEHTYPE" speed="8.69" pos="0.24" lane="1o_1" slope="0.00"/>
        <person id="newPerson" x="496.23" y="502.37" angle="211.00" speed="0.00" pos="5.54" edge=":0_20" slope="0.00"/>
        <person id="horiz" x="745.92" y="511.57" angle="270.00" speed="1.31" pos="2.58" edge="2si" slope="0.00"/>
    </timestep>
    <timestep time="18.00">
        <vehicle id="veh0" x="476.45" y="501.65" angle="270.00" type="DEFAULT_VEHTYPE" speed="9.87" pos="10.10" lane="1o_1" slope="0.00"/>
        <person id="newPerson" x="496.23" y="502.37" angle="211.00" speed="0.00" pos="5.54" edge=":0_20" slope="0.00"/>
        <person id="horiz" x="744.57" y="511.57" angle="270.00" speed="1.34" pos="3.93" edge="2si" slope="0.00"/>
    </timestep>
    <timestep time="19.00">
        <vehicle id="veh0" x="466.23" y="501.65" angle="270.00" type="DEFAULT_VEHTYPE" speed="10.22" pos="20.32" lane="1o_1" slope="0.00"/>
        <person id="newPerson" x="496.23" y="502.37" angle="211.00" speed="0.00" pos="5.54" edge=":0_20" slope="0.00"/>
        <person id="horiz" x="743.19" y="511.57" angle="270.00" speed="1.38" pos="5.31" edge="2si" slope="0.00"/>
    </timestep>
    <timestep time="20.00">
        <vehicle id="veh0" x="455.28" y="501.65" angle="270.00" type="DEFAULT_VEHTYPE" speed="10.94" pos="31.27" lane="1o_1" slope="0.00"/>
        <person id="newPerson" x="496.23" y="502.37" angle="211.00" speed="0.00" pos="5.54" edge=":0_20" slope="0.00"/>
        <person id="horiz" x="741.89" y="511.57" angle="270.00" speed="1.30" pos="6.61" edge="2si" slope="0.00"/>
    </timestep>
    <timestep time="21.00">
        <vehicle id="veh0" x="444.71" y="501.65" angle="270.00" type="DEFAULT_VEHTYPE" speed="10.58" pos="41.84" lane="1o_1" slope="0.00"/>
        <person id="newPerson" x="496.23" y="502.37" angle="211.00" speed="0.00" pos="5.54" edge=":0_20" slope="0.00"/>
        <person id="horiz" x="740.54" y="511.57" angle="270.00" speed="1.35" pos="7.96" edge="2si" slope="0.00"/>
    </timestep>
    <timestep time="22.00">
        <vehicle id="veh0" x="433.94" y="501.65" angle="270.00" type="DEFAULT_VEHTYPE" speed="10.77" pos="52.61" lane="1o_1" slope="0.00"/>
        <person id="newPerson" x="496.23" y="502.37" angle="211.00" speed="0.00" pos="5.54" edge=":0_20" slope="0.00"/>
        <person id="horiz" x="739.42" y="511.57" angle="270.00" speed="1.12" pos="9.08" edge="2si" slope="0.00"/>
    </timestep>
    <timestep time="23.00">
        <vehicle id="veh0" x="423.05" y="501.65" angle="270.00" type="DEFAULT_VEHTYPE" speed="10.89" pos="63.50" lane="1o_1" slope="0.00"/>
        <person id="newPerson" x="496.23" y="502.37" angle="211.00" speed="0.00" pos="5.54" edge=":0_20" slope="0.00"/>
        <person id="horiz" x="738.09" y="511.57" angle="270.00" speed="1.33" pos="10.41" edge="2si" slope="0.00"/>
    </timestep>
    <timestep time="24.00">
        <vehicle id="veh0" x="412.25" y="501.65" angle="270.00" type="DEFAULT_VEHTYPE" speed="10.80" pos="74.30" lane="1o_1" slope="0.00"/>
        <person id="newPerson" x="496.23" y="502.37" angle="211.00" speed="0.00" pos="5.54" edge=":0_20" slope="0.00"/>
        <person id="horiz" x="736.86" y="511.57" angle="270.00" speed="1.23" pos="11.64" edge="2si" slope="0.00"/>
    </timestep>
    <timestep time="25.00">
        <vehicle id="veh0" x="401.26" y="501.65" angle="270.00" type="DEFAULT_VEHTYPE" speed="10.99" pos="85.29" lane="1o_1" slope="0.00"/>
        <person id="newPerson" x="496.23" y="502.37" angle="211.00" speed="0.00" pos="5.54" edge=":0_20" slope="0.00"/>
        <person id="horiz" x="735.70" y="511.57" angle="270.00" speed="1.16" pos="12.80" edge="2si" slope="0.00"/>
    </timestep>
    <timestep time="26.00">
        <vehicle id="veh0" x="391.08" y="501.65" angle="270.00" type="DEFAULT_VEHTYPE" speed="10.18" pos="95.47" lane="1o_1" slope="0.00"/>
        <person id="newPerson" x="496.23" y="502.37" angle="211.00" speed="0.00" pos="5.54" edge=":0_20" slope="0.00"/>
        <person id="horiz" x="734.50" y="511.57" angle="270.00" speed="1.20" pos="14.00" edge="2si" slope="0.00"/>
    </timestep>
    <timestep time="27.00">
        <vehicle id="veh0" x="380.87" y="501.65" angle="270.00" type="DEFAULT_VEHTYPE" speed="10.21" pos="105.68" lane="1o_1" slope="0.00"/>
        <person id="horiz" x="733.27" y="511.57" angle="270.00" speed="1.22" pos="15.23" edge="2si" slope="0.00"/>
    </timestep>
    <timestep time="28.00">
        <vehicle id="veh0" x="371.01" y="501.65" angle="270.00" type="DEFAULT_VEHTYPE" speed="9.86" pos="115.54" lane="1o_1" slope="0.00"/>
        <person id="horiz" x="732.14" y="511.57" angle="270.00" speed="1.13" pos="16.36" edge="2si" slope="0.00"/>
    </timestep>
    <timestep time="29.00">
        <vehicle id="veh0" x="360.54" y="501.65" angle="270.00" type="DEFAULT_VEHTYPE" speed="10.47" pos="126.01" lane="1o_1" slope="0.00"/>
        <person id="horiz" x="730.84" y="511.57" angle="270.00" speed="1.30" pos="17.66" edge="2si" slope="0.00"/>
    </timestep>
    <timestep time="30.00">
        <vehicle id="veh0" x="349.65" y="501.65" angle="270.00" type="DEFAULT_VEHTYPE" speed="10.89" pos="136.90" lane="1o_1" slope="0.00"/>
        <person id="horiz" x="729.61" y="511.57" angle="270.00" speed="1.23" pos="18.89" edge="2si" slope="0.00"/>
    </timestep>
    <timestep time="31.00">
        <vehicle id="veh0" x="338.77" y="501.65" angle="270.00" type="DEFAULT_VEHTYPE" speed="10.87" pos="147.78" lane="1o_1" slope="0.00"/>
        <person id="horiz" x="728.49" y="511.57" angle="270.00" speed="1.12" pos="20.01" edge="2si" slope="0.00"/>
    </timestep>
    <timestep time="32.00">
        <vehicle id="veh0" x="327.86" y="501.65" angle="270.00" type="DEFAULT_VEHTYPE" speed="10.91" pos="158.69" lane="1o_1" slope="0.00"/>
        <person id="horiz" x="727.28" y="511.57" angle="270.00" speed="1.21" pos="21.22" edge="2si" slope="0.00"/>
    </timestep>
    <timestep time="33.00">
        <vehicle id="veh0" x="317.11" y="501.65" angle="270.00" type="DEFAULT_VEHTYPE" speed="10.75" pos="169.44" lane="1o_1" slope="0.00"/>
        <person id="horiz" x="725.90" y="511.57" angle="270.00" speed="1.38" pos="22.60" edge="2si" slope="0.00"/>
    </timestep>
    <timestep time="34.00">
        <vehicle id="veh0" x="307.21" y="501.65" angle="270.00" type="DEFAULT_VEHTYPE" speed="9.90" pos="179.34" lane="1o_1" slope="0.00"/>
        <person id="horiz" x="724.66" y="511.57" angle="270.00" speed="1.24" pos="23.84" edge="2si" slope="0.00"/>
    </timestep>
    <timestep time="35.00">
        <vehicle id="veh0" x="296.33" y="501.65" angle="270.00" type="DEFAULT_VEHTYPE" speed="10.88" pos="190.22" lane="1o_1" slope="0.00"/>
        <person id="horiz" x="723.29" y="511.57" angle="270.00" speed="1.37" pos="25.21" edge="2si" slope="0.00"/>
    </timestep>
    <timestep time="36.00">
        <vehicle id="veh0" x="285.63" y="501.65" angle="270.00" type="DEFAULT_VEHTYPE" speed="10.70" pos="200.92" lane="1o_1" slope="0.00"/>
        <person id="horiz" x="722.18" y="511.57" angle="270.00" speed="1.11" pos="26.32" edge="2si" slope="0.00"/>
    </timestep>
    <timestep time="37.00">
        <vehicle id="veh0" x="274.63" y="501.65" angle="270.00" type="DEFAULT_VEHTYPE" speed="11.00" pos="211.92" lane="1o_1" slope="0.00"/>
        <person id="horiz" x="720.88" y="511.57" angle="270.00" speed="1.29" pos="27.62" edge="2si" slope="0.00"/>
    </timestep>
    <timestep time="38.00">
        <vehicle id="veh0" x="263.79" y="501.65" angle="270.00" type="DEFAULT_VEHTYPE" speed="10.84" pos="222.76" lane="1o_1" slope="0.00"/>
        <person id="horiz" x="719.65" y="511.57" angle="270.00" speed="1.23" pos="28.85" edge="2si" slope="0.00"/>
    </timestep>
    <timestep time="39.00">
        <vehicle id="veh0" x="252.74" y="501.65" angle="270.00" type="DEFAULT_VEHTYPE" speed="11.05" pos="233.81" lane="1o_1" slope="0.00"/>
        <person id="horiz" x="718.31" y="511.57" angle="270.00" speed="1.34" pos="30.19" edge="2si" slope="0.00"/>
    </timestep>
    <timestep time="40.00">
        <vehicle id="veh0" x="242.57" y="501.65" angle="270.00" type="DEFAULT_VEHTYPE" speed="10.17" pos="243.98" lane="1o_1" slope="0.00"/>
        <person id="horiz" x="716.94" y="511.57" angle="270.00" speed="1.37" pos="31.56" edge="2si" slope="0.00"/>
    </timestep>
    <timestep time="41.00">
        <vehicle id="veh0" x="231.84" y="501.65" angle="270.00" type="DEFAULT_VEHTYPE" speed="10.73" pos="254.71" lane="1o_1" slope="0.00"/>
        <person id="horiz" x="715.65" y="511.57" angle="270.00" speed="1.29" pos="32.85" edge="2si" slope="0.00"/>
    </timestep>
    <timestep time="42.00">
        <vehicle id="veh0" x="221.61" y="501.65" angle="270.00" type="DEFAULT_VEHTYPE" speed="10.23" pos="264.94" lane="1o_1" slope="0.00"/>
        <person id="horiz" x="714.32" y="511.57" angle="270.00" speed="1.33" pos="34.18" edge="2si" slope="0.00"/>
    </timestep>
    <timestep time="43.00">
        <vehicle id="veh0" x="211.30" y="501.65" angle="270.00" type="DEFAULT_VEHTYPE" speed="10.31" pos="275.25" lane="1o_1" slope="0.00"/>
        <person id="horiz" x="713.05" y="511.57" angle="270.00" speed="1.27" pos="35.45" edge="2si" slope="0.00"/>
    </timestep>
    <timestep time="44.00">
        <vehicle id="veh0" x="200.86" y="501.65" angle="270.00" type="DEFAULT_VEHTYPE" speed="10.44" pos="285.69" lane="1o_1" slope="0.00"/>
        <person id="horiz" x="711.77" y="511.57" angle="270.00" speed="1.28" pos="36.73" edge="2si" slope="0.00"/>
    </timestep>
    <timestep time="45.00">
        <vehicle id="veh0" x="190.51" y="501.65" angle="270.00" type="DEFAULT_VEHTYPE" speed="10.35" pos="296.04" lane="1o_1" slope="0.00"/>
        <person id="horiz" x="710.61" y="511.57" angle="270.00" speed="1.16" pos="37.89" edge="2si" slope="0.00"/>
    </timestep>
    <timestep time="46.00">
        <vehicle id="veh0" x="179.87" y="501.65" angle="270.00" type="DEFAULT_VEHTYPE" speed="10.64" pos="306.68" lane="1o_1" slope="0.00"/>
        <person id="horiz" x="709.34" y="511.57" angle="270.00" speed="1.27" pos="39.16" edge="2si" slope="0.00"/>
    </timestep>
    <timestep time="47.00">
        <vehicle id="veh0" x="168.79" y="501.65" angle="270.00" type="DEFAULT_VEHTYPE" speed="11.08" pos="317.76" lane="1o_1" slope="0.00"/>
        <person id="horiz" x="708.22" y="511.57" angle="270.00" speed="1.12" pos="40.28" edge="2si" slope="0.00"/>
    </timestep>
    <timestep time="48.00">
        <vehicle id="veh0" x="157.82" y="501.65" angle="270.00" type="DEFAULT_VEHTYPE" speed="10.97" pos="328.73" lane="1o_1" slope="0.00"/>
        <person id="horiz" x="706.92" y="511.57" angle="270.00" speed="1.30" pos="41.58" edge="2si" slope="0.00"/>
    </timestep>
    <timestep time="49.00">
        <vehicle id="veh0" x="147.52" y="501.65" angle="270.00" type="DEFAULT_VEHTYPE" speed="10.30" pos="339.03" lane="1o_1" slope="0.00"/>
        <person id="horiz" x="705.77" y="511.57" angle="270.00" speed="1.15" pos="42.73" edge="2si" slope="0.00"/>
    </timestep>
    <timestep time="50.00">
        <vehicle id="veh0" x="137.05" y="501.65" angle="270.00" type="DEFAULT_VEHTYPE" speed="10.47" pos="349.50" lane="1o_1" slope="0.00"/>
        <person id="horiz" x="704.64" y="511.57" angle="270.00" speed="1.13" pos="43.86" edge="2si" slope="0.00"/>
    </timestep>
    <timestep time="51.00">
        <vehicle id="veh0" x="126.87" y="501.65" angle="270.00" type="DEFAULT_VEHTYPE" speed="10.19" pos="359.68" lane="1o_1" slope="0.00"/>
        <person id="horiz" x="703.37" y="511.57" angle="270.00" speed="1.27" pos="45.13" edge="2si" slope="0.00"/>
    </timestep>
    <timestep time="52.00">
        <vehicle id="veh0" x="116.89" y="501.65" angle="270.00" type="DEFAULT_VEHTYPE" speed="9.97" pos="369.66" lane="1o_1" slope="0.00"/>
        <person id="horiz" x="702.11" y="511.57" angle="270.00" speed="1.26" pos="46.39" edge="2si" slope="0.00"/>
    </timestep>
    <timestep time="53.00">
        <vehicle id="veh0" x="107.05" y="501.65" angle="270.00" type="DEFAULT_VEHTYPE" speed="9.85" pos="379.50" lane="1o_1" slope="0.00"/>
        <person id="horiz" x="700.88" y="511.57" angle="270.00" speed="1.23" pos="47.62" edge="2si" slope="0.00"/>
    </timestep>
    <timestep time="54.00">
        <vehicle id="veh0" x="96.47" y="501.65" angle="270.00" type="DEFAULT_VEHTYPE" speed="10.58" pos="390.08" lane="1o_1" slope="0.00"/>
        <person id="horiz" x="699.57" y="511.57" angle="270.00" speed="1.31" pos="48.93" edge="2si" slope="0.00"/>
    </timestep>
    <timestep time="55.00">
        <vehicle id="veh0" x="86.27" y="501.65" angle="270.00" type="DEFAULT_VEHTYPE" speed="10.20" pos="400.28" lane="1o_1" slope="0.00"/>
        <person id="horiz" x="698.28" y="511.57" angle="270.00" speed="1.29" pos="50.22" edge="2si" slope="0.00"/>
    </timestep>
    <timestep time="56.00">
        <vehicle id="veh0" x="75.77" y="501.65" angle="270.00" type="DEFAULT_VEHTYPE" speed="10.50" pos="410.78" lane="1o_1" slope="0.00"/>
        <person id="horiz" x="696.92" y="511.57" angle="270.00" speed="1.36" pos="51.58" edge="2si" slope="0.00"/>
    </timestep>
    <timestep time="57.00">
        <vehicle id="veh0" x="65.67" y="501.65" angle="270.00" type="DEFAULT_VEHTYPE" speed="10.09" pos="420.88" lane="1o_1" slope="0.00"/>
        <person id="horiz" x="695.71" y="511.57" angle="270.00" speed="1.21" pos="52.79" edge="2si" slope="0.00"/>
    </timestep>
    <timestep time="58.00">
        <vehicle id="veh0" x="55.49" y="501.65" angle="270.00" type="DEFAULT_VEHTYPE" speed="10.18" pos="431.06" lane="1o_1" slope="0.00"/>
        <person id="horiz" x="694.40" y="511.57" angle="270.00" speed="1.31" pos="54.10" edge="2si" slope="0.00"/>
    </timestep>
    <timestep time="59.00">
        <vehicle id="veh0" x="45.30" y="501.65" angle="270.00" type="DEFAULT_VEHTYPE" speed="10.18" pos="441.25" lane="1o_1" slope="0.00"/>
        <person id="horiz" x="693.05" y="511.57" angle="270.00" speed="1.35" pos="55.45" edge="2si" slope="0.00"/>
    </timestep>
    <timestep time="60.00">
        <vehicle id="veh0" x="35.34" y="501.65" angle="270.00" type="DEFAULT_VEHTYPE" speed="9.96" pos="451.21" lane="1o_1" slope="0.00"/>
        <person id="horiz" x="691.70" y="511.57" angle="270.00" speed="1.35" pos="56.80" edge="2si" slope="0.00"/>
    </timestep>
    <timestep time="61.00">
        <vehicle id="veh0" x="24.86" y="501.65" angle="270.00" type="DEFAULT_VEHTYPE" speed="10.49" pos="461.69" lane="1o_1" slope="0.00"/>
        <person id="horiz" x="690.41" y="511.57" angle="270.00" speed="1.29" pos="58.09" edge="2si" slope="0.00"/>
    </timestep>
    <timestep time="62.00">
        <vehicle id="veh0" x="14.25" y="501.65" angle="270.00" type="DEFAULT_VEHTYPE" speed="10.60" pos="472.30" lane="1o_1" slope="0.00"/>
        <person id="horiz" x="689.03" y="511.57" angle="270.00" speed="1.38" pos="59.47" edge="2si" slope="0.00"/>
    </timestep>
    <timestep time="63.00">
        <vehicle id="veh0" x="4.42" y="501.65" angle="270.00" type="DEFAULT_VEHTYPE" speed="9.84" pos="482.13" lane="1o_1" slope="0.00"/>
        <person id="horiz" x="687.83" y="511.57" angle="270.00" speed="1.20" pos="60.67" edge="2si" slope="0.00"/>
    </timestep>
    <timestep time="64.00">
        <person id="horiz" x="686.68" y="511.57" angle="270.00" speed="1.15" pos="61.82" edge="2si" slope="0.00"/>
    </timestep>
    <timestep time="65.00">
        <person id="horiz" x="685.54" y="511.57" angle="270.00" speed="1.14" pos="62.96" edge="2si" slope="0.00"/>
    </timestep>
    <timestep time="66.00">
        <person id="horiz" x="684.25" y="511.57" angle="270.00" speed="1.29" pos="64.25" edge="2si" slope="0.00"/>
    </timestep>
    <timestep time="67.00">
        <person id="horiz" x="683.04" y="511.57" angle="270.00" speed="1.20" pos="65.46" edge="2si" slope="0.00"/>
    </timestep>
    <timestep time="68.00">
        <person id="horiz" x="681.77" y="511.57" angle="270.00" speed="1.27" pos="66.73" edge="2si" slope="0.00"/>
    </timestep>
    <timestep time="69.00">
        <person id="horiz" x="680.55" y="511.57" angle="270.00" speed="1.23" pos="67.95" edge="2si" slope="0.00"/>
    </timestep>
    <timestep time="70.00">
        <person id="horiz" x="679.24" y="511.57" angle="270.00" speed="1.31" pos="69.26" edge="2si" slope="0.00"/>
    </timestep>
    <timestep time="71.00">
        <person id="horiz" x="677.95" y="511.57" angle="270.00" speed="1.28" pos="70.55" edge="2si" slope="0.00"/>
    </timestep>
    <timestep time="72.00">
        <person id="horiz" x="676.75" y="511.57" angle="270.00" speed="1.20" pos="71.75" edge="2si" slope="0.00"/>
    </timestep>
    <timestep time="73.00">
        <person id="horiz" x="675.53" y="511.57" angle="270.00" speed="1.22" pos="72.97" edge="2si" slope="0.00"/>
    </timestep>
    <timestep time="74.00">
        <person id="horiz" x="674.30" y="511.57" angle="270.00" speed="1.23" pos="74.20" edge="2si" slope="0.00"/>
    </timestep>
    <timestep time="75.00">
        <person id="horiz" x="672.94" y="511.57" angle="270.00" speed="1.36" pos="75.56" edge="2si" slope="0.00"/>
    </timestep>
    <timestep time="76.00">
        <person id="horiz" x="671.79" y="511.57" angle="270.00" speed="1.15" pos="76.71" edge="2si" slope="0.00"/>
    </timestep>
    <timestep time="77.00">
        <person id="horiz" x="670.58" y="511.57" angle="270.00" speed="1.21" pos="77.92" edge="2si" slope="0.00"/>
    </timestep>
    <timestep time="78.00">
        <person id="horiz" x="669.42" y="511.57" angle="270.00" speed="1.16" pos="79.08" edge="2si" slope="0.00"/>
    </timestep>
    <timestep time="79.00">
        <person id="horiz" x="668.29" y="511.57" angle="270.00" speed="1.13" pos="80.21" edge="2si" slope="0.00"/>
    </timestep>
    <timestep time="80.00">
        <person id="horiz" x="667.05" y="511.57" angle="270.00" speed="1.24" pos="81.45" edge="2si" slope="0.00"/>
    </timestep>
    <timestep time="81.00">
        <person id="horiz" x="665.67" y="511.57" angle="270.00" speed="1.38" pos="82.83" edge="2si" slope="0.00"/>
    </timestep>
    <timestep time="82.00">
        <person id="horiz" x="664.55" y="511.57" angle="270.00" speed="1.12" pos="83.95" edge="2si" slope="0.00"/>
    </timestep>
    <timestep time="83.00">
        <person id="horiz" x="663.41" y="511.57" angle="270.00" speed="1.14" pos="85.09" edge="2si" slope="0.00"/>
    </timestep>
    <timestep time="84.00">
        <person id="horiz" x="662.15" y="511.57" angle="270.00" speed="1.25" pos="86.35" edge="2si" slope="0.00"/>
    </timestep>
    <timestep time="85.00">
        <person id="horiz" x="661.02" y="511.57" angle="270.00" speed="1.14" pos="87.48" edge="2si" slope="0.00"/>
    </timestep>
    <timestep time="86.00">
        <person id="horiz" x="659.67" y="511.57" angle="270.00" speed="1.34" pos="88.83" edge="2si" slope="0.00"/>
    </timestep>
    <timestep time="87.00">
        <person id="horiz" x="658.38" y="511.57" angle="270.00" speed="1.29" pos="90.12" edge="2si" slope="0.00"/>
    </timestep>
    <timestep time="88.00">
        <person id="horiz" x="657.21" y="511.57" angle="270.00" speed="1.17" pos="91.29" edge="2si" slope="0.00"/>
    </timestep>
    <timestep time="89.00">
        <person id="horiz" x="655.96" y="511.57" angle="270.00" speed="1.26" pos="92.54" edge="2si" slope="0.00"/>
    </timestep>
    <timestep time="90.00">
        <person id="horiz" x="654.66" y="511.57" angle="270.00" speed="1.29" pos="93.84" edge="2si" slope="0.00"/>
    </timestep>
    <timestep time="91.00">
        <person id="horiz" x="653.27" y="511.57" angle="270.00" speed="1.39" pos="95.23" edge="2si" slope="0.00"/>
    </timestep>
    <timestep time="92.00">
        <person id="horiz" x="652.07" y="511.57" angle="270.00" speed="1.21" pos="96.43" edge="2si" slope="0.00"/>
    </timestep>
    <timestep time="93.00">
        <person id="horiz" x="650.93" y="511.57" angle="270.00" speed="1.13" pos="97.57" edge="2si" slope="0.00"/>
    </timestep>
    <timestep time="94.00">
        <person id="horiz" x="649.55" y="511.57" angle="270.00" speed="1.39" pos="98.95" edge="2si" slope="0.00"/>
    </timestep>
    <timestep time="95.00">
        <person id="horiz" x="648.29" y="511.57" angle="270.00" speed="1.25" pos="100.21" edge="2si" slope="0.00"/>
    </timestep>
    <timestep time="96.00">
        <person id="horiz" x="647.16" y="511.57" angle="270.00" speed="1.14" pos="101.34" edge="2si" slope="0.00"/>
    </timestep>
    <timestep time="97.00">
        <person id="horiz" x="645.88" y="511.57" angle="270.00" speed="1.27" pos="102.62" edge="2si" slope="0.00"/>
    </timestep>
    <timestep time="98.00">
        <person id="horiz" x="644.53" y="511.57" angle="270.00" speed="1.36" pos="103.97" edge="2si" slope="0.00"/>
    </timestep>
    <timestep time="99.00">
        <person id="horiz" x="643.37" y="511.57" angle="270.00" speed="1.15" pos="105.13" edge="2si" slope="0.00"/>
    </timestep>
    <timestep time="100.00">
        <person id="horiz" x="642.21" y="511.57" angle="270.00" speed="1.16" pos="106.29" edge="2si" slope="0.00"/>
    </timestep>
    <timestep time="101.00">
        <person id="horiz" x="640.93" y="511.57" angle="270.00" speed="1.28" pos="107.57" edge="2si" slope="0.00"/>
    </timestep>
    <timestep time="102.00">
        <person id="horiz" x="639.82" y="511.57" angle="270.00" speed="1.11" pos="108.68" edge="2si" slope="0.00"/>
    </timestep>
    <timestep time="103.00">
        <person id="horiz" x="638.57" y="511.57" angle="270.00" speed="1.25" pos="109.93" edge="2si" slope="0.00"/>
    </timestep>
    <timestep time="104.00">
        <person id="horiz" x="637.44" y="511.57" angle="270.00" speed="1.13" pos="111.06" edge="2si" slope="0.00"/>
    </timestep>
    <timestep time="105.00">
        <person id="horiz" x="636.27" y="511.57" angle="270.00" speed="1.17" pos="112.23" edge="2si" slope="0.00"/>
    </timestep>
    <timestep time="106.00">
        <person id="horiz" x="635.01" y="511.57" angle="270.00" speed="1.26" pos="113.49" edge="2si" slope="0.00"/>
    </timestep>
    <timestep time="107.00">
        <person id="horiz" x="633.85" y="511.57" angle="270.00" speed="1.15" pos="114.65" edge="2si" slope="0.00"/>
    </timestep>
    <timestep time="108.00">
        <person id="horiz" x="632.56" y="511.57" angle="270.00" speed="1.30" pos="115.94" edge="2si" slope="0.00"/>
    </timestep>
    <timestep time="109.00">
        <person id="horiz" x="631.22" y="511.57" angle="270.00" speed="1.33" pos="117.28" edge="2si" slope="0.00"/>
    </timestep>
    <timestep time="110.00">
        <person id="horiz" x="629.88" y="511.57" angle="270.00" speed="1.35" pos="118.62" edge="2si" slope="0.00"/>
    </timestep>
    <timestep time="111.00">