<?xml version="1.0" encoding="UTF-8"?>

<!-- generated on Tue Aug 15 21:22:57 2017 by SUMO Version dev-SVN-r24506
<?xml version="1.0" encoding="UTF-8"?>

<configuration xmlns:xsi="http://www.w3.org/2001/XMLSchema-instance" xsi:noNamespaceSchemaLocation="http://sumo.dlr.de/xsd/sumoConfiguration.xsd">

    <input>
        <net-file value="input_net.net.xml"/>
        <route-files value="input_routes.rou.xml"/>
        <additional-files value="input_additional2.add.xml"/>
    </input>

    <output>
        <fcd-output value="fcd.xml"/>
    </output>

    <processing>
        <time-to-teleport value="-1"/>
    </processing>

    <report>
        <duration-log.disable value="true"/>
        <no-step-log value="true"/>
    </report>

    <traci_server>
        <remote-port value="52184"/>
    </traci_server>

</configuration>
-->

<fcd-export xmlns:xsi="http://www.w3.org/2001/XMLSchema-instance" xsi:noNamespaceSchemaLocation="http://sumo.dlr.de/xsd/fcd_file.xsd">
    <timestep time="0.00">
        <person id="horiz" x="761.50" y="504.98" angle="270.00" speed="0.00" pos="238.50" edge="2fi" slope="0.00"/>
        <person id="detour" x="511.57" y="471.55" angle="0.00" speed="0.00" pos="220.05" edge="3si" slope="0.00"/>
        <person id="newPerson" x="511.57" y="476.55" angle="0.00" speed="0.00" pos="225.05" edge="3si" slope="0.00"/>
    </timestep>
    <timestep time="1.00">
        <person id="horiz" x="760.36" y="504.98" angle="270.00" speed="1.14" pos="239.64" edge="2fi" slope="0.00"/>
        <person id="detour" x="511.57" y="472.93" angle="0.00" speed="1.38" pos="221.43" edge="3si" slope="0.00"/>
        <person id="newPerson" x="511.57" y="477.58" angle="0.00" speed="1.03" pos="226.08" edge="3si" slope="0.00"/>
    </timestep>
    <timestep time="2.00">
        <person id="horiz" x="759.11" y="504.98" angle="270.00" speed="1.25" pos="240.89" edge="2fi" slope="0.00"/>
        <person id="detour" x="511.57" y="474.30" angle="0.00" speed="1.38" pos="222.80" edge="3si" slope="0.00"/>
        <person id="newPerson" x="511.57" y="478.64" angle="0.00" speed="1.06" pos="227.14" edge="3si" slope="0.00"/>
    </timestep>
    <timestep time="3.00">
        <person id="tripTest" x="760.24" y="504.98" angle="270.00" speed="1.26" pos="239.76" edge="2fi" slope="0.00"/>
        <person id="horiz" x="757.92" y="504.98" angle="270.00" speed="1.18" pos="242.08" edge="2fi" slope="0.00"/>
        <person id="detour" x="511.57" y="475.48" angle="0.00" speed="1.18" pos="223.98" edge="3si" slope="0.00"/>
        <person id="newPerson" x="511.57" y="479.71" angle="0.00" speed="1.07" pos="228.21" edge="3si" slope="0.00"/>
    </timestep>
    <timestep time="4.00">
        <person id="tripTest" x="759.04" y="504.98" angle="270.00" speed="1.20" pos="240.96" edge="2fi" slope="0.00"/>
        <person id="horiz" x="756.54" y="504.98" angle="270.00" speed="1.39" pos="243.46" edge="2fi" slope="0.00"/>
        <person id="detour" x="511.57" y="476.75" angle="0.00" speed="1.26" pos="225.25" edge="3si" slope="0.00"/>
        <person id="newPerson" x="511.57" y="480.79" angle="0.00" speed="1.09" pos="229.29" edge="3si" slope="0.00"/>
    </timestep>
    <timestep time="5.00">
        <person id="tripTest" x="757.73" y="504.98" angle="270.00" speed="1.32" pos="242.27" edge="2fi" slope="0.00"/>
        <person id="horiz" x="755.31" y="504.98" angle="270.00" speed="1.23" pos="244.69" edge="2fi" slope="0.00"/>
        <person id="detour" x="511.57" y="477.89" angle="0.00" speed="1.15" pos="226.39" edge="3si" slope="0.00"/>
        <person id="newPerson" x="511.57" y="481.98" angle="0.00" speed="1.19" pos="230.48" edge="3si" slope="0.00"/>
    </timestep>
    <timestep time="6.00">
        <person id="tripTest" x="756.53" y="504.98" angle="270.00" speed="1.20" pos="243.47" edge="2fi" slope="0.00"/>
        <person id="horiz" x="754.01" y="504.98" angle="270.00" speed="1.30" pos="245.99" edge="2fi" slope="0.00"/>
        <person id="detour" x="511.57" y="479.14" angle="0.00" speed="1.25" pos="227.64" edge="3si" slope="0.00"/>
        <person id="newPerson" x="511.57" y="483.17" angle="0.00" speed="1.19" pos="231.67" edge="3si" slope="0.00"/>
    </timestep>
    <timestep time="7.00">
        <vehicle id="veh0" x="508.25" y="481.50" angle="0.00" type="DEFAULT_VEHTYPE" speed="0.00" pos="230.00" lane="3si_1" slope="0.00"/>
        <person id="tripTest" x="755.31" y="504.98" angle="270.00" speed="1.21" pos="244.69" edge="2fi" slope="0.00"/>
        <person id="horiz" x="752.70" y="504.98" angle="270.00" speed="1.30" pos="247.30" edge="2fi" slope="0.00"/>
        <person id="detour" x="511.57" y="480.27" angle="0.00" speed="1.13" pos="228.77" edge="3si" slope="0.00"/>
        <person id="newPerson" x="513.95" y="483.17" angle="270.00" speed="0.00" pos="231.67" edge="3si" slope="0.00"/>
    </timestep>
    <timestep time="8.00">
        <vehicle id="veh0" x="504.95" y="483.39" angle="0.00" type="DEFAULT_VEHTYPE" speed="1.89" pos="231.89" lane="3si_2" slope="0.00"/>
        <person id="tripTest" x="754.17" y="504.98" angle="270.00" speed="1.14" pos="245.83" edge="2fi" slope="0.00"/>
        <person id="horiz" x="751.54" y="504.98" angle="270.00" speed="1.16" pos="248.46" edge="2fi" slope="0.00"/>
        <person id="detour" x="511.57" y="481.55" angle="0.00" speed="1.28" pos="230.05" edge="3si" slope="0.00"/>
        <person id="newPerson" x="513.95" y="483.17" angle="270.00" speed="0.00" pos="231.67" edge="3si" slope="0.00"/>
    </timestep>
    <timestep time="9.00">
        <vehicle id="veh0" x="504.95" y="485.51" angle="0.00" type="DEFAULT_VEHTYPE" speed="2.11" pos="234.01" lane="3si_2" slope="0.00"/>
        <person id="horiz" x="751.08" y="504.72" angle="351.38" speed="1.32" pos="1.28" edge=":m2_w0" slope="0.00"/>
        <person id="tripTest" x="752.79" y="504.98" angle="270.00" speed="1.38" pos="247.21" edge="2fi" slope="0.00"/>
        <person id="detour" x="511.57" y="482.85" angle="0.00" speed="1.31" pos="231.35" edge="3si" slope="0.00"/>
        <person id="newPerson" x="513.95" y="483.17" angle="270.00" speed="0.00" pos="231.67" edge="3si" slope="0.00"/>
    </timestep>
    <timestep time="10.00">
        <vehicle id="veh0" x="504.95" y="486.16" angle="0.00" type="DEFAULT_VEHTYPE" speed="0.65" pos="234.66" lane="3si_2" slope="0.00"/>
        <person id="horiz" x="750.87" y="506.05" angle="351.38" speed="1.34" pos="2.63" edge=":m2_w0" slope="0.00"/>
        <person id="tripTest" x="751.67" y="504.98" angle="270.00" speed="1.12" pos="248.33" edge="2fi" slope="0.00"/>
        <person id="newPerson" x="513.95" y="483.17" angle="270.00" speed="0.00" pos="231.67" edge="3si" slope="0.00"/>
        <person id="detour" x="511.57" y="484.23" angle="0.00" speed="1.38" pos="232.73" edge="3si" slope="0.00"/>
    </timestep>
    <timestep time="11.00">
        <vehicle id="veh0" x="504.95" y="486.43" angle="0.00" type="DEFAULT_VEHTYPE" speed="0.27" pos="234.93" lane="3si_2" slope="0.00"/>
        <person id="tripTest" x="751.09" y="504.63" angle="351.38" speed="1.35" pos="1.18" edge=":m2_w0" slope="0.00"/>
        <person id="horiz" x="750.68" y="507.33" angle="351.38" speed="1.30" pos="3.92" edge=":m2_w0" slope="0.00"/>
        <person id="newPerson" x="513.95" y="483.17" angle="270.00" speed="0.00" pos="231.67" edge="3si" slope="0.00"/>
        <person id="detour" x="511.57" y="485.59" angle="0.00" speed="1.35" pos="234.09" edge="3si" slope="0.00"/>
    </timestep>
    <timestep time="12.00">
        <vehicle id="veh0" x="504.95" y="486.49" angle="0.00" type="DEFAULT_VEHTYPE" speed="0.06" pos="234.99" lane="3si_2" slope="0.00"/>
        <person id="detour" x="511.22" y="486.91" angle="0.00" speed="1.33" pos="0.36" edge=":0_w2" slope="0.00"/>
        <person id="tripTest" x="750.89" y="505.93" angle="351.38" speed="1.32" pos="2.50" edge=":m2_w0" slope="0.00"/>
        <person id="horiz" x="750.51" y="508.44" angle="351.38" speed="1.12" pos="5.04" edge=":m2_w0" slope="0.00"/>
        <person id="newPerson" x="513.95" y="483.17" angle="270.00" speed="0.00" pos="231.67" edge="3si" slope="0.00"/>
    </timestep>
    <timestep time="13.00">
        <vehicle id="veh0" x="504.95" y="486.49" angle="0.00" type="DEFAULT_VEHTYPE" speed="0.00" pos="234.99" lane="3si_2" slope="0.00"/>
        <person id="newPerson" x="504.95" y="486.49" angle="0.00" speed="0.00" pos="234.99" edge="3si" slope="0.00"/>
        <person id="detour" x="511.22" y="488.14" angle="0.00" speed="1.23" pos="1.59" edge=":0_w2" slope="0.00"/>
        <person id="tripTest" x="750.72" y="507.08" angle="351.38" speed="1.16" pos="3.66" edge=":m2_w0" slope="0.00"/>
        <person id="horiz" x="750.31" y="509.75" angle="351.38" speed="1.32" pos="6.37" edge=":m2_w0" slope="0.00"/>
    </timestep>
    <timestep time="14.00">
        <vehicle id="veh0" x="501.65" y="486.53" angle="0.00" type="DEFAULT_VEHTYPE" speed="0.04" pos="235.03" lane="3si_3" slope="0.00"/>
        <person id="newPerson" x="501.65" y="486.53" angle="0.00" speed="0.04" pos="235.03" edge="3si" slope="0.00"/>
        <person id="detour" x="511.29" y="489.32" angle="4.61" speed="1.20" pos="2.80" edge=":0_w2" slope="0.00"/>
        <person id="tripTest" x="750.54" y="508.29" angle="351.38" speed="1.22" pos="4.89" edge=":m2_w0" slope="0.00"/>
        <person id="horiz" x="750.14" y="510.93" angle="351.38" speed="1.19" pos="7.56" edge=":m2_w0" slope="0.00"/>
    </timestep>
    <timestep time="15.00">
        <vehicle id="veh0" x="501.37" y="488.51" angle="356.80" type="DEFAULT_VEHTYPE" speed="2.00" pos="1.98" lane=":0_10_0" slope="0.00"/>
        <person id="newPerson" x="501.37" y="488.51" angle="356.80" speed="2.00" pos="1.98" edge=":0_10" slope="0.00"/>
        <person id="detour" x="511.38" y="490.45" angle="4.61" speed="1.13" pos="3.93" edge=":0_w2" slope="0.00"/>
        <person id="tripTest" x="750.34" y="509.57" angle="351.38" speed="1.30" pos="6.19" edge=":m2_w0" slope="0.00"/>
        <person id="horiz" x="748.50" y="511.57" angle="270.00" speed="1.12" pos="0.00" edge="2si" slope="0.00"/>
    </timestep>
    <timestep time="16.00">
        <vehicle id="veh0" x="500.76" y="492.82" angle="351.91" type="DEFAULT_VEHTYPE" speed="4.36" pos="6.33" lane=":0_10_0" slope="0.00"/>
        <person id="newPerson" x="500.76" y="492.82" angle="351.91" speed="4.36" pos="6.33" edge=":0_10" slope="0.00"/>
        <person id="detour" x="511.48" y="491.67" angle="4.61" speed="1.23" pos="5.15" edge=":0_w2" slope="0.00"/>
        <person id="tripTest" x="750.31" y="509.76" angle="351.38" speed="0.19" pos="6.38" edge=":m2_w0" slope="0.00"/>
        <person id="horiz" x="747.37" y="511.57" angle="270.00" speed="1.12" pos="1.13" edge="2si" slope="0.00"/>
    </timestep>
    <timestep time="17.00">
        <vehicle id="veh0" x="497.23" y="498.26" angle="324.88" type="DEFAULT_VEHTYPE" speed="6.59" pos="2.57" lane=":0_20_0" slope="0.00"/>
        <person id="newPerson" x="503.73" y="493.24" angle="261.91" speed="0.00" pos="6.33" edge=":0_10" slope="0.00"/>
        <person id="detour" x="511.57" y="492.88" angle="4.61" speed="1.21" pos="6.36" edge=":0_w2" slope="0.00"/>
        <person id="tripTest" x="750.14" y="510.88" angle="351.38" speed="1.13" pos="7.51" edge=":m2_w0" slope="0.00"/>
        <person id="horiz" x="745.99" y="511.57" angle="270.00" speed="1.38" pos="2.51" edge="2si" slope="0.00"/>
    </timestep>
    <timestep time="18.00">
        <vehicle id="veh0" x="488.99" y="501.30" angle="281.64" type="DEFAULT_VEHTYPE" speed="8.96" pos="11.53" lane=":0_20_0" slope="0.00"/>
        <person id="newPerson" x="503.73" y="493.24" angle="261.91" speed="0.00" pos="6.33" edge=":0_10" slope="0.00"/>
        <person id="detour" x="511.67" y="494.11" angle="4.61" speed="1.24" pos="7.60" edge=":0_w2" slope="0.00"/>
        <person id="tripTest" x="748.54" y="511.57" angle="270.00" speed="1.13" pos="8.64" edge=":m2_w0" slope="0.00"/>
        <person id="horiz" x="744.62" y="511.57" angle="270.00" speed="1.37" pos="3.88" edge="2si" slope="0.00"/>
    </timestep>
    <timestep time="19.00">
        <vehicle id="veh0" x="478.01" y="501.65" angle="270.00" type="DEFAULT_VEHTYPE" speed="11.00" pos="8.54" lane="1o_1" slope="0.00"/>
        <person id="newPerson" x="503.73" y="493.24" angle="261.91" speed="0.00" pos="6.33" edge=":0_10" slope="0.00"/>
        <person id="detour" x="511.72" y="495.24" angle="0.00" speed="1.11" pos="8.71" edge=":0_w2" slope="0.00"/>
        <person id="tripTest" x="747.23" y="511.57" angle="270.00" speed="1.30" pos="1.27" edge="2si" slope="0.00"/>
        <person id="horiz" x="743.33" y="511.57" angle="270.00" speed="1.29" pos="5.17" edge="2si" slope="0.00"/>
    </timestep>
    <timestep time="20.00">
        <vehicle id="veh0" x="466.96" y="501.65" angle="270.00" type="DEFAULT_VEHTYPE" speed="11.05" pos="19.59" lane="1o_1" slope="0.00"/>
        <person id="newPerson" x="503.73" y="493.24" angle="261.91" speed="0.00" pos="6.33" edge=":0_10" slope="0.00"/>
        <person id="detour" x="511.72" y="496.48" angle="0.00" speed="1.23" pos="9.95" edge=":0_w2" slope="0.00"/>
        <person id="tripTest" x="745.90" y="511.57" angle="270.00" speed="1.34" pos="2.60" edge="2si" slope="0.00"/>
        <person id="horiz" x="742.00" y="511.57" angle="270.00" speed="1.33" pos="6.50" edge="2si" slope="0.00"/>
    </timestep>
    <timestep time="21.00">
        <vehicle id="veh0" x="456.23" y="501.65" angle="270.00" type="DEFAULT_VEHTYPE" speed="10.73" pos="30.32" lane="1o_1" slope="0.00"/>
        <person id="newPerson" x="503.73" y="493.24" angle="261.91" speed="0.00" pos="6.33" edge=":0_10" slope="0.00"/>
        <person id="detour" x="511.72" y="497.84" angle="0.00" speed="1.37" pos="1.09" edge=":0_c1" slope="0.00"/>
        <person id="tripTest" x="744.60" y="511.57" angle="270.00" speed="1.29" pos="3.90" edge="2si" slope="0.00"/>
        <person id="horiz" x="740.81" y="511.57" angle="270.00" speed="1.19" pos="7.69" edge="2si" slope="0.00"/>
    </timestep>
    <timestep time="22.00">
        <vehicle id="veh0" x="445.92" y="501.65" angle="270.00" type="DEFAULT_VEHTYPE" speed="10.31" pos="40.63" lane="1o_1" slope="0.00"/>
        <person id="newPerson" x="503.73" y="493.24" angle="261.91" speed="0.00" pos="6.33" edge=":0_10" slope="0.00"/>
        <person id="detour" x="511.72" y="499.17" angle="0.00" speed="1.33" pos="2.42" edge=":0_c1" slope="0.00"/>
        <person id="tripTest" x="743.33" y="511.57" angle="270.00" speed="1.27" pos="5.17" edge="2si" slope="0.00"/>
        <person id="horiz" x="739.61" y="511.57" angle="270.00" speed="1.20" pos="8.89" edge="2si" slope="0.00"/>
    </timestep>
    <timestep time="23.00">
        <vehicle id="veh0" x="435.57" y="501.65" angle="270.00" type="DEFAULT_VEHTYPE" speed="10.35" pos="50.98" lane="1o_1" slope="0.00"/>
        <person id="newPerson" x="503.73" y="493.24" angle="261.91" speed="0.00" pos="6.33" edge=":0_10" slope="0.00"/>
        <person id="detour" x="511.72" y="500.45" angle="0.00" speed="1.28" pos="3.70" edge=":0_c1" slope="0.00"/>
        <person id="tripTest" x="742.17" y="511.57" angle="270.00" speed="1.16" pos="6.33" edge="2si" slope="0.00"/>
        <person id="horiz" x="738.36" y="511.57" angle="270.00" speed="1.25" pos="10.14" edge="2si" slope="0.00"/>
    </timestep>
    <timestep time="24.00">
        <vehicle id="veh0" x="424.49" y="501.65" angle="270.00" type="DEFAULT_VEHTYPE" speed="11.08" pos="62.06" lane="1o_1" slope="0.00"/>
        <person id="newPerson" x="503.73" y="493.24" angle="261.91" speed="0.00" pos="6.33" edge=":0_10" slope="0.00"/>
        <person id="detour" x="511.72" y="501.73" angle="0.00" speed="1.27" pos="4.98" edge=":0_c1" slope="0.00"/>
        <person id="tripTest" x="741.06" y="511.57" angle="270.00" speed="1.12" pos="7.44" edge="2si" slope="0.00"/>
        <person id="horiz" x="737.07" y="511.57" angle="270.00" speed="1.29" pos="11.43" edge="2si" slope="0.00"/>
    </timestep>
    <timestep time="25.00">
        <vehicle id="veh0" x="414.19" y="501.65" angle="270.00" type="DEFAULT_VEHTYPE" speed="10.30" pos="72.36" lane="1o_1" slope="0.00"/>
        <person id="newPerson" x="503.73" y="493.24" angle="261.91" speed="0.00" pos="6.33" edge=":0_10" slope="0.00"/>
        <person id="detour" x="511.72" y="503.03" angle="0.00" speed="1.30" pos="6.28" edge=":0_c1" slope="0.00"/>
        <person id="tripTest" x="739.91" y="511.57" angle="270.00" speed="1.15" pos="8.59" edge="2si" slope="0.00"/>
        <person id="horiz" x="735.71" y="511.57" angle="270.00" speed="1.36" pos="12.79" edge="2si" slope="0.00"/>
    </timestep>
    <timestep time="26.00">
        <vehicle id="veh0" x="404.01" y="501.65" angle="270.00" type="DEFAULT_VEHTYPE" speed="10.19" pos="82.54" lane="1o_1" slope="0.00"/>
        <person id="newPerson" x="503.73" y="493.24" angle="261.91" speed="0.00" pos="6.33" edge=":0_10" slope="0.00"/>
        <person id="detour" x="511.72" y="504.16" angle="0.00" speed="1.13" pos="7.41" edge=":0_c1" slope="0.00"/>
        <person id="tripTest" x="738.64" y="511.57" angle="270.00" speed="1.27" pos="9.86" edge="2si" slope="0.00"/>
        <person id="horiz" x="734.46" y="511.57" angle="270.00" speed="1.25" pos="14.04" edge="2si" slope="0.00"/>
    </timestep>
    <timestep time="27.00">
        <vehicle id="veh0" x="394.16" y="501.65" angle="270.00" type="DEFAULT_VEHTYPE" speed="9.85" pos="92.39" lane="1o_1" slope="0.00"/>
        <person id="detour" x="511.72" y="505.43" angle="0.00" speed="1.26" pos="8.68" edge=":0_c1" slope="0.00"/>
        <person id="tripTest" x="737.41" y="511.57" angle="270.00" speed="1.23" pos="11.09" edge="2si" slope="0.00"/>
        <person id="horiz" x="733.32" y="511.57" angle="270.00" speed="1.15" pos="15.18" edge="2si" slope="0.00"/>
    </timestep>
    <timestep time="28.00">
        <vehicle id="veh0" x="383.96" y="501.65" angle="270.00" type="DEFAULT_VEHTYPE" speed="10.20" pos="102.59" lane="1o_1" slope="0.00"/>
        <person id="detour" x="511.72" y="506.73" angle="0.00" speed="1.31" pos="9.98" edge=":0_c1" slope="0.00"/>
        <person id="tripTest" x="736.12" y="511.57" angle="270.00" speed="1.29" pos="12.38" edge="2si" slope="0.00"/>
        <person id="horiz" x="732.04" y="511.57" angle="270.00" speed="1.27" pos="16.46" edge="2si" slope="0.00"/>
    </timestep>
    <timestep time="29.00">
        <vehicle id="veh0" x="373.87" y="501.65" angle="270.00" type="DEFAULT_VEHTYPE" speed="10.09" pos="112.68" lane="1o_1" slope="0.00"/>
        <person id="detour" x="511.72" y="508.09" angle="0.00" speed="1.36" pos="11.34" edge=":0_c1" slope="0.00"/>
        <person id="tripTest" x="734.91" y="511.57" angle="270.00" speed="1.21" pos="13.59" edge="2si" slope="0.00"/>
        <person id="horiz" x="730.78" y="511.57" angle="270.00" speed="1.26" pos="17.72" edge="2si" slope="0.00"/>
    </timestep>
    <timestep time="30.00">
        <vehicle id="veh0" x="363.68" y="501.65" angle="270.00" type="DEFAULT_VEHTYPE" speed="10.18" pos="122.87" lane="1o_1" slope="0.00"/>
        <person id="detour" x="511.72" y="509.40" angle="0.00" speed="1.31" pos="12.65" edge=":0_c1" slope="0.00"/>
        <person id="tripTest" x="733.56" y="511.57" angle="270.00" speed="1.35" pos="14.94" edge="2si" slope="0.00"/>
        <person id="horiz" x="729.59" y="511.57" angle="270.00" speed="1.19" pos="18.91" edge="2si" slope="0.00"/>
    </timestep>
    <timestep time="31.00">
        <vehicle id="veh0" x="353.20" y="501.65" angle="270.00" type="DEFAULT_VEHTYPE" speed="10.49" pos="133.35" lane="1o_1" slope="0.00"/>
        <person id="detour" x="511.72" y="510.75" angle="0.00" speed="1.35" pos="0.90" edge=":0_w1" slope="0.00"/>
        <person id="tripTest" x="732.27" y="511.57" angle="270.00" speed="1.29" pos="16.23" edge="2si" slope="0.00"/>
        <person id="horiz" x="728.45" y="511.57" angle="270.00" speed="1.14" pos="20.05" edge="2si" slope="0.00"/>
    </timestep>
    <timestep time="32.00">
        <vehicle id="veh0" x="343.36" y="501.65" angle="270.00" type="DEFAULT_VEHTYPE" speed="9.84" pos="143.19" lane="1o_1" slope="0.00"/>
        <person id="detour" x="511.15" y="512.10" angle="266.93" speed="1.38" pos="2.28" edge=":0_w1" slope="0.00"/>
        <person id="tripTest" x="731.07" y="511.57" angle="270.00" speed="1.20" pos="17.43" edge="2si" slope="0.00"/>
        <person id="horiz" x="727.17" y="511.57" angle="270.00" speed="1.28" pos="21.33" edge="2si" slope="0.00"/>
    </timestep>
    <timestep time="33.00">
        <vehicle id="veh0" x="332.70" y="501.65" angle="270.00" type="DEFAULT_VEHTYPE" speed="10.66" pos="153.85" lane="1o_1" slope="0.00"/>
        <person id="detour" x="509.99" y="512.04" angle="266.93" speed="1.15" pos="3.43" edge=":0_w1" slope="0.00"/>
        <person id="tripTest" x="729.93" y="511.57" angle="270.00" speed="1.14" pos="18.57" edge="2si" slope="0.00"/>
        <person id="horiz" x="725.82" y="511.57" angle="270.00" speed="1.35" pos="22.68" edge="2si" slope="0.00"/>
    </timestep>
    <timestep time="34.00">
        <vehicle id="veh0" x="321.95" y="501.65" angle="270.00" type="DEFAULT_VEHTYPE" speed="10.75" pos="164.60" lane="1o_1" slope="0.00"/>
        <person id="detour" x="508.79" y="511.97" angle="266.93" speed="1.20" pos="4.64" edge=":0_w1" slope="0.00"/>
        <person id="tripTest" x="728.71" y="511.57" angle="270.00" speed="1.23" pos="19.79" edge="2si" slope="0.00"/>
        <person id="horiz" x="724.55" y="511.57" angle="270.00" speed="1.27" pos="23.95" edge="2si" slope="0.00"/>
    </timestep>
    <timestep time="35.00">
        <vehicle id="veh0" x="311.58" y="501.65" angle="270.00" type="DEFAULT_VEHTYPE" speed="10.36" pos="174.97" lane="1o_1" slope="0.00"/>
        <person id="detour" x="507.51" y="511.90" angle="266.93" speed="1.28" pos="5.92" edge=":0_w1" slope="0.00"/>
        <person id="tripTest" x="727.48" y="511.57" angle="270.00" speed="1.22" pos="21.02" edge="2si" slope="0.00"/>
        <person id="horiz" x="723.35" y="511.57" angle="270.00" speed="1.20" pos="25.15" edge="2si" slope="0.00"/>
    </timestep>
    <timestep time="36.00">
        <vehicle id="veh0" x="301.54" y="501.65" angle="270.00" type="DEFAULT_VEHTYPE" speed="10.04" pos="185.01" lane="1o_1" slope="0.00"/>
        <person id="detour" x="506.15" y="511.83" angle="266.93" speed="1.36" pos="7.28" edge=":0_w1" slope="0.00"/>
        <person id="tripTest" x="726.27" y="511.57" angle="270.00" speed="1.21" pos="22.23" edge="2si" slope="0.00"/>
        <person id="horiz" x="722.20" y="511.57" angle="270.00" speed="1.15" pos="26.30" edge="2si" slope="0.00"/>
    </timestep>
    <timestep time="37.00">
        <vehicle id="veh0" x="291.71" y="501.65" angle="270.00" type="DEFAULT_VEHTYPE" speed="9.83" pos="194.84" lane="1o_1" slope="0.00"/>
        <person id="detour" x="505.03" y="511.77" angle="266.93" speed="1.13" pos="8.41" edge=":0_w1" slope="0.00"/>
        <person id="tripTest" x="724.89" y="511.57" angle="270.00" speed="1.38" pos="23.61" edge="2si" slope="0.00"/>
        <person id="horiz" x="720.96" y="511.57" angle="270.00" speed="1.24" pos="27.54" edge="2si" slope="0.00"/>
    </timestep>
    <timestep time="38.00">
        <vehicle id="veh0" x="280.81" y="501.65" angle="270.00" type="DEFAULT_VEHTYPE" speed="10.89" pos="205.74" lane="1o_1" slope="0.00"/>
        <person id="detour" x="504.62" y="511.91" angle="0.00" speed="1.14" pos="9.55" edge=":0_w1" slope="0.00"/>
        <person id="tripTest" x="723.75" y="511.57" angle="270.00" speed="1.14" pos="24.75" edge="2si" slope="0.00"/>
        <person id="horiz" x="719.71" y="511.57" angle="270.00" speed="1.25" pos="28.79" edge="2si" slope="0.00"/>
    </timestep>
    <timestep time="39.00">
        <vehicle id="veh0" x="270.14" y="501.65" angle="270.00" type="DEFAULT_VEHTYPE" speed="10.67" pos="216.41" lane="1o_1" slope="0.00"/>
        <person id="detour" x="504.62" y="513.20" angle="0.00" speed="1.29" pos="10.84" edge=":0_w1" slope="0.00"/>
        <person id="tripTest" x="722.49" y="511.57" angle="270.00" speed="1.26" pos="26.01" edge="2si" slope="0.00"/>
        <person id="horiz" x="718.54" y="511.57" angle="270.00" speed="1.17" pos="29.96" edge="2si" slope="0.00"/>
    </timestep>
    <timestep time="40.00">
        <vehicle id="veh0" x="259.05" y="501.65" angle="270.00" type="DEFAULT_VEHTYPE" speed="11.09" pos="227.50" lane="1o_1" slope="0.00"/>
        <person id="tripTest" x="721.36" y="511.57" angle="270.00" speed="1.13" pos="27.14" edge="2si" slope="0.00"/>
        <person id="horiz" x="717.34" y="511.57" angle="270.00" speed="1.21" pos="31.16" edge="2si" slope="0.00"/>
        <person id="detour" x="504.98" y="514.59" angle="0.00" speed="1.39" pos="1.14" edge="4o" slope="0.00"/>
    </timestep>
    <timestep time="41.00">
        <vehicle id="veh0" x="248.09" y="501.65" angle="270.00" type="DEFAULT_VEHTYPE" speed="10.96" pos="238.46" lane="1o_1" slope="0.00"/>
        <person id="tripTest" x="720.22" y="511.57" angle="270.00" speed="1.14" pos="28.28" edge="2si" slope="0.00"/>
        <person id="horiz" x="716.08" y="511.57" angle="270.00" speed="1.25" pos="32.42" edge="2si" slope="0.00"/>
        <person id="detour" x="504.98" y="515.87" angle="0.00" speed="1.27" pos="2.42" edge="4o" slope="0.00"/>
    </timestep>
    <timestep time="42.00">
        <vehicle id="veh0" x="238.27" y="501.65" angle="270.00" type="DEFAULT_VEHTYPE" speed="9.81" pos="248.28" lane="1o_1" slope="0.00"/>
        <person id="tripTest" x="719.06" y="511.57" angle="270.00" speed="1.16" pos="29.44" edge="2si" slope="0.00"/>
        <person id="horiz" x="714.93" y="511.57" angle="270.00" speed="1.15" pos="33.57" edge="2si" slope="0.00"/>
        <person id="detour" x="504.98" y="517.15" angle="0.00" speed="1.28" pos="3.70" edge="4o" slope="0.00"/>
    </timestep>
    <timestep time="43.00">
        <vehicle id="veh0" x="227.76" y="501.65" angle="270.00" type="DEFAULT_VEHTYPE" speed="10.51" pos="258.79" lane="1o_1" slope="0.00"/>
        <person id="tripTest" x="717.93" y="511.57" angle="270.00" speed="1.13" pos="30.57" edge="2si" slope="0.00"/>
        <person id="horiz" x="713.68" y="511.57" angle="270.00" speed="1.25" pos="34.82" edge="2si" slope="0.00"/>
        <person id="detour" x="504.98" y="518.32" angle="0.00" speed="1.17" pos="4.87" edge="4o" slope="0.00"/>
    </timestep>
    <timestep time="44.00">
        <vehicle id="veh0" x="216.85" y="501.65" angle="270.00" type="DEFAULT_VEHTYPE" speed="10.91" pos="269.70" lane="1o_1" slope="0.00"/>
        <person id="tripTest" x="716.63" y="511.57" angle="270.00" speed="1.30" pos="31.87" edge="2si" slope="0.00"/>
        <person id="horiz" x="712.52" y="511.57" angle="270.00" speed="1.15" pos="35.98" edge="2si" slope="0.00"/>
        <person id="detour" x="504.98" y="519.65" angle="0.00" speed="1.33" pos="6.20" edge="4o" slope="0.00"/>
    </timestep>
    <timestep time="45.00">
        <vehicle id="veh0" x="206.32" y="501.65" angle="270.00" type="DEFAULT_VEHTYPE" speed="10.53" pos="280.23" lane="1o_1" slope="0.00"/>
        <person id="tripTest" x="715.34" y="511.57" angle="270.00" speed="1.30" pos="33.16" edge="2si" slope="0.00"/>
        <person id="horiz" x="711.26" y="511.57" angle="270.00" speed="1.26" pos="37.24" edge="2si" slope="0.00"/>
        <person id="detour" x="504.98" y="520.84" angle="0.00" speed="1.19" pos="7.39" edge="4o" slope="0.00"/>
    </timestep>
    <timestep time="46.00">
        <vehicle id="veh0" x="195.97" y="501.65" angle="270.00" type="DEFAULT_VEHTYPE" speed="10.36" pos="290.58" lane="1o_1" slope="0.00"/>
        <person id="tripTest" x="714.17" y="511.57" angle="270.00" speed="1.17" pos="34.33" edge="2si" slope="0.00"/>
        <person id="horiz" x="709.97" y="511.57" angle="270.00" speed="1.29" pos="38.53" edge="2si" slope="0.00"/>
        <person id="detour" x="504.98" y="522.18" angle="0.00" speed="1.35" pos="8.73" edge="4o" slope="0.00"/>
    </timestep>
    <timestep time="47.00">
        <vehicle id="veh0" x="184.98" y="501.65" angle="270.00" type="DEFAULT_VEHTYPE" speed="10.98" pos="301.57" lane="1o_1" slope="0.00"/>
        <person id="tripTest" x="713.00" y="511.57" angle="270.00" speed="1.17" pos="35.50" edge="2si" slope="0.00"/>
        <person id="horiz" x="708.62" y="511.57" angle="270.00" speed="1.35" pos="39.88" edge="2si" slope="0.00"/>
    </timestep>
    <timestep time="48.00">
        <vehicle id="veh0" x="174.13" y="501.65" angle="270.00" type="DEFAULT_VEHTYPE" speed="10.86" pos="312.42" lane="1o_1" slope="0.00"/>
        <person id="tripTest" x="711.67" y="511.57" angle="270.00" speed="1.33" pos="36.83" edge="2si" slope="0.00"/>
        <person id="horiz" x="707.29" y="511.57" angle="270.00" speed="1.33" pos="41.21" edge="2si" slope="0.00"/>
    </timestep>
    <timestep time="49.00">
        <vehicle id="veh0" x="163.34" y="501.65" angle="270.00" type="DEFAULT_VEHTYPE" speed="10.78" pos="323.21" lane="1o_1" slope="0.00"/>
        <person id="tripTest" x="710.37" y="511.57" angle="270.00" speed="1.30" pos="38.13" edge="2si" slope="0.00"/>
        <person id="horiz" x="706.16" y="511.57" angle="270.00" speed="1.13" pos="42.34" edge="2si" slope="0.00"/>
    </timestep>
    <timestep time="50.00">
        <vehicle id="veh0" x="152.48" y="501.65" angle="270.00" type="DEFAULT_VEHTYPE" speed="10.86" pos="334.07" lane="1o_1" slope="0.00"/>
        <person id="tripTest" x="709.11" y="511.57" angle="270.00" speed="1.26" pos="39.39" edge="2si" slope="0.00"/>
        <person id="horiz" x="705.00" y="511.57" angle="270.00" speed="1.15" pos="43.50" edge="2si" slope="0.00"/>
    </timestep>
    <timestep time="51.00">
        <vehicle id="veh0" x="141.66" y="501.65" angle="270.00" type="DEFAULT_VEHTYPE" speed="10.82" pos="344.89" lane="1o_1" slope="0.00"/>
        <person id="tripTest" x="707.99" y="511.57" angle="270.00" speed="1.13" pos="40.51" edge="2si" slope="0.00"/>
        <person id="horiz" x="703.68" y="511.57" angle="270.00" speed="1.32" pos="44.82" edge="2si" slope="0.00"/>
    </timestep>