<?xml version="1.0" encoding="UTF-8"?>

<!-- generated on 2026-01-22T16:25:35.443141+01:00 by Eclipse SUMO sumo v1_25_0+1143-5cfd67bbee0
This data file and the accompanying materials
are made available under the terms of the Eclipse Public License v2.0
which accompanies this distribution, and is available at
http://www.eclipse.org/legal/epl-v20.html
This file may also be made available under the following Secondary
Licenses when the conditions for such availability set forth in the Eclipse
Public License 2.0 are satisfied: GNU General Public License, version 2
or later which is available at
https://www.gnu.org/licenses/old-licenses/gpl-2.0-standalone.html
SPDX-License-Identifier: EPL-2.0 OR GPL-2.0-or-later
<sumoConfiguration xmlns:xsi="http://www.w3.org/2001/XMLSchema-instance" xsi:noNamespaceSchemaLocation="http://sumo.dlr.de/xsd/sumoConfiguration.xsd">

    <input>
        <net-file value="net.net.xml"/>
        <route-files value="input_routes.rou.xml"/>
        <additional-files value="input_additional.add.xml"/>
    </input>

    <output>
        <write-license value="true"/>
        <chargingstations-output value="chargingstations.xml"/>
        <tripinfo-output value="tripinfos.xml"/>
    </output>

    <processing>
        <default.speeddev value="0"/>
    </processing>

    <report>
        <xml-validation value="never"/>
        <duration-log.disable value="true"/>
        <no-step-log value="true"/>
    </report>

    <battery>
        <device.stationfinder.probability value="1"/>
        <device.stationfinder.checkEnergyForRoute value="false"/>
    </battery>

</sumoConfiguration>
-->

<tripinfos xmlns:xsi="http://www.w3.org/2001/XMLSchema-instance" xsi:noNamespaceSchemaLocation="http://sumo.dlr.de/xsd/tripinfo_file.xsd">
    <tripinfo id="veh0" depart="0.00" departLane="E0E1_0" departPos="12.10" departSpeed="0.00" departDelay="0.00" arrival="5578.00" arrivalLane="A3A4_0" arrivalPos="500.00" arrivalSpeed="13.89" duration="5578.00" routeLength="6738.41" waitingTime="81.00" waitingCount="6" stopTime="4937.00" timeLoss="136.26" rerouteNo="1" devices="tripinfo_veh0 stationfinder_veh0 battery_veh0" vType="ElectricVehicle1" speedFactor="1.00" vaporized="">
        <battery depleted="0" actualBatteryCapacity="25181.69" totalEnergyConsumed="4361.15" totalEnergyRegenerated="283.28"/>
    </tripinfo>
    <tripinfo id="veh1" depart="1.00" departLane="E4E3_0" departPos="5.10" departSpeed="0.00" departDelay="0.00" arrival="5848.00" arrivalLane="B0A0_0" arrivalPos="500.00" arrivalSpeed="13.89" duration="5847.00" routeLength="3971.08" waitingTime="174.00" waitingCount="6" stopTime="5306.00" timeLoss="227.85" rerouteNo="1" devices="tripinfo_veh1 stationfinder_veh1 battery_veh1" vType="ElectricVehicle2" speedFactor="1.00" vaporized="">
        <battery depleted="0" actualBatteryCapacity="26581.62" totalEnergyConsumed="2590.98" totalEnergyRegenerated="168.02"/>
    </tripinfo>
    <tripinfo id="veh2" depart="2.00" departLane="A4A3_0" departPos="12.10" departSpeed="0.00" departDelay="0.00" arrival="5938.00" arrivalLane="D0E0_0" arrivalPos="500.00" arrivalSpeed="13.89" duration="5936.00" routeLength="3979.56" waitingTime="246.00" waitingCount="7" stopTime="5311.00" timeLoss="304.58" rerouteNo="1" devices="tripinfo_veh2 stationfinder_veh2 battery_veh2" vType="ElectricVehicle1" speedFactor="1.00" vaporized="">
        <battery depleted="0" actualBatteryCapacity="26570.35" totalEnergyConsumed="2651.54" totalEnergyRegenerated="206.75"/>
    </tripinfo>
</tripinfos>
