<?xml version="1.0"?>

<!-- generated on 03/14/08 13:56:02 by SUMO sumo Version 0.9.7
<configuration>

   <input>
      <net-file>three_split.net.xml</net-file>
      <additional-files>input_routes.rou.xml,input_additional.add.xml</additional-files>
   </input>

   <output>
      <vehroute-output>vehroutes.xml</vehroute-output>
   </output>

   <time>
      <begin>0</begin>
   </time>

   <processing>
      <no-duration-log>true</no-duration-log>
      <no-step-log>true</no-step-log>
   </processing>

</configuration>
-->

<vehicleroutes>
   <vehicle id="0" emittedAt="0" endedAt="77">
      <route>beg middle end rend</route>
   </vehicle>

   <vehicle id="0_0" emittedAt="20" endedAt="97">
      <route>beg middle end rend</route>
   </vehicle>

   <vehicle id="0_1" emittedAt="40" endedAt="117">
      <route>beg middle end rend</route>
   </vehicle>

   <vehicle id="0_5" emittedAt="120" endedAt="197">
      <route>beg middle end rend</route>
   </vehicle>

   <vehicle id="0_6" emittedAt="140" endedAt="217">
      <route>beg middle end rend</route>
   </vehicle>

   <vehicle id="0_7" emittedAt="160" endedAt="237">
      <route>beg middle end rend</route>
   </vehicle>

   <vehicle id="0_2" emittedAt="60" endedAt="248">
      <route replacedOnEdge="beg"  replacedAtTime="60">beg middle end rend</route>

      <route>beg beg2left left left2end end rend</route>
   </vehicle>

   <vehicle id="0_8" emittedAt="180" endedAt="257">
      <route>beg middle end rend</route>
   </vehicle>

   <vehicle id="0_3" emittedAt="80" endedAt="268">
      <route replacedOnEdge="beg"  replacedAtTime="80">beg middle end rend</route>

      <route>beg beg2left left left2end end rend</route>
   </vehicle>

   <vehicle id="0_9" emittedAt="200" endedAt="277">
      <route>beg middle end rend</route>
   </vehicle>

   <vehicle id="0_4" emittedAt="100" endedAt="288">
      <route replacedOnEdge="beg"  replacedAtTime="100">beg middle end rend</route>

      <route>beg beg2left left left2end end rend</route>
   </vehicle>

</vehicleroutes>
