<?xml version="1.0"?>

<!-- generated on 04/17/08 12:06:19 by SUMO sumo Version 0.9.7
<configuration>

   <input>
      <net-file>three_split.net.xml</net-file>
      <additional-files>input_routes.rou.xml,input_additional.add.xml</additional-files>
   </input>

   <output>
      <vehroute-output>vehroutes.xml</vehroute-output>
   </output>

   <time>
      <begin>0</begin>
   </time>

   <processing>
      <no-duration-log>true</no-duration-log>
      <no-step-log>true</no-step-log>
   </processing>

</configuration>
-->

<routes>
   <vehicle id="0" depart="0" arrival="77">
      <route edges="beg middle end rend"/>
   </vehicle>

   <vehicle id="0_0" depart="20" arrival="97">
      <route edges="beg middle end rend"/>
   </vehicle>

   <vehicle id="0_1" depart="40" arrival="117">
      <route edges="beg middle end rend"/>
   </vehicle>

   <vehicle id="0_5" depart="120" arrival="197">
      <route edges="beg middle end rend"/>
   </vehicle>

   <vehicle id="0_6" depart="140" arrival="217">
      <route edges="beg middle end rend"/>
   </vehicle>

   <vehicle id="0_7" depart="160" arrival="237">
      <route edges="beg middle end rend"/>
   </vehicle>

   <vehicle id="0_2" depart="60" arrival="248">
      <replaced_route replacedOnEdge="beg"  replacedAtTime="60" edges="beg middle end rend"/>

      <route edges="beg beg2left left left2end end rend"/>
   </vehicle>

   <vehicle id="0_8" depart="180" arrival="257">
      <route edges="beg middle end rend"/>
   </vehicle>

   <vehicle id="0_3" depart="80" arrival="268">
      <replaced_route replacedOnEdge="beg"  replacedAtTime="80" edges="beg middle end rend"/>

      <route edges="beg beg2left left left2end end rend"/>
   </vehicle>

   <vehicle id="0_9" depart="200" arrival="277">
      <route edges="beg middle end rend"/>
   </vehicle>

   <vehicle id="0_4" depart="100" arrival="288">
      <replaced_route replacedOnEdge="beg"  replacedAtTime="100" edges="beg middle end rend"/>

      <route edges="beg beg2left left left2end end rend"/>
   </vehicle>

</routes>
