<?xml version="1.0" encoding="UTF-8"?>

<!-- generated on 05/02/13 15:11:30 by SUMO sumo Version 0.17.0
<?xml version="1.0" encoding="UTF-8"?>

<configuration xmlns:xsi="http://www.w3.org/2001/XMLSchema-instance" xsi:noNamespaceSchemaLocation="http://sumo-sim.org/xsd/sumoConfiguration.xsd">

    <input>
        <net-file value="three_split.net.xml"/>
        <route-files value="input_routes.rou.xml"/>
        <additional-files value="input_additional.add.xml"/>
    </input>

    <output>
        <vehroute-output value="vehroutes.xml"/>
    </output>

    <report>
        <no-duration-log value="true"/>
        <no-step-log value="true"/>
    </report>

    <mesoscopic>
        <mesosim value="true"/>
    </mesoscopic>

</configuration>
-->

<calibratorstats>
   <interval begin="0.00" end="100.00" id="calibtest" nVehContrib="6" removed="0" inserted="5" cleared="0" flow="216.00" aspiredFlow="200.00" speed="27.81" aspiredSpeed="-1.00"/>
</calibratorstats>
