<?xml version="1.0" encoding="UTF-8"?>

<!-- generated on 03/27/14 13:39:36 by SUMO sumo Version dev-SVN-rUNKNOWN
<?xml version="1.0" encoding="UTF-8"?>

<configuration xmlns:xsi="http://www.w3.org/2001/XMLSchema-instance" xsi:noNamespaceSchemaLocation="http://sumo-sim.org/xsd/sumoConfiguration.xsd">

    <input>
        <net-file value="net.net.xml"/>
        <route-files value="input_routes.rou.xml"/>
        <additional-files value="input_additional2.add.xml"/>
    </input>

    <output>
        <emission-output value="rawdump.xml"/>
    </output>

    <time>
        <begin value="0"/>
        <end value="10"/>
    </time>

    <report>
        <xml-validation value="never"/>
        <no-duration-log value="true"/>
        <no-step-log value="true"/>
    </report>

</configuration>
-->

<emission-export xmlns:xsi="http://www.w3.org/2001/XMLSchema-instance" xsi:noNamespaceSchemaLocation="http://sumo-sim.org/xsd/emission_file.xsd">
    <timestep time="0.00">
        <vehicle id="0" eclass="HBEFA2/P_7_7" CO2="1680.07" CO="0.00" HC="0.29" NOx="2.67" PMx="0.10" fuel="0.67" noise="61.77" route="r1" type="DEFAULT_VEHTYPE" waiting="0.00" lane="4/1to3/1_0" pos="100.00" speed="10.00" angle="-90.00" x="1495.25" y="401.65"/>
    </timestep>
    <timestep time="1.00">
        <vehicle id="0" eclass="HBEFA2/P_7_7" CO2="1680.07" CO="0.00" HC="0.29" NOx="2.67" PMx="0.10" fuel="0.67" noise="61.77" route="r1" type="DEFAULT_VEHTYPE" waiting="0.00" lane="4/1to3/1_0" pos="110.00" speed="10.00" angle="-90.00" x="1485.25" y="401.65"/>
    </timestep>
    <timestep time="2.00">
        <vehicle id="0" eclass="HBEFA2/P_7_7" CO2="1680.07" CO="0.00" HC="0.29" NOx="2.67" PMx="0.10" fuel="0.67" noise="61.77" route="r1" type="DEFAULT_VEHTYPE" waiting="0.00" lane="4/1to3/1_0" pos="120.00" speed="10.00" angle="-90.00" x="1475.25" y="401.65"/>
    </timestep>
    <timestep time="3.00">
        <vehicle id="0" eclass="HBEFA2/P_7_7" CO2="1680.07" CO="0.00" HC="0.29" NOx="2.67" PMx="0.10" fuel="0.67" noise="61.77" route="r1" type="DEFAULT_VEHTYPE" waiting="0.00" lane="4/1to3/1_0" pos="130.00" speed="10.00" angle="-90.00" x="1465.25" y="401.65"/>
    </timestep>
    <timestep time="4.00">
        <vehicle id="0" eclass="HBEFA2/P_7_7" CO2="1680.07" CO="0.00" HC="0.29" NOx="2.67" PMx="0.10" fuel="0.67" noise="61.77" route="r1" type="DEFAULT_VEHTYPE" waiting="0.00" lane="4/1to3/1_0" pos="140.00" speed="10.00" angle="-90.00" x="1455.25" y="401.65"/>
    </timestep>
    <timestep time="5.00">
        <vehicle id="0" eclass="HBEFA2/P_7_7" CO2="1680.07" CO="0.00" HC="0.29" NOx="2.67" PMx="0.10" fuel="0.67" noise="61.77" route="r1" type="DEFAULT_VEHTYPE" waiting="0.00" lane="4/1to3/1_0" pos="150.00" speed="10.00" angle="-90.00" x="1445.25" y="401.65"/>
    </timestep>
    <timestep time="6.00">
        <vehicle id="0" eclass="HBEFA2/P_7_7" CO2="1680.07" CO="0.00" HC="0.29" NOx="2.67" PMx="0.10" fuel="0.67" noise="61.77" route="r1" type="DEFAULT_VEHTYPE" waiting="0.00" lane="4/1to3/1_0" pos="160.00" speed="10.00" angle="-90.00" x="1435.25" y="401.65"/>
    </timestep>
    <timestep time="7.00">
        <vehicle id="0" eclass="HBEFA2/P_7_7" CO2="1680.07" CO="0.00" HC="0.29" NOx="2.67" PMx="0.10" fuel="0.67" noise="61.77" route="r1" type="DEFAULT_VEHTYPE" waiting="0.00" lane="4/1to3/1_0" pos="170.00" speed="10.00" angle="-90.00" x="1425.25" y="401.65"/>
    </timestep>
    <timestep time="8.00">
        <vehicle id="0" eclass="HBEFA2/P_7_7" CO2="1680.07" CO="0.00" HC="0.29" NOx="2.67" PMx="0.10" fuel="0.67" noise="61.77" route="r1" type="DEFAULT_VEHTYPE" waiting="0.00" lane="4/1to3/1_0" pos="180.00" speed="10.00" angle="-90.00" x="1415.25" y="401.65"/>
    </timestep>
    <timestep time="9.00">
        <vehicle id="0" eclass="HBEFA2/P_7_7" CO2="1680.07" CO="0.00" HC="0.29" NOx="2.67" PMx="0.10" fuel="0.67" noise="61.77" route="r1" type="DEFAULT_VEHTYPE" waiting="0.00" lane="4/1to3/1_0" pos="190.00" speed="10.00" angle="-90.00" x="1405.25" y="401.65"/>
    </timestep>
</emission-export>
