<?xml version="1.0"?>

<!-- generated on 04/30/09 09:14:45 by SUMO sumo Version dev-SVN-r7092
<configuration>

   <input>
      <net-file>net.net.xml</net-file>
      <additional-files>input_routes.rou.xml,input_additional.add.xml,input_additional2.add.xml</additional-files>
   </input>

   <time>
      <begin>0</begin>
      <end>100</end>
   </time>

   <processing>
      <no-duration-log>true</no-duration-log>
      <no-step-log>true</no-step-log>
   </processing>

</configuration>
-->

<detector>
   <interval begin="0" end="100" id="3/1to2/1" nVehContrib="2" flow="72.00" occupancy="2.00" speed="10.00" length="10.00" nVehEntered="2"/>
   <interval begin="0" end="100" id="4/1to3/1" nVehContrib="2" flow="72.00" occupancy="2.00" speed="10.00" length="10.00" nVehEntered="2"/>
   <interval begin="100" end="101" id="3/1to2/1" nVehContrib="0" flow="0.00" occupancy="0.00" speed="-1.00" length="-1.00" nVehEntered="0"/>
   <interval begin="100" end="101" id="4/1to3/1" nVehContrib="0" flow="0.00" occupancy="0.00" speed="-1.00" length="-1.00" nVehEntered="0"/>
</detector>
