<?xml version="1.0" encoding="UTF-8"?>

<!-- generated on Wed Jan  3 09:21:36 2018 by SUMO Version v0_32_0+0043-24523c2
<?xml version="1.0" encoding="UTF-8"?>

<configuration xmlns:xsi="http://www.w3.org/2001/XMLSchema-instance" xsi:noNamespaceSchemaLocation="http://sumo.dlr.de/xsd/sumoConfiguration.xsd">

    <input>
        <net-file value="net3.net.xml"/>
        <route-files value="input_routes.rou.xml"/>
        <additional-files value="input_additional2.add.xml"/>
    </input>

    <output>
        <tripinfo-output value="tripinfos.xml"/>
    </output>

    <processing>
        <pedestrian.model value="nonInteracting"/>
    </processing>

    <report>
        <xml-validation value="never"/>
        <no-step-log value="true"/>
    </report>

</configuration>
-->

<tripinfos xmlns:xsi="http://www.w3.org/2001/XMLSchema-instance" xsi:noNamespaceSchemaLocation="http://sumo.dlr.de/xsd/tripinfo_file.xsd">
    <personinfo id="p0" depart="15.00">
        <walk depart="15.00" departPos="74.15" arrival="25.00" arrivalPos="0.00" duration="10.00" routeLength="12.00" timeLoss="1.36" maxSpeed="1.39"/>
    </personinfo>
    <tripinfo id="car_NE" depart="10.00" departLane="NC_4" departPos="5.10" departSpeed="0.00" departDelay="0.00" arrival="55.00" arrivalLane="CE_4" arrivalPos="86.15" arrivalSpeed="13.89" duration="45.00" routeLength="192.35" waitingTime="24.00" stopTime="0.00" timeLoss="30.38" rerouteNo="0" devices="tripinfo_car_NE" vType="car" speedFactor="1.00" vaporized=""/>
</tripinfos>
