<?xml version="1.0" encoding="UTF-8"?>

<!-- generated on 2021-11-30 11:28:48 by Eclipse SUMO sumo Version v1_11_0+0189-7be604757dc
<configuration xmlns:xsi="http://www.w3.org/2001/XMLSchema-instance" xsi:noNamespaceSchemaLocation="http://sumo.dlr.de/xsd/sumoConfiguration.xsd">

    <input>
        <net-file value="input_net.net.xml"/>
        <route-files value="input_routes.rou.xml"/>
        <additional-files value="input_additional.add.xml"/>
    </input>

    <report>
        <no-step-log value="true"/>
    </report>

    <traci_server>
        <remote-port value="50047"/>
    </traci_server>

</configuration>
-->

<detector xmlns:xsi="http://www.w3.org/2001/XMLSchema-instance" xsi:noNamespaceSchemaLocation="http://sumo.dlr.de/xsd/det_e1_file.xsd">
    <interval begin="0.00" end="374.00" id="4_1" nVehContrib="25" flow="240.64" occupancy="2.76" speed="12.19" harmonicMeanSpeed="12.10" length="5.00" nVehEntered="25"/>
    <interval begin="0.00" end="374.00" id="4_2" nVehContrib="23" flow="221.39" occupancy="2.49" speed="12.37" harmonicMeanSpeed="12.33" length="5.00" nVehEntered="23"/>
</detector>
