<?xml version="1.0" encoding="UTF-8"?>

<!-- generated on 2022-12-04 17:48:44 by Eclipse SUMO sumo Version v1_15_0+0751-db72905
<configuration xmlns:xsi="http://www.w3.org/2001/XMLSchema-instance" xsi:noNamespaceSchemaLocation="http://sumo.dlr.de/xsd/sumoConfiguration.xsd">

    <input>
        <net-file value="input_net.net.xml"/>
        <route-files value="input_routes.rou.xml"/>
        <additional-files value="input_additional.add.xml"/>
    </input>

    <report>
        <no-step-log value="true"/>
    </report>

    <traci_server>
        <remote-port value="57675"/>
    </traci_server>

</configuration>
-->

<detector xmlns:xsi="http://www.w3.org/2001/XMLSchema-instance" xsi:noNamespaceSchemaLocation="http://sumo.dlr.de/xsd/det_e1_file.xsd">
    <interval begin="0.00" end="376.00" id="4_1" nVehContrib="23" flow="220.21" occupancy="2.75" speed="11.46" harmonicMeanSpeed="11.11" length="5.00" nVehEntered="23"/>
    <interval begin="0.00" end="376.00" id="4_2" nVehContrib="22" flow="210.64" occupancy="2.42" speed="12.18" harmonicMeanSpeed="12.11" length="5.00" nVehEntered="22"/>
</detector>
