<?xml version="1.0" encoding="UTF-8"?>

<!-- generated on Wed Mar 11 22:23:52 2020 by Eclipse SUMO Version v1_5_0+0662-a598ecae47
This data file and the accompanying materials
are made available under the terms of the Eclipse Public License v2.0
which accompanies this distribution, and is available at
http://www.eclipse.org/legal/epl-v20.html
SPDX-License-Identifier: EPL-2.0
<configuration xmlns:xsi="http://www.w3.org/2001/XMLSchema-instance" xsi:noNamespaceSchemaLocation="http://sumo.dlr.de/xsd/sumoConfiguration.xsd">

    <input>
        <net-file value="net.net.xml"/>
        <route-files value="input_routes.rou.xml"/>
    </input>

    <output>
        <write-license value="true"/>
        <tripinfo-output value="tripinfos.xml"/>
    </output>

    <processing>
        <lateral-resolution value="0.3"/>
        <default.speeddev value="0"/>
    </processing>

    <report>
        <xml-validation value="never"/>
        <no-step-log value="true"/>
    </report>

</configuration>
-->

<tripinfos xmlns:xsi="http://www.w3.org/2001/XMLSchema-instance" xsi:noNamespaceSchemaLocation="http://sumo.dlr.de/xsd/tripinfo_file.xsd">
    <tripinfo id="blocker2" depart="0.00" departLane="-784_2" departPos="67.74" departPosLat="0.00" departSpeed="0.00" departDelay="0.00" arrival="46.00" arrivalLane="-372_1" arrivalPos="101.73" arrivalPosLat="0.00" arrivalSpeed="12.34" duration="46.00" routeLength="142.48" waitingTime="0.00" waitingCount="0" stopTime="20.00" timeLoss="15.71" rerouteNo="1" devices="tripinfo_blocker2 routing_blocker2" vType="truck" speedFactor="1.00" vaporized=""/>
    <tripinfo id="a" depart="0.00" departLane="372_2" departPos="91.73" departPosLat="-0.85" departSpeed="0.00" departDelay="0.00" arrival="59.00" arrivalLane="788_1" arrivalPos="93.65" arrivalPosLat="1.35" arrivalSpeed="5.25" duration="59.00" routeLength="123.26" waitingTime="28.00" waitingCount="1" stopTime="0.00" timeLoss="36.10" rerouteNo="0" devices="tripinfo_a routing_a" vType="bike" speedFactor="1.00" vaporized=""/>
    <tripinfo id="blocker" depart="0.00" departLane="372_1" departPos="76.73" departPosLat="1.40" departSpeed="0.00" departDelay="0.00" arrival="59.00" arrivalLane="784_1" arrivalPos="87.74" arrivalPosLat="1.40" arrivalSpeed="5.31" duration="59.00" routeLength="133.42" waitingTime="27.00" waitingCount="1" stopTime="0.00" timeLoss="34.63" rerouteNo="0" devices="tripinfo_blocker routing_blocker" vType="bike" speedFactor="1.00" vaporized=""/>
</tripinfos>
