<?xml version="1.0" encoding="UTF-8"?>

<!-- generated on Wed Jan  3 09:21:41 2018 by SUMO Version v0_32_0+0043-24523c2
<?xml version="1.0" encoding="UTF-8"?>

<configuration xmlns:xsi="http://www.w3.org/2001/XMLSchema-instance" xsi:noNamespaceSchemaLocation="http://sumo.dlr.de/xsd/sumoConfiguration.xsd">

    <input>
        <net-file value="net.net.xml"/>
        <route-files value="input_routes.rou.xml"/>
    </input>

    <output>
        <fcd-output value="fcd.xml"/>
        <tripinfo-output value="tripinfos.xml"/>
        <lanechange-output value="lanechanges.xml"/>
    </output>

    <processing>
        <lateral-resolution value="0.2"/>
    </processing>

    <report>
        <xml-validation value="never"/>
        <no-step-log value="true"/>
    </report>

</configuration>
-->

<tripinfos xmlns:xsi="http://www.w3.org/2001/XMLSchema-instance" xsi:noNamespaceSchemaLocation="http://sumo.dlr.de/xsd/tripinfo_file.xsd">
    <tripinfo id="blocker1" depart="0.00" departLane="beg_1" departPos="0.00" departPosLat="0.00" departSpeed="13.89" departDelay="0.00" arrival="22.00" arrivalLane="end_0" arrivalPos="100.00" arrivalPosLat="1.60" arrivalSpeed="13.89" duration="22.00" routeLength="300.00" waitingTime="0.00" stopTime="0.00" timeLoss="0.00" rerouteNo="0" devices="tripinfo_blocker1" vType="t1" speedFactor="1.00" vaporized=""/>
    <tripinfo id="merge" depart="0.00" departLane="beg_0" departPos="0.00" departPosLat="0.00" departSpeed="13.89" departDelay="0.00" arrival="22.00" arrivalLane="end_0" arrivalPos="100.00" arrivalPosLat="-0.70" arrivalSpeed="13.89" duration="22.00" routeLength="300.00" waitingTime="0.00" stopTime="0.00" timeLoss="0.00" rerouteNo="0" devices="tripinfo_merge" vType="t0" speedFactor="1.00" vaporized=""/>
    <tripinfo id="blocker2" depart="0.00" departLane="beg_2" departPos="0.00" departPosLat="0.00" departSpeed="13.89" departDelay="0.00" arrival="22.00" arrivalLane="end_1" arrivalPos="100.00" arrivalPosLat="0.70" arrivalSpeed="13.89" duration="22.00" routeLength="300.00" waitingTime="0.00" stopTime="0.00" timeLoss="0.00" rerouteNo="0" devices="tripinfo_blocker2" vType="t1" speedFactor="1.00" vaporized=""/>
</tripinfos>
