<?xml version="1.0" encoding="UTF-8"?>

<!-- generated on 2022-04-06 08:42:10 by Eclipse SUMO sumo Version v1_12_0+1975-94a757c
This data file and the accompanying materials
are made available under the terms of the Eclipse Public License v2.0
which accompanies this distribution, and is available at
http://www.eclipse.org/legal/epl-v20.html
This file may also be made available under the following Secondary
Licenses when the conditions for such availability set forth in the Eclipse
Public License 2.0 are satisfied: GNU General Public License, version 2
or later which is available at
https://www.gnu.org/licenses/old-licenses/gpl-2.0-standalone.html
SPDX-License-Identifier: EPL-2.0 OR GPL-2.0-or-later
<configuration xmlns:xsi="http://www.w3.org/2001/XMLSchema-instance" xsi:noNamespaceSchemaLocation="http://sumo.dlr.de/xsd/sumoConfiguration.xsd">

    <input>
        <net-file value="net.net.xml"/>
        <route-files value="input_routes.rou.xml"/>
    </input>

    <output>
        <write-license value="true"/>
        <fcd-output value="fcd.xml"/>
    </output>

    <time>
        <step-length value="0.1"/>
    </time>

    <processing>
        <default.speeddev value="0"/>
    </processing>

    <report>
        <verbose value="true"/>
        <xml-validation value="never"/>
        <xml-validation.routes value="never"/>
        <duration-log.statistics value="true"/>
        <no-step-log value="true"/>
    </report>

    <gui_only>
        <tracker-interval value="0.1"/>
    </gui_only>

</configuration>
-->

<fcd-export xmlns:xsi="http://www.w3.org/2001/XMLSchema-instance" xsi:noNamespaceSchemaLocation="http://sumo.dlr.de/xsd/fcd_file.xsd">
    <timestep time="0.00">
        <vehicle id="0" x="5.10" y="0.00" angle="90.00" type="t" speed="13.89" pos="5.10" lane="gneE0_0" slope="0.00"/>
    </timestep>
    <timestep time="0.10">
        <vehicle id="0" x="6.47" y="0.00" angle="90.00" type="t" speed="13.66" pos="6.47" lane="gneE0_0" slope="0.00"/>
    </timestep>
    <timestep time="0.20">
        <vehicle id="0" x="7.81" y="0.00" angle="90.00" type="t" speed="13.43" pos="7.81" lane="gneE0_0" slope="0.00"/>
    </timestep>
    <timestep time="0.30">
        <vehicle id="0" x="9.13" y="0.00" angle="90.00" type="t" speed="13.20" pos="9.13" lane="gneE0_0" slope="0.00"/>
    </timestep>
    <timestep time="0.40">
        <vehicle id="0" x="10.42" y="0.00" angle="90.00" type="t" speed="12.96" pos="10.42" lane="gneE0_0" slope="0.00"/>
    </timestep>
    <timestep time="0.50">
        <vehicle id="0" x="11.70" y="0.00" angle="90.00" type="t" speed="12.73" pos="11.70" lane="gneE0_0" slope="0.00"/>
    </timestep>
    <timestep time="0.60">
        <vehicle id="0" x="12.95" y="0.00" angle="90.00" type="t" speed="12.50" pos="12.95" lane="gneE0_0" slope="0.00"/>
    </timestep>
    <timestep time="0.70">
        <vehicle id="0" x="14.17" y="0.00" angle="90.00" type="t" speed="12.27" pos="14.17" lane="gneE0_0" slope="0.00"/>
    </timestep>
    <timestep time="0.80">
        <vehicle id="0" x="15.38" y="0.00" angle="90.00" type="t" speed="12.04" pos="15.38" lane="gneE0_0" slope="0.00"/>
    </timestep>
    <timestep time="0.90">
        <vehicle id="0" x="16.59" y="0.00" angle="90.00" type="t" speed="12.08" pos="16.59" lane="gneE0_0" slope="0.00"/>
    </timestep>
    <timestep time="1.00">
        <vehicle id="0" x="17.80" y="0.00" angle="90.00" type="t" speed="12.13" pos="17.80" lane="gneE0_0" slope="0.00"/>
    </timestep>
    <timestep time="1.10">
        <vehicle id="0" x="19.02" y="0.00" angle="90.00" type="t" speed="12.18" pos="19.02" lane="gneE0_0" slope="0.00"/>
    </timestep>
    <timestep time="1.20">
        <vehicle id="0" x="20.24" y="0.00" angle="90.00" type="t" speed="12.22" pos="20.24" lane="gneE0_0" slope="0.00"/>
    </timestep>
    <timestep time="1.30">
        <vehicle id="0" x="21.47" y="0.00" angle="90.00" type="t" speed="12.27" pos="21.47" lane="gneE0_0" slope="0.00"/>
    </timestep>
    <timestep time="1.40">
        <vehicle id="0" x="22.70" y="0.00" angle="90.00" type="t" speed="12.32" pos="22.70" lane="gneE0_0" slope="0.00"/>
    </timestep>
    <timestep time="1.50">
        <vehicle id="0" x="23.93" y="0.00" angle="90.00" type="t" speed="12.36" pos="23.93" lane="gneE0_0" slope="0.00"/>
    </timestep>
    <timestep time="1.60">
        <vehicle id="0" x="25.17" y="0.00" angle="90.00" type="t" speed="12.41" pos="25.17" lane="gneE0_0" slope="0.00"/>
    </timestep>
    <timestep time="1.70">
        <vehicle id="0" x="26.43" y="0.00" angle="90.00" type="t" speed="12.58" pos="26.43" lane="gneE0_0" slope="0.00"/>
    </timestep>
    <timestep time="1.80">
        <vehicle id="0" x="27.71" y="0.00" angle="90.00" type="t" speed="12.75" pos="27.71" lane="gneE0_0" slope="0.00"/>
    </timestep>
    <timestep time="1.90">
        <vehicle id="0" x="29.00" y="0.00" angle="90.00" type="t" speed="12.93" pos="29.00" lane="gneE0_0" slope="0.00"/>
    </timestep>
    <timestep time="2.00">
        <vehicle id="0" x="30.31" y="0.00" angle="90.00" type="t" speed="13.10" pos="30.31" lane="gneE0_0" slope="0.00"/>
    </timestep>
    <timestep time="2.10">
        <vehicle id="0" x="31.64" y="0.00" angle="90.00" type="t" speed="13.28" pos="31.64" lane="gneE0_0" slope="0.00"/>
    </timestep>
    <timestep time="2.20">
        <vehicle id="0" x="32.98" y="0.00" angle="90.00" type="t" speed="13.45" pos="32.98" lane="gneE0_0" slope="0.00"/>
    </timestep>
    <timestep time="2.30">
        <vehicle id="0" x="34.35" y="0.00" angle="90.00" type="t" speed="13.62" pos="34.35" lane="gneE0_0" slope="0.00"/>
    </timestep>
    <timestep time="2.40">
        <vehicle id="0" x="35.73" y="0.00" angle="90.00" type="t" speed="13.80" pos="35.73" lane="gneE0_0" slope="0.00"/>
    </timestep>
    <timestep time="2.50">
        <vehicle id="0" x="37.09" y="0.00" angle="90.00" type="t" speed="13.68" pos="37.09" lane="gneE0_0" slope="0.00"/>
    </timestep>
    <timestep time="2.60">
        <vehicle id="0" x="38.45" y="0.00" angle="90.00" type="t" speed="13.56" pos="38.45" lane="gneE0_0" slope="0.00"/>
    </timestep>
    <timestep time="2.70">
        <vehicle id="0" x="39.79" y="0.00" angle="90.00" type="t" speed="13.45" pos="39.79" lane="gneE0_0" slope="0.00"/>
    </timestep>
    <timestep time="2.80">
        <vehicle id="0" x="41.13" y="0.00" angle="90.00" type="t" speed="13.33" pos="41.13" lane="gneE0_0" slope="0.00"/>
    </timestep>
    <timestep time="2.90">
        <vehicle id="0" x="42.45" y="0.00" angle="90.00" type="t" speed="13.22" pos="42.45" lane="gneE0_0" slope="0.00"/>
    </timestep>
    <timestep time="3.00">
        <vehicle id="0" x="43.76" y="0.00" angle="90.00" type="t" speed="13.10" pos="43.76" lane="gneE0_0" slope="0.00"/>
    </timestep>
    <timestep time="3.10">
        <vehicle id="0" x="45.06" y="0.00" angle="90.00" type="t" speed="12.98" pos="45.06" lane="gneE0_0" slope="0.00"/>
    </timestep>
    <timestep time="3.20">
        <vehicle id="0" x="46.34" y="0.00" angle="90.00" type="t" speed="12.87" pos="46.34" lane="gneE0_0" slope="0.00"/>
    </timestep>
    <timestep time="3.30">
        <vehicle id="0" x="47.63" y="0.00" angle="90.00" type="t" speed="12.84" pos="47.63" lane="gneE0_0" slope="0.00"/>
    </timestep>
    <timestep time="3.40">
        <vehicle id="0" x="48.91" y="0.00" angle="90.00" type="t" speed="12.82" pos="48.91" lane="gneE0_0" slope="0.00"/>
    </timestep>
    <timestep time="3.50">
        <vehicle id="0" x="50.19" y="0.00" angle="90.00" type="t" speed="12.79" pos="50.19" lane="gneE0_0" slope="0.00"/>
    </timestep>
    <timestep time="3.60">
        <vehicle id="0" x="51.47" y="0.00" angle="90.00" type="t" speed="12.77" pos="51.47" lane="gneE0_0" slope="0.00"/>
    </timestep>
    <timestep time="3.70">
        <vehicle id="0" x="52.74" y="0.00" angle="90.00" type="t" speed="12.74" pos="52.74" lane="gneE0_0" slope="0.00"/>
    </timestep>
    <timestep time="3.80">
        <vehicle id="0" x="54.01" y="0.00" angle="90.00" type="t" speed="12.71" pos="54.01" lane="gneE0_0" slope="0.00"/>
    </timestep>
    <timestep time="3.90">
        <vehicle id="0" x="55.28" y="0.00" angle="90.00" type="t" speed="12.69" pos="55.28" lane="gneE0_0" slope="0.00"/>
    </timestep>
    <timestep time="4.00">
        <vehicle id="0" x="56.55" y="0.00" angle="90.00" type="t" speed="12.66" pos="56.55" lane="gneE0_0" slope="0.00"/>
    </timestep>
    <timestep time="4.10">
        <vehicle id="0" x="57.83" y="0.00" angle="90.00" type="t" speed="12.80" pos="57.83" lane="gneE0_0" slope="0.00"/>
    </timestep>
    <timestep time="4.20">
        <vehicle id="0" x="59.12" y="0.00" angle="90.00" type="t" speed="12.95" pos="59.12" lane="gneE0_0" slope="0.00"/>
    </timestep>
    <timestep time="4.30">
        <vehicle id="0" x="60.43" y="0.00" angle="90.00" type="t" speed="13.09" pos="60.43" lane="gneE0_0" slope="0.00"/>
    </timestep>
    <timestep time="4.40">
        <vehicle id="0" x="61.75" y="0.00" angle="90.00" type="t" speed="13.23" pos="61.75" lane="gneE0_0" slope="0.00"/>
    </timestep>
    <timestep time="4.50">
        <vehicle id="0" x="63.09" y="0.00" angle="90.00" type="t" speed="13.37" pos="63.09" lane="gneE0_0" slope="0.00"/>
    </timestep>
    <timestep time="4.60">
        <vehicle id="0" x="64.44" y="0.00" angle="90.00" type="t" speed="13.52" pos="64.44" lane="gneE0_0" slope="0.00"/>
    </timestep>
    <timestep time="4.70">
        <vehicle id="0" x="65.81" y="0.00" angle="90.00" type="t" speed="13.66" pos="65.81" lane="gneE0_0" slope="0.00"/>
    </timestep>
    <timestep time="4.80">
        <vehicle id="0" x="67.19" y="0.00" angle="90.00" type="t" speed="13.80" pos="67.19" lane="gneE0_0" slope="0.00"/>
    </timestep>
    <timestep time="4.90">
        <vehicle id="0" x="68.55" y="0.00" angle="90.00" type="t" speed="13.62" pos="68.55" lane="gneE0_0" slope="0.00"/>
    </timestep>
    <timestep time="5.00">
        <vehicle id="0" x="69.89" y="0.00" angle="90.00" type="t" speed="13.44" pos="69.89" lane="gneE0_0" slope="0.00"/>
    </timestep>
    <timestep time="5.10">
        <vehicle id="0" x="71.22" y="0.00" angle="90.00" type="t" speed="13.25" pos="71.22" lane="gneE0_0" slope="0.00"/>
    </timestep>
    <timestep time="5.20">
        <vehicle id="0" x="72.53" y="0.00" angle="90.00" type="t" speed="13.07" pos="72.53" lane="gneE0_0" slope="0.00"/>
    </timestep>
    <timestep time="5.30">
        <vehicle id="0" x="73.81" y="0.00" angle="90.00" type="t" speed="12.89" pos="73.81" lane="gneE0_0" slope="0.00"/>
    </timestep>
    <timestep time="5.40">
        <vehicle id="0" x="75.09" y="0.00" angle="90.00" type="t" speed="12.71" pos="75.09" lane="gneE0_0" slope="0.00"/>
    </timestep>
    <timestep time="5.50">
        <vehicle id="0" x="76.34" y="0.00" angle="90.00" type="t" speed="12.53" pos="76.34" lane="gneE0_0" slope="0.00"/>
    </timestep>
    <timestep time="5.60">
        <vehicle id="0" x="77.57" y="0.00" angle="90.00" type="t" speed="12.34" pos="77.57" lane="gneE0_0" slope="0.00"/>
    </timestep>
    <timestep time="5.70">
        <vehicle id="0" x="78.82" y="0.00" angle="90.00" type="t" speed="12.47" pos="78.82" lane="gneE0_0" slope="0.00"/>
    </timestep>
    <timestep time="5.80">
        <vehicle id="0" x="80.08" y="0.00" angle="90.00" type="t" speed="12.60" pos="80.08" lane="gneE0_0" slope="0.00"/>
    </timestep>
    <timestep time="5.90">
        <vehicle id="0" x="81.35" y="0.00" angle="90.00" type="t" speed="12.73" pos="81.35" lane="gneE0_0" slope="0.00"/>
    </timestep>
    <timestep time="6.00">
        <vehicle id="0" x="82.64" y="0.00" angle="90.00" type="t" speed="12.86" pos="82.64" lane="gneE0_0" slope="0.00"/>
    </timestep>
    <timestep time="6.10">
        <vehicle id="0" x="83.94" y="0.00" angle="90.00" type="t" speed="12.99" pos="83.94" lane="gneE0_0" slope="0.00"/>
    </timestep>
    <timestep time="6.20">
        <vehicle id="0" x="85.25" y="0.00" angle="90.00" type="t" speed="13.12" pos="85.25" lane="gneE0_0" slope="0.00"/>
    </timestep>
    <timestep time="6.30">
        <vehicle id="0" x="86.57" y="0.00" angle="90.00" type="t" speed="13.25" pos="86.57" lane="gneE0_0" slope="0.00"/>
    </timestep>
    <timestep time="6.40">
        <vehicle id="0" x="87.91" y="0.00" angle="90.00" type="t" speed="13.38" pos="87.91" lane="gneE0_0" slope="0.00"/>
    </timestep>
    <timestep time="6.50">
        <vehicle id="0" x="89.24" y="0.00" angle="90.00" type="t" speed="13.30" pos="89.24" lane="gneE0_0" slope="0.00"/>
    </timestep>
    <timestep time="6.60">
        <vehicle id="0" x="90.56" y="0.00" angle="90.00" type="t" speed="13.22" pos="90.56" lane="gneE0_0" slope="0.00"/>
    </timestep>
    <timestep time="6.70">
        <vehicle id="0" x="91.88" y="0.00" angle="90.00" type="t" speed="13.14" pos="91.88" lane="gneE0_0" slope="0.00"/>
    </timestep>
    <timestep time="6.80">
        <vehicle id="0" x="93.18" y="0.00" angle="90.00" type="t" speed="13.07" pos="93.18" lane="gneE0_0" slope="0.00"/>
    </timestep>
    <timestep time="6.90">
        <vehicle id="0" x="94.48" y="0.00" angle="90.00" type="t" speed="12.99" pos="94.48" lane="gneE0_0" slope="0.00"/>
    </timestep>
    <timestep time="7.00">
        <vehicle id="0" x="95.77" y="0.00" angle="90.00" type="t" speed="12.91" pos="95.77" lane="gneE0_0" slope="0.00"/>
    </timestep>
    <timestep time="7.10">
        <vehicle id="0" x="97.06" y="0.00" angle="90.00" type="t" speed="12.83" pos="97.06" lane="gneE0_0" slope="0.00"/>
    </timestep>
    <timestep time="7.20">
        <vehicle id="0" x="98.33" y="0.00" angle="90.00" type="t" speed="12.76" pos="98.33" lane="gneE0_0" slope="0.00"/>
    </timestep>
    <timestep time="7.30">
        <vehicle id="0" x="99.60" y="0.00" angle="90.00" type="t" speed="12.70" pos="99.60" lane="gneE0_0" slope="0.00"/>
    </timestep>
    <timestep time="7.40">
        <vehicle id="0" x="100.87" y="0.00" angle="90.00" type="t" speed="12.65" pos="100.87" lane="gneE0_0" slope="0.00"/>
    </timestep>
    <timestep time="7.50">
        <vehicle id="0" x="102.13" y="0.00" angle="90.00" type="t" speed="12.60" pos="102.13" lane="gneE0_0" slope="0.00"/>
    </timestep>
    <timestep time="7.60">
        <vehicle id="0" x="103.38" y="0.00" angle="90.00" type="t" speed="12.55" pos="103.38" lane="gneE0_0" slope="0.00"/>
    </timestep>
    <timestep time="7.70">
        <vehicle id="0" x="104.63" y="0.00" angle="90.00" type="t" speed="12.50" pos="104.63" lane="gneE0_0" slope="0.00"/>
    </timestep>
    <timestep time="7.80">
        <vehicle id="0" x="105.88" y="0.00" angle="90.00" type="t" speed="12.44" pos="105.88" lane="gneE0_0" slope="0.00"/>
    </timestep>
    <timestep time="7.90">
        <vehicle id="0" x="107.12" y="0.00" angle="90.00" type="t" speed="12.39" pos="107.12" lane="gneE0_0" slope="0.00"/>
    </timestep>
    <timestep time="8.00">
        <vehicle id="0" x="108.35" y="0.00" angle="90.00" type="t" speed="12.34" pos="108.35" lane="gneE0_0" slope="0.00"/>
    </timestep>
    <timestep time="8.10">
        <vehicle id="0" x="109.60" y="0.00" angle="90.00" type="t" speed="12.53" pos="109.60" lane="gneE0_0" slope="0.00"/>
    </timestep>
    <timestep time="8.20">
        <vehicle id="0" x="110.88" y="0.00" angle="90.00" type="t" speed="12.72" pos="110.88" lane="gneE0_0" slope="0.00"/>
    </timestep>
    <timestep time="8.30">
        <vehicle id="0" x="112.17" y="0.00" angle="90.00" type="t" speed="12.92" pos="112.17" lane="gneE0_0" slope="0.00"/>
    </timestep>
    <timestep time="8.40">
        <vehicle id="0" x="113.48" y="0.00" angle="90.00" type="t" speed="13.11" pos="113.48" lane="gneE0_0" slope="0.00"/>
    </timestep>
    <timestep time="8.50">
        <vehicle id="0" x="114.81" y="0.00" angle="90.00" type="t" speed="13.30" pos="114.81" lane="gneE0_0" slope="0.00"/>
    </timestep>
    <timestep time="8.60">
        <vehicle id="0" x="116.16" y="0.00" angle="90.00" type="t" speed="13.49" pos="116.16" lane="gneE0_0" slope="0.00"/>
    </timestep>
    <timestep time="8.70">
        <vehicle id="0" x="117.53" y="0.00" angle="90.00" type="t" speed="13.69" pos="117.53" lane="gneE0_0" slope="0.00"/>
    </timestep>
    <timestep time="8.80">
        <vehicle id="0" x="118.91" y="0.00" angle="90.00" type="t" speed="13.88" pos="118.91" lane="gneE0_0" slope="0.00"/>
    </timestep>
    <timestep time="8.90">
        <vehicle id="0" x="120.28" y="0.00" angle="90.00" type="t" speed="13.70" pos="120.28" lane="gneE0_0" slope="0.00"/>
    </timestep>
    <timestep time="9.00">
        <vehicle id="0" x="121.64" y="0.00" angle="90.00" type="t" speed="13.53" pos="121.64" lane="gneE0_0" slope="0.00"/>
    </timestep>
    <timestep time="9.10">
        <vehicle id="0" x="122.97" y="0.00" angle="90.00" type="t" speed="13.36" pos="122.97" lane="gneE0_0" slope="0.00"/>
    </timestep>
    <timestep time="9.20">
        <vehicle id="0" x="124.29" y="0.00" angle="90.00" type="t" speed="13.18" pos="124.29" lane="gneE0_0" slope="0.00"/>
    </timestep>
    <timestep time="9.30">
        <vehicle id="0" x="125.59" y="0.00" angle="90.00" type="t" speed="13.01" pos="125.59" lane="gneE0_0" slope="0.00"/>
    </timestep>
    <timestep time="9.40">
        <vehicle id="0" x="126.88" y="0.00" angle="90.00" type="t" speed="12.84" pos="126.88" lane="gneE0_0" slope="0.00"/>
    </timestep>
    <timestep time="9.50">
        <vehicle id="0" x="128.14" y="0.00" angle="90.00" type="t" speed="12.66" pos="128.14" lane="gneE0_0" slope="0.00"/>
    </timestep>
    <timestep time="9.60">
        <vehicle id="0" x="129.39" y="0.00" angle="90.00" type="t" speed="12.49" pos="129.39" lane="gneE0_0" slope="0.00"/>
    </timestep>
    <timestep time="9.70">
        <vehicle id="0" x="130.65" y="0.00" angle="90.00" type="t" speed="12.54" pos="130.65" lane="gneE0_0" slope="0.00"/>
    </timestep>
    <timestep time="9.80">
        <vehicle id="0" x="131.91" y="0.00" angle="90.00" type="t" speed="12.60" pos="131.91" lane="gneE0_0" slope="0.00"/>
    </timestep>
    <timestep time="9.90">
        <vehicle id="0" x="133.17" y="0.00" angle="90.00" type="t" speed="12.65" pos="133.17" lane="gneE0_0" slope="0.00"/>
    </timestep>
    <timestep time="10.00">
        <vehicle id="0" x="134.44" y="0.00" angle="90.00" type="t" speed="12.71" pos="134.44" lane="gneE0_0" slope="0.00"/>
    </timestep>
    <timestep time="10.10">
        <vehicle id="0" x="135.72" y="0.00" angle="90.00" type="t" speed="12.76" pos="135.72" lane="gneE0_0" slope="0.00"/>
    </timestep>
    <timestep time="10.20">
        <vehicle id="0" x="137.00" y="0.00" angle="90.00" type="t" speed="12.81" pos="137.00" lane="gneE0_0" slope="0.00"/>
    </timestep>
    <timestep time="10.30">
        <vehicle id="0" x="138.29" y="0.00" angle="90.00" type="t" speed="12.87" pos="138.29" lane="gneE0_0" slope="0.00"/>
    </timestep>
    <timestep time="10.40">
        <vehicle id="0" x="139.58" y="0.00" angle="90.00" type="t" speed="12.92" pos="139.58" lane="gneE0_0" slope="0.00"/>
    </timestep>
    <timestep time="10.50">
        <vehicle id="0" x="140.87" y="0.00" angle="90.00" type="t" speed="12.92" pos="140.87" lane="gneE0_0" slope="0.00"/>
    </timestep>
    <timestep time="10.60">
        <vehicle id="0" x="142.16" y="0.00" angle="90.00" type="t" speed="12.93" pos="142.16" lane="gneE0_0" slope="0.00"/>
    </timestep>
    <timestep time="10.70">
        <vehicle id="0" x="143.46" y="0.00" angle="90.00" type="t" speed="12.93" pos="143.46" lane="gneE0_0" slope="0.00"/>
    </timestep>
    <timestep time="10.80">
        <vehicle id="0" x="144.75" y="0.00" angle="90.00" type="t" speed="12.93" pos="144.75" lane="gneE0_0" slope="0.00"/>
    </timestep>
    <timestep time="10.90">
        <vehicle id="0" x="146.04" y="0.00" angle="90.00" type="t" speed="12.94" pos="146.04" lane="gneE0_0" slope="0.00"/>
    </timestep>
    <timestep time="11.00">
        <vehicle id="0" x="147.34" y="0.00" angle="90.00" type="t" speed="12.94" pos="147.34" lane="gneE0_0" slope="0.00"/>
    </timestep>
    <timestep time="11.10">
        <vehicle id="0" x="148.63" y="0.00" angle="90.00" type="t" speed="12.95" pos="148.63" lane="gneE0_0" slope="0.00"/>
    </timestep>
    <timestep time="11.20">
        <vehicle id="0" x="149.93" y="0.00" angle="90.00" type="t" speed="12.95" pos="149.93" lane="gneE0_0" slope="0.00"/>
    </timestep>
    <timestep time="11.30">
        <vehicle id="0" x="151.22" y="0.00" angle="90.00" type="t" speed="12.92" pos="151.22" lane="gneE0_0" slope="0.00"/>
    </timestep>
    <timestep time="11.40">
        <vehicle id="0" x="152.51" y="0.00" angle="90.00" type="t" speed="12.89" pos="152.51" lane="gneE0_0" slope="0.00"/>
    </timestep>
    <timestep time="11.50">
        <vehicle id="0" x="153.79" y="0.00" angle="90.00" type="t" speed="12.86" pos="153.79" lane="gneE0_0" slope="0.00"/>
    </timestep>
    <timestep time="11.60">
        <vehicle id="0" x="155.08" y="0.00" angle="90.00" type="t" speed="12.83" pos="155.08" lane="gneE0_0" slope="0.00"/>
    </timestep>
    <timestep time="11.70">
        <vehicle id="0" x="156.36" y="0.00" angle="90.00" type="t" speed="12.80" pos="156.36" lane="gneE0_0" slope="0.00"/>
    </timestep>
    <timestep time="11.80">
        <vehicle id="0" x="157.63" y="0.00" angle="90.00" type="t" speed="12.77" pos="157.63" lane="gneE0_0" slope="0.00"/>
    </timestep>
    <timestep time="11.90">
        <vehicle id="0" x="158.91" y="0.00" angle="90.00" type="t" speed="12.74" pos="158.91" lane="gneE0_0" slope="0.00"/>
    </timestep>
    <timestep time="12.00">
        <vehicle id="0" x="160.18" y="0.00" angle="90.00" type="t" speed="12.71" pos="160.18" lane="gneE0_0" slope="0.00"/>
    </timestep>
    <timestep time="12.10">
        <vehicle id="0" x="161.46" y="0.00" angle="90.00" type="t" speed="12.79" pos="161.46" lane="gneE0_0" slope="0.00"/>
    </timestep>
    <timestep time="12.20">
        <vehicle id="0" x="162.75" y="0.00" angle="90.00" type="t" speed="12.87" pos="162.75" lane="gneE0_0" slope="0.00"/>
    </timestep>
    <timestep time="12.30">
        <vehicle id="0" x="164.04" y="0.00" angle="90.00" type="t" speed="12.95" pos="164.04" lane="gneE0_0" slope="0.00"/>
    </timestep>
    <timestep time="12.40">
        <vehicle id="0" x="165.34" y="0.00" angle="90.00" type="t" speed="13.03" pos="165.34" lane="gneE0_0" slope="0.00"/>
    </timestep>
    <timestep time="12.50">
        <vehicle id="0" x="166.65" y="0.00" angle="90.00" type="t" speed="13.10" pos="166.65" lane="gneE0_0" slope="0.00"/>
    </timestep>
    <timestep time="12.60">
        <vehicle id="0" x="167.97" y="0.00" angle="90.00" type="t" speed="13.18" pos="167.97" lane="gneE0_0" slope="0.00"/>
    </timestep>
    <timestep time="12.70">
        <vehicle id="0" x="169.30" y="0.00" angle="90.00" type="t" speed="13.26" pos="169.30" lane="gneE0_0" slope="0.00"/>
    </timestep>
    <timestep time="12.80">
        <vehicle id="0" x="170.63" y="0.00" angle="90.00" type="t" speed="13.34" pos="170.63" lane="gneE0_0" slope="0.00"/>
    </timestep>
    <timestep time="12.90">
        <vehicle id="0" x="171.97" y="0.00" angle="90.00" type="t" speed="13.39" pos="171.97" lane="gneE0_0" slope="0.00"/>
    </timestep>
    <timestep time="13.00">
        <vehicle id="0" x="173.32" y="0.00" angle="90.00" type="t" speed="13.45" pos="173.32" lane="gneE0_0" slope="0.00"/>
    </timestep>
    <timestep time="13.10">
        <vehicle id="0" x="174.67" y="0.00" angle="90.00" type="t" speed="13.50" pos="174.67" lane="gneE0_0" slope="0.00"/>
    </timestep>
    <timestep time="13.20">
        <vehicle id="0" x="176.02" y="0.00" angle="90.00" type="t" speed="13.55" pos="176.02" lane="gneE0_0" slope="0.00"/>
    </timestep>
    <timestep time="13.30">
        <vehicle id="0" x="177.38" y="0.00" angle="90.00" type="t" speed="13.61" pos="177.38" lane="gneE0_0" slope="0.00"/>
    </timestep>
    <timestep time="13.40">
        <vehicle id="0" x="178.75" y="0.00" angle="90.00" type="t" speed="13.66" pos="178.75" lane="gneE0_0" slope="0.00"/>
    </timestep>
    <timestep time="13.50">
        <vehicle id="0" x="180.12" y="0.00" angle="90.00" type="t" speed="13.71" pos="180.12" lane="gneE0_0" slope="0.00"/>
    </timestep>
    <timestep time="13.60">
        <vehicle id="0" x="181.50" y="0.00" angle="90.00" type="t" speed="13.76" pos="181.50" lane="gneE0_0" slope="0.00"/>
    </timestep>
    <timestep time="13.70">
        <vehicle id="0" x="182.85" y="0.00" angle="90.00" type="t" speed="13.55" pos="182.85" lane="gneE0_0" slope="0.00"/>
    </timestep>
    <timestep time="13.80">
        <vehicle id="0" x="184.18" y="0.00" angle="90.00" type="t" speed="13.34" pos="184.18" lane="gneE0_0" slope="0.00"/>
    </timestep>
    <timestep time="13.90">
        <vehicle id="0" x="185.50" y="0.00" angle="90.00" type="t" speed="13.13" pos="185.50" lane="gneE0_0" slope="0.00"/>
    </timestep>
    <timestep time="14.00">
        <vehicle id="0" x="186.79" y="0.00" angle="90.00" type="t" speed="12.92" pos="186.79" lane="gneE0_0" slope="0.00"/>
    </timestep>
    <timestep time="14.10">
        <vehicle id="0" x="188.06" y="0.00" angle="90.00" type="t" speed="12.70" pos="188.06" lane="gneE0_0" slope="0.00"/>
    </timestep>
    <timestep time="14.20">
        <vehicle id="0" x="189.31" y="0.00" angle="90.00" type="t" speed="12.49" pos="189.31" lane="gneE0_0" slope="0.00"/>
    </timestep>
    <timestep time="14.30">
        <vehicle id="0" x="190.54" y="0.00" angle="90.00" type="t" speed="12.28" pos="190.54" lane="gneE0_0" slope="0.00"/>
    </timestep>
    <timestep time="14.40">
        <vehicle id="0" x="191.74" y="0.00" angle="90.00" type="t" speed="12.07" pos="191.74" lane="gneE0_0" slope="0.00"/>
    </timestep>
    <timestep time="14.50">
        <vehicle id="0" x="192.97" y="0.00" angle="90.00" type="t" speed="12.21" pos="192.97" lane="gneE0_0" slope="0.00"/>
    </timestep>
    <timestep time="14.60">
        <vehicle id="0" x="194.20" y="0.00" angle="90.00" type="t" speed="12.36" pos="194.20" lane="gneE0_0" slope="0.00"/>
    </timestep>
    <timestep time="14.70">
        <vehicle id="0" x="195.45" y="0.00" angle="90.00" type="t" speed="12.50" pos="195.45" lane="gneE0_0" slope="0.00"/>
    </timestep>
    <timestep time="14.80">
        <vehicle id="0" x="196.72" y="0.00" angle="90.00" type="t" speed="12.64" pos="196.72" lane="gneE0_0" slope="0.00"/>
    </timestep>
    <timestep time="14.90">
        <vehicle id="0" x="197.99" y="0.00" angle="90.00" type="t" speed="12.79" pos="197.99" lane="gneE0_0" slope="0.00"/>
    </timestep>
    <timestep time="15.00">
        <vehicle id="0" x="199.29" y="0.00" angle="90.00" type="t" speed="12.93" pos="199.29" lane="gneE0_0" slope="0.00"/>
    </timestep>
    <timestep time="15.10">
        <vehicle id="0" x="200.60" y="0.00" angle="90.00" type="t" speed="13.08" pos="200.60" lane="gneE0_0" slope="0.00"/>
    </timestep>
    <timestep time="15.20">
        <vehicle id="0" x="201.92" y="0.00" angle="90.00" type="t" speed="13.22" pos="201.92" lane="gneE0_0" slope="0.00"/>
    </timestep>
    <timestep time="15.30">
        <vehicle id="0" x="203.23" y="0.00" angle="90.00" type="t" speed="13.13" pos="203.23" lane="gneE0_0" slope="0.00"/>
    </timestep>
    <timestep time="15.40">
        <vehicle id="0" x="204.53" y="0.00" angle="90.00" type="t" speed="13.03" pos="204.53" lane="gneE0_0" slope="0.00"/>
    </timestep>
    <timestep time="15.50">
        <vehicle id="0" x="205.83" y="0.00" angle="90.00" type="t" speed="12.94" pos="205.83" lane="gneE0_0" slope="0.00"/>
    </timestep>
    <timestep time="15.60">
        <vehicle id="0" x="207.11" y="0.00" angle="90.00" type="t" speed="12.84" pos="207.11" lane="gneE0_0" slope="0.00"/>
    </timestep>
    <timestep time="15.70">
        <vehicle id="0" x="208.39" y="0.00" angle="90.00" type="t" speed="12.75" pos="208.39" lane="gneE0_0" slope="0.00"/>
    </timestep>
    <timestep time="15.80">
        <vehicle id="0" x="209.65" y="0.00" angle="90.00" type="t" speed="12.66" pos="209.65" lane="gneE0_0" slope="0.00"/>
    </timestep>
    <timestep time="15.90">
        <vehicle id="0" x="210.91" y="0.00" angle="90.00" type="t" speed="12.56" pos="210.91" lane="gneE0_0" slope="0.00"/>
    </timestep>
    <timestep time="16.00">
        <vehicle id="0" x="212.16" y="0.00" angle="90.00" type="t" speed="12.47" pos="212.16" lane="gneE0_0" slope="0.00"/>
    </timestep>
    <timestep time="16.10">
        <vehicle id="0" x="213.42" y="0.00" angle="90.00" type="t" speed="12.63" pos="213.42" lane="gneE0_0" slope="0.00"/>
    </timestep>
    <timestep time="16.20">
        <vehicle id="0" x="214.70" y="0.00" angle="90.00" type="t" speed="12.80" pos="214.70" lane="gneE0_0" slope="0.00"/>
    </timestep>
    <timestep time="16.30">
        <vehicle id="0" x="215.99" y="0.00" angle="90.00" type="t" speed="12.97" pos="215.99" lane="gneE0_0" slope="0.00"/>
    </timestep>
    <timestep time="16.40">
        <vehicle id="0" x="217.31" y="0.00" angle="90.00" type="t" speed="13.13" pos="217.31" lane="gneE0_0" slope="0.00"/>
    </timestep>
    <timestep time="16.50">
        <vehicle id="0" x="218.64" y="0.00" angle="90.00" type="t" speed="13.30" pos="218.64" lane="gneE0_0" slope="0.00"/>
    </timestep>
    <timestep time="16.60">
        <vehicle id="0" x="219.98" y="0.00" angle="90.00" type="t" speed="13.46" pos="219.98" lane="gneE0_0" slope="0.00"/>
    </timestep>
    <timestep time="16.70">
        <vehicle id="0" x="221.35" y="0.00" angle="90.00" type="t" speed="13.63" pos="221.35" lane="gneE0_0" slope="0.00"/>
    </timestep>
    <timestep time="16.80">
        <vehicle id="0" x="222.73" y="0.00" angle="90.00" type="t" speed="13.79" pos="222.73" lane="gneE0_0" slope="0.00"/>
    </timestep>
    <timestep time="16.90">
        <vehicle id="0" x="224.09" y="0.00" angle="90.00" type="t" speed="13.67" pos="224.09" lane="gneE0_0" slope="0.00"/>
    </timestep>