<?xml version="1.0" encoding="UTF-8"?>

<!-- generated on Fri Aug  9 23:10:00 2019 by Eclipse SUMO Version v1_2_0+1520-56e9c1f44b
This data file and the accompanying materials
are made available under the terms of the Eclipse Public License v2.0
which accompanies this distribution, and is available at
http://www.eclipse.org/legal/epl-v20.html
SPDX-License-Identifier: EPL-2.0
<configuration xmlns:xsi="http://www.w3.org/2001/XMLSchema-instance" xsi:noNamespaceSchemaLocation="http://sumo.dlr.de/xsd/sumoConfiguration.xsd">

    <input>
        <net-file value="net.net.xml"/>
        <route-files value="input_routes.rou.xml"/>
        <additional-files value="input_additional.add.xml"/>
    </input>

    <output>
        <write-license value="true"/>
        <tripinfo-output value="tripinfos.xml"/>
        <stop-output value="stopinfos.xml"/>
    </output>

    <processing>
        <default.speeddev value="0"/>
        <modelparkingmanoeuver value="true"/>
    </processing>

    <report>
        <xml-validation value="never"/>
        <duration-log.disable value="true"/>
        <no-step-log value="true"/>
    </report>

</configuration>
-->

<tripinfos xmlns:xsi="http://www.w3.org/2001/XMLSchema-instance" xsi:noNamespaceSchemaLocation="http://sumo.dlr.de/xsd/tripinfo_file.xsd">
    <tripinfo id="vehicle_0" depart="0.00" departLane="gneE6_0" departPos="5.10" departSpeed="0.00" departDelay="0.00" arrival="252.00" arrivalLane="-gneE6_0" arrivalPos="20.62" arrivalSpeed="13.49" duration="252.00" routeLength="280.77" waitingTime="10.00" waitingCount="1" stopTime="202.00" timeLoss="26.91" rerouteNo="0" devices="tripinfo_vehicle_0" vType="passenger" speedFactor="1.00" vaporized=""/>
    <tripinfo id="vehicle_1" depart="3.00" departLane="gneE6_0" departPos="7.20" departSpeed="0.00" departDelay="3.00" arrival="278.00" arrivalLane="-gneE6_0" arrivalPos="20.62" arrivalSpeed="13.60" duration="275.00" routeLength="278.67" waitingTime="24.00" waitingCount="2" stopTime="202.00" timeLoss="51.26" rerouteNo="0" devices="tripinfo_vehicle_1" vType="truck" speedFactor="1.00" vaporized=""/>
    <tripinfo id="vehicle_2" depart="7.00" departLane="gneE6_0" departPos="5.10" departSpeed="0.00" departDelay="7.00" arrival="284.00" arrivalLane="-gneE6_0" arrivalPos="20.62" arrivalSpeed="13.88" duration="277.00" routeLength="280.77" waitingTime="28.00" waitingCount="3" stopTime="202.00" timeLoss="51.38" rerouteNo="0" devices="tripinfo_vehicle_2" vType="passenger" speedFactor="1.00" vaporized=""/>
    <tripinfo id="vehicle_3" depart="10.00" departLane="gneE6_0" departPos="5.10" departSpeed="0.00" departDelay="10.00" arrival="322.00" arrivalLane="-gneE6_0" arrivalPos="20.62" arrivalSpeed="13.47" duration="312.00" routeLength="464.13" waitingTime="32.00" waitingCount="4" stopTime="202.00" timeLoss="71.79" rerouteNo="1" devices="tripinfo_vehicle_3" vType="passenger" speedFactor="1.00" vaporized=""/>
    <tripinfo id="vehicle_4" depart="13.00" departLane="gneE6_0" departPos="7.20" departSpeed="0.00" departDelay="13.00" arrival="348.00" arrivalLane="-gneE6_0" arrivalPos="20.62" arrivalSpeed="13.56" duration="335.00" routeLength="462.03" waitingTime="41.00" waitingCount="4" stopTime="208.00" timeLoss="87.78" rerouteNo="1" devices="tripinfo_vehicle_4" vType="truck" speedFactor="1.00" vaporized=""/>
    <tripinfo id="vehicle_5" depart="17.00" departLane="gneE6_0" departPos="5.10" departSpeed="0.00" departDelay="17.00" arrival="360.00" arrivalLane="-gneE6_0" arrivalPos="20.62" arrivalSpeed="13.59" duration="343.00" routeLength="464.13" waitingTime="29.00" waitingCount="3" stopTime="225.00" timeLoss="79.93" rerouteNo="1" devices="tripinfo_vehicle_5" vType="passenger" speedFactor="1.00" vaporized=""/>
</tripinfos>
