<?xml version="1.0" encoding="UTF-8"?>

<!-- generated on Mon Mar  3 10:28:45 2014 by SUMO sumo Version dev-SVN-r15793
<?xml version="1.0" encoding="UTF-8"?>

<configuration xmlns:xsi="http://www.w3.org/2001/XMLSchema-instance" xsi:noNamespaceSchemaLocation="http://sumo.dlr.de/xsd/sumoConfiguration.xsd">

    <input>
        <net-file value="net.net.xml"/>
        <additional-files value="input_routes.rou.xml,input_additional.add.xml,input_additional2.add.xml"/>
    </input>

    <time>
        <begin value="0"/>
        <end value="150"/>
    </time>

    <report>
        <xml-validation value="never"/>
        <no-duration-log value="true"/>
        <no-step-log value="true"/>
    </report>

</configuration>
-->

<meandata xmlns:xsi="http://www.w3.org/2001/XMLSchema-instance" xsi:noNamespaceSchemaLocation="http://sumo.dlr.de/xsd/meandata_file.xsd">
    <interval begin="0.00" end="60.00" id="dump_60">
        <edge id="3/1to2/1">
            <lane id="3/1to2/1_0" sampledSeconds="53.00" CO_abs="0" CO2_abs="89043.745498" HC_abs="15.592441" PMx_abs="5.191111" NOx_abs="141.281464" fuel_abs="35.500392"
            CO_normed="0" CO2_normed="13356.561825" HC_normed="2.338866" PMx_normed="0.778667" NOx_normed="21.192220" fuel_normed="5.325059"
            traveltime="40.00" CO_perVeh="0" CO2_perVeh="67202.826791" HC_perVeh="11.767880" PMx_perVeh="3.917819" NOx_perVeh="106.627520" fuel_perVeh="26.792749"/>
        </edge>
        <edge id="4/1to3/1">
            <lane id="4/1to3/1_0" sampledSeconds="60.60" CO_abs="0" CO2_abs="101812.282589" HC_abs="17.828338" PMx_abs="5.935496" NOx_abs="161.540693" fuel_abs="40.591014"
            CO_normed="0" CO2_normed="15271.842388" HC_normed="2.674251" PMx_normed="0.890324" NOx_normed="24.231104" fuel_normed="6.088652"
            traveltime="40.00" CO_perVeh="0" CO2_perVeh="67202.826791" HC_perVeh="11.767880" PMx_perVeh="3.917819" NOx_perVeh="106.627520" fuel_perVeh="26.792749"/>
        </edge>
    </interval>
    <interval begin="60.00" end="120.00" id="dump_60">
        <edge id="1/1to0/1">
            <lane id="1/1to0/1_0" sampledSeconds="13.00" CO_abs="0" CO2_abs="21840.918707" HC_abs="3.824561" PMx_abs="1.273291" NOx_abs="34.653944" fuel_abs="8.707643"
            CO_normed="0" CO2_normed="3276.137806" HC_normed="0.573684" PMx_normed="0.190994" NOx_normed="5.198092" fuel_normed="1.306146"
            traveltime="40.00" CO_perVeh="0" CO2_perVeh="67202.826791" HC_perVeh="11.767880" PMx_perVeh="3.917819" NOx_perVeh="106.627520" fuel_perVeh="26.792749"/>
        </edge>
        <edge id="2/1to1/1">
            <lane id="2/1to1/1_0" sampledSeconds="80.60" CO_abs="0" CO2_abs="135413.695984" HC_abs="23.712278" PMx_abs="7.894406" NOx_abs="214.854453" fuel_abs="53.987388"
            CO_normed="0" CO2_normed="20312.054398" HC_normed="3.556842" PMx_normed="1.184161" NOx_normed="32.228168" fuel_normed="8.098108"
            traveltime="40.00" CO_perVeh="0" CO2_perVeh="67202.826791" HC_perVeh="11.767880" PMx_perVeh="3.917819" NOx_perVeh="106.627520" fuel_perVeh="26.792749"/>
        </edge>
        <edge id="3/1to2/1">
            <lane id="3/1to2/1_0" sampledSeconds="27.60" CO_abs="0" CO2_abs="46369.950486" HC_abs="8.119837" PMx_abs="2.703295" NOx_abs="73.572989" fuel_abs="18.486996"
            CO_normed="0" CO2_normed="6955.492573" HC_normed="1.217976" PMx_normed="0.405494" NOx_normed="11.035948" fuel_normed="2.773049"
            traveltime="40.00" CO_perVeh="0" CO2_perVeh="67202.826791" HC_perVeh="11.767880" PMx_perVeh="3.917819" NOx_perVeh="106.627520" fuel_perVeh="26.792749"/>
        </edge>
    </interval>
    <interval begin="120.00" end="150.00" id="dump_60">
        <edge id="1/1to0/1">
            <lane id="1/1to0/1_0" sampledSeconds="60.00" CO_abs="0" CO2_abs="100804.240187" HC_abs="17.651820" PMx_abs="5.876729" NOx_abs="159.941280" fuel_abs="40.189123"
            CO_normed="0" CO2_normed="30241.272056" HC_normed="5.295546" PMx_normed="1.763019" NOx_normed="47.982384" fuel_normed="12.056737"
            traveltime="40.00" CO_perVeh="0" CO2_perVeh="67202.826791" HC_perVeh="11.767880" PMx_perVeh="3.917819" NOx_perVeh="106.627520" fuel_perVeh="26.792749"/>
        </edge>
    </interval>
</meandata>
