<?xml version="1.0"?>

<!-- generated on 07/07/11 10:11:57 by SUMO sumo Version dev-SVN-r10879
<?xml version="1.0" encoding="iso-8859-1"?>

<configuration xmlns:xsi="http://www.w3.org/2001/XMLSchema-instance" xsi:noNamespaceSchemaLocation="http://sumo.sf.net/xsd/sumoConfiguration.xsd">

    <input>
        <net-file value="busnet.net.xml"/>
        <additional-files value="input_additional.add.xml,input_routes.rou.xml"/>
    </input>

    <output>
        <tripinfo-output value="tripinfos.xml"/>
    </output>

    <report>
        <no-duration-log value="true"/>
        <no-step-log value="true"/>
    </report>

</configuration>
-->

<tripinfos>
    <tripinfo id="bus_1" depart="0.00" departLane="2/0to2/1_0" departPos="15.10" departSpeed="0.00" departDelay="0.00" arrival="513.00" arrivalLane="2/0to2/1_0" arrivalPos="197.93" arrivalSpeed="13.66" duration="513.00" routeLength="3248.83" waitSteps="191" rerouteNo="0" devices="tripinfo_bus_1" vType="bus" vaporized=""/>
    <tripinfo id="bus_2" depart="0.00" departLane="2/0to2/1_0" departPos="0.00" departSpeed="0.00" departDelay="0.00" arrival="593.00" arrivalLane="2/0to2/1_0" arrivalPos="198.98" arrivalSpeed="12.98" duration="593.00" routeLength="3264.98" waitSteps="247" rerouteNo="0" devices="tripinfo_bus_2" vType="bus" vaporized=""/>
    <tripinfo id="bus_3" depart="7.00" departLane="2/0to2/1_0" departPos="15.10" departSpeed="0.00" departDelay="3.00" arrival="673.00" arrivalLane="2/0to2/1_0" arrivalPos="201.90" arrivalSpeed="13.70" duration="666.00" routeLength="3252.80" waitSteps="294" rerouteNo="0" devices="tripinfo_bus_3" vType="bus" vaporized=""/>
</tripinfos>
