<?xml version="1.0"?>

<!-- generated on 11/11/09 14:53:08 by SUMO sumo Version dev-SVN-r7969
<configuration>

    <input>
        <net-file value="three_split.net.xml"/>
        <additional-files value="input_routes.rou.xml,input_additional.add.xml"/>
    </input>

    <output>
        <vehroute-output value="vehroutes.xml"/>
    </output>

    <time>
        <begin value="0"/>
    </time>

    <report>
        <no-duration-log value="true"/>
        <no-step-log value="true"/>
    </report>

    <mesoscopic>
        <mesosim value="true"/>
    </mesoscopic>

</configuration>
-->

<routes>
    <vehicle id="0" depart="0" arrival="179">
        <replacedRoute replacedOnEdge="beg" replacedAtTime="0" edges="beg middle end rend"/>
        <route edges="beg beg2left left left2end end rend"/>
   </vehicle>

    <vehicle id="1" depart="20" arrival="199">
        <replacedRoute replacedOnEdge="beg" replacedAtTime="20" edges="beg middle end rend"/>
        <route edges="beg beg2left left left2end end rend"/>
   </vehicle>

    <vehicle id="2" depart="40" arrival="219">
        <replacedRoute replacedOnEdge="beg" replacedAtTime="40" edges="beg middle end rend"/>
        <route edges="beg beg2left left left2end end rend"/>
   </vehicle>

    <vehicle id="3" depart="60" arrival="239">
        <replacedRoute replacedOnEdge="beg" replacedAtTime="60" edges="beg middle end rend"/>
        <route edges="beg beg2left left left2end end rend"/>
   </vehicle>

    <vehicle id="4" depart="80" arrival="259">
        <replacedRoute replacedOnEdge="beg" replacedAtTime="80" edges="beg middle end rend"/>
        <route edges="beg beg2left left left2end end rend"/>
   </vehicle>

    <vehicle id="5" depart="100" arrival="279">
        <replacedRoute replacedOnEdge="beg" replacedAtTime="100" edges="beg middle end rend"/>
        <route edges="beg beg2left left left2end end rend"/>
   </vehicle>

    <vehicle id="6" depart="120" arrival="299">
        <replacedRoute replacedOnEdge="beg" replacedAtTime="120" edges="beg middle end rend"/>
        <route edges="beg beg2left left left2end end rend"/>
   </vehicle>

    <vehicle id="7" depart="140" arrival="319">
        <replacedRoute replacedOnEdge="beg" replacedAtTime="140" edges="beg middle end rend"/>
        <route edges="beg beg2left left left2end end rend"/>
   </vehicle>

    <vehicle id="8" depart="160" arrival="339">
        <replacedRoute replacedOnEdge="beg" replacedAtTime="160" edges="beg middle end rend"/>
        <route edges="beg beg2left left left2end end rend"/>
   </vehicle>

    <vehicle id="9" depart="180" arrival="359">
        <replacedRoute replacedOnEdge="beg" replacedAtTime="180" edges="beg middle end rend"/>
        <route edges="beg beg2left left left2end end rend"/>
   </vehicle>

</routes>
