<?xml version="1.0" encoding="UTF-8"?>

<!-- generated on Wed Jan  3 09:21:35 2018 by SUMO Version v0_32_0+0043-24523c2
<?xml version="1.0" encoding="UTF-8"?>

<configuration xmlns:xsi="http://www.w3.org/2001/XMLSchema-instance" xsi:noNamespaceSchemaLocation="http://sumo.dlr.de/xsd/sumoConfiguration.xsd">

    <input>
        <net-file value="net2.net.xml"/>
        <route-files value="input_routes.rou.xml"/>
    </input>

    <output>
        <tripinfo-output value="tripinfos.xml"/>
    </output>

    <time>
        <begin value="25"/>
    </time>

    <processing>
        <collision.stoptime value="5"/>
        <collision.check-junctions value="true"/>
    </processing>

    <report>
        <xml-validation value="never"/>
        <duration-log.disable value="true"/>
        <no-step-log value="true"/>
    </report>

</configuration>
-->

<tripinfos xmlns:xsi="http://www.w3.org/2001/XMLSchema-instance" xsi:noNamespaceSchemaLocation="http://sumo.dlr.de/xsd/tripinfo_file.xsd">
    <tripinfo id="ego" depart="42.00" departLane="SC_0" departPos="10.00" departSpeed="0.00" departDelay="0.00" arrival="59.00" arrivalLane="CN_0" arrivalPos="50.00" arrivalSpeed="13.89" duration="17.00" routeLength="148.05" waitingTime="0.00" stopTime="0.00" timeLoss="6.25" rerouteNo="0" devices="tripinfo_ego" vType="egoType" speedFactor="1.00" vaporized=""/>
    <tripinfo id="foe.0" depart="25.00" departLane="EC_1" departPos="50.00" departSpeed="2.78" departDelay="0.00" arrival="69.00" arrivalLane="CW_0" arrivalPos="50.00" arrivalSpeed="2.78" duration="44.00" routeLength="108.05" waitingTime="4.00" stopTime="0.00" timeLoss="4.86" rerouteNo="0" devices="tripinfo_foe.0" vType="foeType" speedFactor="0.20" vaporized=""/>
    <tripinfo id="foe.1" depart="28.00" departLane="EC_1" departPos="50.00" departSpeed="1.23" departDelay="2.00" arrival="73.00" arrivalLane="CW_0" arrivalPos="50.00" arrivalSpeed="2.78" duration="45.00" routeLength="108.05" waitingTime="4.00" stopTime="0.00" timeLoss="5.41" rerouteNo="0" devices="tripinfo_foe.1" vType="foeType" speedFactor="0.20" vaporized=""/>
    <tripinfo id="foe.2" depart="32.00" departLane="EC_1" departPos="50.00" departSpeed="2.22" departDelay="5.00" arrival="79.00" arrivalLane="CW_0" arrivalPos="50.00" arrivalSpeed="2.78" duration="47.00" routeLength="108.05" waitingTime="6.00" stopTime="0.00" timeLoss="7.96" rerouteNo="0" devices="tripinfo_foe.2" vType="foeType" speedFactor="0.20" vaporized=""/>
    <tripinfo id="foe.3" depart="35.00" departLane="EC_1" departPos="50.00" departSpeed="0.68" departDelay="7.00" arrival="83.00" arrivalLane="CW_0" arrivalPos="50.00" arrivalSpeed="2.78" duration="48.00" routeLength="108.05" waitingTime="5.00" stopTime="0.00" timeLoss="8.51" rerouteNo="0" devices="tripinfo_foe.3" vType="foeType" speedFactor="0.20" vaporized=""/>
    <tripinfo id="foe.4" depart="39.00" departLane="EC_1" departPos="50.00" departSpeed="1.11" departDelay="10.00" arrival="86.00" arrivalLane="CW_0" arrivalPos="50.00" arrivalSpeed="2.78" duration="47.00" routeLength="108.05" waitingTime="5.00" stopTime="0.00" timeLoss="8.07" rerouteNo="0" devices="tripinfo_foe.4" vType="foeType" speedFactor="0.20" vaporized=""/>
</tripinfos>
