<?xml version="1.0" encoding="UTF-8"?>

<!-- generated on 2024-08-26 15:32:31 by Eclipse SUMO sumo Version v1_20_0+1721-016cfd09667
This data file and the accompanying materials
are made available under the terms of the Eclipse Public License v2.0
which accompanies this distribution, and is available at
http://www.eclipse.org/legal/epl-v20.html
This file may also be made available under the following Secondary
Licenses when the conditions for such availability set forth in the Eclipse
Public License 2.0 are satisfied: GNU General Public License, version 2
or later which is available at
https://www.gnu.org/licenses/old-licenses/gpl-2.0-standalone.html
SPDX-License-Identifier: EPL-2.0 OR GPL-2.0-or-later
<sumoConfiguration xmlns:xsi="http://www.w3.org/2001/XMLSchema-instance" xsi:noNamespaceSchemaLocation="http://sumo.dlr.de/xsd/sumoConfiguration.xsd">

    <input>
        <net-file value="net2.net.xml"/>
        <route-files value="input_routes.rou.xml"/>
        <additional-files value="input_additional.add.xml"/>
    </input>

    <output>
        <write-license value="true"/>
        <tripinfo-output value="tripinfos.xml"/>
    </output>

    <time>
        <begin value="25"/>
    </time>

    <processing>
        <collision.stoptime value="5"/>
        <collision.check-junctions value="true"/>
        <default.speeddev value="0"/>
    </processing>

    <report>
        <xml-validation value="never"/>
        <duration-log.disable value="true"/>
        <no-step-log value="true"/>
    </report>

    <mesoscopic>
        <mesosim value="true"/>
        <meso-junction-control value="true"/>
    </mesoscopic>

</sumoConfiguration>
-->

<tripinfos xmlns:xsi="http://www.w3.org/2001/XMLSchema-instance" xsi:noNamespaceSchemaLocation="http://sumo.dlr.de/xsd/tripinfo_file.xsd">
    <tripinfo id="foe.0" depart="25.00" departLane="EC_0" departPos="0.00" departSpeed="2.78" departDelay="0.00" arrival="92.00" arrivalLane="CW_0" arrivalPos="50.00" arrivalSpeed="2.78" duration="67.00" routeLength="141.95" waitingTime="0.00" waitingCount="0" stopTime="0.00" timeLoss="0.00" rerouteNo="0" devices="tripinfo_foe.0" vType="foeType" speedFactor="0.20" vaporized=""/>
    <tripinfo id="foe.1" depart="26.00" departLane="EC_0" departPos="0.00" departSpeed="2.78" departDelay="0.00" arrival="93.00" arrivalLane="CW_0" arrivalPos="50.00" arrivalSpeed="2.78" duration="67.00" routeLength="141.95" waitingTime="0.00" waitingCount="0" stopTime="0.00" timeLoss="0.00" rerouteNo="0" devices="tripinfo_foe.1" vType="foeType" speedFactor="0.20" vaporized=""/>
    <tripinfo id="foe.2" depart="27.00" departLane="EC_0" departPos="0.00" departSpeed="2.78" departDelay="0.00" arrival="94.00" arrivalLane="CW_0" arrivalPos="50.00" arrivalSpeed="2.78" duration="67.00" routeLength="141.95" waitingTime="0.00" waitingCount="0" stopTime="0.00" timeLoss="0.00" rerouteNo="0" devices="tripinfo_foe.2" vType="foeType" speedFactor="0.20" vaporized=""/>
    <tripinfo id="foe.3" depart="28.00" departLane="EC_0" departPos="0.00" departSpeed="2.78" departDelay="0.00" arrival="95.00" arrivalLane="CW_0" arrivalPos="50.00" arrivalSpeed="2.78" duration="67.00" routeLength="141.95" waitingTime="0.00" waitingCount="0" stopTime="0.00" timeLoss="0.00" rerouteNo="0" devices="tripinfo_foe.3" vType="foeType" speedFactor="0.20" vaporized=""/>
    <tripinfo id="foe.4" depart="29.00" departLane="EC_0" departPos="0.00" departSpeed="2.78" departDelay="0.00" arrival="96.00" arrivalLane="CW_0" arrivalPos="50.00" arrivalSpeed="2.78" duration="67.00" routeLength="141.95" waitingTime="0.00" waitingCount="0" stopTime="0.00" timeLoss="0.00" rerouteNo="0" devices="tripinfo_foe.4" vType="foeType" speedFactor="0.20" vaporized=""/>
    <tripinfo id="ego" depart="42.00" departLane="SC_0" departPos="0.00" departSpeed="13.89" departDelay="0.00" arrival="97.00" arrivalLane="CN_0" arrivalPos="50.00" arrivalSpeed="13.89" duration="55.00" routeLength="141.95" waitingTime="41.00" waitingCount="0" stopTime="0.00" timeLoss="41.00" rerouteNo="0" devices="tripinfo_ego" vType="egoType" speedFactor="1.00" vaporized=""/>
</tripinfos>
