<?xml version="1.0" encoding="UTF-8"?>

<!-- generated on Wed Mar 11 22:23:44 2020 by Eclipse SUMO Version v1_5_0+0662-a598ecae47
This data file and the accompanying materials
are made available under the terms of the Eclipse Public License v2.0
which accompanies this distribution, and is available at
http://www.eclipse.org/legal/epl-v20.html
SPDX-License-Identifier: EPL-2.0
<configuration xmlns:xsi="http://www.w3.org/2001/XMLSchema-instance" xsi:noNamespaceSchemaLocation="http://sumo.dlr.de/xsd/sumoConfiguration.xsd">

    <input>
        <net-file value="net.net.xml"/>
        <route-files value="input_routes.rou.xml"/>
        <additional-files value="input_additional.add.xml"/>
    </input>

    <output>
        <write-license value="true"/>
        <tripinfo-output value="tripinfos.xml"/>
        <vehroute-output value="vehroutes.xml"/>
        <railsignal-block-output value="railsignal_blocks.xml"/>
        <stop-output value="stopinfos.xml"/>
    </output>

    <processing>
        <default.speeddev value="0"/>
    </processing>

    <routing>
        <device.rerouting.period value="10"/>
        <device.rerouting.adaptation-steps value="10"/>
        <device.rerouting.railsignal value="false"/>
    </routing>

    <report>
        <verbose value="true"/>
        <xml-validation value="never"/>
        <duration-log.statistics value="true"/>
        <no-step-log value="true"/>
    </report>

</configuration>
-->

<stops xmlns:xsi="http://www.w3.org/2001/XMLSchema-instance" xsi:noNamespaceSchemaLocation="http://sumo.dlr.de/xsd/stopinfo_file.xsd">
    <stopinfo id="tram2" type="RB628" lane="TrightLoop_1_0" pos="400.00" parking="0" started="305.00" ended="325.00" delay="-1.00" initialPersons="0" loadedPersons="0" unloadedPersons="0" initialContainers="0" loadedContainers="0" unloadedContainers="0" busStop="rightStop"/>
    <stopinfo id="tram1" type="RB628" lane="TleftLoop_1_0" pos="400.00" parking="0" started="346.00" ended="366.00" delay="-1.00" initialPersons="0" loadedPersons="0" unloadedPersons="0" initialContainers="0" loadedContainers="0" unloadedContainers="0" busStop="leftStop"/>
    <stopinfo id="tram5" type="RB628" lane="TrightLoop_1_0" pos="400.00" parking="0" started="397.00" ended="417.00" delay="-1.00" initialPersons="0" loadedPersons="0" unloadedPersons="0" initialContainers="0" loadedContainers="0" unloadedContainers="0" busStop="rightStop"/>
    <stopinfo id="tram4" type="RB628" lane="TleftLoop_1_0" pos="400.00" parking="0" started="438.00" ended="458.00" delay="-1.00" initialPersons="0" loadedPersons="0" unloadedPersons="0" initialContainers="0" loadedContainers="0" unloadedContainers="0" busStop="leftStop"/>
    <stopinfo id="tram7" type="RB628" lane="TrightLoop_1_0" pos="400.00" parking="0" started="495.00" ended="515.00" delay="-1.00" initialPersons="0" loadedPersons="0" unloadedPersons="0" initialContainers="0" loadedContainers="0" unloadedContainers="0" busStop="rightStop"/>
    <stopinfo id="tram6" type="RB628" lane="TleftLoop_1_0" pos="400.00" parking="0" started="588.00" ended="608.00" delay="-1.00" initialPersons="0" loadedPersons="0" unloadedPersons="0" initialContainers="0" loadedContainers="0" unloadedContainers="0" busStop="leftStop"/>
    <stopinfo id="tram9" type="RB628" lane="TrightLoop_1_0" pos="400.00" parking="0" started="665.00" ended="685.00" delay="-1.00" initialPersons="0" loadedPersons="0" unloadedPersons="0" initialContainers="0" loadedContainers="0" unloadedContainers="0" busStop="rightStop"/>
    <stopinfo id="tram2" type="RB628" lane="TleftLoop_1_0" pos="400.00" parking="0" started="785.00" ended="805.00" delay="-1.00" initialPersons="0" loadedPersons="0" unloadedPersons="0" initialContainers="0" loadedContainers="0" unloadedContainers="0" busStop="leftStop"/>
    <stopinfo id="tram1" type="RB628" lane="TrightLoop_1_0" pos="400.00" parking="0" started="798.00" ended="818.00" delay="-1.00" initialPersons="0" loadedPersons="0" unloadedPersons="0" initialContainers="0" loadedContainers="0" unloadedContainers="0" busStop="rightStop"/>
    <stopinfo id="tram5" type="RB628" lane="TleftLoop_1_0" pos="400.00" parking="0" started="879.00" ended="899.00" delay="-1.00" initialPersons="0" loadedPersons="0" unloadedPersons="0" initialContainers="0" loadedContainers="0" unloadedContainers="0" busStop="leftStop"/>
    <stopinfo id="tram4" type="RB628" lane="TrightLoop_1_0" pos="400.00" parking="0" started="893.00" ended="913.00" delay="-1.00" initialPersons="0" loadedPersons="0" unloadedPersons="0" initialContainers="0" loadedContainers="0" unloadedContainers="0" busStop="rightStop"/>
    <stopinfo id="tram7" type="RB628" lane="TleftLoop_1_0" pos="400.00" parking="0" started="976.00" ended="996.00" delay="-1.00" initialPersons="0" loadedPersons="0" unloadedPersons="0" initialContainers="0" loadedContainers="0" unloadedContainers="0" busStop="leftStop"/>
    <stopinfo id="tram6" type="RB628" lane="TrightLoop_1_0" pos="400.00" parking="0" started="1040.00" ended="1060.00" delay="-1.00" initialPersons="0" loadedPersons="0" unloadedPersons="0" initialContainers="0" loadedContainers="0" unloadedContainers="0" busStop="rightStop"/>
    <stopinfo id="tram8" type="RB628" lane="TleftLoop_1_0" pos="400.00" parking="0" started="1068.00" ended="1088.00" delay="-1.00" initialPersons="0" loadedPersons="0" unloadedPersons="0" initialContainers="0" loadedContainers="0" unloadedContainers="0" busStop="leftStop"/>
    <stopinfo id="tram9" type="RB628" lane="TleftLoop_1_0" pos="400.00" parking="0" started="1160.00" ended="1180.00" delay="-1.00" initialPersons="0" loadedPersons="0" unloadedPersons="0" initialContainers="0" loadedContainers="0" unloadedContainers="0" busStop="leftStop"/>
    <stopinfo id="tram2" type="RB628" lane="TrightLoop_1_0" pos="400.00" parking="0" started="1237.00" ended="1257.00" delay="-1.00" initialPersons="0" loadedPersons="0" unloadedPersons="0" initialContainers="0" loadedContainers="0" unloadedContainers="0" busStop="rightStop"/>
    <stopinfo id="tram1" type="RB628" lane="TleftLoop_1_0" pos="400.00" parking="0" started="1278.00" ended="1298.00" delay="-1.00" initialPersons="0" loadedPersons="0" unloadedPersons="0" initialContainers="0" loadedContainers="0" unloadedContainers="0" busStop="leftStop"/>
    <stopinfo id="tram5" type="RB628" lane="TrightLoop_1_0" pos="400.00" parking="0" started="1333.00" ended="1353.00" delay="-1.00" initialPersons="0" loadedPersons="0" unloadedPersons="0" initialContainers="0" loadedContainers="0" unloadedContainers="0" busStop="rightStop"/>
    <stopinfo id="tram4" type="RB628" lane="TleftLoop_1_0" pos="400.00" parking="0" started="1374.00" ended="1394.00" delay="-1.00" initialPersons="0" loadedPersons="0" unloadedPersons="0" initialContainers="0" loadedContainers="0" unloadedContainers="0" busStop="leftStop"/>
    <stopinfo id="tram7" type="RB628" lane="TrightLoop_1_0" pos="400.00" parking="0" started="1430.00" ended="1450.00" delay="-1.00" initialPersons="0" loadedPersons="0" unloadedPersons="0" initialContainers="0" loadedContainers="0" unloadedContainers="0" busStop="rightStop"/>
    <stopinfo id="tram6" type="RB628" lane="TleftLoop_1_0" pos="400.00" parking="0" started="1520.00" ended="1540.00" delay="-1.00" initialPersons="0" loadedPersons="0" unloadedPersons="0" initialContainers="0" loadedContainers="0" unloadedContainers="0" busStop="leftStop"/>
    <stopinfo id="tram8" type="RB628" lane="TrightLoop_1_0" pos="400.00" parking="0" started="1523.00" ended="1543.00" delay="-1.00" initialPersons="0" loadedPersons="0" unloadedPersons="0" initialContainers="0" loadedContainers="0" unloadedContainers="0" busStop="rightStop"/>
    <stopinfo id="tram9" type="RB628" lane="TrightLoop_1_0" pos="400.00" parking="0" started="1616.00" ended="1636.00" delay="-1.00" initialPersons="0" loadedPersons="0" unloadedPersons="0" initialContainers="0" loadedContainers="0" unloadedContainers="0" busStop="rightStop"/>
    <stopinfo id="tram2" type="RB628" lane="TleftLoop_1_0" pos="400.00" parking="0" started="1717.00" ended="1737.00" delay="-1.00" initialPersons="0" loadedPersons="0" unloadedPersons="0" initialContainers="0" loadedContainers="0" unloadedContainers="0" busStop="leftStop"/>
    <stopinfo id="tram1" type="RB628" lane="TrightLoop_1_0" pos="400.00" parking="0" started="1731.00" ended="1751.00" delay="-1.00" initialPersons="0" loadedPersons="0" unloadedPersons="0" initialContainers="0" loadedContainers="0" unloadedContainers="0" busStop="rightStop"/>
    <stopinfo id="tram5" type="RB628" lane="TleftLoop_1_0" pos="400.00" parking="0" started="1814.00" ended="1834.00" delay="-1.00" initialPersons="0" loadedPersons="0" unloadedPersons="0" initialContainers="0" loadedContainers="0" unloadedContainers="0" busStop="leftStop"/>
    <stopinfo id="tram4" type="RB628" lane="TrightLoop_1_0" pos="400.00" parking="0" started="1828.00" ended="1848.00" delay="-1.00" initialPersons="0" loadedPersons="0" unloadedPersons="0" initialContainers="0" loadedContainers="0" unloadedContainers="0" busStop="rightStop"/>
    <stopinfo id="tram7" type="RB628" lane="TleftLoop_1_0" pos="400.00" parking="0" started="1911.00" ended="1931.00" delay="-1.00" initialPersons="0" loadedPersons="0" unloadedPersons="0" initialContainers="0" loadedContainers="0" unloadedContainers="0" busStop="leftStop"/>
    <stopinfo id="tram6" type="RB628" lane="TrightLoop_1_0" pos="400.00" parking="0" started="1972.00" ended="1992.00" delay="-1.00" initialPersons="0" loadedPersons="0" unloadedPersons="0" initialContainers="0" loadedContainers="0" unloadedContainers="0" busStop="rightStop"/>
    <stopinfo id="tram8" type="RB628" lane="TleftLoop_1_0" pos="400.00" parking="0" started="2005.00" ended="2025.00" delay="-1.00" initialPersons="0" loadedPersons="0" unloadedPersons="0" initialContainers="0" loadedContainers="0" unloadedContainers="0" busStop="leftStop"/>
    <stopinfo id="tram9" type="RB628" lane="TleftLoop_1_0" pos="400.00" parking="0" started="2098.00" ended="2118.00" delay="-1.00" initialPersons="0" loadedPersons="0" unloadedPersons="0" initialContainers="0" loadedContainers="0" unloadedContainers="0" busStop="leftStop"/>
    <stopinfo id="tram2" type="RB628" lane="TrightLoop_1_0" pos="400.00" parking="0" started="2169.00" ended="2189.00" delay="-1.00" initialPersons="0" loadedPersons="0" unloadedPersons="0" initialContainers="0" loadedContainers="0" unloadedContainers="0" busStop="rightStop"/>
    <stopinfo id="tram1" type="RB628" lane="TleftLoop_1_0" pos="400.00" parking="0" started="2211.00" ended="2231.00" delay="-1.00" initialPersons="0" loadedPersons="0" unloadedPersons="0" initialContainers="0" loadedContainers="0" unloadedContainers="0" busStop="leftStop"/>
    <stopinfo id="tram4" type="RB628" lane="TleftLoop_1_0" pos="400.00" parking="0" started="2309.00" ended="2329.00" delay="-1.00" initialPersons="0" loadedPersons="0" unloadedPersons="0" initialContainers="0" loadedContainers="0" unloadedContainers="0" busStop="leftStop"/>
    <stopinfo id="tram6" type="RB628" lane="TleftLoop_1_0" pos="400.00" parking="0" started="2452.00" ended="2472.00" delay="-1.00" initialPersons="0" loadedPersons="0" unloadedPersons="0" initialContainers="0" loadedContainers="0" unloadedContainers="0" busStop="leftStop"/>
    <stopinfo id="tram2" type="RB628" lane="TleftLoop_1_0" pos="400.00" parking="0" started="2649.00" ended="2669.00" delay="-1.00" initialPersons="0" loadedPersons="0" unloadedPersons="0" initialContainers="0" loadedContainers="0" unloadedContainers="0" busStop="leftStop"/>
</stops>
