<?xml version="1.0" encoding="UTF-8"?>

<!-- generated on Wed Aug 26 18:10:26 2020 by Eclipse SUMO sumo Version v1_6_0+1774-a7aaaf2373
This data file and the accompanying materials
are made available under the terms of the Eclipse Public License v2.0
which accompanies this distribution, and is available at
http://www.eclipse.org/legal/epl-v20.html
SPDX-License-Identifier: EPL-2.0
<configuration xmlns:xsi="http://www.w3.org/2001/XMLSchema-instance" xsi:noNamespaceSchemaLocation="http://sumo.dlr.de/xsd/sumoConfiguration.xsd">

    <input>
        <net-file value="net.net.xml"/>
        <route-files value="input_routes.rou.xml"/>
        <additional-files value="input_additional.add.xml"/>
    </input>

    <output>
        <write-license value="true"/>
        <tripinfo-output value="tripinfos.xml"/>
        <vehroute-output value="vehroutes.xml"/>
        <railsignal-block-output value="railsignal_blocks.xml"/>
        <stop-output value="stopinfos.xml"/>
    </output>

    <processing>
        <default.speeddev value="0"/>
    </processing>

    <routing>
        <device.rerouting.period value="10"/>
        <device.rerouting.adaptation-steps value="10"/>
        <device.rerouting.railsignal value="false"/>
    </routing>

    <report>
        <verbose value="true"/>
        <xml-validation value="never"/>
        <xml-validation.routes value="never"/>
        <duration-log.statistics value="true"/>
        <no-step-log value="true"/>
    </report>

</configuration>
-->

<tripinfos xmlns:xsi="http://www.w3.org/2001/XMLSchema-instance" xsi:noNamespaceSchemaLocation="http://sumo.dlr.de/xsd/tripinfo_file.xsd">
    <tripinfo id="tram3" depart="10.00" departLane="TrightLoop_1_0" departPos="46.10" departSpeed="21.21" departDelay="0.00" arrival="513.00" arrivalLane="TleftLoop_1_0" arrivalPos="400.00" arrivalSpeed="16.02" duration="503.00" routeLength="10295.68" waitingTime="21.00" waitingCount="1" stopTime="0.00" timeLoss="193.26" rerouteNo="1" devices="vehroute_tram3 tripinfo_tram3 routing_tram3" vType="RB628" speedFactor="1.00" vaporized=""/>
    <tripinfo id="tram5" depart="100.00" departLane="Tdepot_1_0" departPos="46.10" departSpeed="12.38" departDelay="0.00" arrival="2099.00" arrivalLane="Tdepot_1_0" arrivalPos="150.00" arrivalSpeed="7.35" duration="1999.00" routeLength="40247.98" waitingTime="2.00" waitingCount="1" stopTime="80.00" timeLoss="694.33" rerouteNo="21" devices="vehroute_tram5 tripinfo_tram5 routing_tram5" vType="RB628" speedFactor="1.00" vaporized=""/>
    <tripinfo id="tram7" depart="200.00" departLane="Tdepot_1_0" departPos="46.10" departSpeed="12.38" departDelay="0.00" arrival="2200.00" arrivalLane="Tdepot_1_0" arrivalPos="150.00" arrivalSpeed="6.81" duration="2000.00" routeLength="40247.98" waitingTime="2.00" waitingCount="1" stopTime="80.00" timeLoss="697.33" rerouteNo="22" devices="vehroute_tram7 tripinfo_tram7 routing_tram7" vType="RB628" speedFactor="1.00" vaporized=""/>
    <tripinfo id="tram8" depart="210.00" departLane="Tdepot_1_0" departPos="46.10" departSpeed="9.56" departDelay="0.00" arrival="2297.00" arrivalLane="Tdepot_1_0" arrivalPos="150.00" arrivalSpeed="6.81" duration="2087.00" routeLength="40247.98" waitingTime="31.00" waitingCount="5" stopTime="60.00" timeLoss="802.14" rerouteNo="23" devices="vehroute_tram8 tripinfo_tram8 routing_tram8" vType="RB628" speedFactor="1.00" vaporized=""/>
    <tripinfo id="tram9" depart="300.00" departLane="Tdepot_1_0" departPos="46.10" departSpeed="12.38" departDelay="0.00" arrival="2392.00" arrivalLane="Tdepot_1_0" arrivalPos="150.00" arrivalSpeed="6.81" duration="2092.00" routeLength="40247.98" waitingTime="18.00" waitingCount="3" stopTime="80.00" timeLoss="786.89" rerouteNo="25" devices="vehroute_tram9 tripinfo_tram9 routing_tram9" vType="RB628" speedFactor="1.00" vaporized=""/>
    <tripinfo id="tram1" depart="1.00" departLane="Tdepot_1_0" departPos="46.10" departSpeed="12.45" departDelay="0.00" arrival="2497.00" arrivalLane="Tdepot_1_0" arrivalPos="150.00" arrivalSpeed="6.81" duration="2496.00" routeLength="50925.57" waitingTime="2.00" waitingCount="1" stopTime="100.00" timeLoss="863.37" rerouteNo="29" devices="vehroute_tram1 tripinfo_tram1 routing_tram1" vType="RB628" speedFactor="1.00" vaporized=""/>
    <tripinfo id="tram4" depart="13.00" departLane="Tdepot_1_0" departPos="46.10" departSpeed="5.58" departDelay="2.00" arrival="2598.00" arrivalLane="Tdepot_1_0" arrivalPos="150.00" arrivalSpeed="6.81" duration="2585.00" routeLength="50925.57" waitingTime="26.00" waitingCount="3" stopTime="100.00" timeLoss="949.68" rerouteNo="33" devices="vehroute_tram4 tripinfo_tram4 routing_tram4" vType="RB628" speedFactor="1.00" vaporized=""/>
    <tripinfo id="tram6" depart="110.00" departLane="Tdepot_1_0" departPos="46.10" departSpeed="9.56" departDelay="0.00" arrival="2735.00" arrivalLane="Tdepot_1_0" arrivalPos="150.00" arrivalSpeed="7.35" duration="2625.00" routeLength="50925.57" waitingTime="87.00" waitingCount="2" stopTime="100.00" timeLoss="990.25" rerouteNo="35" devices="vehroute_tram6 tripinfo_tram6 routing_tram6" vType="RB628" speedFactor="1.00" vaporized=""/>
    <tripinfo id="tram2" depart="6.00" departLane="Tdepot_1_0" departPos="46.10" departSpeed="9.63" departDelay="4.00" arrival="2933.00" arrivalLane="Tdepot_1_0" arrivalPos="150.00" arrivalSpeed="7.35" duration="2927.00" routeLength="60165.20" waitingTime="2.00" waitingCount="1" stopTime="120.00" timeLoss="985.88" rerouteNo="37" devices="vehroute_tram2 tripinfo_tram2 routing_tram2" vType="RB628" speedFactor="1.00" vaporized=""/>
</tripinfos>
