<?xml version="1.0" encoding="UTF-8"?>

<!-- generated on Thu Apr 17 10:11:00 2014 by SUMO sumo Version dev-SVN-r16196
<?xml version="1.0" encoding="UTF-8"?>

<configuration xmlns:xsi="http://www.w3.org/2001/XMLSchema-instance" xsi:noNamespaceSchemaLocation="http://sumo-sim.org/xsd/sumoConfiguration.xsd">

    <input>
        <net-file value="net.net.xml"/>
        <additional-files value="input_routes.rou.xml,input_additional2.add.xml"/>
    </input>

    <output>
        <vehroute-output value="vehroutes.xml"/>
    </output>

    <time>
        <begin value="0"/>
        <end value="1000"/>
    </time>

    <report>
        <xml-validation value="never"/>
        <no-duration-log value="true"/>
        <no-step-log value="true"/>
    </report>

</configuration>
-->

<routes xmlns:xsi="http://www.w3.org/2001/XMLSchema-instance" xsi:noNamespaceSchemaLocation="http://sumo-sim.org/xsd/routes_file.xsd">
    <vehicle id="0" depart="150.00" arrival="316.00">
        <route edges="4/1to3/1 3/1to2/1 2/1to1/1 1/1to0/1"/>
    </vehicle>

    <person id="p1" depart="100.00" arrival="572.00">
        <stop lane="4/1to3/1" until="150.00"/>
        <ride from="4/1to3/1" to="1/1to0/1" lines="0"/>
        <walk edges="1/1to0/1 1/0to1/1 0/0to1/0" speed="5.00"/>
    </person>

</routes>
