<?xml version="1.0" encoding="UTF-8"?>

<!-- generated on Tue Jul 22 16:54:58 2014 by SUMO sumo Version dev-SVN-r16771
<?xml version="1.0" encoding="UTF-8"?>

<configuration xmlns:xsi="http://www.w3.org/2001/XMLSchema-instance" xsi:noNamespaceSchemaLocation="http://sumo.dlr.de/xsd/sumoConfiguration.xsd">

    <input>
        <net-file value="net.net.xml"/>
        <route-files value="input_routes.rou.xml"/>
    </input>

    <output>
        <fcd-output value="fcd.xml"/>
        <tripinfo-output value="tripinfos.xml"/>
    </output>

    <processing>
        <pedestrian.model value="striping"/>
    </processing>

    <report>
        <xml-validation value="never"/>
        <no-step-log value="true"/>
    </report>

</configuration>
-->

<tripinfos xmlns:xsi="http://www.w3.org/2001/XMLSchema-instance" xsi:noNamespaceSchemaLocation="http://sumo.dlr.de/xsd/tripinfo_file.xsd">
    <personinfo id="pEW" depart="20.00">
        <stop arrival="20.00"/>
        <walk arrival="28.00"/>
    </personinfo>
    <personinfo id="pEN" depart="25.00">
        <stop arrival="25.00"/>
        <walk arrival="32.00"/>
    </personinfo>
    <personinfo id="pWN" depart="0.00">
        <stop arrival="0.00"/>
        <walk arrival="110.00"/>
    </personinfo>
    <personinfo id="pNW" depart="10.00">
        <stop arrival="10.00"/>
        <walk arrival="126.00"/>
    </personinfo>
    <personinfo id="pWE" depart="5.00">
        <stop arrival="5.00"/>
        <walk arrival="228.00"/>
    </personinfo>
    <personinfo id="pNE" depart="15.00">
        <stop arrival="15.00"/>
        <walk arrival="242.00"/>
    </personinfo>
</tripinfos>
