<?xml version="1.0" encoding="UTF-8"?>

<!-- generated on 2022-04-01 13:11:54 by Eclipse SUMO sumo Version v1_12_0+1850-816074f
This data file and the accompanying materials
are made available under the terms of the Eclipse Public License v2.0
which accompanies this distribution, and is available at
http://www.eclipse.org/legal/epl-v20.html
This file may also be made available under the following Secondary
Licenses when the conditions for such availability set forth in the Eclipse
Public License 2.0 are satisfied: GNU General Public License, version 2
or later which is available at
https://www.gnu.org/licenses/old-licenses/gpl-2.0-standalone.html
SPDX-License-Identifier: EPL-2.0 OR GPL-2.0-or-later
<configuration xmlns:xsi="http://www.w3.org/2001/XMLSchema-instance" xsi:noNamespaceSchemaLocation="http://sumo.dlr.de/xsd/sumoConfiguration.xsd">

    <input>
        <net-file value="net.net.xml"/>
        <route-files value="input_routes.rou.xml"/>
        <additional-files value="input_additional.add.xml"/>
    </input>

    <output>
        <write-license value="true"/>
        <tripinfo-output value="tripinfos.xml"/>
        <stop-output value="stopinfos.xml"/>
    </output>

    <processing>
        <ignore-route-errors value="true"/>
        <default.speeddev value="0"/>
    </processing>

    <report>
        <xml-validation value="never"/>
        <xml-validation.routes value="never"/>
        <duration-log.disable value="true"/>
        <no-step-log value="true"/>
    </report>

</configuration>
-->

<tripinfos xmlns:xsi="http://www.w3.org/2001/XMLSchema-instance" xsi:noNamespaceSchemaLocation="http://sumo.dlr.de/xsd/tripinfo_file.xsd">
    <tripinfo id="b1" depart="5.00" departLane="beg_0" departPos="10.10" departSpeed="0.00" departDelay="3.00" arrival="145.00" arrivalLane="beg_0" arrivalPos="500.00" arrivalSpeed="27.78" duration="140.00" routeLength="489.90" waitingTime="0.00" waitingCount="0" stopTime="100.00" timeLoss="22.30" rerouteNo="0" devices="tripinfo_b1" vType="DEFAULT_VEHTYPE" speedFactor="1.00" vaporized=""/>
    <tripinfo id="b0" depart="0.00" departLane="beg_0" departPos="10.10" departSpeed="0.00" departDelay="0.00" arrival="153.00" arrivalLane="beg_0" arrivalPos="500.00" arrivalSpeed="27.78" duration="153.00" routeLength="489.90" waitingTime="103.00" waitingCount="1" stopTime="113.00" timeLoss="22.12" rerouteNo="0" devices="tripinfo_b0" vType="DEFAULT_VEHTYPE" speedFactor="1.00" vaporized=""/>
    <tripinfo id="b4" depart="100.00" departLane="beg_0" departPos="10.10" departSpeed="0.00" departDelay="0.00" arrival="182.00" arrivalLane="beg_0" arrivalPos="500.00" arrivalSpeed="27.78" duration="82.00" routeLength="489.90" waitingTime="8.00" waitingCount="1" stopTime="30.00" timeLoss="34.30" rerouteNo="0" devices="tripinfo_b4" vType="DEFAULT_VEHTYPE" speedFactor="1.00" vaporized=""/>
    <tripinfo id="b6" depart="105.00" departLane="beg_0" departPos="10.10" departSpeed="0.00" departDelay="3.00" arrival="184.00" arrivalLane="beg_0" arrivalPos="500.00" arrivalSpeed="27.78" duration="79.00" routeLength="489.90" waitingTime="5.00" waitingCount="1" stopTime="30.00" timeLoss="30.75" rerouteNo="0" devices="tripinfo_b6" vType="DEFAULT_VEHTYPE" speedFactor="1.00" vaporized=""/>
    <tripinfo id="b2" depart="10.00" departLane="beg_0" departPos="10.10" departSpeed="0.00" departDelay="6.00" arrival="200.00" arrivalLane="beg_0" arrivalPos="500.00" arrivalSpeed="27.78" duration="190.00" routeLength="489.90" waitingTime="0.00" waitingCount="0" stopTime="150.00" timeLoss="21.75" rerouteNo="0" devices="tripinfo_b2" vType="DEFAULT_VEHTYPE" speedFactor="1.00" vaporized=""/>
</tripinfos>
