<?xml version="1.0" encoding="UTF-8"?>

<!-- generated on 2021-07-28 14:09:21 by Eclipse SUMO sumo Version v1_9_2+0904-57809fa2fca
<configuration xmlns:xsi="http://www.w3.org/2001/XMLSchema-instance" xsi:noNamespaceSchemaLocation="http://sumo.dlr.de/xsd/sumoConfiguration.xsd">

    <input>
        <net-file value="input_net4.net.xml"/>
        <route-files value="input_routes.rou.xml"/>
        <additional-files value="input_additional4.add.xml"/>
    </input>

    <output>
        <vehroute-output value="vehroutes.xml"/>
    </output>

    <processing>
        <time-to-teleport.disconnected value="1"/>
    </processing>

    <report>
        <no-step-log value="true"/>
    </report>

    <traci_server>
        <remote-port value="59245"/>
    </traci_server>

</configuration>
-->

<routes xmlns:xsi="http://www.w3.org/2001/XMLSchema-instance" xsi:noNamespaceSchemaLocation="http://sumo.dlr.de/xsd/routes_file.xsd">
    <vehicle id="ego" depart="0.00" arrival="246.00">
        <route edges="A0A1 A1B1 B1C1 C1D1 D1D2 D2D3"/>
        <stop busStop="busStop_A1B1" duration="60.00"/>
        <stop busStop="busStop_B1C1" duration="60.00"/>
        <stop busStop="busStop_C1D1" duration="60.00"/>
    </vehicle>

</routes>
