<?xml version="1.0"?>

<!-- generated on Mon Sep 10 00:02:10 2007 by SUMO dfrouter Version dev-SVN-r4433
<configuration>

   <input>
      <net-file>input_tri.net.xml</net-file>
      <detector-files>input_tri.det.xml</detector-files>
   </input>

   <output>
      <routes-output>routes.rou.xml</routes-output>
      <emitters-output>emitters.add.xml</emitters-output>
   </output>

   <processing>
      <keep-longer-routes>true</keep-longer-routes>
   </processing>

</configuration>
-->

<triggeredsource>
   <routedistelem id="beg_to_end" probability="1"/>
   <routedistelem id="beg_to_end_1" probability="1"/>
   <routedistelem id="beg_to_end_2" probability="1"/>
</triggeredsource>
