<?xml version="1.0" encoding="UTF-8"?>

<!-- generated on Thu Jan 17 13:23:37 2019 by Eclipse SUMO Version v1_0_1+0645-93703db
This data file and the accompanying materials
are made available under the terms of the Eclipse Public License v2.0
which accompanies this distribution, and is available at
http://www.eclipse.org/legal/epl-v20.html
SPDX-License-Identifier: EPL-2.0
<configuration xmlns:xsi="http://www.w3.org/2001/XMLSchema-instance" xsi:noNamespaceSchemaLocation="http://sumo.dlr.de/xsd/sumoConfiguration.xsd">

    <input>
        <net-file value="net.net.xml"/>
        <route-files value="input_routes.rou.xml"/>
    </input>

    <output>
        <write-license value="true"/>
        <fcd-output value="fcd.xml"/>
    </output>

    <processing>
        <default.carfollowmodel value="IDM"/>
        <default.speeddev value="0"/>
    </processing>

    <report>
        <xml-validation value="never"/>
        <no-step-log value="true"/>
    </report>

</configuration>
-->

<fcd-export xmlns:xsi="http://www.w3.org/2001/XMLSchema-instance" xsi:noNamespaceSchemaLocation="http://sumo.dlr.de/xsd/fcd_file.xsd">
    <timestep time="0.00">
        <vehicle id="first" x="5.10" y="0.00" angle="90.00" type="DEFAULT_VEHTYPE" speed="13.85" pos="5.10" lane="0_0" slope="0.00"/>
    </timestep>
    <timestep time="1.00">
        <vehicle id="first" x="18.93" y="0.00" angle="90.00" type="DEFAULT_VEHTYPE" speed="13.83" pos="18.93" lane="0_0" slope="0.00"/>
        <vehicle id="flow.0" x="5.10" y="0.00" angle="90.00" type="flow" speed="10.70" pos="5.10" lane="0_0" slope="0.00"/>
    </timestep>
    <timestep time="2.00">
        <vehicle id="first" x="32.75" y="0.00" angle="90.00" type="DEFAULT_VEHTYPE" speed="13.82" pos="32.75" lane="0_0" slope="0.00"/>
        <vehicle id="flow.0" x="15.55" y="0.00" angle="90.00" type="flow" speed="10.45" pos="15.55" lane="0_0" slope="0.00"/>
        <vehicle id="flow.1" x="5.10" y="0.00" angle="90.00" type="flow" speed="5.21" pos="5.10" lane="0_0" slope="0.00"/>
    </timestep>
    <timestep time="3.00">
        <vehicle id="first" x="46.56" y="0.00" angle="90.00" type="DEFAULT_VEHTYPE" speed="13.81" pos="46.56" lane="0_0" slope="0.00"/>
        <vehicle id="flow.0" x="26.63" y="0.00" angle="90.00" type="flow" speed="11.08" pos="26.63" lane="0_0" slope="0.00"/>
        <vehicle id="flow.1" x="11.27" y="0.00" angle="90.00" type="flow" speed="6.17" pos="11.27" lane="0_0" slope="0.00"/>
    </timestep>
    <timestep time="4.00">
        <vehicle id="first" x="60.36" y="0.00" angle="90.00" type="DEFAULT_VEHTYPE" speed="13.80" pos="60.36" lane="0_0" slope="0.00"/>
        <vehicle id="flow.0" x="38.28" y="0.00" angle="90.00" type="flow" speed="11.65" pos="38.28" lane="0_0" slope="0.00"/>
        <vehicle id="flow.1" x="19.16" y="0.00" angle="90.00" type="flow" speed="7.89" pos="19.16" lane="0_0" slope="0.00"/>
        <vehicle id="flow.2" x="5.10" y="0.00" angle="90.00" type="flow" speed="7.17" pos="5.10" lane="0_0" slope="0.00"/>
    </timestep>
    <timestep time="5.00">
        <vehicle id="first" x="74.14" y="0.00" angle="90.00" type="DEFAULT_VEHTYPE" speed="13.79" pos="74.14" lane="0_0" slope="0.00"/>
        <vehicle id="flow.0" x="50.37" y="0.00" angle="90.00" type="flow" speed="12.09" pos="50.37" lane="0_0" slope="0.00"/>
        <vehicle id="flow.1" x="28.51" y="0.00" angle="90.00" type="flow" speed="9.35" pos="28.51" lane="0_0" slope="0.00"/>
        <vehicle id="flow.2" x="12.21" y="0.00" angle="90.00" type="flow" speed="7.11" pos="12.21" lane="0_0" slope="0.00"/>
    </timestep>
    <timestep time="6.00">
        <vehicle id="first" x="87.92" y="0.00" angle="90.00" type="DEFAULT_VEHTYPE" speed="13.77" pos="87.92" lane="0_0" slope="0.00"/>
        <vehicle id="flow.0" x="62.77" y="0.00" angle="90.00" type="flow" speed="12.40" pos="62.77" lane="0_0" slope="0.00"/>
        <vehicle id="flow.1" x="38.87" y="0.00" angle="90.00" type="flow" speed="10.37" pos="38.87" lane="0_0" slope="0.00"/>
        <vehicle id="flow.2" x="20.35" y="0.00" angle="90.00" type="flow" speed="8.14" pos="20.35" lane="0_0" slope="0.00"/>
        <vehicle id="flow.3" x="5.10" y="0.00" angle="90.00" type="flow" speed="7.98" pos="5.10" lane="0_0" slope="0.00"/>
    </timestep>
    <timestep time="7.00">
        <vehicle id="first" x="101.68" y="0.00" angle="90.00" type="DEFAULT_VEHTYPE" speed="13.76" pos="101.68" lane="0_0" slope="0.00"/>
        <vehicle id="flow.0" x="75.39" y="0.00" angle="90.00" type="flow" speed="12.62" pos="75.39" lane="0_0" slope="0.00"/>
        <vehicle id="flow.1" x="49.88" y="0.00" angle="90.00" type="flow" speed="11.01" pos="49.88" lane="0_0" slope="0.00"/>
        <vehicle id="flow.2" x="29.58" y="0.00" angle="90.00" type="flow" speed="9.23" pos="29.58" lane="0_0" slope="0.00"/>
        <vehicle id="flow.3" x="12.94" y="0.00" angle="90.00" type="flow" speed="7.84" pos="12.94" lane="0_0" slope="0.00"/>
        <vehicle id="flow.4" x="5.10" y="0.00" angle="90.00" type="flow" speed="0.00" pos="5.10" lane="0_0" slope="0.00"/>
    </timestep>
    <timestep time="8.00">
        <vehicle id="first" x="115.42" y="0.00" angle="90.00" type="DEFAULT_VEHTYPE" speed="13.74" pos="115.42" lane="0_0" slope="0.00"/>
        <vehicle id="flow.0" x="88.17" y="0.00" angle="90.00" type="flow" speed="12.78" pos="88.17" lane="0_0" slope="0.00"/>
        <vehicle id="flow.1" x="61.28" y="0.00" angle="90.00" type="flow" speed="11.40" pos="61.28" lane="0_0" slope="0.00"/>
        <vehicle id="flow.2" x="39.69" y="0.00" angle="90.00" type="flow" speed="10.11" pos="39.69" lane="0_0" slope="0.00"/>
        <vehicle id="flow.3" x="21.46" y="0.00" angle="90.00" type="flow" speed="8.53" pos="21.46" lane="0_0" slope="0.00"/>
        <vehicle id="flow.4" x="5.68" y="0.00" angle="90.00" type="flow" speed="0.58" pos="5.68" lane="0_0" slope="0.00"/>
    </timestep>
    <timestep time="9.00">
        <vehicle id="first" x="129.14" y="0.00" angle="90.00" type="DEFAULT_VEHTYPE" speed="13.72" pos="129.14" lane="0_0" slope="0.00"/>
        <vehicle id="flow.0" x="101.07" y="0.00" angle="90.00" type="flow" speed="12.90" pos="101.07" lane="0_0" slope="0.00"/>
        <vehicle id="flow.1" x="72.94" y="0.00" angle="90.00" type="flow" speed="11.65" pos="72.94" lane="0_0" slope="0.00"/>
        <vehicle id="flow.2" x="50.40" y="0.00" angle="90.00" type="flow" speed="10.71" pos="50.40" lane="0_0" slope="0.00"/>
        <vehicle id="flow.3" x="30.83" y="0.00" angle="90.00" type="flow" speed="9.37" pos="30.83" lane="0_0" slope="0.00"/>
        <vehicle id="flow.4" x="8.71" y="0.00" angle="90.00" type="flow" speed="3.03" pos="8.71" lane="0_0" slope="0.00"/>
    </timestep>
    <timestep time="10.00">
        <vehicle id="first" x="142.83" y="0.00" angle="90.00" type="DEFAULT_VEHTYPE" speed="13.69" pos="142.83" lane="0_0" slope="0.00"/>
        <vehicle id="flow.0" x="114.07" y="0.00" angle="90.00" type="flow" speed="12.99" pos="114.07" lane="0_0" slope="0.00"/>
        <vehicle id="flow.1" x="84.76" y="0.00" angle="90.00" type="flow" speed="11.82" pos="84.76" lane="0_0" slope="0.00"/>
        <vehicle id="flow.2" x="61.52" y="0.00" angle="90.00" type="flow" speed="11.11" pos="61.52" lane="0_0" slope="0.00"/>
        <vehicle id="flow.3" x="40.93" y="0.00" angle="90.00" type="flow" speed="10.10" pos="40.93" lane="0_0" slope="0.00"/>
        <vehicle id="flow.4" x="14.21" y="0.00" angle="90.00" type="flow" speed="5.51" pos="14.21" lane="0_0" slope="0.00"/>
        <vehicle id="flow.5" x="5.10" y="0.00" angle="90.00" type="flow" speed="0.00" pos="5.10" lane="0_0" slope="0.00"/>
    </timestep>
    <timestep time="11.00">
        <vehicle id="first" x="156.48" y="0.00" angle="90.00" type="DEFAULT_VEHTYPE" speed="13.66" pos="156.48" lane="0_0" slope="0.00"/>
        <vehicle id="flow.0" x="127.13" y="0.00" angle="90.00" type="flow" speed="13.06" pos="127.13" lane="0_0" slope="0.00"/>
        <vehicle id="flow.1" x="96.70" y="0.00" angle="90.00" type="flow" speed="11.95" pos="96.70" lane="0_0" slope="0.00"/>
        <vehicle id="flow.2" x="72.89" y="0.00" angle="90.00" type="flow" speed="11.37" pos="72.89" lane="0_0" slope="0.00"/>
        <vehicle id="flow.3" x="51.58" y="0.00" angle="90.00" type="flow" speed="10.65" pos="51.58" lane="0_0" slope="0.00"/>
        <vehicle id="flow.4" x="22.04" y="0.00" angle="90.00" type="flow" speed="7.82" pos="22.04" lane="0_0" slope="0.00"/>
        <vehicle id="flow.5" x="6.58" y="0.00" angle="90.00" type="flow" speed="1.48" pos="6.58" lane="0_0" slope="0.00"/>
    </timestep>
    <timestep time="12.00">
        <vehicle id="first" x="170.10" y="0.00" angle="90.00" type="DEFAULT_VEHTYPE" speed="13.61" pos="170.10" lane="0_0" slope="0.00"/>
        <vehicle id="flow.0" x="140.25" y="0.00" angle="90.00" type="flow" speed="13.12" pos="140.25" lane="0_0" slope="0.00"/>
        <vehicle id="flow.1" x="108.75" y="0.00" angle="90.00" type="flow" speed="12.04" pos="108.75" lane="0_0" slope="0.00"/>
        <vehicle id="flow.2" x="84.44" y="0.00" angle="90.00" type="flow" speed="11.55" pos="84.44" lane="0_0" slope="0.00"/>
        <vehicle id="flow.3" x="62.62" y="0.00" angle="90.00" type="flow" speed="11.04" pos="62.62" lane="0_0" slope="0.00"/>
        <vehicle id="flow.4" x="31.79" y="0.00" angle="90.00" type="flow" speed="9.75" pos="31.79" lane="0_0" slope="0.00"/>
        <vehicle id="flow.5" x="10.43" y="0.00" angle="90.00" type="flow" speed="3.85" pos="10.43" lane="0_0" slope="0.00"/>
    </timestep>
    <timestep time="13.00">
        <vehicle id="first" x="183.65" y="0.00" angle="90.00" type="DEFAULT_VEHTYPE" speed="13.55" pos="183.65" lane="0_0" slope="0.00"/>
        <vehicle id="flow.0" x="153.41" y="0.00" angle="90.00" type="flow" speed="13.16" pos="153.41" lane="0_0" slope="0.00"/>
        <vehicle id="flow.1" x="120.87" y="0.00" angle="90.00" type="flow" speed="12.12" pos="120.87" lane="0_0" slope="0.00"/>
        <vehicle id="flow.2" x="96.13" y="0.00" angle="90.00" type="flow" speed="11.68" pos="96.13" lane="0_0" slope="0.00"/>
        <vehicle id="flow.3" x="73.91" y="0.00" angle="90.00" type="flow" speed="11.30" pos="73.91" lane="0_0" slope="0.00"/>
        <vehicle id="flow.4" x="42.90" y="0.00" angle="90.00" type="flow" speed="11.10" pos="42.90" lane="0_0" slope="0.00"/>
        <vehicle id="flow.5" x="16.65" y="0.00" angle="90.00" type="flow" speed="6.22" pos="16.65" lane="0_0" slope="0.00"/>
        <vehicle id="flow.6" x="5.10" y="0.00" angle="90.00" type="flow" speed="0.00" pos="5.10" lane="0_0" slope="0.00"/>
    </timestep>
    <timestep time="14.00">
        <vehicle id="first" x="197.12" y="0.00" angle="90.00" type="DEFAULT_VEHTYPE" speed="13.47" pos="197.12" lane="0_0" slope="0.00"/>
        <vehicle id="flow.0" x="166.59" y="0.00" angle="90.00" type="flow" speed="13.18" pos="166.59" lane="0_0" slope="0.00"/>
        <vehicle id="flow.1" x="133.06" y="0.00" angle="90.00" type="flow" speed="12.19" pos="133.06" lane="0_0" slope="0.00"/>
        <vehicle id="flow.2" x="107.92" y="0.00" angle="90.00" type="flow" speed="11.79" pos="107.92" lane="0_0" slope="0.00"/>
        <vehicle id="flow.3" x="85.39" y="0.00" angle="90.00" type="flow" speed="11.48" pos="85.39" lane="0_0" slope="0.00"/>
        <vehicle id="flow.4" x="54.76" y="0.00" angle="90.00" type="flow" speed="11.86" pos="54.76" lane="0_0" slope="0.00"/>
        <vehicle id="flow.5" x="24.91" y="0.00" angle="90.00" type="flow" speed="8.27" pos="24.91" lane="0_0" slope="0.00"/>
        <vehicle id="flow.6" x="7.25" y="0.00" angle="90.00" type="flow" speed="2.15" pos="7.25" lane="0_0" slope="0.00"/>
    </timestep>
    <timestep time="15.00">
        <vehicle id="first" x="210.49" y="0.00" angle="90.00" type="DEFAULT_VEHTYPE" speed="13.37" pos="210.49" lane="0_0" slope="0.00"/>
        <vehicle id="flow.0" x="179.79" y="0.00" angle="90.00" type="flow" speed="13.20" pos="179.79" lane="0_0" slope="0.00"/>
        <vehicle id="flow.1" x="145.31" y="0.00" angle="90.00" type="flow" speed="12.25" pos="145.31" lane="0_0" slope="0.00"/>
        <vehicle id="flow.2" x="119.79" y="0.00" angle="90.00" type="flow" speed="11.87" pos="119.79" lane="0_0" slope="0.00"/>
        <vehicle id="flow.3" x="97.00" y="0.00" angle="90.00" type="flow" speed="11.61" pos="97.00" lane="0_0" slope="0.00"/>
        <vehicle id="flow.4" x="66.97" y="0.00" angle="90.00" type="flow" speed="12.21" pos="66.97" lane="0_0" slope="0.00"/>
        <vehicle id="flow.5" x="34.62" y="0.00" angle="90.00" type="flow" speed="9.71" pos="34.62" lane="0_0" slope="0.00"/>
        <vehicle id="flow.6" x="11.80" y="0.00" angle="90.00" type="flow" speed="4.56" pos="11.80" lane="0_0" slope="0.00"/>
    </timestep>
    <timestep time="16.00">
        <vehicle id="first" x="223.70" y="0.00" angle="90.00" type="DEFAULT_VEHTYPE" speed="13.21" pos="223.70" lane="0_0" slope="0.00"/>
        <vehicle id="flow.0" x="192.98" y="0.00" angle="90.00" type="flow" speed="13.19" pos="192.98" lane="0_0" slope="0.00"/>
        <vehicle id="flow.1" x="157.60" y="0.00" angle="90.00" type="flow" speed="12.29" pos="157.60" lane="0_0" slope="0.00"/>
        <vehicle id="flow.2" x="131.74" y="0.00" angle="90.00" type="flow" speed="11.95" pos="131.74" lane="0_0" slope="0.00"/>
        <vehicle id="flow.3" x="108.71" y="0.00" angle="90.00" type="flow" speed="11.71" pos="108.71" lane="0_0" slope="0.00"/>
        <vehicle id="flow.4" x="79.29" y="0.00" angle="90.00" type="flow" speed="12.33" pos="79.29" lane="0_0" slope="0.00"/>
        <vehicle id="flow.5" x="45.12" y="0.00" angle="90.00" type="flow" speed="10.50" pos="45.12" lane="0_0" slope="0.00"/>
        <vehicle id="flow.6" x="18.72" y="0.00" angle="90.00" type="flow" speed="6.92" pos="18.72" lane="0_0" slope="0.00"/>
        <vehicle id="flow.7" x="5.10" y="0.00" angle="90.00" type="flow" speed="6.55" pos="5.10" lane="0_0" slope="0.00"/>
    </timestep>
    <timestep time="17.00">
        <vehicle id="first" x="236.68" y="0.00" angle="90.00" type="DEFAULT_VEHTYPE" speed="12.98" pos="236.68" lane="0_0" slope="0.00"/>
        <vehicle id="flow.0" x="206.14" y="0.00" angle="90.00" type="flow" speed="13.16" pos="206.14" lane="0_0" slope="0.00"/>
        <vehicle id="flow.1" x="169.93" y="0.00" angle="90.00" type="flow" speed="12.33" pos="169.93" lane="0_0" slope="0.00"/>
        <vehicle id="flow.2" x="143.75" y="0.00" angle="90.00" type="flow" speed="12.01" pos="143.75" lane="0_0" slope="0.00"/>
        <vehicle id="flow.3" x="120.50" y="0.00" angle="90.00" type="flow" speed="11.79" pos="120.50" lane="0_0" slope="0.00"/>
        <vehicle id="flow.4" x="91.64" y="0.00" angle="90.00" type="flow" speed="12.35" pos="91.64" lane="0_0" slope="0.00"/>
        <vehicle id="flow.5" x="55.98" y="0.00" angle="90.00" type="flow" speed="10.86" pos="55.98" lane="0_0" slope="0.00"/>
        <vehicle id="flow.6" x="27.73" y="0.00" angle="90.00" type="flow" speed="9.00" pos="27.73" lane="0_0" slope="0.00"/>
        <vehicle id="flow.7" x="11.49" y="0.00" angle="90.00" type="flow" speed="6.39" pos="11.49" lane="0_0" slope="0.00"/>
    </timestep>
    <timestep time="18.00">
        <vehicle id="first" x="249.29" y="0.00" angle="90.00" type="DEFAULT_VEHTYPE" speed="12.62" pos="249.29" lane="0_0" slope="0.00"/>
        <vehicle id="flow.0" x="219.24" y="0.00" angle="90.00" type="flow" speed="13.10" pos="219.24" lane="0_0" slope="0.00"/>
        <vehicle id="flow.1" x="182.29" y="0.00" angle="90.00" type="flow" speed="12.36" pos="182.29" lane="0_0" slope="0.00"/>
        <vehicle id="flow.2" x="155.81" y="0.00" angle="90.00" type="flow" speed="12.07" pos="155.81" lane="0_0" slope="0.00"/>
        <vehicle id="flow.3" x="132.37" y="0.00" angle="90.00" type="flow" speed="11.87" pos="132.37" lane="0_0" slope="0.00"/>
        <vehicle id="flow.4" x="103.98" y="0.00" angle="90.00" type="flow" speed="12.34" pos="103.98" lane="0_0" slope="0.00"/>
        <vehicle id="flow.5" x="67.01" y="0.00" angle="90.00" type="flow" speed="11.02" pos="67.01" lane="0_0" slope="0.00"/>
        <vehicle id="flow.6" x="38.29" y="0.00" angle="90.00" type="flow" speed="10.56" pos="38.29" lane="0_0" slope="0.00"/>
        <vehicle id="flow.7" x="19.11" y="0.00" angle="90.00" type="flow" speed="7.61" pos="19.11" lane="0_0" slope="0.00"/>
        <vehicle id="flow.8" x="5.10" y="0.00" angle="90.00" type="flow" speed="7.12" pos="5.10" lane="0_0" slope="0.00"/>
    </timestep>
    <timestep time="19.00">
        <vehicle id="first" x="261.33" y="0.00" angle="90.00" type="DEFAULT_VEHTYPE" speed="12.04" pos="261.33" lane="0_0" slope="0.00"/>
        <vehicle id="flow.0" x="232.21" y="0.00" angle="90.00" type="flow" speed="12.97" pos="232.21" lane="0_0" slope="0.00"/>
        <vehicle id="flow.1" x="194.67" y="0.00" angle="90.00" type="flow" speed="12.38" pos="194.67" lane="0_0" slope="0.00"/>
        <vehicle id="flow.2" x="167.93" y="0.00" angle="90.00" type="flow" speed="12.11" pos="167.93" lane="0_0" slope="0.00"/>
        <vehicle id="flow.3" x="144.30" y="0.00" angle="90.00" type="flow" speed="11.93" pos="144.30" lane="0_0" slope="0.00"/>
        <vehicle id="flow.4" x="116.30" y="0.00" angle="90.00" type="flow" speed="12.32" pos="116.30" lane="0_0" slope="0.00"/>
        <vehicle id="flow.5" x="78.11" y="0.00" angle="90.00" type="flow" speed="11.10" pos="78.11" lane="0_0" slope="0.00"/>
        <vehicle id="flow.6" x="49.77" y="0.00" angle="90.00" type="flow" speed="11.49" pos="49.77" lane="0_0" slope="0.00"/>
        <vehicle id="flow.7" x="28.01" y="0.00" angle="90.00" type="flow" speed="8.90" pos="28.01" lane="0_0" slope="0.00"/>
        <vehicle id="flow.8" x="12.04" y="0.00" angle="90.00" type="flow" speed="6.94" pos="12.04" lane="0_0" slope="0.00"/>
    </timestep>
    <timestep time="20.00">
        <vehicle id="first" x="272.38" y="0.00" angle="90.00" type="DEFAULT_VEHTYPE" speed="11.05" pos="272.38" lane="0_0" slope="0.00"/>
        <vehicle id="flow.0" x="244.95" y="0.00" angle="90.00" type="flow" speed="12.74" pos="244.95" lane="0_0" slope="0.00"/>
        <vehicle id="flow.1" x="207.06" y="0.00" angle="90.00" type="flow" speed="12.39" pos="207.06" lane="0_0" slope="0.00"/>
        <vehicle id="flow.2" x="180.08" y="0.00" angle="90.00" type="flow" speed="12.15" pos="180.08" lane="0_0" slope="0.00"/>
        <vehicle id="flow.3" x="156.28" y="0.00" angle="90.00" type="flow" speed="11.99" pos="156.28" lane="0_0" slope="0.00"/>
        <vehicle id="flow.4" x="128.60" y="0.00" angle="90.00" type="flow" speed="12.30" pos="128.60" lane="0_0" slope="0.00"/>
        <vehicle id="flow.5" x="89.25" y="0.00" angle="90.00" type="flow" speed="11.14" pos="89.25" lane="0_0" slope="0.00"/>
        <vehicle id="flow.6" x="61.66" y="0.00" angle="90.00" type="flow" speed="11.89" pos="61.66" lane="0_0" slope="0.00"/>
        <vehicle id="flow.7" x="37.91" y="0.00" angle="90.00" type="flow" speed="9.90" pos="37.91" lane="0_0" slope="0.00"/>
        <vehicle id="flow.8" x="19.87" y="0.00" angle="90.00" type="flow" speed="7.83" pos="19.87" lane="0_0" slope="0.00"/>
        <vehicle id="flow.9" x="5.10" y="0.00" angle="90.00" type="flow" speed="7.54" pos="5.10" lane="0_0" slope="0.00"/>
    </timestep>
    <timestep time="21.00">
        <vehicle id="first" x="281.81" y="0.00" angle="90.00" type="DEFAULT_VEHTYPE" speed="9.43" pos="281.81" lane="0_0" slope="0.00"/>
        <vehicle id="flow.0" x="257.21" y="0.00" angle="90.00" type="flow" speed="12.26" pos="257.21" lane="0_0" slope="0.00"/>
        <vehicle id="flow.1" x="219.45" y="0.00" angle="90.00" type="flow" speed="12.38" pos="219.45" lane="0_0" slope="0.00"/>
        <vehicle id="flow.2" x="192.27" y="0.00" angle="90.00" type="flow" speed="12.19" pos="192.27" lane="0_0" slope="0.00"/>
        <vehicle id="flow.3" x="168.32" y="0.00" angle="90.00" type="flow" speed="12.03" pos="168.32" lane="0_0" slope="0.00"/>
        <vehicle id="flow.4" x="140.88" y="0.00" angle="90.00" type="flow" speed="12.28" pos="140.88" lane="0_0" slope="0.00"/>
        <vehicle id="flow.5" x="100.41" y="0.00" angle="90.00" type="flow" speed="11.17" pos="100.41" lane="0_0" slope="0.00"/>
        <vehicle id="flow.6" x="73.64" y="0.00" angle="90.00" type="flow" speed="11.99" pos="73.64" lane="0_0" slope="0.00"/>
        <vehicle id="flow.7" x="48.43" y="0.00" angle="90.00" type="flow" speed="10.52" pos="48.43" lane="0_0" slope="0.00"/>
        <vehicle id="flow.8" x="28.69" y="0.00" angle="90.00" type="flow" speed="8.82" pos="28.69" lane="0_0" slope="0.00"/>
        <vehicle id="flow.9" x="12.40" y="0.00" angle="90.00" type="flow" speed="7.30" pos="12.40" lane="0_0" slope="0.00"/>
    </timestep>
    <timestep time="22.00">
        <vehicle id="first" x="288.91" y="0.00" angle="90.00" type="DEFAULT_VEHTYPE" speed="7.10" pos="288.91" lane="0_0" slope="0.00"/>
        <vehicle id="flow.0" x="268.46" y="0.00" angle="90.00" type="flow" speed="11.25" pos="268.46" lane="0_0" slope="0.00"/>
        <vehicle id="flow.1" x="231.78" y="0.00" angle="90.00" type="flow" speed="12.33" pos="231.78" lane="0_0" slope="0.00"/>
        <vehicle id="flow.2" x="204.48" y="0.00" angle="90.00" type="flow" speed="12.21" pos="204.48" lane="0_0" slope="0.00"/>
        <vehicle id="flow.3" x="180.39" y="0.00" angle="90.00" type="flow" speed="12.08" pos="180.39" lane="0_0" slope="0.00"/>
        <vehicle id="flow.4" x="153.15" y="0.00" angle="90.00" type="flow" speed="12.27" pos="153.15" lane="0_0" slope="0.00"/>
        <vehicle id="flow.5" x="111.60" y="0.00" angle="90.00" type="flow" speed="11.19" pos="111.60" lane="0_0" slope="0.00"/>
        <vehicle id="flow.6" x="85.60" y="0.00" angle="90.00" type="flow" speed="11.95" pos="85.60" lane="0_0" slope="0.00"/>
        <vehicle id="flow.7" x="59.29" y="0.00" angle="90.00" type="flow" speed="10.86" pos="59.29" lane="0_0" slope="0.00"/>
        <vehicle id="flow.8" x="38.30" y="0.00" angle="90.00" type="flow" speed="9.61" pos="38.30" lane="0_0" slope="0.00"/>
        <vehicle id="flow.9" x="20.32" y="0.00" angle="90.00" type="flow" speed="7.92" pos="20.32" lane="0_0" slope="0.00"/>
    </timestep>
    <timestep time="23.00">
        <vehicle id="first" x="293.54" y="0.00" angle="90.00" type="DEFAULT_VEHTYPE" speed="4.63" pos="293.54" lane="0_0" slope="0.00"/>
        <vehicle id="flow.0" x="277.66" y="0.00" angle="90.00" type="flow" speed="9.20" pos="277.66" lane="0_0" slope="0.00"/>
        <vehicle id="flow.1" x="243.94" y="0.00" angle="90.00" type="flow" speed="12.17" pos="243.94" lane="0_0" slope="0.00"/>
        <vehicle id="flow.2" x="216.70" y="0.00" angle="90.00" type="flow" speed="12.22" pos="216.70" lane="0_0" slope="0.00"/>
        <vehicle id="flow.3" x="192.51" y="0.00" angle="90.00" type="flow" speed="12.11" pos="192.51" lane="0_0" slope="0.00"/>
        <vehicle id="flow.4" x="165.41" y="0.00" angle="90.00" type="flow" speed="12.26" pos="165.41" lane="0_0" slope="0.00"/>
        <vehicle id="flow.5" x="122.81" y="0.00" angle="90.00" type="flow" speed="11.21" pos="122.81" lane="0_0" slope="0.00"/>
        <vehicle id="flow.6" x="97.48" y="0.00" angle="90.00" type="flow" speed="11.88" pos="97.48" lane="0_0" slope="0.00"/>
        <vehicle id="flow.7" x="70.32" y="0.00" angle="90.00" type="flow" speed="11.04" pos="70.32" lane="0_0" slope="0.00"/>
        <vehicle id="flow.8" x="48.45" y="0.00" angle="90.00" type="flow" speed="10.15" pos="48.45" lane="0_0" slope="0.00"/>
        <vehicle id="flow.9" x="28.95" y="0.00" angle="90.00" type="flow" speed="8.64" pos="28.95" lane="0_0" slope="0.00"/>
    </timestep>
    <timestep time="24.00">
        <vehicle id="first" x="296.28" y="0.00" angle="90.00" type="DEFAULT_VEHTYPE" speed="2.74" pos="296.28" lane="0_0" slope="0.00"/>
        <vehicle id="flow.0" x="283.94" y="0.00" angle="90.00" type="flow" speed="6.28" pos="283.94" lane="0_0" slope="0.00"/>
        <vehicle id="flow.1" x="255.61" y="0.00" angle="90.00" type="flow" speed="11.67" pos="255.61" lane="0_0" slope="0.00"/>
        <vehicle id="flow.2" x="228.89" y="0.00" angle="90.00" type="flow" speed="12.18" pos="228.89" lane="0_0" slope="0.00"/>
        <vehicle id="flow.3" x="204.65" y="0.00" angle="90.00" type="flow" speed="12.14" pos="204.65" lane="0_0" slope="0.00"/>
        <vehicle id="flow.4" x="177.66" y="0.00" angle="90.00" type="flow" speed="12.25" pos="177.66" lane="0_0" slope="0.00"/>
        <vehicle id="flow.5" x="134.04" y="0.00" angle="90.00" type="flow" speed="11.23" pos="134.04" lane="0_0" slope="0.00"/>
        <vehicle id="flow.6" x="109.27" y="0.00" angle="90.00" type="flow" speed="11.79" pos="109.27" lane="0_0" slope="0.00"/>
        <vehicle id="flow.7" x="81.45" y="0.00" angle="90.00" type="flow" speed="11.13" pos="81.45" lane="0_0" slope="0.00"/>
        <vehicle id="flow.8" x="58.93" y="0.00" angle="90.00" type="flow" speed="10.48" pos="58.93" lane="0_0" slope="0.00"/>
        <vehicle id="flow.9" x="38.18" y="0.00" angle="90.00" type="flow" speed="9.23" pos="38.18" lane="0_0" slope="0.00"/>
    </timestep>
    <timestep time="25.00">
        <vehicle id="first" x="297.84" y="0.00" angle="90.00" type="DEFAULT_VEHTYPE" speed="1.56" pos="297.84" lane="0_0" slope="0.00"/>
        <vehicle id="flow.0" x="287.66" y="0.00" angle="90.00" type="flow" speed="3.72" pos="287.66" lane="0_0" slope="0.00"/>
        <vehicle id="flow.1" x="265.92" y="0.00" angle="90.00" type="flow" speed="10.31" pos="265.92" lane="0_0" slope="0.00"/>
        <vehicle id="flow.2" x="240.90" y="0.00" angle="90.00" type="flow" speed="12.02" pos="240.90" lane="0_0" slope="0.00"/>
        <vehicle id="flow.3" x="216.79" y="0.00" angle="90.00" type="flow" speed="12.14" pos="216.79" lane="0_0" slope="0.00"/>
        <vehicle id="flow.4" x="189.91" y="0.00" angle="90.00" type="flow" speed="12.25" pos="189.91" lane="0_0" slope="0.00"/>
        <vehicle id="flow.5" x="145.28" y="0.00" angle="90.00" type="flow" speed="11.24" pos="145.28" lane="0_0" slope="0.00"/>
        <vehicle id="flow.6" x="120.98" y="0.00" angle="90.00" type="flow" speed="11.71" pos="120.98" lane="0_0" slope="0.00"/>
        <vehicle id="flow.7" x="92.63" y="0.00" angle="90.00" type="flow" speed="11.18" pos="92.63" lane="0_0" slope="0.00"/>
        <vehicle id="flow.8" x="69.62" y="0.00" angle="90.00" type="flow" speed="10.69" pos="69.62" lane="0_0" slope="0.00"/>
        <vehicle id="flow.9" x="47.84" y="0.00" angle="90.00" type="flow" speed="9.66" pos="47.84" lane="0_0" slope="0.00"/>
    </timestep>
    <timestep time="26.00">
        <vehicle id="first" x="298.73" y="0.00" angle="90.00" type="DEFAULT_VEHTYPE" speed="0.89" pos="298.73" lane="0_0" slope="0.00"/>
        <vehicle id="flow.0" x="289.74" y="0.00" angle="90.00" type="flow" speed="2.08" pos="289.74" lane="0_0" slope="0.00"/>
        <vehicle id="flow.1" x="273.71" y="0.00" angle="90.00" type="flow" speed="7.79" pos="273.71" lane="0_0" slope="0.00"/>
        <vehicle id="flow.2" x="252.32" y="0.00" angle="90.00" type="flow" speed="11.42" pos="252.32" lane="0_0" slope="0.00"/>
        <vehicle id="flow.3" x="228.87" y="0.00" angle="90.00" type="flow" speed="12.08" pos="228.87" lane="0_0" slope="0.00"/>
        <vehicle id="flow.4" x="202.15" y="0.00" angle="90.00" type="flow" speed="12.24" pos="202.15" lane="0_0" slope="0.00"/>
        <vehicle id="flow.5" x="156.53" y="0.00" angle="90.00" type="flow" speed="11.25" pos="156.53" lane="0_0" slope="0.00"/>
        <vehicle id="flow.6" x="132.61" y="0.00" angle="90.00" type="flow" speed="11.64" pos="132.61" lane="0_0" slope="0.00"/>
        <vehicle id="flow.7" x="103.85" y="0.00" angle="90.00" type="flow" speed="11.21" pos="103.85" lane="0_0" slope="0.00"/>
        <vehicle id="flow.8" x="80.43" y="0.00" angle="90.00" type="flow" speed="10.82" pos="80.43" lane="0_0" slope="0.00"/>
        <vehicle id="flow.9" x="57.79" y="0.00" angle="90.00" type="flow" speed="9.95" pos="57.79" lane="0_0" slope="0.00"/>
    </timestep>
    <timestep time="27.00">
        <vehicle id="first" x="298.73" y="0.00" angle="90.00" type="DEFAULT_VEHTYPE" speed="0.00" pos="298.73" lane="0_0" slope="0.00"/>
        <vehicle id="flow.0" x="290.91" y="0.00" angle="90.00" type="flow" speed="1.16" pos="290.91" lane="0_0" slope="0.00"/>
        <vehicle id="flow.1" x="278.66" y="0.00" angle="90.00" type="flow" speed="4.94" pos="278.66" lane="0_0" slope="0.00"/>
        <vehicle id="flow.2" x="262.03" y="0.00" angle="90.00" type="flow" speed="9.72" pos="262.03" lane="0_0" slope="0.00"/>
        <vehicle id="flow.3" x="240.67" y="0.00" angle="90.00" type="flow" speed="11.79" pos="240.67" lane="0_0" slope="0.00"/>
        <vehicle id="flow.4" x="214.36" y="0.00" angle="90.00" type="flow" speed="12.21" pos="214.36" lane="0_0" slope="0.00"/>
        <vehicle id="flow.5" x="167.80" y="0.00" angle="90.00" type="flow" speed="11.27" pos="167.80" lane="0_0" slope="0.00"/>
        <vehicle id="flow.6" x="144.19" y="0.00" angle="90.00" type="flow" speed="11.58" pos="144.19" lane="0_0" slope="0.00"/>
        <vehicle id="flow.7" x="115.08" y="0.00" angle="90.00" type="flow" speed="11.23" pos="115.08" lane="0_0" slope="0.00"/>
        <vehicle id="flow.8" x="91.34" y="0.00" angle="90.00" type="flow" speed="10.91" pos="91.34" lane="0_0" slope="0.00"/>
        <vehicle id="flow.9" x="67.93" y="0.00" angle="90.00" type="flow" speed="10.15" pos="67.93" lane="0_0" slope="0.00"/>
    </timestep>
    <timestep time="28.00">
        <vehicle id="first" x="300.00" y="0.00" angle="90.00" type="DEFAULT_VEHTYPE" speed="1.27" pos="300.00" lane="0_0" slope="0.00"/>
        <vehicle id="flow.0" x="291.02" y="0.00" angle="90.00" type="flow" speed="0.11" pos="291.02" lane="0_0" slope="0.00"/>
        <vehicle id="flow.1" x="281.51" y="0.00" angle="90.00" type="flow" speed="2.85" pos="281.51" lane="0_0" slope="0.00"/>
        <vehicle id="flow.2" x="268.76" y="0.00" angle="90.00" type="flow" speed="6.73" pos="268.76" lane="0_0" slope="0.00"/>