<?xml version="1.0" encoding="UTF-8"?>

<!-- generated on 2022-05-18 13:35:37 by Eclipse SUMO sumo Version v1_13_0+0324-c5e9788
This data file and the accompanying materials
are made available under the terms of the Eclipse Public License v2.0
which accompanies this distribution, and is available at
http://www.eclipse.org/legal/epl-v20.html
This file may also be made available under the following Secondary
Licenses when the conditions for such availability set forth in the Eclipse
Public License 2.0 are satisfied: GNU General Public License, version 2
or later which is available at
https://www.gnu.org/licenses/old-licenses/gpl-2.0-standalone.html
SPDX-License-Identifier: EPL-2.0 OR GPL-2.0-or-later
<configuration xmlns:xsi="http://www.w3.org/2001/XMLSchema-instance" xsi:noNamespaceSchemaLocation="http://sumo.dlr.de/xsd/sumoConfiguration.xsd">

    <input>
        <net-file value="net.net.xml"/>
        <route-files value="input_routes.rou.xml"/>
    </input>

    <output>
        <write-license value="true"/>
        <fcd-output value="fcd.xml"/>
    </output>

    <processing>
        <default.carfollowmodel value="IDM"/>
        <default.speeddev value="0"/>
    </processing>

    <report>
        <xml-validation value="never"/>
        <no-step-log value="true"/>
    </report>

</configuration>
-->

<fcd-export xmlns:xsi="http://www.w3.org/2001/XMLSchema-instance" xsi:noNamespaceSchemaLocation="http://sumo.dlr.de/xsd/fcd_file.xsd">
    <timestep time="0.00">
        <vehicle id="first" x="5.10" y="0.00" angle="90.00" type="DEFAULT_VEHTYPE" speed="13.85" pos="5.10" lane="0_0" slope="0.00"/>
    </timestep>
    <timestep time="1.00">
        <vehicle id="first" x="18.93" y="0.00" angle="90.00" type="DEFAULT_VEHTYPE" speed="13.83" pos="18.93" lane="0_0" slope="0.00"/>
        <vehicle id="flow.0" x="5.10" y="0.00" angle="90.00" type="flow" speed="10.70" pos="5.10" lane="0_0" slope="0.00"/>
    </timestep>
    <timestep time="2.00">
        <vehicle id="first" x="32.75" y="0.00" angle="90.00" type="DEFAULT_VEHTYPE" speed="13.82" pos="32.75" lane="0_0" slope="0.00"/>
        <vehicle id="flow.0" x="15.55" y="0.00" angle="90.00" type="flow" speed="10.45" pos="15.55" lane="0_0" slope="0.00"/>
        <vehicle id="flow.1" x="5.10" y="0.00" angle="90.00" type="flow" speed="5.21" pos="5.10" lane="0_0" slope="0.00"/>
    </timestep>
    <timestep time="3.00">
        <vehicle id="first" x="46.56" y="0.00" angle="90.00" type="DEFAULT_VEHTYPE" speed="13.81" pos="46.56" lane="0_0" slope="0.00"/>
        <vehicle id="flow.0" x="26.63" y="0.00" angle="90.00" type="flow" speed="11.08" pos="26.63" lane="0_0" slope="0.00"/>
        <vehicle id="flow.1" x="11.27" y="0.00" angle="90.00" type="flow" speed="6.17" pos="11.27" lane="0_0" slope="0.00"/>
    </timestep>
    <timestep time="4.00">
        <vehicle id="first" x="60.36" y="0.00" angle="90.00" type="DEFAULT_VEHTYPE" speed="13.80" pos="60.36" lane="0_0" slope="0.00"/>
        <vehicle id="flow.0" x="38.28" y="0.00" angle="90.00" type="flow" speed="11.65" pos="38.28" lane="0_0" slope="0.00"/>
        <vehicle id="flow.1" x="19.16" y="0.00" angle="90.00" type="flow" speed="7.89" pos="19.16" lane="0_0" slope="0.00"/>
        <vehicle id="flow.2" x="5.10" y="0.00" angle="90.00" type="flow" speed="7.17" pos="5.10" lane="0_0" slope="0.00"/>
    </timestep>
    <timestep time="5.00">
        <vehicle id="first" x="74.14" y="0.00" angle="90.00" type="DEFAULT_VEHTYPE" speed="13.79" pos="74.14" lane="0_0" slope="0.00"/>
        <vehicle id="flow.0" x="50.37" y="0.00" angle="90.00" type="flow" speed="12.09" pos="50.37" lane="0_0" slope="0.00"/>
        <vehicle id="flow.1" x="28.51" y="0.00" angle="90.00" type="flow" speed="9.35" pos="28.51" lane="0_0" slope="0.00"/>
        <vehicle id="flow.2" x="12.21" y="0.00" angle="90.00" type="flow" speed="7.11" pos="12.21" lane="0_0" slope="0.00"/>
    </timestep>
    <timestep time="6.00">
        <vehicle id="first" x="87.92" y="0.00" angle="90.00" type="DEFAULT_VEHTYPE" speed="13.77" pos="87.92" lane="0_0" slope="0.00"/>
        <vehicle id="flow.0" x="62.77" y="0.00" angle="90.00" type="flow" speed="12.40" pos="62.77" lane="0_0" slope="0.00"/>
        <vehicle id="flow.1" x="38.87" y="0.00" angle="90.00" type="flow" speed="10.37" pos="38.87" lane="0_0" slope="0.00"/>
        <vehicle id="flow.2" x="20.35" y="0.00" angle="90.00" type="flow" speed="8.14" pos="20.35" lane="0_0" slope="0.00"/>
        <vehicle id="flow.3" x="5.10" y="0.00" angle="90.00" type="flow" speed="7.98" pos="5.10" lane="0_0" slope="0.00"/>
    </timestep>
    <timestep time="7.00">
        <vehicle id="first" x="101.68" y="0.00" angle="90.00" type="DEFAULT_VEHTYPE" speed="13.76" pos="101.68" lane="0_0" slope="0.00"/>
        <vehicle id="flow.0" x="75.39" y="0.00" angle="90.00" type="flow" speed="12.62" pos="75.39" lane="0_0" slope="0.00"/>
        <vehicle id="flow.1" x="49.88" y="0.00" angle="90.00" type="flow" speed="11.01" pos="49.88" lane="0_0" slope="0.00"/>
        <vehicle id="flow.2" x="29.59" y="0.00" angle="90.00" type="flow" speed="9.23" pos="29.59" lane="0_0" slope="0.00"/>
        <vehicle id="flow.3" x="12.94" y="0.00" angle="90.00" type="flow" speed="7.84" pos="12.94" lane="0_0" slope="0.00"/>
        <vehicle id="flow.4" x="5.10" y="0.00" angle="90.00" type="flow" speed="0.43" pos="5.10" lane="0_0" slope="0.00"/>
    </timestep>
    <timestep time="8.00">
        <vehicle id="first" x="115.42" y="0.00" angle="90.00" type="DEFAULT_VEHTYPE" speed="13.74" pos="115.42" lane="0_0" slope="0.00"/>
        <vehicle id="flow.0" x="88.17" y="0.00" angle="90.00" type="flow" speed="12.78" pos="88.17" lane="0_0" slope="0.00"/>
        <vehicle id="flow.1" x="61.28" y="0.00" angle="90.00" type="flow" speed="11.40" pos="61.28" lane="0_0" slope="0.00"/>
        <vehicle id="flow.2" x="39.69" y="0.00" angle="90.00" type="flow" speed="10.11" pos="39.69" lane="0_0" slope="0.00"/>
        <vehicle id="flow.3" x="21.46" y="0.00" angle="90.00" type="flow" speed="8.53" pos="21.46" lane="0_0" slope="0.00"/>
        <vehicle id="flow.4" x="6.11" y="0.00" angle="90.00" type="flow" speed="1.01" pos="6.11" lane="0_0" slope="0.00"/>
    </timestep>
    <timestep time="9.00">
        <vehicle id="first" x="129.14" y="0.00" angle="90.00" type="DEFAULT_VEHTYPE" speed="13.72" pos="129.14" lane="0_0" slope="0.00"/>
        <vehicle id="flow.0" x="101.07" y="0.00" angle="90.00" type="flow" speed="12.90" pos="101.07" lane="0_0" slope="0.00"/>
        <vehicle id="flow.1" x="72.94" y="0.00" angle="90.00" type="flow" speed="11.65" pos="72.94" lane="0_0" slope="0.00"/>
        <vehicle id="flow.2" x="50.40" y="0.00" angle="90.00" type="flow" speed="10.71" pos="50.40" lane="0_0" slope="0.00"/>
        <vehicle id="flow.3" x="30.83" y="0.00" angle="90.00" type="flow" speed="9.37" pos="30.83" lane="0_0" slope="0.00"/>
        <vehicle id="flow.4" x="9.55" y="0.00" angle="90.00" type="flow" speed="3.44" pos="9.55" lane="0_0" slope="0.00"/>
    </timestep>
    <timestep time="10.00">
        <vehicle id="first" x="142.83" y="0.00" angle="90.00" type="DEFAULT_VEHTYPE" speed="13.69" pos="142.83" lane="0_0" slope="0.00"/>
        <vehicle id="flow.0" x="114.07" y="0.00" angle="90.00" type="flow" speed="12.99" pos="114.07" lane="0_0" slope="0.00"/>
        <vehicle id="flow.1" x="84.76" y="0.00" angle="90.00" type="flow" speed="11.82" pos="84.76" lane="0_0" slope="0.00"/>
        <vehicle id="flow.2" x="61.52" y="0.00" angle="90.00" type="flow" speed="11.11" pos="61.52" lane="0_0" slope="0.00"/>
        <vehicle id="flow.3" x="40.93" y="0.00" angle="90.00" type="flow" speed="10.10" pos="40.93" lane="0_0" slope="0.00"/>
        <vehicle id="flow.4" x="15.42" y="0.00" angle="90.00" type="flow" speed="5.87" pos="15.42" lane="0_0" slope="0.00"/>
        <vehicle id="flow.5" x="5.10" y="0.00" angle="90.00" type="flow" speed="1.47" pos="5.10" lane="0_0" slope="0.00"/>
    </timestep>
    <timestep time="11.00">
        <vehicle id="first" x="156.48" y="0.00" angle="90.00" type="DEFAULT_VEHTYPE" speed="13.66" pos="156.48" lane="0_0" slope="0.00"/>
        <vehicle id="flow.0" x="127.13" y="0.00" angle="90.00" type="flow" speed="13.06" pos="127.13" lane="0_0" slope="0.00"/>
        <vehicle id="flow.1" x="96.70" y="0.00" angle="90.00" type="flow" speed="11.95" pos="96.70" lane="0_0" slope="0.00"/>
        <vehicle id="flow.2" x="72.89" y="0.00" angle="90.00" type="flow" speed="11.37" pos="72.89" lane="0_0" slope="0.00"/>
        <vehicle id="flow.3" x="51.58" y="0.00" angle="90.00" type="flow" speed="10.65" pos="51.58" lane="0_0" slope="0.00"/>
        <vehicle id="flow.4" x="23.53" y="0.00" angle="90.00" type="flow" speed="8.11" pos="23.53" lane="0_0" slope="0.00"/>
        <vehicle id="flow.5" x="8.06" y="0.00" angle="90.00" type="flow" speed="2.96" pos="8.06" lane="0_0" slope="0.00"/>
    </timestep>
    <timestep time="12.00">
        <vehicle id="first" x="170.10" y="0.00" angle="90.00" type="DEFAULT_VEHTYPE" speed="13.61" pos="170.10" lane="0_0" slope="0.00"/>
        <vehicle id="flow.0" x="140.25" y="0.00" angle="90.00" type="flow" speed="13.12" pos="140.25" lane="0_0" slope="0.00"/>
        <vehicle id="flow.1" x="108.75" y="0.00" angle="90.00" type="flow" speed="12.04" pos="108.75" lane="0_0" slope="0.00"/>
        <vehicle id="flow.2" x="84.44" y="0.00" angle="90.00" type="flow" speed="11.55" pos="84.44" lane="0_0" slope="0.00"/>
        <vehicle id="flow.3" x="62.62" y="0.00" angle="90.00" type="flow" speed="11.04" pos="62.62" lane="0_0" slope="0.00"/>
        <vehicle id="flow.4" x="33.45" y="0.00" angle="90.00" type="flow" speed="9.92" pos="33.45" lane="0_0" slope="0.00"/>
        <vehicle id="flow.5" x="13.20" y="0.00" angle="90.00" type="flow" speed="5.14" pos="13.20" lane="0_0" slope="0.00"/>
        <vehicle id="flow.6" x="5.10" y="0.00" angle="90.00" type="flow" speed="0.61" pos="5.10" lane="0_0" slope="0.00"/>
    </timestep>
    <timestep time="13.00">
        <vehicle id="first" x="183.65" y="0.00" angle="90.00" type="DEFAULT_VEHTYPE" speed="13.55" pos="183.65" lane="0_0" slope="0.00"/>
        <vehicle id="flow.0" x="153.41" y="0.00" angle="90.00" type="flow" speed="13.16" pos="153.41" lane="0_0" slope="0.00"/>
        <vehicle id="flow.1" x="120.87" y="0.00" angle="90.00" type="flow" speed="12.12" pos="120.87" lane="0_0" slope="0.00"/>
        <vehicle id="flow.2" x="96.13" y="0.00" angle="90.00" type="flow" speed="11.68" pos="96.13" lane="0_0" slope="0.00"/>
        <vehicle id="flow.3" x="73.91" y="0.00" angle="90.00" type="flow" speed="11.30" pos="73.91" lane="0_0" slope="0.00"/>
        <vehicle id="flow.4" x="44.58" y="0.00" angle="90.00" type="flow" speed="11.13" pos="44.58" lane="0_0" slope="0.00"/>
        <vehicle id="flow.5" x="20.44" y="0.00" angle="90.00" type="flow" speed="7.24" pos="20.44" lane="0_0" slope="0.00"/>
        <vehicle id="flow.6" x="6.18" y="0.00" angle="90.00" type="flow" speed="1.08" pos="6.18" lane="0_0" slope="0.00"/>
    </timestep>
    <timestep time="14.00">
        <vehicle id="first" x="197.12" y="0.00" angle="90.00" type="DEFAULT_VEHTYPE" speed="13.47" pos="197.12" lane="0_0" slope="0.00"/>
        <vehicle id="flow.0" x="166.59" y="0.00" angle="90.00" type="flow" speed="13.18" pos="166.59" lane="0_0" slope="0.00"/>
        <vehicle id="flow.1" x="133.06" y="0.00" angle="90.00" type="flow" speed="12.19" pos="133.06" lane="0_0" slope="0.00"/>
        <vehicle id="flow.2" x="107.92" y="0.00" angle="90.00" type="flow" speed="11.79" pos="107.92" lane="0_0" slope="0.00"/>
        <vehicle id="flow.3" x="85.39" y="0.00" angle="90.00" type="flow" speed="11.48" pos="85.39" lane="0_0" slope="0.00"/>
        <vehicle id="flow.4" x="56.37" y="0.00" angle="90.00" type="flow" speed="11.79" pos="56.37" lane="0_0" slope="0.00"/>
        <vehicle id="flow.5" x="29.36" y="0.00" angle="90.00" type="flow" speed="8.92" pos="29.36" lane="0_0" slope="0.00"/>
        <vehicle id="flow.6" x="9.58" y="0.00" angle="90.00" type="flow" speed="3.40" pos="9.58" lane="0_0" slope="0.00"/>
    </timestep>
    <timestep time="15.00">
        <vehicle id="first" x="210.49" y="0.00" angle="90.00" type="DEFAULT_VEHTYPE" speed="13.37" pos="210.49" lane="0_0" slope="0.00"/>
        <vehicle id="flow.0" x="179.79" y="0.00" angle="90.00" type="flow" speed="13.20" pos="179.79" lane="0_0" slope="0.00"/>
        <vehicle id="flow.1" x="145.31" y="0.00" angle="90.00" type="flow" speed="12.25" pos="145.31" lane="0_0" slope="0.00"/>
        <vehicle id="flow.2" x="119.79" y="0.00" angle="90.00" type="flow" speed="11.87" pos="119.79" lane="0_0" slope="0.00"/>
        <vehicle id="flow.3" x="97.00" y="0.00" angle="90.00" type="flow" speed="11.61" pos="97.00" lane="0_0" slope="0.00"/>
        <vehicle id="flow.4" x="68.45" y="0.00" angle="90.00" type="flow" speed="12.08" pos="68.45" lane="0_0" slope="0.00"/>
        <vehicle id="flow.5" x="39.34" y="0.00" angle="90.00" type="flow" speed="9.98" pos="39.34" lane="0_0" slope="0.00"/>
        <vehicle id="flow.6" x="15.36" y="0.00" angle="90.00" type="flow" speed="5.78" pos="15.36" lane="0_0" slope="0.00"/>
        <vehicle id="flow.7" x="5.10" y="0.00" angle="90.00" type="flow" speed="1.46" pos="5.10" lane="0_0" slope="0.00"/>
    </timestep>
    <timestep time="16.00">
        <vehicle id="first" x="223.70" y="0.00" angle="90.00" type="DEFAULT_VEHTYPE" speed="13.21" pos="223.70" lane="0_0" slope="0.00"/>
        <vehicle id="flow.0" x="192.98" y="0.00" angle="90.00" type="flow" speed="13.19" pos="192.98" lane="0_0" slope="0.00"/>
        <vehicle id="flow.1" x="157.60" y="0.00" angle="90.00" type="flow" speed="12.29" pos="157.60" lane="0_0" slope="0.00"/>
        <vehicle id="flow.2" x="131.74" y="0.00" angle="90.00" type="flow" speed="11.95" pos="131.74" lane="0_0" slope="0.00"/>
        <vehicle id="flow.3" x="108.71" y="0.00" angle="90.00" type="flow" speed="11.71" pos="108.71" lane="0_0" slope="0.00"/>
        <vehicle id="flow.4" x="80.63" y="0.00" angle="90.00" type="flow" speed="12.18" pos="80.63" lane="0_0" slope="0.00"/>
        <vehicle id="flow.5" x="49.87" y="0.00" angle="90.00" type="flow" speed="10.53" pos="49.87" lane="0_0" slope="0.00"/>
        <vehicle id="flow.6" x="23.36" y="0.00" angle="90.00" type="flow" speed="8.00" pos="23.36" lane="0_0" slope="0.00"/>
        <vehicle id="flow.7" x="8.01" y="0.00" angle="90.00" type="flow" speed="2.91" pos="8.01" lane="0_0" slope="0.00"/>
    </timestep>
    <timestep time="17.00">
        <vehicle id="first" x="236.68" y="0.00" angle="90.00" type="DEFAULT_VEHTYPE" speed="12.98" pos="236.68" lane="0_0" slope="0.00"/>
        <vehicle id="flow.0" x="206.14" y="0.00" angle="90.00" type="flow" speed="13.16" pos="206.14" lane="0_0" slope="0.00"/>
        <vehicle id="flow.1" x="169.93" y="0.00" angle="90.00" type="flow" speed="12.33" pos="169.93" lane="0_0" slope="0.00"/>
        <vehicle id="flow.2" x="143.75" y="0.00" angle="90.00" type="flow" speed="12.01" pos="143.75" lane="0_0" slope="0.00"/>
        <vehicle id="flow.3" x="120.50" y="0.00" angle="90.00" type="flow" speed="11.79" pos="120.50" lane="0_0" slope="0.00"/>
        <vehicle id="flow.4" x="92.84" y="0.00" angle="90.00" type="flow" speed="12.21" pos="92.84" lane="0_0" slope="0.00"/>
        <vehicle id="flow.5" x="60.67" y="0.00" angle="90.00" type="flow" speed="10.79" pos="60.67" lane="0_0" slope="0.00"/>
        <vehicle id="flow.6" x="33.15" y="0.00" angle="90.00" type="flow" speed="9.80" pos="33.15" lane="0_0" slope="0.00"/>
        <vehicle id="flow.7" x="13.10" y="0.00" angle="90.00" type="flow" speed="5.09" pos="13.10" lane="0_0" slope="0.00"/>
        <vehicle id="flow.8" x="5.10" y="0.00" angle="90.00" type="flow" speed="0.54" pos="5.10" lane="0_0" slope="0.00"/>
    </timestep>
    <timestep time="18.00">
        <vehicle id="first" x="249.29" y="0.00" angle="90.00" type="DEFAULT_VEHTYPE" speed="12.62" pos="249.29" lane="0_0" slope="0.00"/>
        <vehicle id="flow.0" x="219.24" y="0.00" angle="90.00" type="flow" speed="13.10" pos="219.24" lane="0_0" slope="0.00"/>
        <vehicle id="flow.1" x="182.29" y="0.00" angle="90.00" type="flow" speed="12.36" pos="182.29" lane="0_0" slope="0.00"/>
        <vehicle id="flow.2" x="155.81" y="0.00" angle="90.00" type="flow" speed="12.07" pos="155.81" lane="0_0" slope="0.00"/>
        <vehicle id="flow.3" x="132.37" y="0.00" angle="90.00" type="flow" speed="11.87" pos="132.37" lane="0_0" slope="0.00"/>
        <vehicle id="flow.4" x="105.04" y="0.00" angle="90.00" type="flow" speed="12.20" pos="105.04" lane="0_0" slope="0.00"/>
        <vehicle id="flow.5" x="71.59" y="0.00" angle="90.00" type="flow" speed="10.92" pos="71.59" lane="0_0" slope="0.00"/>
        <vehicle id="flow.6" x="44.14" y="0.00" angle="90.00" type="flow" speed="10.98" pos="44.14" lane="0_0" slope="0.00"/>
        <vehicle id="flow.7" x="20.33" y="0.00" angle="90.00" type="flow" speed="7.23" pos="20.33" lane="0_0" slope="0.00"/>
        <vehicle id="flow.8" x="6.04" y="0.00" angle="90.00" type="flow" speed="0.94" pos="6.04" lane="0_0" slope="0.00"/>
    </timestep>
    <timestep time="19.00">
        <vehicle id="first" x="261.33" y="0.00" angle="90.00" type="DEFAULT_VEHTYPE" speed="12.04" pos="261.33" lane="0_0" slope="0.00"/>
        <vehicle id="flow.0" x="232.21" y="0.00" angle="90.00" type="flow" speed="12.97" pos="232.21" lane="0_0" slope="0.00"/>
        <vehicle id="flow.1" x="194.67" y="0.00" angle="90.00" type="flow" speed="12.38" pos="194.67" lane="0_0" slope="0.00"/>
        <vehicle id="flow.2" x="167.93" y="0.00" angle="90.00" type="flow" speed="12.11" pos="167.93" lane="0_0" slope="0.00"/>
        <vehicle id="flow.3" x="144.30" y="0.00" angle="90.00" type="flow" speed="11.93" pos="144.30" lane="0_0" slope="0.00"/>
        <vehicle id="flow.4" x="117.24" y="0.00" angle="90.00" type="flow" speed="12.19" pos="117.24" lane="0_0" slope="0.00"/>
        <vehicle id="flow.5" x="82.58" y="0.00" angle="90.00" type="flow" speed="10.99" pos="82.58" lane="0_0" slope="0.00"/>
        <vehicle id="flow.6" x="55.71" y="0.00" angle="90.00" type="flow" speed="11.58" pos="55.71" lane="0_0" slope="0.00"/>
        <vehicle id="flow.7" x="29.33" y="0.00" angle="90.00" type="flow" speed="9.00" pos="29.33" lane="0_0" slope="0.00"/>
        <vehicle id="flow.8" x="9.32" y="0.00" angle="90.00" type="flow" speed="3.27" pos="9.32" lane="0_0" slope="0.00"/>
    </timestep>
    <timestep time="20.00">
        <vehicle id="first" x="272.38" y="0.00" angle="90.00" type="DEFAULT_VEHTYPE" speed="11.05" pos="272.38" lane="0_0" slope="0.00"/>
        <vehicle id="flow.0" x="244.95" y="0.00" angle="90.00" type="flow" speed="12.74" pos="244.95" lane="0_0" slope="0.00"/>
        <vehicle id="flow.1" x="207.07" y="0.00" angle="90.00" type="flow" speed="12.39" pos="207.07" lane="0_0" slope="0.00"/>
        <vehicle id="flow.2" x="180.08" y="0.00" angle="90.00" type="flow" speed="12.15" pos="180.08" lane="0_0" slope="0.00"/>
        <vehicle id="flow.3" x="156.28" y="0.00" angle="90.00" type="flow" speed="11.99" pos="156.28" lane="0_0" slope="0.00"/>
        <vehicle id="flow.4" x="129.42" y="0.00" angle="90.00" type="flow" speed="12.19" pos="129.42" lane="0_0" slope="0.00"/>
        <vehicle id="flow.5" x="93.62" y="0.00" angle="90.00" type="flow" speed="11.04" pos="93.62" lane="0_0" slope="0.00"/>
        <vehicle id="flow.6" x="67.49" y="0.00" angle="90.00" type="flow" speed="11.78" pos="67.49" lane="0_0" slope="0.00"/>
        <vehicle id="flow.7" x="39.52" y="0.00" angle="90.00" type="flow" speed="10.19" pos="39.52" lane="0_0" slope="0.00"/>
        <vehicle id="flow.8" x="14.98" y="0.00" angle="90.00" type="flow" speed="5.67" pos="14.98" lane="0_0" slope="0.00"/>
        <vehicle id="flow.9" x="5.10" y="0.00" angle="90.00" type="flow" speed="1.38" pos="5.10" lane="0_0" slope="0.00"/>
    </timestep>
    <timestep time="21.00">
        <vehicle id="first" x="281.81" y="0.00" angle="90.00" type="DEFAULT_VEHTYPE" speed="9.43" pos="281.81" lane="0_0" slope="0.00"/>
        <vehicle id="flow.0" x="257.21" y="0.00" angle="90.00" type="flow" speed="12.26" pos="257.21" lane="0_0" slope="0.00"/>
        <vehicle id="flow.1" x="219.45" y="0.00" angle="90.00" type="flow" speed="12.38" pos="219.45" lane="0_0" slope="0.00"/>
        <vehicle id="flow.2" x="192.27" y="0.00" angle="90.00" type="flow" speed="12.19" pos="192.27" lane="0_0" slope="0.00"/>
        <vehicle id="flow.3" x="168.32" y="0.00" angle="90.00" type="flow" speed="12.03" pos="168.32" lane="0_0" slope="0.00"/>
        <vehicle id="flow.4" x="141.60" y="0.00" angle="90.00" type="flow" speed="12.18" pos="141.60" lane="0_0" slope="0.00"/>
        <vehicle id="flow.5" x="104.69" y="0.00" angle="90.00" type="flow" speed="11.07" pos="104.69" lane="0_0" slope="0.00"/>
        <vehicle id="flow.6" x="79.29" y="0.00" angle="90.00" type="flow" speed="11.79" pos="79.29" lane="0_0" slope="0.00"/>
        <vehicle id="flow.7" x="50.35" y="0.00" angle="90.00" type="flow" speed="10.83" pos="50.35" lane="0_0" slope="0.00"/>
        <vehicle id="flow.8" x="22.86" y="0.00" angle="90.00" type="flow" speed="7.88" pos="22.86" lane="0_0" slope="0.00"/>
        <vehicle id="flow.9" x="7.81" y="0.00" angle="90.00" type="flow" speed="2.71" pos="7.81" lane="0_0" slope="0.00"/>
    </timestep>
    <timestep time="22.00">
        <vehicle id="first" x="288.91" y="0.00" angle="90.00" type="DEFAULT_VEHTYPE" speed="7.10" pos="288.91" lane="0_0" slope="0.00"/>
        <vehicle id="flow.0" x="268.46" y="0.00" angle="90.00" type="flow" speed="11.25" pos="268.46" lane="0_0" slope="0.00"/>
        <vehicle id="flow.1" x="231.78" y="0.00" angle="90.00" type="flow" speed="12.33" pos="231.78" lane="0_0" slope="0.00"/>
        <vehicle id="flow.2" x="204.48" y="0.00" angle="90.00" type="flow" speed="12.21" pos="204.48" lane="0_0" slope="0.00"/>
        <vehicle id="flow.3" x="180.40" y="0.00" angle="90.00" type="flow" speed="12.08" pos="180.40" lane="0_0" slope="0.00"/>
        <vehicle id="flow.4" x="153.78" y="0.00" angle="90.00" type="flow" speed="12.18" pos="153.78" lane="0_0" slope="0.00"/>
        <vehicle id="flow.5" x="115.79" y="0.00" angle="90.00" type="flow" speed="11.10" pos="115.79" lane="0_0" slope="0.00"/>
        <vehicle id="flow.6" x="91.02" y="0.00" angle="90.00" type="flow" speed="11.73" pos="91.02" lane="0_0" slope="0.00"/>
        <vehicle id="flow.7" x="61.48" y="0.00" angle="90.00" type="flow" speed="11.12" pos="61.48" lane="0_0" slope="0.00"/>
        <vehicle id="flow.8" x="32.48" y="0.00" angle="90.00" type="flow" speed="9.62" pos="32.48" lane="0_0" slope="0.00"/>
        <vehicle id="flow.9" x="12.69" y="0.00" angle="90.00" type="flow" speed="4.89" pos="12.69" lane="0_0" slope="0.00"/>
    </timestep>
    <timestep time="23.00">
        <vehicle id="first" x="293.54" y="0.00" angle="90.00" type="DEFAULT_VEHTYPE" speed="4.63" pos="293.54" lane="0_0" slope="0.00"/>
        <vehicle id="flow.0" x="277.66" y="0.00" angle="90.00" type="flow" speed="9.20" pos="277.66" lane="0_0" slope="0.00"/>
        <vehicle id="flow.1" x="243.94" y="0.00" angle="90.00" type="flow" speed="12.17" pos="243.94" lane="0_0" slope="0.00"/>
        <vehicle id="flow.2" x="216.70" y="0.00" angle="90.00" type="flow" speed="12.22" pos="216.70" lane="0_0" slope="0.00"/>
        <vehicle id="flow.3" x="192.51" y="0.00" angle="90.00" type="flow" speed="12.11" pos="192.51" lane="0_0" slope="0.00"/>
        <vehicle id="flow.4" x="165.96" y="0.00" angle="90.00" type="flow" speed="12.18" pos="165.96" lane="0_0" slope="0.00"/>
        <vehicle id="flow.5" x="126.92" y="0.00" angle="90.00" type="flow" speed="11.13" pos="126.92" lane="0_0" slope="0.00"/>
        <vehicle id="flow.6" x="102.68" y="0.00" angle="90.00" type="flow" speed="11.66" pos="102.68" lane="0_0" slope="0.00"/>
        <vehicle id="flow.7" x="72.72" y="0.00" angle="90.00" type="flow" speed="11.25" pos="72.72" lane="0_0" slope="0.00"/>
        <vehicle id="flow.8" x="43.20" y="0.00" angle="90.00" type="flow" speed="10.72" pos="43.20" lane="0_0" slope="0.00"/>
        <vehicle id="flow.9" x="19.72" y="0.00" angle="90.00" type="flow" speed="7.03" pos="19.72" lane="0_0" slope="0.00"/>
    </timestep>
    <timestep time="24.00">
        <vehicle id="first" x="296.28" y="0.00" angle="90.00" type="DEFAULT_VEHTYPE" speed="2.74" pos="296.28" lane="0_0" slope="0.00"/>
        <vehicle id="flow.0" x="283.94" y="0.00" angle="90.00" type="flow" speed="6.28" pos="283.94" lane="0_0" slope="0.00"/>
        <vehicle id="flow.1" x="255.61" y="0.00" angle="90.00" type="flow" speed="11.67" pos="255.61" lane="0_0" slope="0.00"/>
        <vehicle id="flow.2" x="228.89" y="0.00" angle="90.00" type="flow" speed="12.18" pos="228.89" lane="0_0" slope="0.00"/>
        <vehicle id="flow.3" x="204.65" y="0.00" angle="90.00" type="flow" speed="12.14" pos="204.65" lane="0_0" slope="0.00"/>
        <vehicle id="flow.4" x="178.15" y="0.00" angle="90.00" type="flow" speed="12.18" pos="178.15" lane="0_0" slope="0.00"/>
        <vehicle id="flow.5" x="138.08" y="0.00" angle="90.00" type="flow" speed="11.15" pos="138.08" lane="0_0" slope="0.00"/>
        <vehicle id="flow.6" x="114.26" y="0.00" angle="90.00" type="flow" speed="11.58" pos="114.26" lane="0_0" slope="0.00"/>
        <vehicle id="flow.7" x="84.02" y="0.00" angle="90.00" type="flow" speed="11.30" pos="84.02" lane="0_0" slope="0.00"/>
        <vehicle id="flow.8" x="54.48" y="0.00" angle="90.00" type="flow" speed="11.28" pos="54.48" lane="0_0" slope="0.00"/>
        <vehicle id="flow.9" x="28.50" y="0.00" angle="90.00" type="flow" speed="8.78" pos="28.50" lane="0_0" slope="0.00"/>
    </timestep>
    <timestep time="25.00">
        <vehicle id="first" x="297.84" y="0.00" angle="90.00" type="DEFAULT_VEHTYPE" speed="1.56" pos="297.84" lane="0_0" slope="0.00"/>
        <vehicle id="flow.0" x="287.66" y="0.00" angle="90.00" type="flow" speed="3.72" pos="287.66" lane="0_0" slope="0.00"/>
        <vehicle id="flow.1" x="265.92" y="0.00" angle="90.00" type="flow" speed="10.31" pos="265.92" lane="0_0" slope="0.00"/>
        <vehicle id="flow.2" x="240.90" y="0.00" angle="90.00" type="flow" speed="12.02" pos="240.90" lane="0_0" slope="0.00"/>
        <vehicle id="flow.3" x="216.79" y="0.00" angle="90.00" type="flow" speed="12.14" pos="216.79" lane="0_0" slope="0.00"/>
        <vehicle id="flow.4" x="190.33" y="0.00" angle="90.00" type="flow" speed="12.19" pos="190.33" lane="0_0" slope="0.00"/>
        <vehicle id="flow.5" x="149.25" y="0.00" angle="90.00" type="flow" speed="11.17" pos="149.25" lane="0_0" slope="0.00"/>
        <vehicle id="flow.6" x="125.78" y="0.00" angle="90.00" type="flow" speed="11.52" pos="125.78" lane="0_0" slope="0.00"/>
        <vehicle id="flow.7" x="95.34" y="0.00" angle="90.00" type="flow" speed="11.32" pos="95.34" lane="0_0" slope="0.00"/>
        <vehicle id="flow.8" x="65.99" y="0.00" angle="90.00" type="flow" speed="11.51" pos="65.99" lane="0_0" slope="0.00"/>
        <vehicle id="flow.9" x="38.43" y="0.00" angle="90.00" type="flow" speed="9.93" pos="38.43" lane="0_0" slope="0.00"/>
    </timestep>
    <timestep time="26.00">
        <vehicle id="first" x="298.73" y="0.00" angle="90.00" type="DEFAULT_VEHTYPE" speed="0.89" pos="298.73" lane="0_0" slope="0.00"/>
        <vehicle id="flow.0" x="289.74" y="0.00" angle="90.00" type="flow" speed="2.08" pos="289.74" lane="0_0" slope="0.00"/>
        <vehicle id="flow.1" x="273.71" y="0.00" angle="90.00" type="flow" speed="7.79" pos="273.71" lane="0_0" slope="0.00"/>
        <vehicle id="flow.2" x="252.32" y="0.00" angle="90.00" type="flow" speed="11.42" pos="252.32" lane="0_0" slope="0.00"/>
        <vehicle id="flow.3" x="228.88" y="0.00" angle="90.00" type="flow" speed="12.08" pos="228.88" lane="0_0" slope="0.00"/>
        <vehicle id="flow.4" x="202.52" y="0.00" angle="90.00" type="flow" speed="12.19" pos="202.52" lane="0_0" slope="0.00"/>
        <vehicle id="flow.5" x="160.44" y="0.00" angle="90.00" type="flow" speed="11.19" pos="160.44" lane="0_0" slope="0.00"/>
        <vehicle id="flow.6" x="137.24" y="0.00" angle="90.00" type="flow" speed="11.46" pos="137.24" lane="0_0" slope="0.00"/>
        <vehicle id="flow.7" x="106.66" y="0.00" angle="90.00" type="flow" speed="11.32" pos="106.66" lane="0_0" slope="0.00"/>
        <vehicle id="flow.8" x="77.57" y="0.00" angle="90.00" type="flow" speed="11.59" pos="77.57" lane="0_0" slope="0.00"/>
        <vehicle id="flow.9" x="48.96" y="0.00" angle="90.00" type="flow" speed="10.53" pos="48.96" lane="0_0" slope="0.00"/>
    </timestep>
    <timestep time="27.00">
        <vehicle id="first" x="298.73" y="0.00" angle="90.00" type="DEFAULT_VEHTYPE" speed="0.00" pos="298.73" lane="0_0" slope="0.00"/>
        <vehicle id="flow.0" x="290.91" y="0.00" angle="90.00" type="flow" speed="1.16" pos="290.91" lane="0_0" slope="0.00"/>
        <vehicle id="flow.1" x="278.66" y="0.00" angle="90.00" type="flow" speed="4.94" pos="278.66" lane="0_0" slope="0.00"/>
        <vehicle id="flow.2" x="262.04" y="0.00" angle="90.00" type="flow" speed="9.72" pos="262.04" lane="0_0" slope="0.00"/>
        <vehicle id="flow.3" x="240.67" y="0.00" angle="90.00" type="flow" speed="11.79" pos="240.67" lane="0_0" slope="0.00"/>
        <vehicle id="flow.4" x="214.68" y="0.00" angle="90.00" type="flow" speed="12.16" pos="214.68" lane="0_0" slope="0.00"/>
        <vehicle id="flow.5" x="171.66" y="0.00" angle="90.00" type="flow" speed="11.21" pos="171.66" lane="0_0" slope="0.00"/>
        <vehicle id="flow.6" x="148.66" y="0.00" angle="90.00" type="flow" speed="11.42" pos="148.66" lane="0_0" slope="0.00"/>
        <vehicle id="flow.7" x="117.99" y="0.00" angle="90.00" type="flow" speed="11.33" pos="117.99" lane="0_0" slope="0.00"/>
        <vehicle id="flow.8" x="89.17" y="0.00" angle="90.00" type="flow" speed="11.60" pos="89.17" lane="0_0" slope="0.00"/>