<?xml version="1.0" encoding="UTF-8"?>

<!-- generated on Sun Sep 16 17:06:36 2018 by Eclipse SUMO Version v1_0_0+0271-684c6c2
This data file and the accompanying materials
are made available under the terms of the Eclipse Public License v2.0
which accompanies this distribution, and is available at
http://www.eclipse.org/legal/epl-v20.html
SPDX-License-Identifier: EPL-2.0
<configuration xmlns:xsi="http://www.w3.org/2001/XMLSchema-instance" xsi:noNamespaceSchemaLocation="http://sumo.dlr.de/xsd/sumoConfiguration.xsd">

    <input>
        <net-file value="net.net.xml"/>
        <route-files value="input_routes.rou.xml"/>
    </input>

    <output>
        <write-license value="true"/>
        <fcd-output value="fcd.xml"/>
    </output>

    <time>
        <begin value="80"/>
        <end value="90"/>
        <step-length value="0.5"/>
    </time>

    <processing>
        <default.speeddev value="0"/>
    </processing>

    <report>
        <verbose value="true"/>
        <xml-validation value="never"/>
        <duration-log.statistics value="true"/>
        <no-step-log value="true"/>
    </report>

    <gui_only>
        <gui-settings-file value="settings.xml"/>
        <tracker-interval value="0.5"/>
    </gui_only>

</configuration>
-->

<fcd-export xmlns:xsi="http://www.w3.org/2001/XMLSchema-instance" xsi:noNamespaceSchemaLocation="http://sumo.dlr.de/xsd/fcd_file.xsd">
    <timestep time="80.00"/>
    <timestep time="80.50"/>
    <timestep time="81.00">
        <vehicle id="1" x="-114.90" y="-1.60" angle="90.00" type="DEFAULT_VEHTYPE" speed="14.00" pos="5.10" lane="beg_0" slope="0.00"/>
    </timestep>
    <timestep time="81.50">
        <vehicle id="1" x="-107.90" y="-1.60" angle="90.00" type="DEFAULT_VEHTYPE" speed="14.00" pos="12.10" lane="beg_0" slope="0.00"/>
    </timestep>
    <timestep time="82.00">
        <vehicle id="1" x="-100.90" y="-1.60" angle="90.00" type="DEFAULT_VEHTYPE" speed="14.00" pos="19.10" lane="beg_0" slope="0.00"/>
    </timestep>
    <timestep time="82.50">
        <vehicle id="1" x="-93.90" y="-1.60" angle="90.00" type="DEFAULT_VEHTYPE" speed="14.00" pos="26.10" lane="beg_0" slope="0.00"/>
    </timestep>
    <timestep time="83.00">
        <vehicle id="1" x="-86.90" y="-1.60" angle="90.00" type="DEFAULT_VEHTYPE" speed="14.00" pos="33.10" lane="beg_0" slope="0.00"/>
        <vehicle id="2" x="-110.00" y="-1.60" angle="90.00" type="DEFAULT_VEHTYPE" speed="14.00" pos="10.00" lane="beg_0" slope="0.00"/>
    </timestep>
    <timestep time="83.50">
        <vehicle id="1" x="-79.90" y="-1.60" angle="90.00" type="DEFAULT_VEHTYPE" speed="14.00" pos="40.10" lane="beg_0" slope="0.00"/>
        <vehicle id="2" x="-103.00" y="-1.60" angle="90.00" type="DEFAULT_VEHTYPE" speed="14.00" pos="17.00" lane="beg_0" slope="0.00"/>
    </timestep>
    <timestep time="84.00">
        <vehicle id="1" x="-72.90" y="-1.60" angle="90.00" type="DEFAULT_VEHTYPE" speed="14.00" pos="47.10" lane="beg_0" slope="0.00"/>
        <vehicle id="2" x="-96.00" y="-1.60" angle="90.00" type="DEFAULT_VEHTYPE" speed="14.00" pos="24.00" lane="beg_0" slope="0.00"/>
    </timestep>
    <timestep time="84.50">
        <vehicle id="1" x="-65.90" y="-1.60" angle="90.00" type="DEFAULT_VEHTYPE" speed="14.00" pos="54.10" lane="beg_0" slope="0.00"/>
        <vehicle id="2" x="-89.00" y="-1.60" angle="90.00" type="DEFAULT_VEHTYPE" speed="14.00" pos="31.00" lane="beg_0" slope="0.00"/>
    </timestep>
    <timestep time="85.00">
        <vehicle id="1" x="-58.90" y="-1.60" angle="90.00" type="DEFAULT_VEHTYPE" speed="14.00" pos="61.10" lane="beg_0" slope="0.00"/>
        <vehicle id="2" x="-82.00" y="-1.60" angle="90.00" type="DEFAULT_VEHTYPE" speed="14.00" pos="38.00" lane="beg_0" slope="0.00"/>
    </timestep>
    <timestep time="85.50">
        <vehicle id="1" x="-51.90" y="-1.60" angle="90.00" type="DEFAULT_VEHTYPE" speed="14.00" pos="68.10" lane="beg_0" slope="0.00"/>
        <vehicle id="2" x="-75.00" y="-1.60" angle="90.00" type="DEFAULT_VEHTYPE" speed="14.00" pos="45.00" lane="beg_0" slope="0.00"/>
    </timestep>
    <timestep time="86.00">
        <vehicle id="1" x="-44.90" y="-1.60" angle="90.00" type="DEFAULT_VEHTYPE" speed="14.00" pos="75.10" lane="beg_0" slope="0.00"/>
        <vehicle id="2" x="-68.00" y="-1.60" angle="90.00" type="DEFAULT_VEHTYPE" speed="14.00" pos="52.00" lane="beg_0" slope="0.00"/>
    </timestep>
    <timestep time="86.50">
        <vehicle id="1" x="-37.90" y="-1.60" angle="90.00" type="DEFAULT_VEHTYPE" speed="14.00" pos="82.10" lane="beg_0" slope="0.00"/>
        <vehicle id="2" x="-61.00" y="-1.60" angle="90.00" type="DEFAULT_VEHTYPE" speed="14.00" pos="59.00" lane="beg_0" slope="0.00"/>
    </timestep>
    <timestep time="87.00">
        <vehicle id="1" x="-30.90" y="-1.60" angle="90.00" type="DEFAULT_VEHTYPE" speed="14.00" pos="89.10" lane="beg_0" slope="0.00"/>
        <vehicle id="2" x="-54.00" y="-1.60" angle="90.00" type="DEFAULT_VEHTYPE" speed="14.00" pos="66.00" lane="beg_0" slope="0.00"/>
    </timestep>
    <timestep time="87.50">
        <vehicle id="1" x="-23.90" y="-1.60" angle="90.00" type="DEFAULT_VEHTYPE" speed="14.00" pos="5.80" lane=":A_2_0" slope="0.00"/>
        <vehicle id="2" x="-47.00" y="-1.60" angle="90.00" type="DEFAULT_VEHTYPE" speed="14.00" pos="73.00" lane="beg_0" slope="0.00"/>
    </timestep>
    <timestep time="88.00">
        <vehicle id="1" x="-16.07" y="-1.60" angle="90.00" type="DEFAULT_VEHTYPE" speed="12.74" pos="2.77" lane="beg2_0" slope="0.00"/>
        <vehicle id="2" x="-40.00" y="-1.60" angle="90.00" type="DEFAULT_VEHTYPE" speed="14.00" pos="80.00" lane="beg_0" slope="0.00"/>
    </timestep>
    <timestep time="88.50">
        <vehicle id="1" x="-7.76" y="-1.60" angle="90.00" type="DEFAULT_VEHTYPE" speed="10.86" pos="8.20" lane="beg2_0" slope="0.00"/>
        <vehicle id="2" x="-35.01" y="-1.60" angle="90.00" type="DEFAULT_VEHTYPE" speed="9.98" pos="84.99" lane="beg_0" slope="0.00"/>
    </timestep>
    <timestep time="89.00">
        <vehicle id="1" x="-1.33" y="-1.60" angle="90.00" type="DEFAULT_VEHTYPE" speed="9.05" pos="2.62" lane="beg3_0" slope="0.00"/>
        <vehicle id="2" x="-30.92" y="-1.60" angle="90.00" type="DEFAULT_VEHTYPE" speed="8.18" pos="89.08" lane="beg_0" slope="0.00"/>
    </timestep>
    <timestep time="89.50">
        <vehicle id="1" x="3.75" y="-1.60" angle="90.00" type="DEFAULT_VEHTYPE" speed="7.25" pos="6.25" lane="beg3_0" slope="0.00"/>
        <vehicle id="2" x="-26.18" y="-1.60" angle="90.00" type="DEFAULT_VEHTYPE" speed="9.48" pos="3.52" lane=":A_2_0" slope="0.00"/>
    </timestep>
</fcd-export>
