<?xml version="1.0"?>

<!-- generated on 11/05/09 13:54:26 by SUMO sumo Version dev-SVN-r7945
<configuration>

    <input>
        <net-file value="net.net.xml"/>
        <route-files value="input_routes.rou.xml"/>
    </input>

    <output>
        <tripinfo-output value="tripinfos.xml"/>
    </output>

    <time>
        <begin value="0"/>
        <end value="1000"/>
    </time>

    <report>
        <no-duration-log value="true"/>
        <no-step-log value="true"/>
    </report>

</configuration>
-->

<tripinfos>
    <tripinfo id="0" depart="0" departLane="beg_0" departPos="0.00" departSpeed="0.00" departDelay="0" arrival="204" arrivalLane="rend_0" arrivalPos="1.77" arrivalSpeed="10.00" duration="204" routeLength="1989.37" waitSteps="0" rerouteNo="0" devices="" vtype="DEFAULT_VEHTYPE" vaporized=""></tripinfo>
    <tripinfo id="1" depart="10" departLane="beg_0" departPos="0.00" departSpeed="0.00" departDelay="0" arrival="214" arrivalLane="rend_0" arrivalPos="1.77" arrivalSpeed="10.00" duration="204" routeLength="1989.37" waitSteps="0" rerouteNo="0" devices="" vtype="DEFAULT_VEHTYPE" vaporized=""></tripinfo>
    <tripinfo id="2" depart="20" departLane="beg_0" departPos="0.00" departSpeed="0.00" departDelay="0" arrival="224" arrivalLane="rend_0" arrivalPos="1.77" arrivalSpeed="10.00" duration="204" routeLength="1989.37" waitSteps="0" rerouteNo="0" devices="" vtype="DEFAULT_VEHTYPE" vaporized=""></tripinfo>
    <tripinfo id="3" depart="30" departLane="beg_0" departPos="0.00" departSpeed="0.00" departDelay="0" arrival="234" arrivalLane="rend_0" arrivalPos="1.77" arrivalSpeed="10.00" duration="204" routeLength="1989.37" waitSteps="0" rerouteNo="0" devices="" vtype="DEFAULT_VEHTYPE" vaporized=""></tripinfo>
    <tripinfo id="4" depart="40" departLane="beg_0" departPos="0.00" departSpeed="0.00" departDelay="0" arrival="244" arrivalLane="rend_0" arrivalPos="1.77" arrivalSpeed="10.00" duration="204" routeLength="1989.37" waitSteps="0" rerouteNo="0" devices="" vtype="DEFAULT_VEHTYPE" vaporized=""></tripinfo>
    <tripinfo id="5" depart="50" departLane="beg_0" departPos="0.00" departSpeed="0.00" departDelay="0" arrival="254" arrivalLane="rend_0" arrivalPos="1.77" arrivalSpeed="10.00" duration="204" routeLength="1989.37" waitSteps="0" rerouteNo="0" devices="" vtype="DEFAULT_VEHTYPE" vaporized=""></tripinfo>
    <tripinfo id="6" depart="60" departLane="beg_0" departPos="0.00" departSpeed="0.00" departDelay="0" arrival="264" arrivalLane="rend_0" arrivalPos="1.77" arrivalSpeed="10.00" duration="204" routeLength="1989.37" waitSteps="0" rerouteNo="0" devices="" vtype="DEFAULT_VEHTYPE" vaporized=""></tripinfo>
    <tripinfo id="7" depart="70" departLane="beg_0" departPos="0.00" departSpeed="0.00" departDelay="0" arrival="274" arrivalLane="rend_0" arrivalPos="1.77" arrivalSpeed="10.00" duration="204" routeLength="1989.37" waitSteps="0" rerouteNo="0" devices="" vtype="DEFAULT_VEHTYPE" vaporized=""></tripinfo>
    <tripinfo id="8" depart="80" departLane="beg_0" departPos="0.00" departSpeed="0.00" departDelay="0" arrival="284" arrivalLane="rend_0" arrivalPos="1.77" arrivalSpeed="10.00" duration="204" routeLength="1989.37" waitSteps="0" rerouteNo="0" devices="" vtype="DEFAULT_VEHTYPE" vaporized=""></tripinfo>
    <tripinfo id="9" depart="90" departLane="beg_0" departPos="0.00" departSpeed="0.00" departDelay="0" arrival="294" arrivalLane="rend_0" arrivalPos="1.77" arrivalSpeed="10.00" duration="204" routeLength="1989.37" waitSteps="0" rerouteNo="0" devices="" vtype="DEFAULT_VEHTYPE" vaporized=""></tripinfo>
</tripinfos>
