<?xml version="1.0"?>

<!-- generated on 03/22/10 14:58:37 by SUMO sumo Version dev-SVN-r8502
<configuration>

    <input>
        <net-file value="net.net.xml"/>
        <route-files value="input_routes.rou.xml"/>
    </input>

    <output>
        <tripinfo-output value="tripinfos.xml"/>
    </output>

    <time>
        <begin value="0"/>
        <end value="1000"/>
    </time>

    <report>
        <no-duration-log value="true"/>
        <no-step-log value="true"/>
    </report>

</configuration>
-->

<tripinfos>
    <tripinfo id="0" depart="0.00" departLane="beg_0" departPos="0.00" departSpeed="0.00" departDelay="0.00" arrival="204.00" arrivalLane="rend_0" arrivalPos="1.77" arrivalSpeed="10.00" duration="204.00" routeLength="1989.37" waitSteps="0" rerouteNo="0" devices="" vtype="DEFAULT_VEHTYPE" vaporized=""/>
    <tripinfo id="1" depart="10.00" departLane="beg_0" departPos="0.00" departSpeed="0.00" departDelay="0.00" arrival="214.00" arrivalLane="rend_0" arrivalPos="1.77" arrivalSpeed="10.00" duration="204.00" routeLength="1989.37" waitSteps="0" rerouteNo="0" devices="" vtype="DEFAULT_VEHTYPE" vaporized=""/>
    <tripinfo id="2" depart="20.00" departLane="beg_0" departPos="0.00" departSpeed="0.00" departDelay="0.00" arrival="224.00" arrivalLane="rend_0" arrivalPos="1.77" arrivalSpeed="10.00" duration="204.00" routeLength="1989.37" waitSteps="0" rerouteNo="0" devices="" vtype="DEFAULT_VEHTYPE" vaporized=""/>
    <tripinfo id="3" depart="30.00" departLane="beg_0" departPos="0.00" departSpeed="0.00" departDelay="0.00" arrival="234.00" arrivalLane="rend_0" arrivalPos="1.77" arrivalSpeed="10.00" duration="204.00" routeLength="1989.37" waitSteps="0" rerouteNo="0" devices="" vtype="DEFAULT_VEHTYPE" vaporized=""/>
    <tripinfo id="4" depart="40.00" departLane="beg_0" departPos="0.00" departSpeed="0.00" departDelay="0.00" arrival="244.00" arrivalLane="rend_0" arrivalPos="1.77" arrivalSpeed="10.00" duration="204.00" routeLength="1989.37" waitSteps="0" rerouteNo="0" devices="" vtype="DEFAULT_VEHTYPE" vaporized=""/>
    <tripinfo id="5" depart="50.00" departLane="beg_0" departPos="0.00" departSpeed="0.00" departDelay="0.00" arrival="254.00" arrivalLane="rend_0" arrivalPos="1.77" arrivalSpeed="10.00" duration="204.00" routeLength="1989.37" waitSteps="0" rerouteNo="0" devices="" vtype="DEFAULT_VEHTYPE" vaporized=""/>
    <tripinfo id="6" depart="60.00" departLane="beg_0" departPos="0.00" departSpeed="0.00" departDelay="0.00" arrival="264.00" arrivalLane="rend_0" arrivalPos="1.77" arrivalSpeed="10.00" duration="204.00" routeLength="1989.37" waitSteps="0" rerouteNo="0" devices="" vtype="DEFAULT_VEHTYPE" vaporized=""/>
    <tripinfo id="7" depart="70.00" departLane="beg_0" departPos="0.00" departSpeed="0.00" departDelay="0.00" arrival="274.00" arrivalLane="rend_0" arrivalPos="1.77" arrivalSpeed="10.00" duration="204.00" routeLength="1989.37" waitSteps="0" rerouteNo="0" devices="" vtype="DEFAULT_VEHTYPE" vaporized=""/>
    <tripinfo id="8" depart="80.00" departLane="beg_0" departPos="0.00" departSpeed="0.00" departDelay="0.00" arrival="284.00" arrivalLane="rend_0" arrivalPos="1.77" arrivalSpeed="10.00" duration="204.00" routeLength="1989.37" waitSteps="0" rerouteNo="0" devices="" vtype="DEFAULT_VEHTYPE" vaporized=""/>
    <tripinfo id="9" depart="90.00" departLane="beg_0" departPos="0.00" departSpeed="0.00" departDelay="0.00" arrival="294.00" arrivalLane="rend_0" arrivalPos="1.77" arrivalSpeed="10.00" duration="204.00" routeLength="1989.37" waitSteps="0" rerouteNo="0" devices="" vtype="DEFAULT_VEHTYPE" vaporized=""/>
</tripinfos>
