<?xml version="1.0"?>

<!-- generated on 03/25/10 08:18:55 by SUMO sumo Version dev-SVN-r8511
<configuration>

    <input>
        <net-file value="net.net.xml"/>
        <route-files value="input_routes.rou.xml"/>
    </input>

    <output>
        <tripinfo-output value="tripinfos.xml"/>
    </output>

    <time>
        <begin value="0"/>
        <end value="1000"/>
    </time>

    <report>
        <no-duration-log value="true"/>
        <no-step-log value="true"/>
    </report>

    <mesoscopic>
        <mesosim value="true"/>
    </mesoscopic>

</configuration>
-->

<tripinfos>
    <tripinfo id="0" depart="0.00" departLane="" departPos="0.00" departSpeed="0.00" departDelay="0.00" arrival="199.00" arrivalLane="" arrivalPos="" arrivalSpeed="" duration="199.00" routeLength="2487.60" waitSteps="0" rerouteNo="0" devices="" vtype="DEFAULT_VEHTYPE" vaporized=""/>
    <tripinfo id="1" depart="10.00" departLane="" departPos="0.00" departSpeed="0.00" departDelay="0.00" arrival="209.00" arrivalLane="" arrivalPos="" arrivalSpeed="" duration="199.00" routeLength="2487.60" waitSteps="0" rerouteNo="0" devices="" vtype="DEFAULT_VEHTYPE" vaporized=""/>
    <tripinfo id="2" depart="20.00" departLane="" departPos="0.00" departSpeed="0.00" departDelay="0.00" arrival="219.00" arrivalLane="" arrivalPos="" arrivalSpeed="" duration="199.00" routeLength="2487.60" waitSteps="0" rerouteNo="0" devices="" vtype="DEFAULT_VEHTYPE" vaporized=""/>
    <tripinfo id="3" depart="30.00" departLane="" departPos="0.00" departSpeed="0.00" departDelay="0.00" arrival="229.00" arrivalLane="" arrivalPos="" arrivalSpeed="" duration="199.00" routeLength="2487.60" waitSteps="0" rerouteNo="0" devices="" vtype="DEFAULT_VEHTYPE" vaporized=""/>
    <tripinfo id="4" depart="40.00" departLane="" departPos="0.00" departSpeed="0.00" departDelay="0.00" arrival="239.00" arrivalLane="" arrivalPos="" arrivalSpeed="" duration="199.00" routeLength="2487.60" waitSteps="0" rerouteNo="0" devices="" vtype="DEFAULT_VEHTYPE" vaporized=""/>
    <tripinfo id="5" depart="50.00" departLane="" departPos="0.00" departSpeed="0.00" departDelay="0.00" arrival="249.00" arrivalLane="" arrivalPos="" arrivalSpeed="" duration="199.00" routeLength="2487.60" waitSteps="0" rerouteNo="0" devices="" vtype="DEFAULT_VEHTYPE" vaporized=""/>
    <tripinfo id="6" depart="60.00" departLane="" departPos="0.00" departSpeed="0.00" departDelay="0.00" arrival="259.00" arrivalLane="" arrivalPos="" arrivalSpeed="" duration="199.00" routeLength="2487.60" waitSteps="0" rerouteNo="0" devices="" vtype="DEFAULT_VEHTYPE" vaporized=""/>
    <tripinfo id="7" depart="70.00" departLane="" departPos="0.00" departSpeed="0.00" departDelay="0.00" arrival="269.00" arrivalLane="" arrivalPos="" arrivalSpeed="" duration="199.00" routeLength="2487.60" waitSteps="0" rerouteNo="0" devices="" vtype="DEFAULT_VEHTYPE" vaporized=""/>
    <tripinfo id="8" depart="80.00" departLane="" departPos="0.00" departSpeed="0.00" departDelay="0.00" arrival="279.00" arrivalLane="" arrivalPos="" arrivalSpeed="" duration="199.00" routeLength="2487.60" waitSteps="0" rerouteNo="0" devices="" vtype="DEFAULT_VEHTYPE" vaporized=""/>
    <tripinfo id="9" depart="90.00" departLane="" departPos="0.00" departSpeed="0.00" departDelay="0.00" arrival="289.00" arrivalLane="" arrivalPos="" arrivalSpeed="" duration="199.00" routeLength="2487.60" waitSteps="0" rerouteNo="0" devices="" vtype="DEFAULT_VEHTYPE" vaporized=""/>
</tripinfos>
