<?xml version="1.0" encoding="UTF-8"?>

<!-- generated on Thu Nov  2 15:37:58 2017 by SUMO Version v0_31_0-870-g7affc8e
<?xml version="1.0" encoding="UTF-8"?>

<configuration xmlns:xsi="http://www.w3.org/2001/XMLSchema-instance" xsi:noNamespaceSchemaLocation="http://sumo.dlr.de/xsd/sumoConfiguration.xsd">

    <input>
        <net-file value="three_split.net.xml"/>
        <route-files value="input_routes.rou.xml"/>
        <additional-files value="input_additional.add.xml"/>
    </input>

    <output>
        <tripinfo-output value="tripinfos.xml"/>
    </output>

    <time>
        <end value="300"/>
    </time>

    <report>
        <xml-validation value="never"/>
        <duration-log.disable value="true"/>
        <no-step-log value="true"/>
    </report>

    <mesoscopic>
        <mesosim value="true"/>
        <meso-junction-control value="true"/>
    </mesoscopic>

</configuration>
-->

<tripinfos xmlns:xsi="http://www.w3.org/2001/XMLSchema-instance" xsi:noNamespaceSchemaLocation="http://sumo.dlr.de/xsd/tripinfo_file.xsd">
    <tripinfo id="priority.0" depart="0.00" departLane="" departPos="700.00" departSpeed="31.13" departDelay="0.00" arrival="26.00" arrivalLane="" arrivalPos="500.00" arrivalSpeed="31.13" duration="26.00" routeLength="800.00" waitSteps="0" timeLoss="0.00" rerouteNo="0" devices="tripinfo_priority.0" vType="tflow" speedFactor="1.12" vaporized=""/>
    <tripinfo id="priority.1" depart="2.00" departLane="" departPos="700.00" departSpeed="24.37" departDelay="-0.30" arrival="35.00" arrivalLane="" arrivalPos="500.00" arrivalSpeed="24.37" duration="33.00" routeLength="800.00" waitSteps="0" timeLoss="0.00" rerouteNo="0" devices="tripinfo_priority.1" vType="tflow" speedFactor="0.88" vaporized=""/>
    <tripinfo id="priority.2" depart="4.00" departLane="" departPos="700.00" departSpeed="28.38" departDelay="-0.60" arrival="37.00" arrivalLane="" arrivalPos="500.00" arrivalSpeed="24.37" duration="33.00" routeLength="800.00" waitSteps="0" timeLoss="4.03" rerouteNo="0" devices="tripinfo_priority.2" vType="tflow" speedFactor="1.02" vaporized=""/>
    <tripinfo id="priority.3" depart="6.00" departLane="" departPos="700.00" departSpeed="32.39" departDelay="-0.90" arrival="38.00" arrivalLane="" arrivalPos="500.00" arrivalSpeed="24.37" duration="32.00" routeLength="800.00" waitSteps="0" timeLoss="6.93" rerouteNo="0" devices="tripinfo_priority.3" vType="tflow" speedFactor="1.17" vaporized=""/>
    <tripinfo id="priority.4" depart="9.00" departLane="" departPos="700.00" departSpeed="29.48" departDelay="-0.20" arrival="40.00" arrivalLane="" arrivalPos="500.00" arrivalSpeed="24.37" duration="31.00" routeLength="800.00" waitSteps="0" timeLoss="2.88" rerouteNo="0" devices="tripinfo_priority.4" vType="tflow" speedFactor="1.06" vaporized=""/>
    <tripinfo id="ego" depart="0.00" departLane="" departPos="300.00" departSpeed="13.90" departDelay="0.00" arrival="41.00" arrivalLane="" arrivalPos="500.00" arrivalSpeed="24.37" duration="41.00" routeLength="700.00" waitSteps="6" timeLoss="8.05" rerouteNo="0" devices="tripinfo_ego" vType="t" speedFactor="1.00" vaporized=""/>
    <tripinfo id="priority.5" depart="11.00" departLane="" departPos="700.00" departSpeed="18.41" departDelay="-0.50" arrival="55.00" arrivalLane="" arrivalPos="500.00" arrivalSpeed="18.41" duration="44.00" routeLength="800.00" waitSteps="0" timeLoss="0.00" rerouteNo="0" devices="tripinfo_priority.5" vType="tflow" speedFactor="0.66" vaporized=""/>
    <tripinfo id="priority.6" depart="13.00" departLane="" departPos="700.00" departSpeed="20.70" departDelay="-0.80" arrival="56.00" arrivalLane="" arrivalPos="500.00" arrivalSpeed="18.41" duration="43.00" routeLength="800.00" waitSteps="0" timeLoss="16.50" rerouteNo="0" devices="tripinfo_priority.6" vType="tflow" speedFactor="1.09" vaporized=""/>
    <tripinfo id="priority.7" depart="16.00" departLane="" departPos="700.00" departSpeed="21.46" departDelay="-0.10" arrival="58.00" arrivalLane="" arrivalPos="500.00" arrivalSpeed="18.41" duration="42.00" routeLength="800.00" waitSteps="0" timeLoss="3.99" rerouteNo="0" devices="tripinfo_priority.7" vType="tflow" speedFactor="0.77" vaporized=""/>
    <tripinfo id="priority.8" depart="18.00" departLane="" departPos="700.00" departSpeed="24.35" departDelay="-0.40" arrival="59.00" arrivalLane="" arrivalPos="500.00" arrivalSpeed="18.41" duration="41.00" routeLength="800.00" waitSteps="0" timeLoss="7.80" rerouteNo="0" devices="tripinfo_priority.8" vType="tflow" speedFactor="0.88" vaporized=""/>
    <tripinfo id="priority.9" depart="20.00" departLane="" departPos="700.00" departSpeed="19.85" departDelay="-0.70" arrival="61.00" arrivalLane="" arrivalPos="500.00" arrivalSpeed="19.85" duration="41.00" routeLength="800.00" waitSteps="0" timeLoss="0.00" rerouteNo="0" devices="tripinfo_priority.9" vType="tflow" speedFactor="0.71" vaporized=""/>
    <tripinfo id="priority.10" depart="23.00" departLane="" departPos="700.00" departSpeed="29.09" departDelay="0.00" arrival="62.00" arrivalLane="" arrivalPos="500.00" arrivalSpeed="19.85" duration="39.00" routeLength="800.00" waitSteps="0" timeLoss="14.35" rerouteNo="0" devices="tripinfo_priority.10" vType="tflow" speedFactor="1.18" vaporized=""/>
    <tripinfo id="priority.11" depart="25.00" departLane="" departPos="700.00" departSpeed="29.27" departDelay="-0.30" arrival="64.00" arrivalLane="" arrivalPos="500.00" arrivalSpeed="19.85" duration="39.00" routeLength="800.00" waitSteps="0" timeLoss="10.77" rerouteNo="0" devices="tripinfo_priority.11" vType="tflow" speedFactor="1.05" vaporized=""/>
    <tripinfo id="priority.12" depart="27.00" departLane="" departPos="700.00" departSpeed="30.41" departDelay="-0.60" arrival="65.00" arrivalLane="" arrivalPos="500.00" arrivalSpeed="19.85" duration="38.00" routeLength="800.00" waitSteps="0" timeLoss="11.21" rerouteNo="0" devices="tripinfo_priority.12" vType="tflow" speedFactor="1.09" vaporized=""/>
    <tripinfo id="priority.13" depart="29.00" departLane="" departPos="700.00" departSpeed="34.64" departDelay="-0.90" arrival="66.00" arrivalLane="" arrivalPos="500.00" arrivalSpeed="19.85" duration="37.00" routeLength="800.00" waitSteps="0" timeLoss="13.81" rerouteNo="0" devices="tripinfo_priority.13" vType="tflow" speedFactor="1.25" vaporized=""/>
    <tripinfo id="priority.14" depart="32.00" departLane="" departPos="700.00" departSpeed="27.31" departDelay="-0.20" arrival="68.00" arrivalLane="" arrivalPos="500.00" arrivalSpeed="19.85" duration="36.00" routeLength="800.00" waitSteps="0" timeLoss="6.01" rerouteNo="0" devices="tripinfo_priority.14" vType="tflow" speedFactor="0.98" vaporized=""/>
    <tripinfo id="priority.15" depart="34.00" departLane="" departPos="700.00" departSpeed="23.73" departDelay="-0.50" arrival="69.00" arrivalLane="" arrivalPos="500.00" arrivalSpeed="19.85" duration="35.00" routeLength="800.00" waitSteps="0" timeLoss="0.99" rerouteNo="0" devices="tripinfo_priority.15" vType="tflow" speedFactor="0.85" vaporized=""/>
    <tripinfo id="priority.16" depart="36.00" departLane="" departPos="700.00" departSpeed="21.04" departDelay="-0.80" arrival="75.00" arrivalLane="" arrivalPos="500.00" arrivalSpeed="21.04" duration="39.00" routeLength="800.00" waitSteps="0" timeLoss="0.00" rerouteNo="0" devices="tripinfo_priority.16" vType="tflow" speedFactor="0.76" vaporized=""/>
    <tripinfo id="priority.17" depart="39.00" departLane="" departPos="700.00" departSpeed="24.54" departDelay="-0.10" arrival="76.00" arrivalLane="" arrivalPos="500.00" arrivalSpeed="21.04" duration="37.00" routeLength="800.00" waitSteps="0" timeLoss="3.82" rerouteNo="0" devices="tripinfo_priority.17" vType="tflow" speedFactor="0.88" vaporized=""/>
    <tripinfo id="priority.18" depart="41.00" departLane="" departPos="700.00" departSpeed="24.25" departDelay="-0.40" arrival="77.00" arrivalLane="" arrivalPos="500.00" arrivalSpeed="21.04" duration="36.00" routeLength="800.00" waitSteps="0" timeLoss="2.84" rerouteNo="0" devices="tripinfo_priority.18" vType="tflow" speedFactor="0.87" vaporized=""/>
    <tripinfo id="priority.19" depart="43.00" departLane="" departPos="700.00" departSpeed="28.39" departDelay="-0.70" arrival="79.00" arrivalLane="" arrivalPos="500.00" arrivalSpeed="21.04" duration="36.00" routeLength="800.00" waitSteps="0" timeLoss="13.37" rerouteNo="0" devices="tripinfo_priority.19" vType="tflow" speedFactor="1.32" vaporized=""/>
    <tripinfo id="priority.20" depart="46.00" departLane="" departPos="700.00" departSpeed="28.81" departDelay="0.00" arrival="80.00" arrivalLane="" arrivalPos="500.00" arrivalSpeed="21.04" duration="34.00" routeLength="800.00" waitSteps="0" timeLoss="5.85" rerouteNo="0" devices="tripinfo_priority.20" vType="tflow" speedFactor="1.04" vaporized=""/>
    <tripinfo id="priority.21" depart="48.00" departLane="" departPos="700.00" departSpeed="28.36" departDelay="-0.30" arrival="82.00" arrivalLane="" arrivalPos="500.00" arrivalSpeed="21.04" duration="34.00" routeLength="800.00" waitSteps="0" timeLoss="4.81" rerouteNo="0" devices="tripinfo_priority.21" vType="tflow" speedFactor="1.02" vaporized=""/>
    <tripinfo id="priority.22" depart="50.00" departLane="" departPos="700.00" departSpeed="26.41" departDelay="-0.60" arrival="83.00" arrivalLane="" arrivalPos="500.00" arrivalSpeed="21.04" duration="33.00" routeLength="800.00" waitSteps="0" timeLoss="2.13" rerouteNo="0" devices="tripinfo_priority.22" vType="tflow" speedFactor="0.95" vaporized=""/>
    <tripinfo id="priority.23" depart="52.00" departLane="" departPos="700.00" departSpeed="21.66" departDelay="-0.90" arrival="89.00" arrivalLane="" arrivalPos="500.00" arrivalSpeed="21.66" duration="37.00" routeLength="800.00" waitSteps="0" timeLoss="0.00" rerouteNo="0" devices="tripinfo_priority.23" vType="tflow" speedFactor="0.78" vaporized=""/>
    <tripinfo id="priority.24" depart="55.00" departLane="" departPos="700.00" departSpeed="18.11" departDelay="-0.20" arrival="100.00" arrivalLane="" arrivalPos="500.00" arrivalSpeed="18.11" duration="45.00" routeLength="800.00" waitSteps="0" timeLoss="0.00" rerouteNo="0" devices="tripinfo_priority.24" vType="tflow" speedFactor="0.65" vaporized=""/>
    <tripinfo id="priority.25" depart="57.00" departLane="" departPos="700.00" departSpeed="20.32" departDelay="-0.50" arrival="101.00" arrivalLane="" arrivalPos="500.00" arrivalSpeed="18.11" duration="44.00" routeLength="800.00" waitSteps="0" timeLoss="4.97" rerouteNo="0" devices="tripinfo_priority.25" vType="tflow" speedFactor="0.75" vaporized=""/>
    <tripinfo id="priority.26" depart="59.00" departLane="" departPos="700.00" departSpeed="23.14" departDelay="-0.80" arrival="102.00" arrivalLane="" arrivalPos="500.00" arrivalSpeed="18.11" duration="43.00" routeLength="800.00" waitSteps="0" timeLoss="8.49" rerouteNo="0" devices="tripinfo_priority.26" vType="tflow" speedFactor="0.83" vaporized=""/>
    <tripinfo id="priority.27" depart="62.00" departLane="" departPos="700.00" departSpeed="24.96" departDelay="-0.10" arrival="104.00" arrivalLane="" arrivalPos="500.00" arrivalSpeed="18.11" duration="42.00" routeLength="800.00" waitSteps="0" timeLoss="9.32" rerouteNo="0" devices="tripinfo_priority.27" vType="tflow" speedFactor="0.90" vaporized=""/>
    <tripinfo id="priority.28" depart="64.00" departLane="" departPos="700.00" departSpeed="29.36" departDelay="-0.40" arrival="105.00" arrivalLane="" arrivalPos="500.00" arrivalSpeed="18.11" duration="41.00" routeLength="800.00" waitSteps="0" timeLoss="18.00" rerouteNo="0" devices="tripinfo_priority.28" vType="tflow" speedFactor="1.26" vaporized=""/>
    <tripinfo id="priority.29" depart="66.00" departLane="" departPos="700.00" departSpeed="23.98" departDelay="-0.70" arrival="107.00" arrivalLane="" arrivalPos="500.00" arrivalSpeed="18.11" duration="41.00" routeLength="800.00" waitSteps="0" timeLoss="6.82" rerouteNo="0" devices="tripinfo_priority.29" vType="tflow" speedFactor="0.86" vaporized=""/>
    <tripinfo id="priority.30" depart="69.00" departLane="" departPos="700.00" departSpeed="37.72" departDelay="0.00" arrival="108.00" arrivalLane="" arrivalPos="500.00" arrivalSpeed="18.11" duration="39.00" routeLength="800.00" waitSteps="0" timeLoss="17.37" rerouteNo="0" devices="tripinfo_priority.30" vType="tflow" speedFactor="1.36" vaporized=""/>
    <tripinfo id="priority.31" depart="71.00" departLane="" departPos="700.00" departSpeed="36.39" departDelay="-0.30" arrival="109.00" arrivalLane="" arrivalPos="500.00" arrivalSpeed="18.11" duration="38.00" routeLength="800.00" waitSteps="0" timeLoss="15.99" rerouteNo="0" devices="tripinfo_priority.31" vType="tflow" speedFactor="1.31" vaporized=""/>
    <tripinfo id="priority.32" depart="73.00" departLane="" departPos="700.00" departSpeed="28.09" departDelay="-0.60" arrival="111.00" arrivalLane="" arrivalPos="500.00" arrivalSpeed="18.11" duration="38.00" routeLength="800.00" waitSteps="0" timeLoss="8.90" rerouteNo="0" devices="tripinfo_priority.32" vType="tflow" speedFactor="1.01" vaporized=""/>
    <tripinfo id="priority.33" depart="75.00" departLane="" departPos="700.00" departSpeed="33.80" departDelay="-0.90" arrival="112.00" arrivalLane="" arrivalPos="500.00" arrivalSpeed="18.11" duration="37.00" routeLength="800.00" waitSteps="0" timeLoss="15.36" rerouteNo="0" devices="tripinfo_priority.33" vType="tflow" speedFactor="1.34" vaporized=""/>
    <tripinfo id="priority.34" depart="78.00" departLane="" departPos="700.00" departSpeed="27.51" departDelay="-0.20" arrival="114.00" arrivalLane="" arrivalPos="500.00" arrivalSpeed="18.11" duration="36.00" routeLength="800.00" waitSteps="0" timeLoss="6.09" rerouteNo="0" devices="tripinfo_priority.34" vType="tflow" speedFactor="0.99" vaporized=""/>
    <tripinfo id="priority.35" depart="80.00" departLane="" departPos="700.00" departSpeed="28.89" departDelay="-0.50" arrival="115.00" arrivalLane="" arrivalPos="500.00" arrivalSpeed="18.11" duration="35.00" routeLength="800.00" waitSteps="0" timeLoss="6.88" rerouteNo="0" devices="tripinfo_priority.35" vType="tflow" speedFactor="1.04" vaporized=""/>
    <tripinfo id="priority.36" depart="82.00" departLane="" departPos="700.00" departSpeed="26.31" departDelay="-0.80" arrival="116.00" arrivalLane="" arrivalPos="500.00" arrivalSpeed="18.11" duration="34.00" routeLength="800.00" waitSteps="0" timeLoss="3.56" rerouteNo="0" devices="tripinfo_priority.36" vType="tflow" speedFactor="0.95" vaporized=""/>
    <tripinfo id="priority.37" depart="85.00" departLane="" departPos="700.00" departSpeed="37.79" departDelay="-0.10" arrival="118.00" arrivalLane="" arrivalPos="500.00" arrivalSpeed="18.11" duration="33.00" routeLength="800.00" waitSteps="0" timeLoss="11.20" rerouteNo="0" devices="tripinfo_priority.37" vType="tflow" speedFactor="1.36" vaporized=""/>
    <tripinfo id="priority.38" depart="87.00" departLane="" departPos="700.00" departSpeed="33.49" departDelay="-0.40" arrival="119.00" arrivalLane="" arrivalPos="500.00" arrivalSpeed="18.11" duration="32.00" routeLength="800.00" waitSteps="0" timeLoss="7.88" rerouteNo="0" devices="tripinfo_priority.38" vType="tflow" speedFactor="1.20" vaporized=""/>
    <tripinfo id="priority.39" depart="89.00" departLane="" departPos="700.00" departSpeed="22.27" departDelay="-0.70" arrival="125.00" arrivalLane="" arrivalPos="500.00" arrivalSpeed="22.27" duration="36.00" routeLength="800.00" waitSteps="0" timeLoss="0.00" rerouteNo="0" devices="tripinfo_priority.39" vType="tflow" speedFactor="0.80" vaporized=""/>
    <tripinfo id="priority.40" depart="92.00" departLane="" departPos="700.00" departSpeed="29.49" departDelay="0.00" arrival="127.00" arrivalLane="" arrivalPos="500.00" arrivalSpeed="22.27" duration="35.00" routeLength="800.00" waitSteps="0" timeLoss="7.19" rerouteNo="0" devices="tripinfo_priority.40" vType="tflow" speedFactor="1.06" vaporized=""/>
    <tripinfo id="priority.41" depart="94.00" departLane="" departPos="700.00" departSpeed="25.42" departDelay="-0.30" arrival="128.00" arrivalLane="" arrivalPos="500.00" arrivalSpeed="22.27" duration="34.00" routeLength="800.00" waitSteps="0" timeLoss="2.25" rerouteNo="0" devices="tripinfo_priority.41" vType="tflow" speedFactor="0.91" vaporized=""/>
    <tripinfo id="priority.42" depart="96.00" departLane="" departPos="700.00" departSpeed="30.00" departDelay="-0.60" arrival="130.00" arrivalLane="" arrivalPos="500.00" arrivalSpeed="22.27" duration="34.00" routeLength="800.00" waitSteps="0" timeLoss="8.80" rerouteNo="0" devices="tripinfo_priority.42" vType="tflow" speedFactor="1.18" vaporized=""/>
    <tripinfo id="priority.43" depart="98.00" departLane="" departPos="700.00" departSpeed="29.90" departDelay="-0.90" arrival="131.00" arrivalLane="" arrivalPos="500.00" arrivalSpeed="22.27" duration="33.00" routeLength="800.00" waitSteps="0" timeLoss="5.76" rerouteNo="0" devices="tripinfo_priority.43" vType="tflow" speedFactor="1.08" vaporized=""/>
    <tripinfo id="priority.44" depart="101.00" departLane="" departPos="700.00" departSpeed="30.21" departDelay="-0.20" arrival="132.00" arrivalLane="" arrivalPos="500.00" arrivalSpeed="22.27" duration="31.00" routeLength="800.00" waitSteps="0" timeLoss="4.43" rerouteNo="0" devices="tripinfo_priority.44" vType="tflow" speedFactor="1.09" vaporized=""/>
    <tripinfo id="priority.45" depart="103.00" departLane="" departPos="700.00" departSpeed="32.69" departDelay="-0.50" arrival="134.00" arrivalLane="" arrivalPos="500.00" arrivalSpeed="22.27" duration="31.00" routeLength="800.00" waitSteps="0" timeLoss="5.84" rerouteNo="0" devices="tripinfo_priority.45" vType="tflow" speedFactor="1.18" vaporized=""/>
    <tripinfo id="priority.46" depart="105.00" departLane="" departPos="700.00" departSpeed="27.65" departDelay="-0.80" arrival="135.00" arrivalLane="" arrivalPos="500.00" arrivalSpeed="22.72" duration="30.00" routeLength="800.00" waitSteps="0" timeLoss="0.79" rerouteNo="0" devices="tripinfo_priority.46" vType="tflow" speedFactor="0.99" vaporized=""/>
    <tripinfo id="priority.47" depart="108.00" departLane="" departPos="700.00" departSpeed="22.27" departDelay="-0.10" arrival="144.00" arrivalLane="" arrivalPos="500.00" arrivalSpeed="22.27" duration="36.00" routeLength="800.00" waitSteps="0" timeLoss="0.00" rerouteNo="0" devices="tripinfo_priority.47" vType="tflow" speedFactor="0.80" vaporized=""/>
    <tripinfo id="priority.48" depart="110.00" departLane="" departPos="700.00" departSpeed="20.96" departDelay="-0.40" arrival="149.00" arrivalLane="" arrivalPos="500.00" arrivalSpeed="20.96" duration="39.00" routeLength="800.00" waitSteps="0" timeLoss="0.00" rerouteNo="0" devices="tripinfo_priority.48" vType="tflow" speedFactor="0.75" vaporized=""/>
    <tripinfo id="priority.49" depart="112.00" departLane="" departPos="700.00" departSpeed="19.48" departDelay="-0.70" arrival="154.00" arrivalLane="" arrivalPos="500.00" arrivalSpeed="19.48" duration="42.00" routeLength="800.00" waitSteps="0" timeLoss="0.00" rerouteNo="0" devices="tripinfo_priority.49" vType="tflow" speedFactor="0.70" vaporized=""/>
    <tripinfo id="priority.50" depart="115.00" departLane="" departPos="700.00" departSpeed="19.74" departDelay="0.00" arrival="156.00" arrivalLane="" arrivalPos="500.00" arrivalSpeed="19.74" duration="41.00" routeLength="800.00" waitSteps="0" timeLoss="0.00" rerouteNo="0" devices="tripinfo_priority.50" vType="tflow" speedFactor="0.71" vaporized=""/>
    <tripinfo id="priority.51" depart="117.00" departLane="" departPos="700.00" departSpeed="22.39" departDelay="-0.30" arrival="157.00" arrivalLane="" arrivalPos="500.00" arrivalSpeed="19.74" duration="40.00" routeLength="800.00" waitSteps="0" timeLoss="18.42" rerouteNo="0" devices="tripinfo_priority.51" vType="tflow" speedFactor="1.34" vaporized=""/>
    <tripinfo id="priority.52" depart="119.00" departLane="" departPos="700.00" departSpeed="25.87" departDelay="-0.60" arrival="159.00" arrivalLane="" arrivalPos="500.00" arrivalSpeed="19.74" duration="40.00" routeLength="800.00" waitSteps="0" timeLoss="11.49" rerouteNo="0" devices="tripinfo_priority.52" vType="tflow" speedFactor="1.03" vaporized=""/>
    <tripinfo id="priority.53" depart="121.00" departLane="" departPos="700.00" departSpeed="30.64" departDelay="-0.90" arrival="160.00" arrivalLane="" arrivalPos="500.00" arrivalSpeed="19.74" duration="39.00" routeLength="800.00" waitSteps="0" timeLoss="14.58" rerouteNo="0" devices="tripinfo_priority.53" vType="tflow" speedFactor="1.19" vaporized=""/>
    <tripinfo id="priority.54" depart="124.00" departLane="" departPos="700.00" departSpeed="27.97" departDelay="-0.20" arrival="162.00" arrivalLane="" arrivalPos="500.00" arrivalSpeed="19.74" duration="38.00" routeLength="800.00" waitSteps="0" timeLoss="8.53" rerouteNo="0" devices="tripinfo_priority.54" vType="tflow" speedFactor="1.01" vaporized=""/>
    <tripinfo id="priority.55" depart="126.00" departLane="" departPos="700.00" departSpeed="27.58" departDelay="-0.50" arrival="163.00" arrivalLane="" arrivalPos="500.00" arrivalSpeed="19.74" duration="37.00" routeLength="800.00" waitSteps="0" timeLoss="7.52" rerouteNo="0" devices="tripinfo_priority.55" vType="tflow" speedFactor="0.99" vaporized=""/>
    <tripinfo id="priority.56" depart="128.00" departLane="" departPos="700.00" departSpeed="22.18" departDelay="-0.80" arrival="165.00" arrivalLane="" arrivalPos="500.00" arrivalSpeed="22.18" duration="37.00" routeLength="800.00" waitSteps="0" timeLoss="0.00" rerouteNo="0" devices="tripinfo_priority.56" vType="tflow" speedFactor="0.80" vaporized=""/>
    <tripinfo id="priority.57" depart="131.00" departLane="" departPos="700.00" departSpeed="34.39" departDelay="-0.10" arrival="166.00" arrivalLane="" arrivalPos="500.00" arrivalSpeed="22.18" duration="35.00" routeLength="800.00" waitSteps="0" timeLoss="12.08" rerouteNo="0" devices="tripinfo_priority.57" vType="tflow" speedFactor="1.29" vaporized=""/>
    <tripinfo id="priority.58" depart="133.00" departLane="" departPos="700.00" departSpeed="29.11" departDelay="-0.40" arrival="167.00" arrivalLane="" arrivalPos="500.00" arrivalSpeed="22.18" duration="34.00" routeLength="800.00" waitSteps="0" timeLoss="6.39" rerouteNo="0" devices="tripinfo_priority.58" vType="tflow" speedFactor="1.05" vaporized=""/>
    <tripinfo id="priority.59" depart="135.00" departLane="" departPos="700.00" departSpeed="26.10" departDelay="-0.70" arrival="169.00" arrivalLane="" arrivalPos="500.00" arrivalSpeed="22.18" duration="34.00" routeLength="800.00" waitSteps="0" timeLoss="2.62" rerouteNo="0" devices="tripinfo_priority.59" vType="tflow" speedFactor="0.94" vaporized=""/>
    <tripinfo id="priority.60" depart="138.00" departLane="" departPos="700.00" departSpeed="32.38" departDelay="0.00" arrival="170.00" arrivalLane="" arrivalPos="500.00" arrivalSpeed="22.18" duration="32.00" routeLength="800.00" waitSteps="0" timeLoss="6.96" rerouteNo="0" devices="tripinfo_priority.60" vType="tflow" speedFactor="1.16" vaporized=""/>
    <tripinfo id="priority.61" depart="140.00" departLane="" departPos="700.00" departSpeed="34.44" departDelay="-0.30" arrival="172.00" arrivalLane="" arrivalPos="500.00" arrivalSpeed="22.18" duration="32.00" routeLength="800.00" waitSteps="0" timeLoss="7.83" rerouteNo="0" devices="tripinfo_priority.61" vType="tflow" speedFactor="1.24" vaporized=""/>
    <tripinfo id="priority.62" depart="142.00" departLane="" departPos="700.00" departSpeed="28.68" departDelay="-0.60" arrival="173.00" arrivalLane="" arrivalPos="500.00" arrivalSpeed="22.18" duration="31.00" routeLength="800.00" waitSteps="0" timeLoss="2.57" rerouteNo="0" devices="tripinfo_priority.62" vType="tflow" speedFactor="1.03" vaporized=""/>
    <tripinfo id="priority.63" depart="144.00" departLane="" departPos="700.00" departSpeed="27.08" departDelay="-0.90" arrival="174.00" arrivalLane="" arrivalPos="500.00" arrivalSpeed="24.91" duration="30.00" routeLength="800.00" waitSteps="0" timeLoss="0.32" rerouteNo="0" devices="tripinfo_priority.63" vType="tflow" speedFactor="0.97" vaporized=""/>
    <tripinfo id="priority.64" depart="147.00" departLane="" departPos="700.00" departSpeed="24.33" departDelay="-0.20" arrival="180.00" arrivalLane="" arrivalPos="500.00" arrivalSpeed="24.33" duration="33.00" routeLength="800.00" waitSteps="0" timeLoss="0.00" rerouteNo="0" devices="tripinfo_priority.64" vType="tflow" speedFactor="0.88" vaporized=""/>
    <tripinfo id="priority.65" depart="149.00" departLane="" departPos="700.00" departSpeed="21.26" departDelay="-0.50" arrival="187.00" arrivalLane="" arrivalPos="500.00" arrivalSpeed="21.26" duration="38.00" routeLength="800.00" waitSteps="0" timeLoss="0.00" rerouteNo="0" devices="tripinfo_priority.65" vType="tflow" speedFactor="0.76" vaporized=""/>
    <tripinfo id="priority.66" depart="151.00" departLane="" departPos="700.00" departSpeed="22.62" departDelay="-0.80" arrival="189.00" arrivalLane="" arrivalPos="500.00" arrivalSpeed="21.26" duration="38.00" routeLength="800.00" waitSteps="0" timeLoss="1.66" rerouteNo="0" devices="tripinfo_priority.66" vType="tflow" speedFactor="0.81" vaporized=""/>
    <tripinfo id="priority.67" depart="154.00" departLane="" departPos="700.00" departSpeed="23.05" departDelay="-0.10" arrival="190.00" arrivalLane="" arrivalPos="500.00" arrivalSpeed="21.26" duration="36.00" routeLength="800.00" waitSteps="0" timeLoss="0.73" rerouteNo="0" devices="tripinfo_priority.67" vType="tflow" speedFactor="0.83" vaporized=""/>
    <tripinfo id="priority.68" depart="156.00" departLane="" departPos="700.00" departSpeed="26.76" departDelay="-0.40" arrival="191.00" arrivalLane="" arrivalPos="500.00" arrivalSpeed="21.26" duration="35.00" routeLength="800.00" waitSteps="0" timeLoss="8.18" rerouteNo="0" devices="tripinfo_priority.68" vType="tflow" speedFactor="1.08" vaporized=""/>
    <tripinfo id="priority.69" depart="158.00" departLane="" departPos="700.00" departSpeed="29.03" departDelay="-0.70" arrival="193.00" arrivalLane="" arrivalPos="500.00" arrivalSpeed="21.26" duration="35.00" routeLength="800.00" waitSteps="0" timeLoss="6.67" rerouteNo="0" devices="tripinfo_priority.69" vType="tflow" speedFactor="1.04" vaporized=""/>
    <tripinfo id="priority.70" depart="161.00" departLane="" departPos="700.00" departSpeed="29.08" departDelay="0.00" arrival="194.00" arrivalLane="" arrivalPos="500.00" arrivalSpeed="21.26" duration="33.00" routeLength="800.00" waitSteps="0" timeLoss="5.12" rerouteNo="0" devices="tripinfo_priority.70" vType="tflow" speedFactor="1.05" vaporized=""/>
    <tripinfo id="priority.71" depart="163.00" departLane="" departPos="700.00" departSpeed="26.30" departDelay="-0.30" arrival="196.00" arrivalLane="" arrivalPos="500.00" arrivalSpeed="21.26" duration="33.00" routeLength="800.00" waitSteps="0" timeLoss="1.60" rerouteNo="0" devices="tripinfo_priority.71" vType="tflow" speedFactor="0.95" vaporized=""/>
    <tripinfo id="priority.72" depart="165.00" departLane="" departPos="700.00" departSpeed="24.47" departDelay="-0.60" arrival="198.00" arrivalLane="" arrivalPos="500.00" arrivalSpeed="24.47" duration="33.00" routeLength="800.00" waitSteps="0" timeLoss="0.00" rerouteNo="0" devices="tripinfo_priority.72" vType="tflow" speedFactor="0.88" vaporized=""/>
    <tripinfo id="priority.73" depart="167.00" departLane="" departPos="700.00" departSpeed="28.69" departDelay="-0.90" arrival="200.00" arrivalLane="" arrivalPos="500.00" arrivalSpeed="24.47" duration="33.00" routeLength="800.00" waitSteps="0" timeLoss="6.20" rerouteNo="0" devices="tripinfo_priority.73" vType="tflow" speedFactor="1.11" vaporized=""/>
    <tripinfo id="priority.74" depart="170.00" departLane="" departPos="700.00" departSpeed="25.30" departDelay="-0.20" arrival="202.00" arrivalLane="" arrivalPos="500.00" arrivalSpeed="25.30" duration="32.00" routeLength="800.00" waitSteps="0" timeLoss="0.00" rerouteNo="0" devices="tripinfo_priority.74" vType="tflow" speedFactor="0.91" vaporized=""/>
    <tripinfo id="priority.75" depart="172.00" departLane="" departPos="700.00" departSpeed="26.96" departDelay="-0.50" arrival="204.00" arrivalLane="" arrivalPos="500.00" arrivalSpeed="25.30" duration="32.00" routeLength="800.00" waitSteps="0" timeLoss="1.34" rerouteNo="0" devices="tripinfo_priority.75" vType="tflow" speedFactor="0.97" vaporized=""/>
    <tripinfo id="priority.76" depart="174.00" departLane="" departPos="700.00" departSpeed="29.60" departDelay="-0.80" arrival="205.00" arrivalLane="" arrivalPos="500.00" arrivalSpeed="25.30" duration="31.00" routeLength="800.00" waitSteps="0" timeLoss="3.39" rerouteNo="0" devices="tripinfo_priority.76" vType="tflow" speedFactor="1.06" vaporized=""/>
    <tripinfo id="priority.77" depart="177.00" departLane="" departPos="700.00" departSpeed="26.80" departDelay="-0.10" arrival="207.00" arrivalLane="" arrivalPos="500.00" arrivalSpeed="26.80" duration="30.00" routeLength="800.00" waitSteps="0" timeLoss="0.00" rerouteNo="0" devices="tripinfo_priority.77" vType="tflow" speedFactor="0.96" vaporized=""/>
    <tripinfo id="priority.78" depart="179.00" departLane="" departPos="700.00" departSpeed="28.21" departDelay="-0.40" arrival="209.00" arrivalLane="" arrivalPos="500.00" arrivalSpeed="26.80" duration="30.00" routeLength="800.00" waitSteps="0" timeLoss="0.90" rerouteNo="0" devices="tripinfo_priority.78" vType="tflow" speedFactor="1.01" vaporized=""/>
    <tripinfo id="priority.79" depart="181.00" departLane="" departPos="700.00" departSpeed="32.64" departDelay="-0.70" arrival="210.00" arrivalLane="" arrivalPos="500.00" arrivalSpeed="26.80" duration="29.00" routeLength="800.00" waitSteps="0" timeLoss="4.14" rerouteNo="0" devices="tripinfo_priority.79" vType="tflow" speedFactor="1.17" vaporized=""/>
    <tripinfo id="priority.80" depart="184.00" departLane="" departPos="700.00" departSpeed="29.72" departDelay="0.00" arrival="212.00" arrivalLane="" arrivalPos="500.00" arrivalSpeed="28.59" duration="28.00" routeLength="800.00" waitSteps="0" timeLoss="0.13" rerouteNo="0" devices="tripinfo_priority.80" vType="tflow" speedFactor="1.07" vaporized=""/>