<?xml version="1.0" encoding="UTF-8"?>

<!-- generated on Mon Feb  3 17:09:17 2020 by Eclipse SUMO Version v1_4_0+0920-e1d7ddb379
This data file and the accompanying materials
are made available under the terms of the Eclipse Public License v2.0
which accompanies this distribution, and is available at
http://www.eclipse.org/legal/epl-v20.html
SPDX-License-Identifier: EPL-2.0
<configuration xmlns:xsi="http://www.w3.org/2001/XMLSchema-instance" xsi:noNamespaceSchemaLocation="http://sumo.dlr.de/xsd/sumoConfiguration.xsd">

    <input>
        <net-file value="net.net.xml"/>
        <route-files value="input_routes.rou.xml"/>
    </input>

    <output>
        <write-license value="true"/>
        <fcd-output value="fcd.xml"/>
    </output>

    <time>
        <end value="40"/>
        <step-length value="0.1"/>
    </time>

    <processing>
        <lateral-resolution value="0.4"/>
        <default.speeddev value="0"/>
    </processing>

    <report>
        <xml-validation value="never"/>
        <no-step-log value="true"/>
    </report>

    <gui_only>
        <tracker-interval value="0.1"/>
    </gui_only>

</configuration>
-->

<fcd-export xmlns:xsi="http://www.w3.org/2001/XMLSchema-instance" xsi:noNamespaceSchemaLocation="http://sumo.dlr.de/xsd/fcd_file.xsd">
    <timestep time="0.00">
        <vehicle id="NW" x="34.68" y="96.56" angle="179.24" type="bike" speed="0.00" pos="59.89" lane="gneE4.18_0" slope="0.00"/>
    </timestep>
    <timestep time="0.10">
        <vehicle id="NW" x="34.67" y="96.55" angle="179.59" type="bike" speed="0.12" pos="59.90" lane="gneE4.18_0" slope="0.00"/>
    </timestep>
    <timestep time="0.20">
        <vehicle id="NW" x="34.65" y="96.52" angle="179.94" type="bike" speed="0.24" pos="59.93" lane="gneE4.18_0" slope="0.00"/>
    </timestep>
    <timestep time="0.30">
        <vehicle id="NW" x="34.62" y="96.49" angle="180.29" type="bike" speed="0.35" pos="59.96" lane="gneE4.18_0" slope="0.00"/>
    </timestep>
    <timestep time="0.40">
        <vehicle id="NW" x="34.58" y="96.44" angle="180.63" type="bike" speed="0.45" pos="60.01" lane="gneE4.18_0" slope="0.00"/>
    </timestep>
    <timestep time="0.50">
        <vehicle id="NW" x="34.53" y="96.39" angle="180.97" type="bike" speed="0.55" pos="60.06" lane="gneE4.18_0" slope="0.00"/>
    </timestep>
    <timestep time="0.60">
        <vehicle id="NW" x="34.47" y="96.32" angle="181.30" type="bike" speed="0.66" pos="60.13" lane="gneE4.18_0" slope="0.00"/>
    </timestep>
    <timestep time="0.70">
        <vehicle id="NW" x="34.40" y="96.24" angle="181.63" type="bike" speed="0.75" pos="60.20" lane="gneE4.18_0" slope="0.00"/>
    </timestep>
    <timestep time="0.80">
        <vehicle id="NW" x="34.32" y="96.16" angle="181.96" type="bike" speed="0.86" pos="60.29" lane="gneE4.18_0" slope="0.00"/>
    </timestep>
    <timestep time="0.90">
        <vehicle id="NW" x="34.25" y="96.06" angle="181.60" type="bike" speed="0.93" pos="60.38" lane="gneE4.18_0" slope="0.00"/>
    </timestep>
    <timestep time="1.00">
        <vehicle id="NW" x="34.19" y="95.96" angle="181.25" type="bike" speed="1.04" pos="60.48" lane="gneE4.18_0" slope="0.00"/>
    </timestep>
    <timestep time="1.10">
        <vehicle id="NW" x="34.15" y="95.84" angle="180.91" type="bike" speed="1.15" pos="60.60" lane="gneE4.18_0" slope="0.00"/>
    </timestep>
    <timestep time="1.20">
        <vehicle id="NW" x="34.11" y="95.72" angle="180.57" type="bike" speed="1.24" pos="60.72" lane="gneE4.18_0" slope="0.00"/>
    </timestep>
    <timestep time="1.30">
        <vehicle id="NW" x="34.08" y="95.59" angle="180.23" type="bike" speed="1.31" pos="60.85" lane="gneE4.18_0" slope="0.00"/>
    </timestep>
    <timestep time="1.40">
        <vehicle id="NW" x="34.05" y="95.45" angle="180.23" type="bike" speed="1.38" pos="0.10" lane=":gneJ5_0_0" slope="0.00"/>
    </timestep>
    <timestep time="1.50">
        <vehicle id="NW" x="34.03" y="95.31" angle="179.89" type="bike" speed="1.44" pos="0.25" lane=":gneJ5_0_0" slope="0.00"/>
    </timestep>
    <timestep time="1.60">
        <vehicle id="NW" x="34.03" y="95.15" angle="179.56" type="bike" speed="1.56" pos="0.40" lane=":gneJ5_0_0" slope="0.00"/>
    </timestep>
    <timestep time="1.70">
        <vehicle id="NW" x="34.03" y="94.98" angle="179.24" type="bike" speed="1.66" pos="0.57" lane=":gneJ5_0_0" slope="0.00"/>
    </timestep>
    <timestep time="1.80">
        <vehicle id="NW" x="34.03" y="94.80" angle="179.38" type="bike" speed="1.77" pos="0.75" lane=":gneJ5_0_0" slope="0.00"/>
    </timestep>
    <timestep time="1.90">
        <vehicle id="NW" x="34.03" y="94.62" angle="179.24" type="bike" speed="1.87" pos="0.93" lane=":gneJ5_0_0" slope="0.00"/>
    </timestep>
    <timestep time="2.00">
        <vehicle id="NE" x="34.68" y="96.56" angle="179.24" type="bike" speed="0.00" pos="59.89" lane="gneE4.18_0" slope="0.00"/>
        <vehicle id="NW" x="34.03" y="94.42" angle="179.24" type="bike" speed="1.98" pos="1.13" lane=":gneJ5_0_0" slope="0.00"/>
    </timestep>
    <timestep time="2.10">
        <vehicle id="NE" x="34.69" y="96.55" angle="178.88" type="bike" speed="0.12" pos="59.90" lane="gneE4.18_0" slope="0.00"/>
        <vehicle id="NW" x="34.03" y="94.22" angle="179.24" type="bike" speed="2.05" pos="1.34" lane=":gneJ5_0_0" slope="0.00"/>
    </timestep>
    <timestep time="2.20">
        <vehicle id="NE" x="34.71" y="96.53" angle="178.53" type="bike" speed="0.23" pos="59.93" lane="gneE4.18_0" slope="0.00"/>
        <vehicle id="NW" x="34.04" y="94.00" angle="179.24" type="bike" speed="2.11" pos="1.55" lane=":gneJ5_0_0" slope="0.00"/>
    </timestep>
    <timestep time="2.30">
        <vehicle id="NE" x="34.74" y="96.49" angle="178.19" type="bike" speed="0.35" pos="59.96" lane="gneE4.18_0" slope="0.00"/>
        <vehicle id="NW" x="34.04" y="93.78" angle="179.24" type="bike" speed="2.20" pos="1.77" lane=":gneJ5_0_0" slope="0.00"/>
    </timestep>
    <timestep time="2.40">
        <vehicle id="NE" x="34.78" y="96.45" angle="177.85" type="bike" speed="0.46" pos="60.01" lane="gneE4.18_0" slope="0.00"/>
        <vehicle id="NW" x="34.04" y="93.56" angle="179.24" type="bike" speed="2.26" pos="1.99" lane=":gneJ5_0_0" slope="0.00"/>
    </timestep>
    <timestep time="2.50">
        <vehicle id="NE" x="34.83" y="96.39" angle="177.51" type="bike" speed="0.55" pos="60.06" lane="gneE4.18_0" slope="0.00"/>
        <vehicle id="NW" x="34.05" y="93.32" angle="179.24" type="bike" speed="2.38" pos="2.23" lane=":gneJ5_0_0" slope="0.00"/>
    </timestep>
    <timestep time="2.60">
        <vehicle id="NE" x="34.89" y="96.33" angle="177.17" type="bike" speed="0.66" pos="60.13" lane="gneE4.18_0" slope="0.00"/>
        <vehicle id="NW" x="34.05" y="93.07" angle="179.24" type="bike" speed="2.47" pos="2.48" lane=":gneJ5_0_0" slope="0.00"/>
    </timestep>
    <timestep time="2.70">
        <vehicle id="NE" x="34.96" y="96.25" angle="176.84" type="bike" speed="0.74" pos="60.20" lane="gneE4.18_0" slope="0.00"/>
        <vehicle id="NW" x="34.05" y="92.82" angle="179.24" type="bike" speed="2.56" pos="2.73" lane=":gneJ5_0_0" slope="0.00"/>
    </timestep>
    <timestep time="2.80">
        <vehicle id="NE" x="35.04" y="96.17" angle="176.52" type="bike" speed="0.86" pos="60.29" lane="gneE4.18_0" slope="0.00"/>
        <vehicle id="NW" x="34.06" y="92.55" angle="179.24" type="bike" speed="2.64" pos="3.00" lane=":gneJ5_0_0" slope="0.00"/>
    </timestep>
    <timestep time="2.90">
        <vehicle id="NE" x="35.11" y="96.07" angle="176.87" type="bike" speed="0.95" pos="60.38" lane="gneE4.18_0" slope="0.00"/>
        <vehicle id="NW" x="34.05" y="92.28" angle="179.53" type="bike" speed="2.72" pos="0.27" lane="gneE4.85_0" slope="0.00"/>
    </timestep>
    <timestep time="3.00">
        <vehicle id="NE" x="35.17" y="95.97" angle="177.22" type="bike" speed="1.05" pos="60.49" lane="gneE4.18_0" slope="0.00"/>
        <vehicle id="NW" x="34.03" y="92.00" angle="179.83" type="bike" speed="2.83" pos="0.55" lane="gneE4.85_0" slope="0.00"/>
    </timestep>
    <timestep time="3.10">
        <vehicle id="NE" x="35.23" y="95.86" angle="177.57" type="bike" speed="1.13" pos="60.60" lane="gneE4.18_0" slope="0.00"/>
        <vehicle id="NW" x="34.01" y="91.71" angle="180.13" type="bike" speed="2.93" pos="0.85" lane="gneE4.85_0" slope="0.00"/>
    </timestep>
    <timestep time="3.20">
        <vehicle id="NE" x="35.27" y="95.74" angle="177.91" type="bike" speed="1.20" pos="60.72" lane="gneE4.18_0" slope="0.00"/>
        <vehicle id="NW" x="33.97" y="91.41" angle="180.43" type="bike" speed="2.99" pos="1.14" lane="gneE4.85_0" slope="0.00"/>
    </timestep>
    <timestep time="3.30">
        <vehicle id="NE" x="35.30" y="95.61" angle="178.24" type="bike" speed="1.31" pos="60.85" lane="gneE4.18_0" slope="0.00"/>
        <vehicle id="NW" x="33.93" y="91.10" angle="180.73" type="bike" speed="3.07" pos="1.45" lane="gneE4.85_0" slope="0.00"/>
    </timestep>
    <timestep time="3.40">
        <vehicle id="NE" x="35.33" y="95.47" angle="178.25" type="bike" speed="1.38" pos="0.10" lane=":gneJ5_0_0" slope="0.00"/>
        <vehicle id="NW" x="33.87" y="90.78" angle="181.02" type="bike" speed="3.13" pos="1.76" lane="gneE4.85_0" slope="0.00"/>
    </timestep>
    <timestep time="3.50">
        <vehicle id="NE" x="35.35" y="95.32" angle="178.58" type="bike" speed="1.50" pos="0.25" lane=":gneJ5_0_0" slope="0.00"/>
        <vehicle id="NW" x="33.80" y="90.46" angle="181.31" type="bike" speed="3.23" pos="2.09" lane="gneE4.85_0" slope="0.00"/>
    </timestep>
    <timestep time="3.60">
        <vehicle id="NE" x="35.37" y="95.16" angle="178.91" type="bike" speed="1.60" pos="0.41" lane=":gneJ5_0_0" slope="0.00"/>
        <vehicle id="NW" x="33.73" y="90.13" angle="181.59" type="bike" speed="3.33" pos="2.42" lane="gneE4.85_0" slope="0.00"/>
    </timestep>
    <timestep time="3.70">
        <vehicle id="NE" x="35.37" y="94.99" angle="179.24" type="bike" speed="1.68" pos="0.58" lane=":gneJ5_0_0" slope="0.00"/>
        <vehicle id="NW" x="33.64" y="89.79" angle="181.88" type="bike" speed="3.39" pos="2.76" lane="gneE4.85_0" slope="0.00"/>
    </timestep>
    <timestep time="3.80">
        <vehicle id="NE" x="35.37" y="94.82" angle="179.09" type="bike" speed="1.76" pos="0.75" lane=":gneJ5_0_0" slope="0.00"/>
        <vehicle id="NW" x="33.55" y="89.44" angle="182.16" type="bike" speed="3.47" pos="3.11" lane="gneE4.85_0" slope="0.00"/>
    </timestep>
    <timestep time="3.90">
        <vehicle id="NE" x="35.38" y="94.63" angle="179.24" type="bike" speed="1.87" pos="0.94" lane=":gneJ5_0_0" slope="0.00"/>
        <vehicle id="NW" x="33.45" y="89.08" angle="182.15" type="bike" speed="3.57" pos="3.46" lane="gneE4.85_0" slope="0.00"/>
    </timestep>
    <timestep time="4.00">
        <vehicle id="NE" x="35.38" y="94.43" angle="179.24" type="bike" speed="1.97" pos="1.14" lane=":gneJ5_0_0" slope="0.00"/>
        <vehicle id="NS" x="34.68" y="96.56" angle="179.24" type="bike" speed="0.00" pos="59.89" lane="gneE4.18_0" slope="0.00"/>
        <vehicle id="NW" x="33.36" y="88.72" angle="182.14" type="bike" speed="3.63" pos="3.82" lane="gneE4.85_0" slope="0.00"/>
    </timestep>
    <timestep time="4.10">
        <vehicle id="NE" x="35.38" y="94.23" angle="179.24" type="bike" speed="2.05" pos="1.34" lane=":gneJ5_0_0" slope="0.00"/>
        <vehicle id="NS" x="34.68" y="96.55" angle="179.24" type="bike" speed="0.11" pos="59.90" lane="gneE4.18_0" slope="0.00"/>
        <vehicle id="NW" x="33.26" y="88.34" angle="182.13" type="bike" speed="3.70" pos="4.19" lane="gneE4.85_0" slope="0.00"/>
    </timestep>
    <timestep time="4.20">
        <vehicle id="NE" x="35.39" y="94.01" angle="179.24" type="bike" speed="2.15" pos="1.56" lane=":gneJ5_0_0" slope="0.00"/>
        <vehicle id="NS" x="34.68" y="96.53" angle="179.24" type="bike" speed="0.23" pos="59.92" lane="gneE4.18_0" slope="0.00"/>
        <vehicle id="NW" x="33.17" y="87.97" angle="182.12" type="bike" speed="3.77" pos="4.57" lane="gneE4.85_0" slope="0.00"/>
    </timestep>
    <timestep time="4.30">
        <vehicle id="NE" x="35.39" y="93.79" angle="179.24" type="bike" speed="2.26" pos="1.78" lane=":gneJ5_0_0" slope="0.00"/>
        <vehicle id="NS" x="34.68" y="96.49" angle="179.24" type="bike" speed="0.34" pos="59.96" lane="gneE4.18_0" slope="0.00"/>
        <vehicle id="NW" x="33.07" y="87.58" angle="182.11" type="bike" speed="3.85" pos="4.96" lane="gneE4.85_0" slope="0.00"/>
    </timestep>
    <timestep time="4.40">
        <vehicle id="NE" x="35.39" y="93.55" angle="179.24" type="bike" speed="2.33" pos="2.01" lane=":gneJ5_0_0" slope="0.00"/>
        <vehicle id="NS" x="34.68" y="96.45" angle="179.24" type="bike" speed="0.44" pos="60.00" lane="gneE4.18_0" slope="0.00"/>
        <vehicle id="NW" x="32.98" y="87.18" angle="182.10" type="bike" speed="3.94" pos="5.35" lane="gneE4.85_0" slope="0.00"/>
    </timestep>
    <timestep time="4.50">
        <vehicle id="NE" x="35.39" y="93.31" angle="179.24" type="bike" speed="2.45" pos="2.26" lane=":gneJ5_0_0" slope="0.00"/>
        <vehicle id="NS" x="34.68" y="96.39" angle="179.24" type="bike" speed="0.56" pos="60.06" lane="gneE4.18_0" slope="0.00"/>
        <vehicle id="NW" x="32.88" y="86.81" angle="182.13" type="bike" speed="3.72" pos="5.72" lane="gneE4.85_0" slope="0.00"/>
    </timestep>
    <timestep time="4.60">
        <vehicle id="NE" x="35.40" y="93.06" angle="179.24" type="bike" speed="2.55" pos="2.51" lane=":gneJ5_0_0" slope="0.00"/>
        <vehicle id="NS" x="34.68" y="96.33" angle="179.24" type="bike" speed="0.66" pos="60.12" lane="gneE4.18_0" slope="0.00"/>
        <vehicle id="NW" x="32.79" y="86.47" angle="182.17" type="bike" speed="3.42" pos="6.06" lane="gneE4.85_0" slope="0.00"/>
    </timestep>
    <timestep time="4.70">
        <vehicle id="NE" x="35.40" y="92.79" angle="179.24" type="bike" speed="2.64" pos="2.78" lane=":gneJ5_0_0" slope="0.00"/>
        <vehicle id="NS" x="34.68" y="96.25" angle="179.24" type="bike" speed="0.76" pos="60.20" lane="gneE4.18_0" slope="0.00"/>
        <vehicle id="NW" x="32.69" y="86.15" angle="182.22" type="bike" speed="3.12" pos="6.38" lane="gneE4.85_0" slope="0.00"/>
    </timestep>
    <timestep time="4.80">
        <vehicle id="NE" x="35.40" y="92.52" angle="179.22" type="bike" speed="2.73" pos="0.05" lane="gneE4.85_0" slope="0.00"/>
        <vehicle id="NS" x="34.68" y="96.17" angle="179.24" type="bike" speed="0.84" pos="60.28" lane="gneE4.18_0" slope="0.00"/>
        <vehicle id="NW" x="32.60" y="85.87" angle="182.27" type="bike" speed="2.82" pos="6.66" lane="gneE4.85_0" slope="0.00"/>
    </timestep>
    <timestep time="4.90">
        <vehicle id="NE" x="35.41" y="92.24" angle="242.71" type="bike" speed="2.80" pos="0.33" lane="gneE4.85_0" slope="0.00"/>
        <vehicle id="NS" x="34.68" y="96.07" angle="179.24" type="bike" speed="0.94" pos="60.38" lane="gneE4.18_0" slope="0.00"/>
        <vehicle id="NW" x="32.50" y="85.61" angle="182.31" type="bike" speed="2.52" pos="6.91" lane="gneE4.85_0" slope="0.00"/>
    </timestep>
    <timestep time="5.00">
        <vehicle id="NE" x="35.41" y="91.95" angle="242.71" type="bike" speed="2.88" pos="0.62" lane="gneE4.85_0" slope="0.00"/>
        <vehicle id="NS" x="34.68" y="95.97" angle="179.24" type="bike" speed="1.03" pos="60.48" lane="gneE4.18_0" slope="0.00"/>
        <vehicle id="NW" x="32.40" y="85.39" angle="182.37" type="bike" speed="2.22" pos="7.13" lane="gneE4.85_0" slope="0.00"/>
    </timestep>
    <timestep time="5.10">
        <vehicle id="NE" x="35.42" y="91.65" angle="242.70" type="bike" speed="2.99" pos="0.92" lane="gneE4.85_0" slope="0.00"/>
        <vehicle id="NS" x="34.69" y="95.86" angle="179.24" type="bike" speed="1.12" pos="60.59" lane="gneE4.18_0" slope="0.00"/>
        <vehicle id="NW" x="32.31" y="85.20" angle="182.42" type="bike" speed="1.92" pos="7.33" lane="gneE4.85_0" slope="0.00"/>
    </timestep>
    <timestep time="5.20">
        <vehicle id="NE" x="35.42" y="91.35" angle="242.70" type="bike" speed="3.06" pos="1.22" lane="gneE4.85_0" slope="0.00"/>
        <vehicle id="NS" x="34.69" y="95.74" angle="179.24" type="bike" speed="1.21" pos="60.71" lane="gneE4.18_0" slope="0.00"/>
        <vehicle id="NW" x="32.21" y="85.03" angle="182.47" type="bike" speed="1.62" pos="7.49" lane="gneE4.85_0" slope="0.00"/>
    </timestep>
    <timestep time="5.30">
        <vehicle id="NE" x="35.43" y="91.03" angle="242.69" type="bike" speed="3.15" pos="1.54" lane="gneE4.85_0" slope="0.00"/>
        <vehicle id="NS" x="34.69" y="95.61" angle="179.24" type="bike" speed="1.30" pos="60.84" lane="gneE4.18_0" slope="0.00"/>
        <vehicle id="NW" x="32.11" y="84.90" angle="182.53" type="bike" speed="1.32" pos="7.62" lane="gneE4.85_0" slope="0.00"/>
    </timestep>
    <timestep time="5.40">
        <vehicle id="NE" x="35.43" y="90.71" angle="179.22" type="bike" speed="3.23" pos="1.86" lane="gneE4.85_0" slope="0.00"/>
        <vehicle id="NS" x="34.69" y="95.47" angle="179.24" type="bike" speed="1.38" pos="0.09" lane=":gneJ5_0_0" slope="0.00"/>
        <vehicle id="NW" x="32.01" y="84.79" angle="182.59" type="bike" speed="1.02" pos="7.72" lane="gneE4.85_0" slope="0.00"/>
    </timestep>
    <timestep time="5.50">
        <vehicle id="NE" x="35.43" y="90.38" angle="179.22" type="bike" speed="3.31" pos="2.19" lane="gneE4.85_0" slope="0.00"/>
        <vehicle id="NS" x="34.69" y="95.32" angle="179.24" type="bike" speed="1.47" pos="0.24" lane=":gneJ5_0_0" slope="0.00"/>
        <vehicle id="NW" x="31.91" y="84.72" angle="182.65" type="bike" speed="0.72" pos="7.79" lane="gneE4.85_0" slope="0.00"/>
    </timestep>
    <timestep time="5.60">
        <vehicle id="NE" x="35.44" y="90.04" angle="179.22" type="bike" speed="3.40" pos="2.53" lane="gneE4.85_0" slope="0.00"/>
        <vehicle id="NS" x="34.70" y="95.16" angle="179.24" type="bike" speed="1.59" pos="0.40" lane=":gneJ5_0_0" slope="0.00"/>
        <vehicle id="NW" x="31.81" y="84.68" angle="182.71" type="bike" speed="0.42" pos="7.84" lane="gneE4.85_0" slope="0.00"/>
    </timestep>
    <timestep time="5.70">
        <vehicle id="NE" x="35.44" y="89.69" angle="179.22" type="bike" speed="3.51" pos="2.88" lane="gneE4.85_0" slope="0.00"/>
        <vehicle id="NS" x="34.70" y="95.00" angle="179.24" type="bike" speed="1.67" pos="0.56" lane=":gneJ5_0_0" slope="0.00"/>
        <vehicle id="NW" x="31.71" y="84.66" angle="182.77" type="bike" speed="0.13" pos="7.85" lane="gneE4.85_0" slope="0.00"/>
    </timestep>
    <timestep time="5.80">
        <vehicle id="NE" x="35.45" y="89.33" angle="179.22" type="bike" speed="3.57" pos="3.24" lane="gneE4.85_0" slope="0.00"/>
        <vehicle id="NS" x="34.70" y="94.82" angle="179.24" type="bike" speed="1.78" pos="0.74" lane=":gneJ5_0_0" slope="0.00"/>
        <vehicle id="NW" x="31.61" y="84.66" angle="182.80" type="bike" speed="0.00" pos="7.85" lane="gneE4.85_0" slope="0.00"/>
    </timestep>
    <timestep time="5.90">
        <vehicle id="NE" x="35.45" y="88.96" angle="179.22" type="bike" speed="3.67" pos="3.61" lane="gneE4.85_0" slope="0.00"/>
        <vehicle id="NS" x="34.70" y="94.63" angle="179.24" type="bike" speed="1.85" pos="0.93" lane=":gneJ5_0_0" slope="0.00"/>
        <vehicle id="NW" x="31.51" y="84.66" angle="182.80" type="bike" speed="0.00" pos="7.85" lane="gneE4.85_0" slope="0.00"/>
    </timestep>
    <timestep time="6.00">
        <vehicle id="NE" x="35.46" y="88.58" angle="179.22" type="bike" speed="3.76" pos="3.98" lane="gneE4.85_0" slope="0.00"/>
        <vehicle id="NS" x="34.70" y="94.44" angle="179.24" type="bike" speed="1.96" pos="1.12" lane=":gneJ5_0_0" slope="0.00"/>
        <vehicle id="NW" x="31.41" y="84.66" angle="182.80" type="bike" speed="0.00" pos="7.85" lane="gneE4.85_0" slope="0.00"/>
    </timestep>
    <timestep time="6.10">
        <vehicle id="NE" x="35.46" y="88.20" angle="179.22" type="bike" speed="3.84" pos="4.37" lane="gneE4.85_0" slope="0.00"/>
        <vehicle id="NS" x="34.71" y="94.23" angle="179.24" type="bike" speed="2.05" pos="1.33" lane=":gneJ5_0_0" slope="0.00"/>
        <vehicle id="NW" x="31.31" y="84.66" angle="182.80" type="bike" speed="0.00" pos="7.85" lane="gneE4.85_0" slope="0.00"/>
    </timestep>
    <timestep time="6.20">
        <vehicle id="NE" x="35.47" y="87.81" angle="179.22" type="bike" speed="3.93" pos="4.76" lane="gneE4.85_0" slope="0.00"/>
        <vehicle id="NS" x="34.71" y="94.02" angle="179.24" type="bike" speed="2.13" pos="1.54" lane=":gneJ5_0_0" slope="0.00"/>
        <vehicle id="NW" x="31.21" y="84.66" angle="182.80" type="bike" speed="0.00" pos="7.85" lane="gneE4.85_0" slope="0.00"/>
    </timestep>
    <timestep time="6.30">
        <vehicle id="NE" x="35.47" y="87.40" angle="179.22" type="bike" speed="4.04" pos="5.16" lane="gneE4.85_0" slope="0.00"/>
        <vehicle id="NS" x="34.71" y="93.80" angle="179.24" type="bike" speed="2.19" pos="1.76" lane=":gneJ5_0_0" slope="0.00"/>
        <vehicle id="NW" x="31.11" y="84.66" angle="182.80" type="bike" speed="0.00" pos="7.85" lane="gneE4.85_0" slope="0.00"/>
    </timestep>
    <timestep time="6.40">
        <vehicle id="NE" x="35.48" y="87.02" angle="179.22" type="bike" speed="3.81" pos="5.55" lane="gneE4.85_0" slope="0.00"/>
        <vehicle id="NS" x="34.72" y="93.57" angle="179.24" type="bike" speed="2.30" pos="1.99" lane=":gneJ5_0_0" slope="0.00"/>
        <vehicle id="NW" x="31.01" y="84.65" angle="182.80" type="bike" speed="0.00" pos="7.85" lane="gneE4.85_0" slope="0.00"/>
    </timestep>
    <timestep time="6.50">
        <vehicle id="NE" x="35.48" y="86.67" angle="179.22" type="bike" speed="3.52" pos="5.90" lane="gneE4.85_0" slope="0.00"/>
        <vehicle id="NS" x="34.72" y="93.33" angle="179.24" type="bike" speed="2.39" pos="2.23" lane=":gneJ5_0_0" slope="0.00"/>
        <vehicle id="NW" x="30.91" y="84.65" angle="182.80" type="bike" speed="0.00" pos="7.85" lane="gneE4.85_0" slope="0.00"/>
    </timestep>
    <timestep time="6.60">
        <vehicle id="NE" x="35.49" y="86.34" angle="179.22" type="bike" speed="3.24" pos="6.22" lane="gneE4.85_0" slope="0.00"/>
        <vehicle id="NS" x="34.72" y="93.08" angle="179.24" type="bike" speed="2.50" pos="2.48" lane=":gneJ5_0_0" slope="0.00"/>
        <vehicle id="NW" x="30.81" y="84.65" angle="182.80" type="bike" speed="0.00" pos="7.85" lane="gneE4.85_0" slope="0.00"/>
    </timestep>
    <timestep time="6.70">
        <vehicle id="NE" x="35.49" y="86.05" angle="179.22" type="bike" speed="2.94" pos="6.52" lane="gneE4.85_0" slope="0.00"/>
        <vehicle id="NS" x="34.73" y="92.82" angle="179.24" type="bike" speed="2.61" pos="2.74" lane=":gneJ5_0_0" slope="0.00"/>
        <vehicle id="NW" x="30.71" y="84.65" angle="182.80" type="bike" speed="0.00" pos="7.85" lane="gneE4.85_0" slope="0.00"/>
    </timestep>
    <timestep time="6.80">
        <vehicle id="NE" x="35.50" y="85.78" angle="179.22" type="bike" speed="2.67" pos="6.78" lane="gneE4.85_0" slope="0.00"/>
        <vehicle id="NS" x="34.73" y="92.55" angle="179.24" type="bike" speed="2.73" pos="0.01" lane="gneE4.85_0" slope="0.00"/>
        <vehicle id="NW" x="30.61" y="84.65" angle="182.80" type="bike" speed="0.00" pos="7.85" lane="gneE4.85_0" slope="0.00"/>
    </timestep>
    <timestep time="6.90">
        <vehicle id="NE" x="35.50" y="85.55" angle="179.22" type="bike" speed="2.37" pos="7.02" lane="gneE4.85_0" slope="0.00"/>
        <vehicle id="NS" x="34.73" y="92.27" angle="179.23" type="bike" speed="2.83" pos="0.29" lane="gneE4.85_0" slope="0.00"/>
        <vehicle id="NW" x="30.51" y="84.65" angle="182.80" type="bike" speed="0.00" pos="7.85" lane="gneE4.85_0" slope="0.00"/>
    </timestep>
    <timestep time="7.00">
        <vehicle id="NE" x="35.50" y="85.34" angle="179.22" type="bike" speed="2.07" pos="7.23" lane="gneE4.85_0" slope="0.00"/>
        <vehicle id="NS" x="34.74" y="91.98" angle="179.23" type="bike" speed="2.93" pos="0.59" lane="gneE4.85_0" slope="0.00"/>
        <vehicle id="NW" x="30.41" y="84.65" angle="182.80" type="bike" speed="0.00" pos="7.85" lane="gneE4.85_0" slope="0.00"/>
    </timestep>
    <timestep time="7.10">
        <vehicle id="NE" x="35.50" y="85.16" angle="179.22" type="bike" speed="1.77" pos="7.40" lane="gneE4.85_0" slope="0.00"/>
        <vehicle id="NS" x="34.74" y="91.67" angle="179.23" type="bike" speed="3.04" pos="0.89" lane="gneE4.85_0" slope="0.00"/>
        <vehicle id="NW" x="30.31" y="84.64" angle="182.80" type="bike" speed="0.00" pos="7.85" lane="gneE4.85_0" slope="0.00"/>
    </timestep>
    <timestep time="7.20">
        <vehicle id="NE" x="35.51" y="85.01" angle="179.22" type="bike" speed="1.49" pos="7.55" lane="gneE4.85_0" slope="0.00"/>
        <vehicle id="NS" x="34.75" y="91.36" angle="179.23" type="bike" speed="3.13" pos="1.20" lane="gneE4.85_0" slope="0.00"/>
        <vehicle id="NW" x="30.21" y="84.64" angle="182.80" type="bike" speed="0.00" pos="7.85" lane="gneE4.85_0" slope="0.00"/>
    </timestep>
    <timestep time="7.30">
        <vehicle id="NE" x="35.51" y="84.89" angle="179.22" type="bike" speed="1.19" pos="7.67" lane="gneE4.85_0" slope="0.00"/>
        <vehicle id="NS" x="34.75" y="91.05" angle="179.22" type="bike" speed="3.04" pos="1.51" lane="gneE4.85_0" slope="0.00"/>
        <vehicle id="NW" x="30.11" y="84.64" angle="182.80" type="bike" speed="0.00" pos="7.85" lane="gneE4.85_0" slope="0.00"/>
    </timestep>
    <timestep time="7.40">
        <vehicle id="NE" x="35.51" y="84.80" angle="179.22" type="bike" speed="0.89" pos="7.76" lane="gneE4.85_0" slope="0.00"/>
        <vehicle id="NS" x="34.75" y="90.76" angle="179.22" type="bike" speed="2.90" pos="1.80" lane="gneE4.85_0" slope="0.00"/>
        <vehicle id="NW" x="30.01" y="84.64" angle="182.80" type="bike" speed="0.00" pos="7.85" lane="gneE4.85_0" slope="0.00"/>
    </timestep>
    <timestep time="7.50">
        <vehicle id="NE" x="35.51" y="84.75" angle="179.22" type="bike" speed="0.59" pos="7.82" lane="gneE4.85_0" slope="0.00"/>
        <vehicle id="NS" x="34.76" y="90.49" angle="179.22" type="bike" speed="2.77" pos="2.08" lane="gneE4.85_0" slope="0.00"/>
        <vehicle id="NW" x="29.91" y="84.64" angle="182.80" type="bike" speed="0.00" pos="7.85" lane="gneE4.85_0" slope="0.00"/>
    </timestep>
    <timestep time="7.60">
        <vehicle id="NE" x="35.51" y="84.72" angle="179.22" type="bike" speed="0.29" pos="7.85" lane="gneE4.85_0" slope="0.00"/>
        <vehicle id="NS" x="34.76" y="90.23" angle="179.22" type="bike" speed="2.59" pos="2.33" lane="gneE4.85_0" slope="0.00"/>
        <vehicle id="NW" x="29.81" y="84.64" angle="182.80" type="bike" speed="0.00" pos="7.85" lane="gneE4.85_0" slope="0.00"/>
    </timestep>
    <timestep time="7.70">
        <vehicle id="NE" x="35.51" y="84.71" angle="179.22" type="bike" speed="0.02" pos="7.85" lane="gneE4.85_0" slope="0.00"/>
        <vehicle id="NS" x="34.76" y="89.98" angle="179.22" type="bike" speed="2.48" pos="2.58" lane="gneE4.85_0" slope="0.00"/>
        <vehicle id="NW" x="29.71" y="84.64" angle="182.80" type="bike" speed="0.00" pos="7.85" lane="gneE4.85_0" slope="0.00"/>
    </timestep>
    <timestep time="7.80">
        <vehicle id="NE" x="35.51" y="84.71" angle="179.22" type="bike" speed="0.00" pos="7.85" lane="gneE4.85_0" slope="0.00"/>
        <vehicle id="NS" x="34.77" y="89.75" angle="179.22" type="bike" speed="2.32" pos="2.81" lane="gneE4.85_0" slope="0.00"/>
        <vehicle id="NW" x="29.61" y="84.63" angle="182.80" type="bike" speed="0.00" pos="7.85" lane="gneE4.85_0" slope="0.00"/>
    </timestep>
    <timestep time="7.90">
        <vehicle id="NE" x="35.51" y="84.71" angle="179.22" type="bike" speed="0.00" pos="7.85" lane="gneE4.85_0" slope="0.00"/>
        <vehicle id="NS" x="34.77" y="89.53" angle="179.22" type="bike" speed="2.18" pos="3.03" lane="gneE4.85_0" slope="0.00"/>
        <vehicle id="NW" x="29.51" y="84.63" angle="182.80" type="bike" speed="0.00" pos="7.85" lane="gneE4.85_0" slope="0.00"/>
    </timestep>
    <timestep time="8.00">
        <vehicle id="NE" x="35.51" y="84.71" angle="179.22" type="bike" speed="0.00" pos="7.85" lane="gneE4.85_0" slope="0.00"/>
        <vehicle id="NS" x="34.77" y="89.32" angle="179.22" type="bike" speed="2.05" pos="3.24" lane="gneE4.85_0" slope="0.00"/>
        <vehicle id="NW" x="29.41" y="84.63" angle="182.80" type="bike" speed="0.00" pos="7.85" lane="gneE4.85_0" slope="0.00"/>
    </timestep>
    <timestep time="8.10">
        <vehicle id="NE" x="35.51" y="84.71" angle="179.22" type="bike" speed="0.00" pos="7.85" lane="gneE4.85_0" slope="0.00"/>
        <vehicle id="NS" x="34.78" y="89.13" angle="179.22" type="bike" speed="1.94" pos="3.43" lane="gneE4.85_0" slope="0.00"/>
        <vehicle id="NW" x="29.31" y="84.63" angle="182.80" type="bike" speed="0.00" pos="7.85" lane="gneE4.85_0" slope="0.00"/>
    </timestep>
    <timestep time="8.20">
        <vehicle id="NE" x="35.51" y="84.71" angle="179.22" type="bike" speed="0.00" pos="7.85" lane="gneE4.85_0" slope="0.00"/>
        <vehicle id="NS" x="34.78" y="88.95" angle="179.22" type="bike" speed="1.81" pos="3.61" lane="gneE4.85_0" slope="0.00"/>
        <vehicle id="NW" x="29.21" y="84.63" angle="182.80" type="bike" speed="0.00" pos="7.85" lane="gneE4.85_0" slope="0.00"/>
    </timestep>
    <timestep time="8.30">
        <vehicle id="NE" x="35.51" y="84.71" angle="179.22" type="bike" speed="0.00" pos="7.85" lane="gneE4.85_0" slope="0.00"/>
        <vehicle id="NS" x="34.78" y="88.78" angle="179.22" type="bike" speed="1.67" pos="3.78" lane="gneE4.85_0" slope="0.00"/>
        <vehicle id="NW" x="29.11" y="84.63" angle="182.80" type="bike" speed="0.00" pos="7.85" lane="gneE4.85_0" slope="0.00"/>
    </timestep>
    <timestep time="8.40">
        <vehicle id="NE" x="35.51" y="84.71" angle="179.22" type="bike" speed="0.00" pos="7.85" lane="gneE4.85_0" slope="0.00"/>
        <vehicle id="NS" x="34.78" y="88.62" angle="179.22" type="bike" speed="1.57" pos="3.94" lane="gneE4.85_0" slope="0.00"/>