<?xml version="1.0" encoding="UTF-8"?>

<!-- generated on 2022-06-21 15:11:21 by Eclipse SUMO sumo Version v1_13_0+1078-7422078
This data file and the accompanying materials
are made available under the terms of the Eclipse Public License v2.0
which accompanies this distribution, and is available at
http://www.eclipse.org/legal/epl-v20.html
This file may also be made available under the following Secondary
Licenses when the conditions for such availability set forth in the Eclipse
Public License 2.0 are satisfied: GNU General Public License, version 2
or later which is available at
https://www.gnu.org/licenses/old-licenses/gpl-2.0-standalone.html
SPDX-License-Identifier: EPL-2.0 OR GPL-2.0-or-later
<configuration xmlns:xsi="http://www.w3.org/2001/XMLSchema-instance" xsi:noNamespaceSchemaLocation="http://sumo.dlr.de/xsd/sumoConfiguration.xsd">

    <input>
        <net-file value="net.net.xml"/>
        <additional-files value="input_routes.rou.xml"/>
    </input>

    <output>
        <write-license value="true"/>
        <fcd-output value="fcd.xml"/>
    </output>

    <time>
        <end value="10"/>
    </time>

    <processing>
        <default.speeddev value="0"/>
    </processing>

    <report>
        <xml-validation value="never"/>
        <duration-log.disable value="true"/>
        <no-step-log value="true"/>
    </report>

    <fcd_device>
        <device.fcd.begin value="5"/>
    </fcd_device>

</configuration>
-->

<fcd-export xmlns:xsi="http://www.w3.org/2001/XMLSchema-instance" xsi:noNamespaceSchemaLocation="http://sumo.dlr.de/xsd/fcd_file.xsd">
    <timestep time="5.00">
        <vehicle id="0" x="1445.25" y="401.65" angle="270.00" type="t1" speed="10.00" pos="150.00" lane="4/1to3/1_0" slope="0.00"/>
        <vehicle id="1" x="1495.25" y="401.65" angle="270.00" type="t2" speed="9.00" pos="100.00" lane="4/1to3/1_0" slope="0.00"/>
    </timestep>
    <timestep time="6.00">
        <vehicle id="0" x="1435.25" y="401.65" angle="270.00" type="t1" speed="10.00" pos="160.00" lane="4/1to3/1_0" slope="0.00"/>
        <vehicle id="1" x="1486.25" y="401.65" angle="270.00" type="t2" speed="9.00" pos="109.00" lane="4/1to3/1_0" slope="0.00"/>
    </timestep>
    <timestep time="7.00">
        <vehicle id="0" x="1425.25" y="401.65" angle="270.00" type="t1" speed="10.00" pos="170.00" lane="4/1to3/1_0" slope="0.00"/>
        <vehicle id="1" x="1477.25" y="401.65" angle="270.00" type="t2" speed="9.00" pos="118.00" lane="4/1to3/1_0" slope="0.00"/>
    </timestep>
    <timestep time="8.00">
        <vehicle id="0" x="1415.25" y="401.65" angle="270.00" type="t1" speed="10.00" pos="180.00" lane="4/1to3/1_0" slope="0.00"/>
        <vehicle id="1" x="1468.25" y="401.65" angle="270.00" type="t2" speed="9.00" pos="127.00" lane="4/1to3/1_0" slope="0.00"/>
    </timestep>
    <timestep time="9.00">
        <vehicle id="0" x="1405.25" y="401.65" angle="270.00" type="t1" speed="10.00" pos="190.00" lane="4/1to3/1_0" slope="0.00"/>
        <vehicle id="1" x="1459.25" y="401.65" angle="270.00" type="t2" speed="9.00" pos="136.00" lane="4/1to3/1_0" slope="0.00"/>
    </timestep>
</fcd-export>
