<?xml version="1.0" encoding="UTF-8"?>

<!-- generated on Tue Sep 11 17:52:53 2018 by Eclipse SUMO Version v1_0_0+0121-aa16545
This data file and the accompanying materials
are made available under the terms of the Eclipse Public License v2.0
which accompanies this distribution, and is available at
http://www.eclipse.org/legal/epl-v20.html
SPDX-License-Identifier: EPL-2.0
<configuration xmlns:xsi="http://www.w3.org/2001/XMLSchema-instance" xsi:noNamespaceSchemaLocation="http://sumo.dlr.de/xsd/sumoConfiguration.xsd">

    <input>
        <net-file value="net.net.xml"/>
        <route-files value="input_routes.rou.xml"/>
    </input>

    <output>
        <write-license value="true"/>
        <fcd-output value="fcd.xml"/>
        <tripinfo-output value="tripinfos.xml"/>
    </output>

    <time>
        <step-length value="0.2"/>
    </time>

    <processing>
        <default.speeddev value="0"/>
    </processing>

    <report>
        <xml-validation value="never"/>
        <no-step-log value="true"/>
    </report>

    <gui_only>
        <tracker-interval value="0.2"/>
    </gui_only>

</configuration>
-->

<fcd-export xmlns:xsi="http://www.w3.org/2001/XMLSchema-instance" xsi:noNamespaceSchemaLocation="http://sumo.dlr.de/xsd/fcd_file.xsd">
    <timestep time="0.00">
        <vehicle id="overtaking" x="0.00" y="-1.65" angle="90.00" type="DEFAULT_VEHTYPE" speed="0.00" pos="0.00" lane="VODUGES_beg_0" slope="0.00"/>
        <vehicle id="stopped" x="40.00" y="-1.65" angle="90.00" type="DEFAULT_VEHTYPE" speed="0.00" pos="40.00" lane="VODUGES_beg_0" slope="0.00"/>
    </timestep>
    <timestep time="0.20">
        <vehicle id="overtaking" x="0.10" y="-1.65" angle="90.00" type="DEFAULT_VEHTYPE" speed="0.48" pos="0.10" lane="VODUGES_beg_0" slope="0.00"/>
        <vehicle id="stopped" x="40.09" y="-1.65" angle="90.00" type="DEFAULT_VEHTYPE" speed="0.47" pos="40.09" lane="VODUGES_beg_0" slope="0.00"/>
    </timestep>
    <timestep time="0.40">
        <vehicle id="overtaking" x="0.29" y="-1.65" angle="90.00" type="DEFAULT_VEHTYPE" speed="0.95" pos="0.29" lane="VODUGES_beg_0" slope="0.00"/>
        <vehicle id="stopped" x="40.29" y="-1.65" angle="90.00" type="DEFAULT_VEHTYPE" speed="0.99" pos="40.29" lane="VODUGES_beg_0" slope="0.00"/>
    </timestep>
    <timestep time="0.60">
        <vehicle id="overtaking" x="0.58" y="-1.65" angle="90.00" type="DEFAULT_VEHTYPE" speed="1.47" pos="0.58" lane="VODUGES_beg_0" slope="0.00"/>
        <vehicle id="stopped" x="40.58" y="-1.65" angle="90.00" type="DEFAULT_VEHTYPE" speed="1.42" pos="40.58" lane="VODUGES_beg_0" slope="0.00"/>
    </timestep>
    <timestep time="0.80">
        <vehicle id="overtaking" x="0.97" y="-1.65" angle="90.00" type="DEFAULT_VEHTYPE" speed="1.94" pos="0.97" lane="VODUGES_beg_0" slope="0.00"/>
        <vehicle id="stopped" x="40.94" y="-1.65" angle="90.00" type="DEFAULT_VEHTYPE" speed="1.80" pos="40.94" lane="VODUGES_beg_0" slope="0.00"/>
    </timestep>
    <timestep time="1.00">
        <vehicle id="overtaking" x="1.42" y="-1.65" angle="90.00" type="DEFAULT_VEHTYPE" speed="2.27" pos="1.42" lane="VODUGES_beg_0" slope="0.00"/>
        <vehicle id="stopped" x="41.37" y="-1.65" angle="90.00" type="DEFAULT_VEHTYPE" speed="2.19" pos="41.37" lane="VODUGES_beg_0" slope="0.00"/>
    </timestep>
    <timestep time="1.20">
        <vehicle id="overtaking" x="1.95" y="-1.65" angle="90.00" type="DEFAULT_VEHTYPE" speed="2.62" pos="1.95" lane="VODUGES_beg_0" slope="0.00"/>
        <vehicle id="stopped" x="41.92" y="-1.65" angle="90.00" type="DEFAULT_VEHTYPE" speed="2.71" pos="41.92" lane="VODUGES_beg_0" slope="0.00"/>
    </timestep>
    <timestep time="1.40">
        <vehicle id="overtaking" x="2.55" y="-1.65" angle="90.00" type="DEFAULT_VEHTYPE" speed="3.02" pos="2.55" lane="VODUGES_beg_0" slope="0.00"/>
        <vehicle id="stopped" x="42.54" y="-1.65" angle="90.00" type="DEFAULT_VEHTYPE" speed="3.11" pos="42.54" lane="VODUGES_beg_0" slope="0.00"/>
    </timestep>
    <timestep time="1.60">
        <vehicle id="overtaking" x="3.25" y="-1.65" angle="90.00" type="DEFAULT_VEHTYPE" speed="3.47" pos="3.25" lane="VODUGES_beg_0" slope="0.00"/>
        <vehicle id="stopped" x="43.23" y="-1.65" angle="90.00" type="DEFAULT_VEHTYPE" speed="3.48" pos="43.23" lane="VODUGES_beg_0" slope="0.00"/>
    </timestep>
    <timestep time="1.80">
        <vehicle id="overtaking" x="4.00" y="-1.65" angle="90.00" type="DEFAULT_VEHTYPE" speed="3.77" pos="4.00" lane="VODUGES_beg_0" slope="0.00"/>
        <vehicle id="stopped" x="44.03" y="-1.65" angle="90.00" type="DEFAULT_VEHTYPE" speed="3.98" pos="44.03" lane="VODUGES_beg_0" slope="0.00"/>
    </timestep>
    <timestep time="2.00">
        <vehicle id="overtaking" x="4.82" y="-1.65" angle="90.00" type="DEFAULT_VEHTYPE" speed="4.11" pos="4.82" lane="VODUGES_beg_0" slope="0.00"/>
        <vehicle id="stopped" x="44.88" y="-1.65" angle="90.00" type="DEFAULT_VEHTYPE" speed="4.23" pos="44.88" lane="VODUGES_beg_0" slope="0.00"/>
    </timestep>
    <timestep time="2.20">
        <vehicle id="overtaking" x="5.72" y="-1.65" angle="90.00" type="DEFAULT_VEHTYPE" speed="4.49" pos="5.72" lane="VODUGES_beg_0" slope="0.00"/>
        <vehicle id="stopped" x="45.64" y="-1.65" angle="90.00" type="DEFAULT_VEHTYPE" speed="3.83" pos="45.64" lane="VODUGES_beg_0" slope="0.00"/>
    </timestep>
    <timestep time="2.40">
        <vehicle id="overtaking" x="6.69" y="-1.65" angle="90.00" type="DEFAULT_VEHTYPE" speed="4.85" pos="6.69" lane="VODUGES_beg_0" slope="0.00"/>
        <vehicle id="stopped" x="46.31" y="-1.65" angle="90.00" type="DEFAULT_VEHTYPE" speed="3.32" pos="46.31" lane="VODUGES_beg_0" slope="0.00"/>
    </timestep>
    <timestep time="2.60">
        <vehicle id="overtaking" x="7.72" y="-1.65" angle="90.00" type="DEFAULT_VEHTYPE" speed="5.16" pos="7.72" lane="VODUGES_beg_0" slope="0.00"/>
        <vehicle id="stopped" x="46.85" y="-1.65" angle="90.00" type="DEFAULT_VEHTYPE" speed="2.74" pos="46.85" lane="VODUGES_beg_0" slope="0.00"/>
    </timestep>
    <timestep time="2.80">
        <vehicle id="overtaking" x="8.84" y="-1.65" angle="90.00" type="DEFAULT_VEHTYPE" speed="5.57" pos="8.84" lane="VODUGES_beg_0" slope="0.00"/>
        <vehicle id="stopped" x="47.33" y="-1.65" angle="90.00" type="DEFAULT_VEHTYPE" speed="2.40" pos="47.33" lane="VODUGES_beg_0" slope="0.00"/>
    </timestep>
    <timestep time="3.00">
        <vehicle id="overtaking" x="10.04" y="-1.65" angle="90.00" type="DEFAULT_VEHTYPE" speed="6.03" pos="10.04" lane="VODUGES_beg_0" slope="0.00"/>
        <vehicle id="stopped" x="47.77" y="-1.65" angle="90.00" type="DEFAULT_VEHTYPE" speed="2.16" pos="47.77" lane="VODUGES_beg_0" slope="0.00"/>
    </timestep>
    <timestep time="3.20">
        <vehicle id="overtaking" x="11.34" y="-1.65" angle="90.00" type="DEFAULT_VEHTYPE" speed="6.47" pos="11.34" lane="VODUGES_beg_0" slope="0.00"/>
        <vehicle id="stopped" x="48.16" y="-1.65" angle="90.00" type="DEFAULT_VEHTYPE" speed="1.97" pos="48.16" lane="VODUGES_beg_0" slope="0.00"/>
    </timestep>
    <timestep time="3.40">
        <vehicle id="overtaking" x="12.73" y="-1.65" angle="90.00" type="DEFAULT_VEHTYPE" speed="6.95" pos="12.73" lane="VODUGES_beg_0" slope="0.00"/>
        <vehicle id="stopped" x="48.47" y="-1.65" angle="90.00" type="DEFAULT_VEHTYPE" speed="1.55" pos="48.47" lane="VODUGES_beg_0" slope="0.00"/>
    </timestep>
    <timestep time="3.60">
        <vehicle id="overtaking" x="14.22" y="-1.65" angle="90.00" type="DEFAULT_VEHTYPE" speed="7.46" pos="14.22" lane="VODUGES_beg_0" slope="0.00"/>
        <vehicle id="stopped" x="48.73" y="-1.65" angle="90.00" type="DEFAULT_VEHTYPE" speed="1.29" pos="48.73" lane="VODUGES_beg_0" slope="0.00"/>
    </timestep>
    <timestep time="3.80">
        <vehicle id="overtaking" x="15.80" y="-1.65" angle="90.00" type="DEFAULT_VEHTYPE" speed="7.90" pos="15.80" lane="VODUGES_beg_0" slope="0.00"/>
        <vehicle id="stopped" x="48.96" y="-1.65" angle="90.00" type="DEFAULT_VEHTYPE" speed="1.13" pos="48.96" lane="VODUGES_beg_0" slope="0.00"/>
    </timestep>
    <timestep time="4.00">
        <vehicle id="overtaking" x="17.48" y="-1.65" angle="90.00" type="DEFAULT_VEHTYPE" speed="8.38" pos="17.48" lane="VODUGES_beg_0" slope="0.00"/>
        <vehicle id="stopped" x="49.16" y="-1.65" angle="90.00" type="DEFAULT_VEHTYPE" speed="1.01" pos="49.16" lane="VODUGES_beg_0" slope="0.00"/>
    </timestep>
    <timestep time="4.20">
        <vehicle id="overtaking" x="19.21" y="-1.65" angle="90.00" type="DEFAULT_VEHTYPE" speed="8.65" pos="19.21" lane="VODUGES_beg_0" slope="0.00"/>
        <vehicle id="stopped" x="49.33" y="-1.65" angle="90.00" type="DEFAULT_VEHTYPE" speed="0.86" pos="49.33" lane="VODUGES_beg_0" slope="0.00"/>
    </timestep>
    <timestep time="4.40">
        <vehicle id="overtaking" x="21.03" y="-1.65" angle="90.00" type="DEFAULT_VEHTYPE" speed="9.12" pos="21.03" lane="VODUGES_beg_0" slope="0.00"/>
        <vehicle id="stopped" x="49.50" y="-1.65" angle="90.00" type="DEFAULT_VEHTYPE" speed="0.88" pos="49.50" lane="VODUGES_beg_0" slope="0.00"/>
    </timestep>
    <timestep time="4.60">
        <vehicle id="overtaking" x="22.93" y="-1.65" angle="90.00" type="DEFAULT_VEHTYPE" speed="9.49" pos="22.93" lane="VODUGES_beg_0" slope="0.00"/>
        <vehicle id="stopped" x="49.68" y="-1.65" angle="90.00" type="DEFAULT_VEHTYPE" speed="0.88" pos="49.68" lane="VODUGES_beg_0" slope="0.00"/>
    </timestep>
    <timestep time="4.80">
        <vehicle id="overtaking" x="24.83" y="-1.65" angle="90.00" type="DEFAULT_VEHTYPE" speed="9.51" pos="24.83" lane="VODUGES_beg_0" slope="0.00"/>
        <vehicle id="stopped" x="49.86" y="-1.65" angle="90.00" type="DEFAULT_VEHTYPE" speed="0.88" pos="49.86" lane="VODUGES_beg_0" slope="0.00"/>
    </timestep>
    <timestep time="5.00">
        <vehicle id="overtaking" x="26.62" y="-1.65" angle="90.00" type="DEFAULT_VEHTYPE" speed="8.97" pos="26.62" lane="VODUGES_beg_0" slope="0.00"/>
        <vehicle id="stopped" x="50.00" y="-1.65" angle="90.00" type="DEFAULT_VEHTYPE" speed="0.71" pos="50.00" lane="VODUGES_beg_0" slope="0.00"/>
    </timestep>
    <timestep time="5.20">
        <vehicle id="overtaking" x="28.30" y="1.65" angle="90.00" type="DEFAULT_VEHTYPE" speed="8.41" pos="171.70" lane="-VODUGES_beg_0" slope="0.00"/>
        <vehicle id="stopped" x="50.00" y="-1.65" angle="90.00" type="DEFAULT_VEHTYPE" speed="0.01" pos="50.00" lane="VODUGES_beg_0" slope="0.00"/>
    </timestep>
    <timestep time="5.40">
        <vehicle id="overtaking" x="30.05" y="1.65" angle="90.00" type="DEFAULT_VEHTYPE" speed="8.75" pos="169.95" lane="-VODUGES_beg_0" slope="0.00"/>
        <vehicle id="stopped" x="50.00" y="-1.65" angle="90.00" type="DEFAULT_VEHTYPE" speed="0.00" pos="50.00" lane="VODUGES_beg_0" slope="0.00"/>
    </timestep>
    <timestep time="5.60">
        <vehicle id="overtaking" x="31.86" y="1.65" angle="90.00" type="DEFAULT_VEHTYPE" speed="9.02" pos="168.14" lane="-VODUGES_beg_0" slope="0.00"/>
        <vehicle id="stopped" x="50.00" y="-1.65" angle="90.00" type="DEFAULT_VEHTYPE" speed="0.00" pos="50.00" lane="VODUGES_beg_0" slope="0.00"/>
    </timestep>
    <timestep time="5.80">
        <vehicle id="overtaking" x="33.74" y="1.65" angle="90.00" type="DEFAULT_VEHTYPE" speed="9.41" pos="166.26" lane="-VODUGES_beg_0" slope="0.00"/>
        <vehicle id="stopped" x="50.00" y="-1.65" angle="90.00" type="DEFAULT_VEHTYPE" speed="0.00" pos="50.00" lane="VODUGES_beg_0" slope="0.00"/>
    </timestep>
    <timestep time="6.00">
        <vehicle id="overtaking" x="35.72" y="1.65" angle="90.00" type="DEFAULT_VEHTYPE" speed="9.89" pos="164.28" lane="-VODUGES_beg_0" slope="0.00"/>
        <vehicle id="stopped" x="50.00" y="-1.65" angle="90.00" type="DEFAULT_VEHTYPE" speed="0.00" pos="50.00" lane="VODUGES_beg_0" slope="0.00"/>
    </timestep>
    <timestep time="6.20">
        <vehicle id="overtaking" x="37.79" y="1.65" angle="90.00" type="DEFAULT_VEHTYPE" speed="10.36" pos="162.21" lane="-VODUGES_beg_0" slope="0.00"/>
        <vehicle id="stopped" x="50.00" y="-1.65" angle="90.00" type="DEFAULT_VEHTYPE" speed="0.00" pos="50.00" lane="VODUGES_beg_0" slope="0.00"/>
    </timestep>
    <timestep time="6.40">
        <vehicle id="overtaking" x="39.96" y="1.65" angle="90.00" type="DEFAULT_VEHTYPE" speed="10.84" pos="160.04" lane="-VODUGES_beg_0" slope="0.00"/>
        <vehicle id="stopped" x="50.00" y="-1.65" angle="90.00" type="DEFAULT_VEHTYPE" speed="0.00" pos="50.00" lane="VODUGES_beg_0" slope="0.00"/>
    </timestep>
    <timestep time="6.60">
        <vehicle id="overtaking" x="42.21" y="1.65" angle="90.00" type="DEFAULT_VEHTYPE" speed="11.29" pos="157.79" lane="-VODUGES_beg_0" slope="0.00"/>
        <vehicle id="stopped" x="50.00" y="-1.65" angle="90.00" type="DEFAULT_VEHTYPE" speed="0.00" pos="50.00" lane="VODUGES_beg_0" slope="0.00"/>
    </timestep>
    <timestep time="6.80">
        <vehicle id="overtaking" x="44.53" y="1.65" angle="90.00" type="DEFAULT_VEHTYPE" speed="11.57" pos="155.47" lane="-VODUGES_beg_0" slope="0.00"/>
        <vehicle id="stopped" x="50.00" y="-1.65" angle="90.00" type="DEFAULT_VEHTYPE" speed="0.00" pos="50.00" lane="VODUGES_beg_0" slope="0.00"/>
    </timestep>
    <timestep time="7.00">
        <vehicle id="overtaking" x="46.93" y="1.65" angle="90.00" type="DEFAULT_VEHTYPE" speed="12.04" pos="153.07" lane="-VODUGES_beg_0" slope="0.00"/>
        <vehicle id="stopped" x="50.00" y="-1.65" angle="90.00" type="DEFAULT_VEHTYPE" speed="0.00" pos="50.00" lane="VODUGES_beg_0" slope="0.00"/>
    </timestep>
    <timestep time="7.20">
        <vehicle id="overtaking" x="49.43" y="1.65" angle="90.00" type="DEFAULT_VEHTYPE" speed="12.48" pos="150.57" lane="-VODUGES_beg_0" slope="0.00"/>
        <vehicle id="stopped" x="50.00" y="-1.65" angle="90.00" type="DEFAULT_VEHTYPE" speed="0.00" pos="50.00" lane="VODUGES_beg_0" slope="0.00"/>
    </timestep>
    <timestep time="7.40">
        <vehicle id="overtaking" x="52.02" y="1.65" angle="90.00" type="DEFAULT_VEHTYPE" speed="12.97" pos="147.98" lane="-VODUGES_beg_0" slope="0.00"/>
        <vehicle id="stopped" x="50.00" y="-1.65" angle="90.00" type="DEFAULT_VEHTYPE" speed="0.00" pos="50.00" lane="VODUGES_beg_0" slope="0.00"/>
    </timestep>
    <timestep time="7.60">
        <vehicle id="overtaking" x="54.71" y="1.65" angle="90.00" type="DEFAULT_VEHTYPE" speed="13.44" pos="145.29" lane="-VODUGES_beg_0" slope="0.00"/>
        <vehicle id="stopped" x="50.00" y="-1.65" angle="90.00" type="DEFAULT_VEHTYPE" speed="0.00" pos="50.00" lane="VODUGES_beg_0" slope="0.00"/>
    </timestep>
    <timestep time="7.80">
        <vehicle id="overtaking" x="57.49" y="1.65" angle="90.00" type="DEFAULT_VEHTYPE" speed="13.88" pos="142.51" lane="-VODUGES_beg_0" slope="0.00"/>
        <vehicle id="stopped" x="50.00" y="-1.65" angle="90.00" type="DEFAULT_VEHTYPE" speed="0.00" pos="50.00" lane="VODUGES_beg_0" slope="0.00"/>
    </timestep>
    <timestep time="8.00">
        <vehicle id="overtaking" x="60.25" y="-1.65" angle="90.00" type="DEFAULT_VEHTYPE" speed="13.80" pos="60.25" lane="VODUGES_beg_0" slope="0.00"/>
        <vehicle id="stopped" x="50.00" y="-1.65" angle="90.00" type="DEFAULT_VEHTYPE" speed="0.00" pos="50.00" lane="VODUGES_beg_0" slope="0.00"/>
    </timestep>
    <timestep time="8.20">
        <vehicle id="overtaking" x="63.01" y="-1.65" angle="90.00" type="DEFAULT_VEHTYPE" speed="13.81" pos="63.01" lane="VODUGES_beg_0" slope="0.00"/>
        <vehicle id="stopped" x="50.00" y="-1.65" angle="90.00" type="DEFAULT_VEHTYPE" speed="0.00" pos="50.00" lane="VODUGES_beg_0" slope="0.00"/>
    </timestep>
    <timestep time="8.40">
        <vehicle id="overtaking" x="65.75" y="-1.65" angle="90.00" type="DEFAULT_VEHTYPE" speed="13.71" pos="65.75" lane="VODUGES_beg_0" slope="0.00"/>
        <vehicle id="stopped" x="50.00" y="-1.65" angle="90.00" type="DEFAULT_VEHTYPE" speed="0.00" pos="50.00" lane="VODUGES_beg_0" slope="0.00"/>
    </timestep>
    <timestep time="8.60">
        <vehicle id="overtaking" x="68.50" y="-1.65" angle="90.00" type="DEFAULT_VEHTYPE" speed="13.73" pos="68.50" lane="VODUGES_beg_0" slope="0.00"/>
        <vehicle id="stopped" x="50.00" y="-1.65" angle="90.00" type="DEFAULT_VEHTYPE" speed="0.00" pos="50.00" lane="VODUGES_beg_0" slope="0.00"/>
    </timestep>
    <timestep time="8.80">
        <vehicle id="overtaking" x="71.25" y="-1.65" angle="90.00" type="DEFAULT_VEHTYPE" speed="13.76" pos="71.25" lane="VODUGES_beg_0" slope="0.00"/>
        <vehicle id="stopped" x="50.00" y="-1.65" angle="90.00" type="DEFAULT_VEHTYPE" speed="0.00" pos="50.00" lane="VODUGES_beg_0" slope="0.00"/>
    </timestep>
    <timestep time="9.00">
        <vehicle id="overtaking" x="74.00" y="-1.65" angle="90.00" type="DEFAULT_VEHTYPE" speed="13.74" pos="74.00" lane="VODUGES_beg_0" slope="0.00"/>
        <vehicle id="stopped" x="50.00" y="-1.65" angle="90.00" type="DEFAULT_VEHTYPE" speed="0.00" pos="50.00" lane="VODUGES_beg_0" slope="0.00"/>
    </timestep>
    <timestep time="9.20">
        <vehicle id="overtaking" x="76.76" y="-1.65" angle="90.00" type="DEFAULT_VEHTYPE" speed="13.80" pos="76.76" lane="VODUGES_beg_0" slope="0.00"/>
        <vehicle id="stopped" x="50.00" y="-1.65" angle="90.00" type="DEFAULT_VEHTYPE" speed="0.00" pos="50.00" lane="VODUGES_beg_0" slope="0.00"/>
    </timestep>
    <timestep time="9.40">
        <vehicle id="overtaking" x="79.54" y="-1.65" angle="90.00" type="DEFAULT_VEHTYPE" speed="13.88" pos="79.54" lane="VODUGES_beg_0" slope="0.00"/>
        <vehicle id="stopped" x="50.00" y="-1.65" angle="90.00" type="DEFAULT_VEHTYPE" speed="0.00" pos="50.00" lane="VODUGES_beg_0" slope="0.00"/>
    </timestep>
    <timestep time="9.60">
        <vehicle id="overtaking" x="82.31" y="-1.65" angle="90.00" type="DEFAULT_VEHTYPE" speed="13.86" pos="82.31" lane="VODUGES_beg_0" slope="0.00"/>
        <vehicle id="stopped" x="50.00" y="-1.65" angle="90.00" type="DEFAULT_VEHTYPE" speed="0.00" pos="50.00" lane="VODUGES_beg_0" slope="0.00"/>
    </timestep>
    <timestep time="9.80">
        <vehicle id="overtaking" x="85.05" y="-1.65" angle="90.00" type="DEFAULT_VEHTYPE" speed="13.73" pos="85.05" lane="VODUGES_beg_0" slope="0.00"/>
        <vehicle id="stopped" x="50.00" y="-1.65" angle="90.00" type="DEFAULT_VEHTYPE" speed="0.00" pos="50.00" lane="VODUGES_beg_0" slope="0.00"/>
    </timestep>
    <timestep time="10.00">
        <vehicle id="overtaking" x="87.81" y="-1.65" angle="90.00" type="DEFAULT_VEHTYPE" speed="13.76" pos="87.81" lane="VODUGES_beg_0" slope="0.00"/>
        <vehicle id="stopped" x="50.00" y="-1.65" angle="90.00" type="DEFAULT_VEHTYPE" speed="0.00" pos="50.00" lane="VODUGES_beg_0" slope="0.00"/>
    </timestep>
    <timestep time="10.20">
        <vehicle id="overtaking" x="90.55" y="-1.65" angle="90.00" type="DEFAULT_VEHTYPE" speed="13.71" pos="90.55" lane="VODUGES_beg_0" slope="0.00"/>
        <vehicle id="stopped" x="50.00" y="-1.65" angle="90.00" type="DEFAULT_VEHTYPE" speed="0.00" pos="50.00" lane="VODUGES_beg_0" slope="0.00"/>
    </timestep>
    <timestep time="10.40">
        <vehicle id="overtaking" x="93.28" y="-1.65" angle="90.00" type="DEFAULT_VEHTYPE" speed="13.66" pos="93.28" lane="VODUGES_beg_0" slope="0.00"/>
        <vehicle id="stopped" x="50.00" y="-1.65" angle="90.00" type="DEFAULT_VEHTYPE" speed="0.00" pos="50.00" lane="VODUGES_beg_0" slope="0.00"/>
    </timestep>
    <timestep time="10.60">
        <vehicle id="overtaking" x="96.01" y="-1.65" angle="90.00" type="DEFAULT_VEHTYPE" speed="13.64" pos="96.01" lane="VODUGES_beg_0" slope="0.00"/>
        <vehicle id="stopped" x="50.00" y="-1.65" angle="90.00" type="DEFAULT_VEHTYPE" speed="0.00" pos="50.00" lane="VODUGES_beg_0" slope="0.00"/>
    </timestep>
    <timestep time="10.80">
        <vehicle id="overtaking" x="98.76" y="-1.65" angle="90.00" type="DEFAULT_VEHTYPE" speed="13.78" pos="98.76" lane="VODUGES_beg_0" slope="0.00"/>
        <vehicle id="stopped" x="50.00" y="-1.65" angle="90.00" type="DEFAULT_VEHTYPE" speed="0.00" pos="50.00" lane="VODUGES_beg_0" slope="0.00"/>
    </timestep>
    <timestep time="11.00">
        <vehicle id="overtaking" x="101.50" y="-1.65" angle="90.00" type="DEFAULT_VEHTYPE" speed="13.71" pos="101.50" lane="VODUGES_beg_0" slope="0.00"/>
        <vehicle id="stopped" x="50.00" y="-1.65" angle="90.00" type="DEFAULT_VEHTYPE" speed="0.00" pos="50.00" lane="VODUGES_beg_0" slope="0.00"/>
    </timestep>
    <timestep time="11.20">
        <vehicle id="overtaking" x="104.26" y="-1.65" angle="90.00" type="DEFAULT_VEHTYPE" speed="13.77" pos="104.26" lane="VODUGES_beg_0" slope="0.00"/>
        <vehicle id="stopped" x="50.00" y="-1.65" angle="90.00" type="DEFAULT_VEHTYPE" speed="0.00" pos="50.00" lane="VODUGES_beg_0" slope="0.00"/>
    </timestep>
    <timestep time="11.40">
        <vehicle id="overtaking" x="107.00" y="-1.65" angle="90.00" type="DEFAULT_VEHTYPE" speed="13.69" pos="107.00" lane="VODUGES_beg_0" slope="0.00"/>
        <vehicle id="stopped" x="50.00" y="-1.65" angle="90.00" type="DEFAULT_VEHTYPE" speed="0.00" pos="50.00" lane="VODUGES_beg_0" slope="0.00"/>
    </timestep>
    <timestep time="11.60">
        <vehicle id="overtaking" x="109.74" y="-1.65" angle="90.00" type="DEFAULT_VEHTYPE" speed="13.70" pos="109.74" lane="VODUGES_beg_0" slope="0.00"/>
        <vehicle id="stopped" x="50.00" y="-1.65" angle="90.00" type="DEFAULT_VEHTYPE" speed="0.00" pos="50.00" lane="VODUGES_beg_0" slope="0.00"/>
    </timestep>
    <timestep time="11.80">
        <vehicle id="overtaking" x="112.48" y="-1.65" angle="90.00" type="DEFAULT_VEHTYPE" speed="13.70" pos="112.48" lane="VODUGES_beg_0" slope="0.00"/>
        <vehicle id="stopped" x="50.00" y="-1.65" angle="90.00" type="DEFAULT_VEHTYPE" speed="0.00" pos="50.00" lane="VODUGES_beg_0" slope="0.00"/>
    </timestep>
    <timestep time="12.00">
        <vehicle id="overtaking" x="115.21" y="-1.65" angle="90.00" type="DEFAULT_VEHTYPE" speed="13.66" pos="115.21" lane="VODUGES_beg_0" slope="0.00"/>
        <vehicle id="stopped" x="50.00" y="-1.65" angle="90.00" type="DEFAULT_VEHTYPE" speed="0.00" pos="50.00" lane="VODUGES_beg_0" slope="0.00"/>
    </timestep>
    <timestep time="12.20">
        <vehicle id="overtaking" x="117.96" y="-1.65" angle="90.00" type="DEFAULT_VEHTYPE" speed="13.77" pos="117.96" lane="VODUGES_beg_0" slope="0.00"/>
        <vehicle id="stopped" x="50.00" y="-1.65" angle="90.00" type="DEFAULT_VEHTYPE" speed="0.00" pos="50.00" lane="VODUGES_beg_0" slope="0.00"/>
    </timestep>
    <timestep time="12.40">
        <vehicle id="overtaking" x="120.72" y="-1.65" angle="90.00" type="DEFAULT_VEHTYPE" speed="13.79" pos="120.72" lane="VODUGES_beg_0" slope="0.00"/>
        <vehicle id="stopped" x="50.00" y="-1.65" angle="90.00" type="DEFAULT_VEHTYPE" speed="0.00" pos="50.00" lane="VODUGES_beg_0" slope="0.00"/>
    </timestep>
    <timestep time="12.60">
        <vehicle id="overtaking" x="123.45" y="-1.65" angle="90.00" type="DEFAULT_VEHTYPE" speed="13.64" pos="123.45" lane="VODUGES_beg_0" slope="0.00"/>
        <vehicle id="stopped" x="50.00" y="-1.65" angle="90.00" type="DEFAULT_VEHTYPE" speed="0.00" pos="50.00" lane="VODUGES_beg_0" slope="0.00"/>
    </timestep>
    <timestep time="12.80">
        <vehicle id="overtaking" x="126.22" y="-1.65" angle="90.00" type="DEFAULT_VEHTYPE" speed="13.85" pos="126.22" lane="VODUGES_beg_0" slope="0.00"/>
        <vehicle id="stopped" x="50.00" y="-1.65" angle="90.00" type="DEFAULT_VEHTYPE" speed="0.00" pos="50.00" lane="VODUGES_beg_0" slope="0.00"/>
    </timestep>
    <timestep time="13.00">
        <vehicle id="overtaking" x="128.98" y="-1.65" angle="90.00" type="DEFAULT_VEHTYPE" speed="13.80" pos="128.98" lane="VODUGES_beg_0" slope="0.00"/>
        <vehicle id="stopped" x="50.00" y="-1.65" angle="90.00" type="DEFAULT_VEHTYPE" speed="0.00" pos="50.00" lane="VODUGES_beg_0" slope="0.00"/>
    </timestep>
    <timestep time="13.20">
        <vehicle id="overtaking" x="131.73" y="-1.65" angle="90.00" type="DEFAULT_VEHTYPE" speed="13.78" pos="131.73" lane="VODUGES_beg_0" slope="0.00"/>
        <vehicle id="stopped" x="50.00" y="-1.65" angle="90.00" type="DEFAULT_VEHTYPE" speed="0.00" pos="50.00" lane="VODUGES_beg_0" slope="0.00"/>
    </timestep>
    <timestep time="13.40">
        <vehicle id="overtaking" x="134.50" y="-1.65" angle="90.00" type="DEFAULT_VEHTYPE" speed="13.82" pos="134.50" lane="VODUGES_beg_0" slope="0.00"/>
        <vehicle id="stopped" x="50.00" y="-1.65" angle="90.00" type="DEFAULT_VEHTYPE" speed="0.00" pos="50.00" lane="VODUGES_beg_0" slope="0.00"/>
    </timestep>
    <timestep time="13.60">
        <vehicle id="overtaking" x="137.24" y="-1.65" angle="90.00" type="DEFAULT_VEHTYPE" speed="13.71" pos="137.24" lane="VODUGES_beg_0" slope="0.00"/>
        <vehicle id="stopped" x="50.00" y="-1.65" angle="90.00" type="DEFAULT_VEHTYPE" speed="0.00" pos="50.00" lane="VODUGES_beg_0" slope="0.00"/>
    </timestep>
    <timestep time="13.80">
        <vehicle id="overtaking" x="139.99" y="-1.65" angle="90.00" type="DEFAULT_VEHTYPE" speed="13.74" pos="139.99" lane="VODUGES_beg_0" slope="0.00"/>
        <vehicle id="stopped" x="50.00" y="-1.65" angle="90.00" type="DEFAULT_VEHTYPE" speed="0.00" pos="50.00" lane="VODUGES_beg_0" slope="0.00"/>
    </timestep>
    <timestep time="14.00">
        <vehicle id="overtaking" x="142.72" y="-1.65" angle="90.00" type="DEFAULT_VEHTYPE" speed="13.67" pos="142.72" lane="VODUGES_beg_0" slope="0.00"/>
        <vehicle id="stopped" x="50.00" y="-1.65" angle="90.00" type="DEFAULT_VEHTYPE" speed="0.00" pos="50.00" lane="VODUGES_beg_0" slope="0.00"/>
    </timestep>
    <timestep time="14.20">
        <vehicle id="overtaking" x="145.46" y="-1.65" angle="90.00" type="DEFAULT_VEHTYPE" speed="13.68" pos="145.46" lane="VODUGES_beg_0" slope="0.00"/>
        <vehicle id="stopped" x="50.00" y="-1.65" angle="90.00" type="DEFAULT_VEHTYPE" speed="0.00" pos="50.00" lane="VODUGES_beg_0" slope="0.00"/>
    </timestep>
    <timestep time="14.40">
        <vehicle id="overtaking" x="148.21" y="-1.65" angle="90.00" type="DEFAULT_VEHTYPE" speed="13.75" pos="148.21" lane="VODUGES_beg_0" slope="0.00"/>
        <vehicle id="stopped" x="50.00" y="-1.65" angle="90.00" type="DEFAULT_VEHTYPE" speed="0.00" pos="50.00" lane="VODUGES_beg_0" slope="0.00"/>
    </timestep>
    <timestep time="14.60">
        <vehicle id="overtaking" x="150.93" y="-1.65" angle="90.00" type="DEFAULT_VEHTYPE" speed="13.63" pos="150.93" lane="VODUGES_beg_0" slope="0.00"/>
        <vehicle id="stopped" x="50.00" y="-1.65" angle="90.00" type="DEFAULT_VEHTYPE" speed="0.00" pos="50.00" lane="VODUGES_beg_0" slope="0.00"/>
    </timestep>
    <timestep time="14.80">
        <vehicle id="overtaking" x="153.69" y="-1.65" angle="90.00" type="DEFAULT_VEHTYPE" speed="13.76" pos="153.69" lane="VODUGES_beg_0" slope="0.00"/>
        <vehicle id="stopped" x="50.00" y="-1.65" angle="90.00" type="DEFAULT_VEHTYPE" speed="0.00" pos="50.00" lane="VODUGES_beg_0" slope="0.00"/>
    </timestep>
    <timestep time="15.00">
        <vehicle id="overtaking" x="156.46" y="-1.65" angle="90.00" type="DEFAULT_VEHTYPE" speed="13.85" pos="156.46" lane="VODUGES_beg_0" slope="0.00"/>
        <vehicle id="stopped" x="50.00" y="-1.65" angle="90.00" type="DEFAULT_VEHTYPE" speed="0.00" pos="50.00" lane="VODUGES_beg_0" slope="0.00"/>
    </timestep>
    <timestep time="15.20">
        <vehicle id="overtaking" x="159.19" y="-1.65" angle="90.00" type="DEFAULT_VEHTYPE" speed="13.68" pos="159.19" lane="VODUGES_beg_0" slope="0.00"/>
        <vehicle id="stopped" x="50.00" y="-1.65" angle="90.00" type="DEFAULT_VEHTYPE" speed="0.00" pos="50.00" lane="VODUGES_beg_0" slope="0.00"/>
    </timestep>
    <timestep time="15.40">
        <vehicle id="overtaking" x="161.95" y="-1.65" angle="90.00" type="DEFAULT_VEHTYPE" speed="13.80" pos="161.95" lane="VODUGES_beg_0" slope="0.00"/>
        <vehicle id="stopped" x="50.00" y="-1.65" angle="90.00" type="DEFAULT_VEHTYPE" speed="0.00" pos="50.00" lane="VODUGES_beg_0" slope="0.00"/>
    </timestep>
    <timestep time="15.60">
        <vehicle id="overtaking" x="164.70" y="-1.65" angle="90.00" type="DEFAULT_VEHTYPE" speed="13.72" pos="164.70" lane="VODUGES_beg_0" slope="0.00"/>
        <vehicle id="stopped" x="50.00" y="-1.65" angle="90.00" type="DEFAULT_VEHTYPE" speed="0.00" pos="50.00" lane="VODUGES_beg_0" slope="0.00"/>
    </timestep>
    <timestep time="15.80">
        <vehicle id="overtaking" x="167.47" y="-1.65" angle="90.00" type="DEFAULT_VEHTYPE" speed="13.89" pos="167.47" lane="VODUGES_beg_0" slope="0.00"/>
        <vehicle id="stopped" x="50.00" y="-1.65" angle="90.00" type="DEFAULT_VEHTYPE" speed="0.00" pos="50.00" lane="VODUGES_beg_0" slope="0.00"/>
    </timestep>
    <timestep time="16.00">
        <vehicle id="overtaking" x="170.20" y="-1.65" angle="90.00" type="DEFAULT_VEHTYPE" speed="13.65" pos="170.20" lane="VODUGES_beg_0" slope="0.00"/>
        <vehicle id="stopped" x="50.00" y="-1.65" angle="90.00" type="DEFAULT_VEHTYPE" speed="0.00" pos="50.00" lane="VODUGES_beg_0" slope="0.00"/>
    </timestep>
    <timestep time="16.20">
        <vehicle id="overtaking" x="172.98" y="-1.65" angle="90.00" type="DEFAULT_VEHTYPE" speed="13.86" pos="172.98" lane="VODUGES_beg_0" slope="0.00"/>
        <vehicle id="stopped" x="50.00" y="-1.65" angle="90.00" type="DEFAULT_VEHTYPE" speed="0.00" pos="50.00" lane="VODUGES_beg_0" slope="0.00"/>
    </timestep>
    <timestep time="16.40">
        <vehicle id="overtaking" x="175.71" y="-1.65" angle="90.00" type="DEFAULT_VEHTYPE" speed="13.68" pos="175.71" lane="VODUGES_beg_0" slope="0.00"/>
        <vehicle id="stopped" x="50.00" y="-1.65" angle="90.00" type="DEFAULT_VEHTYPE" speed="0.00" pos="50.00" lane="VODUGES_beg_0" slope="0.00"/>
    </timestep>
    <timestep time="16.60">
        <vehicle id="overtaking" x="178.44" y="-1.65" angle="90.00" type="DEFAULT_VEHTYPE" speed="13.63" pos="178.44" lane="VODUGES_beg_0" slope="0.00"/>