<?xml version="1.0" encoding="UTF-8"?>

<!-- generated on 2022-08-28 19:21:33 by Eclipse SUMO sumo Version v1_14_1+0598-02ca306
This data file and the accompanying materials
are made available under the terms of the Eclipse Public License v2.0
which accompanies this distribution, and is available at
http://www.eclipse.org/legal/epl-v20.html
This file may also be made available under the following Secondary
Licenses when the conditions for such availability set forth in the Eclipse
Public License 2.0 are satisfied: GNU General Public License, version 2
or later which is available at
https://www.gnu.org/licenses/old-licenses/gpl-2.0-standalone.html
SPDX-License-Identifier: EPL-2.0 OR GPL-2.0-or-later
<configuration xmlns:xsi="http://www.w3.org/2001/XMLSchema-instance" xsi:noNamespaceSchemaLocation="http://sumo.dlr.de/xsd/sumoConfiguration.xsd">

    <input>
        <net-file value="net.net.xml"/>
        <route-files value="input_routes.rou.xml"/>
        <additional-files value="input_additional.add.xml"/>
    </input>

    <output>
        <write-license value="true"/>
        <tripinfo-output value="tripinfos.xml"/>
    </output>

    <processing>
        <default.speeddev value="0"/>
        <pedestrian.model value="striping"/>
        <pedestrian.striping.stripe-width value="0.75"/>
        <pedestrian.striping.dawdling value="0.2"/>
    </processing>

    <report>
        <xml-validation value="never"/>
        <duration-log.statistics value="true"/>
        <no-step-log value="true"/>
    </report>

</configuration>
-->

<tripinfos xmlns:xsi="http://www.w3.org/2001/XMLSchema-instance" xsi:noNamespaceSchemaLocation="http://sumo.dlr.de/xsd/tripinfo_file.xsd">
    <personinfo id="p4" depart="4.00" type="p4" speedFactor="1.00">
        <walk depart="4.00" departPos="0.00" arrival="89.00" arrivalPos="19.00" duration="85.00" routeLength="79.00" timeLoss="31.53" maxSpeed="1.48"/>
    </personinfo>
    <personinfo id="p14" depart="14.00" type="p14" speedFactor="1.00">
        <walk depart="14.00" departPos="0.00" arrival="91.00" arrivalPos="19.00" duration="77.00" routeLength="79.00" timeLoss="19.14" maxSpeed="1.37"/>
    </personinfo>
    <personinfo id="p3" depart="3.00" type="p3" speedFactor="1.00">
        <walk depart="3.00" departPos="0.00" arrival="96.00" arrivalPos="19.00" duration="93.00" routeLength="79.00" timeLoss="26.94" maxSpeed="1.20"/>
    </personinfo>
    <personinfo id="p20" depart="20.00" type="p20" speedFactor="1.00">
        <walk depart="20.00" departPos="0.00" arrival="96.00" arrivalPos="19.00" duration="76.00" routeLength="79.00" timeLoss="21.48" maxSpeed="1.45"/>
    </personinfo>
    <personinfo id="p15" depart="15.00" type="p15" speedFactor="1.00">
        <walk depart="15.00" departPos="0.00" arrival="97.00" arrivalPos="19.00" duration="82.00" routeLength="79.00" timeLoss="16.79" maxSpeed="1.21"/>
    </personinfo>
    <personinfo id="p22" depart="22.00" type="p22" speedFactor="1.00">
        <walk depart="22.00" departPos="0.00" arrival="98.00" arrivalPos="19.00" duration="76.00" routeLength="79.00" timeLoss="22.09" maxSpeed="1.47"/>
    </personinfo>
    <personinfo id="p16" depart="16.00" type="p16" speedFactor="1.00">
        <walk depart="16.00" departPos="0.00" arrival="98.00" arrivalPos="19.00" duration="82.00" routeLength="79.00" timeLoss="12.41" maxSpeed="1.14"/>
    </personinfo>
    <personinfo id="p18" depart="18.00" type="p18" speedFactor="1.00">
        <walk depart="18.00" departPos="0.00" arrival="99.00" arrivalPos="19.00" duration="81.00" routeLength="79.00" timeLoss="14.76" maxSpeed="1.19"/>
    </personinfo>
    <personinfo id="p23" depart="23.00" type="p23" speedFactor="1.00">
        <walk depart="23.00" departPos="0.00" arrival="100.00" arrivalPos="19.00" duration="77.00" routeLength="79.00" timeLoss="16.96" maxSpeed="1.32"/>
    </personinfo>
    <personinfo id="p7" depart="7.00" type="p7" speedFactor="1.00">
        <walk depart="7.00" departPos="0.00" arrival="103.00" arrivalPos="19.00" duration="96.00" routeLength="79.00" timeLoss="18.96" maxSpeed="1.03"/>
    </personinfo>
    <personinfo id="p12" depart="12.00" type="p12" speedFactor="1.00">
        <walk depart="12.00" departPos="0.00" arrival="105.00" arrivalPos="19.00" duration="93.00" routeLength="79.00" timeLoss="15.58" maxSpeed="1.02"/>
    </personinfo>
    <personinfo id="p11" depart="11.00" type="p11" speedFactor="1.00">
        <walk depart="11.00" departPos="0.00" arrival="106.00" arrivalPos="19.00" duration="95.00" routeLength="79.00" timeLoss="16.75" maxSpeed="1.01"/>
    </personinfo>
    <personinfo id="p31" depart="31.00" type="p31" speedFactor="1.00">
        <walk depart="31.00" departPos="0.00" arrival="107.00" arrivalPos="19.00" duration="76.00" routeLength="79.00" timeLoss="18.81" maxSpeed="1.38"/>
    </personinfo>
    <personinfo id="p13" depart="13.00" type="p13" speedFactor="1.00">
        <walk depart="13.00" departPos="0.00" arrival="107.00" arrivalPos="19.00" duration="94.00" routeLength="79.00" timeLoss="16.19" maxSpeed="1.02"/>
    </personinfo>
    <personinfo id="p0" depart="0.00" type="p0" speedFactor="1.00">
        <walk depart="0.00" departPos="0.00" arrival="111.00" arrivalPos="19.00" duration="111.00" routeLength="79.00" timeLoss="17.81" maxSpeed="0.85"/>
    </personinfo>
    <personinfo id="p5" depart="5.00" type="p5" speedFactor="1.00">
        <walk depart="5.00" departPos="0.00" arrival="112.00" arrivalPos="19.00" duration="107.00" routeLength="79.00" timeLoss="25.86" maxSpeed="0.97"/>
    </personinfo>
    <personinfo id="p1" depart="1.00" type="p1" speedFactor="1.00">
        <walk depart="1.00" departPos="0.00" arrival="118.00" arrivalPos="19.00" duration="117.00" routeLength="79.00" timeLoss="14.97" maxSpeed="0.77"/>
    </personinfo>
    <personinfo id="p8" depart="8.00" type="p8" speedFactor="1.00">
        <walk depart="8.00" departPos="0.00" arrival="120.00" arrivalPos="19.00" duration="112.00" routeLength="79.00" timeLoss="16.50" maxSpeed="0.83"/>
    </personinfo>
    <personinfo id="p2" depart="2.00" type="p2" speedFactor="1.00">
        <walk depart="2.00" departPos="0.00" arrival="124.00" arrivalPos="19.00" duration="122.00" routeLength="79.00" timeLoss="13.36" maxSpeed="0.73"/>
    </personinfo>
    <personinfo id="p9" depart="9.00" type="p9" speedFactor="1.00">
        <walk depart="9.00" departPos="0.00" arrival="125.00" arrivalPos="19.00" duration="116.00" routeLength="79.00" timeLoss="14.20" maxSpeed="0.78"/>
    </personinfo>
    <personinfo id="p43" depart="43.00" type="p43" speedFactor="1.00">
        <walk depart="43.00" departPos="0.00" arrival="156.00" arrivalPos="19.00" duration="113.00" routeLength="79.00" timeLoss="60.23" maxSpeed="1.50"/>
    </personinfo>
    <personinfo id="p41" depart="41.00" type="p41" speedFactor="1.00">
        <walk depart="41.00" departPos="0.00" arrival="161.00" arrivalPos="19.00" duration="120.00" routeLength="79.00" timeLoss="62.43" maxSpeed="1.37"/>
    </personinfo>
    <personinfo id="p49" depart="49.00" type="p49" speedFactor="1.00">
        <walk depart="49.00" departPos="0.00" arrival="165.00" arrivalPos="19.00" duration="116.00" routeLength="79.00" timeLoss="51.14" maxSpeed="1.22"/>
    </personinfo>
    <personinfo id="p19" depart="19.00" type="p19" speedFactor="1.00">
        <walk depart="19.00" departPos="0.00" arrival="165.00" arrivalPos="19.00" duration="146.00" routeLength="79.00" timeLoss="62.01" maxSpeed="0.94"/>
    </personinfo>
    <personinfo id="p44" depart="44.00" type="p44" speedFactor="1.00">
        <walk depart="44.00" departPos="0.00" arrival="166.00" arrivalPos="19.00" duration="122.00" routeLength="79.00" timeLoss="68.11" maxSpeed="1.47"/>
    </personinfo>
    <personinfo id="p21" depart="21.00" type="p21" speedFactor="1.00">
        <walk depart="21.00" departPos="0.00" arrival="166.00" arrivalPos="19.00" duration="145.00" routeLength="79.00" timeLoss="59.62" maxSpeed="0.93"/>
    </personinfo>
    <personinfo id="p51" depart="51.00" type="p51" speedFactor="1.00">
        <walk depart="51.00" departPos="0.00" arrival="166.00" arrivalPos="19.00" duration="115.00" routeLength="79.00" timeLoss="59.59" maxSpeed="1.43"/>
    </personinfo>
    <personinfo id="p30" depart="30.00" type="p30" speedFactor="1.00">
        <walk depart="30.00" departPos="0.00" arrival="167.00" arrivalPos="19.00" duration="137.00" routeLength="79.00" timeLoss="64.82" maxSpeed="1.09"/>
    </personinfo>
    <personinfo id="p45" depart="45.00" type="p45" speedFactor="1.00">
        <walk depart="45.00" departPos="0.00" arrival="169.00" arrivalPos="19.00" duration="124.00" routeLength="79.00" timeLoss="51.72" maxSpeed="1.09"/>
    </personinfo>
    <personinfo id="p24" depart="24.00" type="p24" speedFactor="1.00">
        <walk depart="24.00" departPos="0.00" arrival="169.00" arrivalPos="19.00" duration="145.00" routeLength="79.00" timeLoss="61.51" maxSpeed="0.95"/>
    </personinfo>
    <personinfo id="p55" depart="55.00" type="p55" speedFactor="1.00">
        <walk depart="55.00" departPos="0.00" arrival="169.00" arrivalPos="19.00" duration="114.00" routeLength="79.00" timeLoss="53.98" maxSpeed="1.32"/>
    </personinfo>
    <personinfo id="p38" depart="38.00" type="p38" speedFactor="1.00">
        <walk depart="38.00" departPos="0.00" arrival="171.00" arrivalPos="19.00" duration="133.00" routeLength="79.00" timeLoss="62.55" maxSpeed="1.12"/>
    </personinfo>
    <personinfo id="p26" depart="26.00" type="p26" speedFactor="1.00">
        <walk depart="26.00" departPos="0.00" arrival="175.00" arrivalPos="19.00" duration="149.00" routeLength="79.00" timeLoss="56.37" maxSpeed="0.85"/>
    </personinfo>
    <personinfo id="p25" depart="25.00" type="p25" speedFactor="1.00">
        <walk depart="25.00" departPos="0.00" arrival="176.00" arrivalPos="19.00" duration="151.00" routeLength="79.00" timeLoss="60.69" maxSpeed="0.87"/>
    </personinfo>
    <personinfo id="p10" depart="10.00" type="p10" speedFactor="1.00">
        <walk depart="10.00" departPos="0.00" arrival="176.00" arrivalPos="19.00" duration="166.00" routeLength="79.00" timeLoss="64.18" maxSpeed="0.78"/>
    </personinfo>
    <personinfo id="p6" depart="6.00" type="p6" speedFactor="1.00">
        <walk depart="6.00" departPos="0.00" arrival="176.00" arrivalPos="19.00" duration="170.00" routeLength="79.00" timeLoss="65.80" maxSpeed="0.76"/>
    </personinfo>
    <personinfo id="p34" depart="34.00" type="p34" speedFactor="1.00">
        <walk depart="34.00" departPos="0.00" arrival="177.00" arrivalPos="19.00" duration="143.00" routeLength="79.00" timeLoss="55.51" maxSpeed="0.90"/>
    </personinfo>
    <personinfo id="p32" depart="32.00" type="p32" speedFactor="1.00">
        <walk depart="32.00" departPos="0.00" arrival="177.00" arrivalPos="19.00" duration="145.00" routeLength="79.00" timeLoss="67.80" maxSpeed="1.02"/>
    </personinfo>
    <personinfo id="p29" depart="29.00" type="p29" speedFactor="1.00">
        <walk depart="29.00" departPos="0.00" arrival="177.00" arrivalPos="19.00" duration="148.00" routeLength="79.00" timeLoss="59.54" maxSpeed="0.89"/>
    </personinfo>
    <personinfo id="p35" depart="35.00" type="p35" speedFactor="1.00">
        <walk depart="35.00" departPos="0.00" arrival="177.00" arrivalPos="19.00" duration="142.00" routeLength="79.00" timeLoss="56.86" maxSpeed="0.93"/>
    </personinfo>
    <personinfo id="p57" depart="57.00" type="p57" speedFactor="1.00">
        <walk depart="57.00" departPos="0.00" arrival="178.00" arrivalPos="19.00" duration="121.00" routeLength="79.00" timeLoss="65.87" maxSpeed="1.43"/>
    </personinfo>
    <personinfo id="p17" depart="17.00" type="p17" speedFactor="1.00">
        <walk depart="17.00" departPos="0.00" arrival="181.00" arrivalPos="19.00" duration="164.00" routeLength="79.00" timeLoss="57.45" maxSpeed="0.74"/>
    </personinfo>
    <personinfo id="p27" depart="27.00" type="p27" speedFactor="1.00">
        <walk depart="27.00" departPos="0.00" arrival="186.00" arrivalPos="19.00" duration="159.00" routeLength="79.00" timeLoss="50.39" maxSpeed="0.73"/>
    </personinfo>
    <personinfo id="p28" depart="28.00" type="p28" speedFactor="1.00">
        <walk depart="28.00" departPos="0.00" arrival="187.00" arrivalPos="19.00" duration="159.00" routeLength="79.00" timeLoss="69.89" maxSpeed="0.89"/>
    </personinfo>
    <personinfo id="p58" depart="58.00" type="p58" speedFactor="1.00">
        <walk depart="58.00" departPos="0.00" arrival="213.00" arrivalPos="19.00" duration="155.00" routeLength="79.00" timeLoss="94.97" maxSpeed="1.32"/>
    </personinfo>
    <personinfo id="p68" depart="68.00" type="p68" speedFactor="1.00">
        <walk depart="68.00" departPos="0.00" arrival="213.00" arrivalPos="19.00" duration="145.00" routeLength="79.00" timeLoss="90.28" maxSpeed="1.44"/>
    </personinfo>
    <personinfo id="p61" depart="61.00" type="p61" speedFactor="1.00">
        <walk depart="61.00" departPos="0.00" arrival="217.00" arrivalPos="19.00" duration="156.00" routeLength="79.00" timeLoss="102.90" maxSpeed="1.49"/>
    </personinfo>
    <personinfo id="p65" depart="65.00" type="p65" speedFactor="1.00">
        <walk depart="65.00" departPos="0.00" arrival="218.00" arrivalPos="19.00" duration="153.00" routeLength="79.00" timeLoss="99.74" maxSpeed="1.48"/>
    </personinfo>
    <personinfo id="p63" depart="63.00" type="p63" speedFactor="1.00">
        <walk depart="63.00" departPos="0.00" arrival="220.00" arrivalPos="19.00" duration="157.00" routeLength="79.00" timeLoss="98.81" maxSpeed="1.36"/>
    </personinfo>
    <personinfo id="p72" depart="72.00" type="p72" speedFactor="1.00">
        <walk depart="72.00" departPos="0.00" arrival="221.00" arrivalPos="19.00" duration="149.00" routeLength="79.00" timeLoss="92.94" maxSpeed="1.41"/>
    </personinfo>
    <personinfo id="p50" depart="50.00" type="p50" speedFactor="1.00">
        <walk depart="50.00" departPos="0.00" arrival="222.00" arrivalPos="19.00" duration="172.00" routeLength="79.00" timeLoss="107.76" maxSpeed="1.23"/>
    </personinfo>
    <personinfo id="p40" depart="40.00" type="p40" speedFactor="1.00">
        <walk depart="40.00" departPos="0.00" arrival="225.00" arrivalPos="19.00" duration="185.00" routeLength="79.00" timeLoss="101.76" maxSpeed="0.95"/>
    </personinfo>
    <personinfo id="p56" depart="56.00" type="p56" speedFactor="1.00">
        <walk depart="56.00" departPos="0.00" arrival="230.00" arrivalPos="19.00" duration="174.00" routeLength="79.00" timeLoss="97.39" maxSpeed="1.03"/>
    </personinfo>
    <personinfo id="p70" depart="70.00" type="p70" speedFactor="1.00">
        <walk depart="70.00" departPos="0.00" arrival="230.00" arrivalPos="19.00" duration="160.00" routeLength="79.00" timeLoss="102.03" maxSpeed="1.36"/>
    </personinfo>
    <personinfo id="p33" depart="33.00" type="p33" speedFactor="1.00">
        <walk depart="33.00" departPos="0.00" arrival="231.00" arrivalPos="19.00" duration="198.00" routeLength="79.00" timeLoss="105.68" maxSpeed="0.86"/>
    </personinfo>
    <personinfo id="p52" depart="52.00" type="p52" speedFactor="1.00">
        <walk depart="52.00" departPos="0.00" arrival="232.00" arrivalPos="19.00" duration="180.00" routeLength="79.00" timeLoss="125.91" maxSpeed="1.46"/>
    </personinfo>
    <personinfo id="p42" depart="42.00" type="p42" speedFactor="1.00">
        <walk depart="42.00" departPos="0.00" arrival="232.00" arrivalPos="19.00" duration="190.00" routeLength="79.00" timeLoss="108.94" maxSpeed="0.97"/>
    </personinfo>
    <personinfo id="p36" depart="36.00" type="p36" speedFactor="1.00">
        <walk depart="36.00" departPos="0.00" arrival="233.00" arrivalPos="19.00" duration="197.00" routeLength="79.00" timeLoss="99.25" maxSpeed="0.81"/>
    </personinfo>
    <personinfo id="p67" depart="67.00" type="p67" speedFactor="1.00">
        <walk depart="67.00" departPos="0.00" arrival="233.00" arrivalPos="19.00" duration="166.00" routeLength="79.00" timeLoss="88.25" maxSpeed="1.02"/>
    </personinfo>
    <personinfo id="p37" depart="37.00" type="p37" speedFactor="1.00">
        <walk depart="37.00" departPos="0.00" arrival="235.00" arrivalPos="19.00" duration="198.00" routeLength="79.00" timeLoss="95.42" maxSpeed="0.77"/>
    </personinfo>
    <personinfo id="p47" depart="47.00" type="p47" speedFactor="1.00">
        <walk depart="47.00" departPos="0.00" arrival="236.00" arrivalPos="19.00" duration="189.00" routeLength="79.00" timeLoss="106.27" maxSpeed="0.95"/>
    </personinfo>
    <personinfo id="p62" depart="62.00" type="p62" speedFactor="1.00">
        <walk depart="62.00" departPos="0.00" arrival="237.00" arrivalPos="19.00" duration="175.00" routeLength="79.00" timeLoss="104.95" maxSpeed="1.13"/>
    </personinfo>
    <personinfo id="p46" depart="46.00" type="p46" speedFactor="1.00">
        <walk depart="46.00" departPos="0.00" arrival="237.00" arrivalPos="19.00" duration="191.00" routeLength="79.00" timeLoss="97.18" maxSpeed="0.84"/>
    </personinfo>
    <personinfo id="p39" depart="39.00" type="p39" speedFactor="1.00">
        <walk depart="39.00" departPos="0.00" arrival="237.00" arrivalPos="19.00" duration="198.00" routeLength="79.00" timeLoss="102.94" maxSpeed="0.83"/>
    </personinfo>
    <personinfo id="p53" depart="53.00" type="p53" speedFactor="1.00">
        <walk depart="53.00" departPos="0.00" arrival="238.00" arrivalPos="19.00" duration="185.00" routeLength="79.00" timeLoss="93.13" maxSpeed="0.86"/>
    </personinfo>
    <personinfo id="p54" depart="54.00" type="p54" speedFactor="1.00">
        <walk depart="54.00" departPos="0.00" arrival="238.00" arrivalPos="19.00" duration="184.00" routeLength="79.00" timeLoss="103.20" maxSpeed="0.98"/>
    </personinfo>
    <personinfo id="p48" depart="48.00" type="p48" speedFactor="1.00">
        <walk depart="48.00" departPos="0.00" arrival="238.00" arrivalPos="19.00" duration="190.00" routeLength="79.00" timeLoss="112.16" maxSpeed="1.01"/>
    </personinfo>
    <personinfo id="p94" depart="94.00" type="p94" speedFactor="1.00">
        <walk depart="94.00" departPos="0.00" arrival="270.00" arrivalPos="19.00" duration="176.00" routeLength="79.00" timeLoss="121.70" maxSpeed="1.45"/>
    </personinfo>
    <personinfo id="p78" depart="78.00" type="p78" speedFactor="1.00">
        <walk depart="78.00" departPos="0.00" arrival="271.00" arrivalPos="19.00" duration="193.00" routeLength="79.00" timeLoss="140.30" maxSpeed="1.50"/>
    </personinfo>
    <personinfo id="p77" depart="77.00" type="p77" speedFactor="1.00">
        <walk depart="77.00" departPos="0.00" arrival="271.00" arrivalPos="19.00" duration="194.00" routeLength="79.00" timeLoss="139.62" maxSpeed="1.45"/>
    </personinfo>
    <personinfo id="p79" depart="79.00" type="p79" speedFactor="1.00">
        <walk depart="79.00" departPos="0.00" arrival="273.00" arrivalPos="19.00" duration="194.00" routeLength="79.00" timeLoss="132.57" maxSpeed="1.29"/>
    </personinfo>
    <personinfo id="p83" depart="83.00" type="p83" speedFactor="1.00">
        <walk depart="83.00" departPos="0.00" arrival="273.00" arrivalPos="19.00" duration="190.00" routeLength="79.00" timeLoss="134.01" maxSpeed="1.41"/>
    </personinfo>
    <personinfo id="p80" depart="80.00" type="p80" speedFactor="1.00">
        <walk depart="80.00" departPos="0.00" arrival="278.00" arrivalPos="19.00" duration="198.00" routeLength="79.00" timeLoss="127.92" maxSpeed="1.13"/>
    </personinfo>
    <personinfo id="p59" depart="59.00" type="p59" speedFactor="1.00">
        <walk depart="59.00" departPos="0.00" arrival="281.00" arrivalPos="19.00" duration="222.00" routeLength="79.00" timeLoss="149.48" maxSpeed="1.09"/>
    </personinfo>
    <personinfo id="p81" depart="81.00" type="p81" speedFactor="1.00">
        <walk depart="81.00" departPos="0.00" arrival="282.00" arrivalPos="19.00" duration="201.00" routeLength="79.00" timeLoss="142.19" maxSpeed="1.34"/>
    </personinfo>
    <personinfo id="p104" depart="104.00" type="p104" speedFactor="1.00">
        <walk depart="104.00" departPos="0.00" arrival="283.00" arrivalPos="19.00" duration="179.00" routeLength="79.00" timeLoss="123.12" maxSpeed="1.41"/>
    </personinfo>
    <personinfo id="p60" depart="60.00" type="p60" speedFactor="1.00">
        <walk depart="60.00" departPos="0.00" arrival="283.00" arrivalPos="19.00" duration="223.00" routeLength="79.00" timeLoss="142.88" maxSpeed="0.99"/>
    </personinfo>
    <personinfo id="p73" depart="73.00" type="p73" speedFactor="1.00">
        <walk depart="73.00" departPos="0.00" arrival="284.00" arrivalPos="19.00" duration="211.00" routeLength="79.00" timeLoss="147.02" maxSpeed="1.23"/>
    </personinfo>
    <personinfo id="p97" depart="97.00" type="p97" speedFactor="1.00">
        <walk depart="97.00" departPos="0.00" arrival="285.00" arrivalPos="19.00" duration="188.00" routeLength="79.00" timeLoss="132.87" maxSpeed="1.43"/>
    </personinfo>
    <personinfo id="p66" depart="66.00" type="p66" speedFactor="1.00">
        <walk depart="66.00" departPos="0.00" arrival="290.00" arrivalPos="19.00" duration="224.00" routeLength="79.00" timeLoss="141.27" maxSpeed="0.95"/>
    </personinfo>
    <personinfo id="p91" depart="91.00" type="p91" speedFactor="1.00">
        <walk depart="91.00" departPos="0.00" arrival="291.00" arrivalPos="19.00" duration="200.00" routeLength="79.00" timeLoss="126.52" maxSpeed="1.08"/>
    </personinfo>
    <personinfo id="p76" depart="76.00" type="p76" speedFactor="1.00">
        <walk depart="76.00" departPos="0.00" arrival="295.00" arrivalPos="19.00" duration="219.00" routeLength="79.00" timeLoss="123.39" maxSpeed="0.83"/>
    </personinfo>
    <personinfo id="p90" depart="90.00" type="p90" speedFactor="1.00">
        <walk depart="90.00" departPos="0.00" arrival="296.00" arrivalPos="19.00" duration="206.00" routeLength="79.00" timeLoss="128.31" maxSpeed="1.02"/>
    </personinfo>
    <personinfo id="p74" depart="74.00" type="p74" speedFactor="1.00">
        <walk depart="74.00" departPos="0.00" arrival="297.00" arrivalPos="19.00" duration="223.00" routeLength="79.00" timeLoss="136.11" maxSpeed="0.91"/>
    </personinfo>
    <personinfo id="p88" depart="88.00" type="p88" speedFactor="1.00">
        <walk depart="88.00" departPos="0.00" arrival="298.00" arrivalPos="19.00" duration="210.00" routeLength="79.00" timeLoss="126.33" maxSpeed="0.94"/>
    </personinfo>
    <personinfo id="p75" depart="75.00" type="p75" speedFactor="1.00">
        <walk depart="75.00" departPos="0.00" arrival="300.00" arrivalPos="19.00" duration="225.00" routeLength="79.00" timeLoss="136.24" maxSpeed="0.89"/>
    </personinfo>
    <personinfo id="p69" depart="69.00" type="p69" speedFactor="1.00">
        <walk depart="69.00" departPos="0.00" arrival="301.00" arrivalPos="19.00" duration="232.00" routeLength="79.00" timeLoss="130.45" maxSpeed="0.78"/>
    </personinfo>
    <personinfo id="p86" depart="86.00" type="p86" speedFactor="1.00">
        <walk depart="86.00" departPos="0.00" arrival="302.00" arrivalPos="19.00" duration="216.00" routeLength="79.00" timeLoss="127.93" maxSpeed="0.90"/>
    </personinfo>
    <personinfo id="p71" depart="71.00" type="p71" speedFactor="1.00">
        <walk depart="71.00" departPos="0.00" arrival="302.00" arrivalPos="19.00" duration="231.00" routeLength="79.00" timeLoss="120.43" maxSpeed="0.71"/>
    </personinfo>
    <personinfo id="p87" depart="87.00" type="p87" speedFactor="1.00">
        <walk depart="87.00" departPos="0.00" arrival="303.00" arrivalPos="19.00" duration="216.00" routeLength="79.00" timeLoss="136.14" maxSpeed="0.99"/>
    </personinfo>
    <personinfo id="p101" depart="101.00" type="p101" speedFactor="1.00">
        <walk depart="101.00" departPos="0.00" arrival="334.00" arrivalPos="19.00" duration="233.00" routeLength="79.00" timeLoss="174.83" maxSpeed="1.36"/>
    </personinfo>
    <personinfo id="p85" depart="85.00" type="p85" speedFactor="1.00">
        <walk depart="85.00" departPos="0.00" arrival="336.00" arrivalPos="19.00" duration="251.00" routeLength="79.00" timeLoss="195.95" maxSpeed="1.44"/>
    </personinfo>
    <personinfo id="p84" depart="84.00" type="p84" speedFactor="1.00">
        <walk depart="84.00" departPos="0.00" arrival="336.00" arrivalPos="19.00" duration="252.00" routeLength="79.00" timeLoss="185.46" maxSpeed="1.19"/>
    </personinfo>
    <personinfo id="p107" depart="107.00" type="p107" speedFactor="1.00">
        <walk depart="107.00" departPos="0.00" arrival="337.00" arrivalPos="19.00" duration="230.00" routeLength="79.00" timeLoss="170.92" maxSpeed="1.34"/>
    </personinfo>
    <personinfo id="p100" depart="100.00" type="p100" speedFactor="1.00">
        <walk depart="100.00" departPos="0.00" arrival="337.00" arrivalPos="19.00" duration="237.00" routeLength="79.00" timeLoss="178.40" maxSpeed="1.35"/>
    </personinfo>
    <personinfo id="p89" depart="89.00" type="p89" speedFactor="1.00">
        <walk depart="89.00" departPos="0.00" arrival="338.00" arrivalPos="19.00" duration="249.00" routeLength="79.00" timeLoss="178.61" maxSpeed="1.12"/>
    </personinfo>
    <personinfo id="p96" depart="96.00" type="p96" speedFactor="1.00">
        <walk depart="96.00" departPos="0.00" arrival="338.00" arrivalPos="19.00" duration="242.00" routeLength="79.00" timeLoss="187.50" maxSpeed="1.45"/>
    </personinfo>
    <personinfo id="p103" depart="103.00" type="p103" speedFactor="1.00">
        <walk depart="103.00" departPos="0.00" arrival="339.00" arrivalPos="19.00" duration="236.00" routeLength="79.00" timeLoss="162.80" maxSpeed="1.08"/>
    </personinfo>
    <personinfo id="p110" depart="110.00" type="p110" speedFactor="1.00">
        <walk depart="110.00" departPos="0.00" arrival="340.00" arrivalPos="19.00" duration="230.00" routeLength="79.00" timeLoss="169.40" maxSpeed="1.30"/>
    </personinfo>
    <personinfo id="p92" depart="92.00" type="p92" speedFactor="1.00">
        <walk depart="92.00" departPos="0.00" arrival="349.00" arrivalPos="19.00" duration="257.00" routeLength="79.00" timeLoss="175.51" maxSpeed="0.97"/>
    </personinfo>
    <personinfo id="p114" depart="114.00" type="p114" speedFactor="1.00">
        <walk depart="114.00" departPos="0.00" arrival="350.00" arrivalPos="19.00" duration="236.00" routeLength="79.00" timeLoss="171.14" maxSpeed="1.22"/>
    </personinfo>
    <personinfo id="p115" depart="115.00" type="p115" speedFactor="1.00">
        <walk depart="115.00" departPos="0.00" arrival="350.00" arrivalPos="19.00" duration="235.00" routeLength="79.00" timeLoss="169.87" maxSpeed="1.21"/>
    </personinfo>
    <personinfo id="p112" depart="112.00" type="p112" speedFactor="1.00">
        <walk depart="112.00" departPos="0.00" arrival="352.00" arrivalPos="19.00" duration="240.00" routeLength="79.00" timeLoss="172.53" maxSpeed="1.17"/>
    </personinfo>
    <personinfo id="p111" depart="111.00" type="p111" speedFactor="1.00">
        <walk depart="111.00" departPos="0.00" arrival="352.00" arrivalPos="19.00" duration="241.00" routeLength="79.00" timeLoss="150.78" maxSpeed="0.88"/>
    </personinfo>
    <personinfo id="p106" depart="106.00" type="p106" speedFactor="1.00">
        <walk depart="106.00" departPos="0.00" arrival="353.00" arrivalPos="19.00" duration="247.00" routeLength="79.00" timeLoss="185.77" maxSpeed="1.29"/>
    </personinfo>
    <personinfo id="p93" depart="93.00" type="p93" speedFactor="1.00">
        <walk depart="93.00" departPos="0.00" arrival="353.00" arrivalPos="19.00" duration="260.00" routeLength="79.00" timeLoss="167.00" maxSpeed="0.85"/>
    </personinfo>
    <personinfo id="p109" depart="109.00" type="p109" speedFactor="1.00">
        <walk depart="109.00" departPos="0.00" arrival="355.00" arrivalPos="19.00" duration="246.00" routeLength="79.00" timeLoss="157.54" maxSpeed="0.89"/>
    </personinfo>
    <personinfo id="p64" depart="64.00" type="p64" speedFactor="1.00">
        <walk depart="64.00" departPos="0.00" arrival="357.00" arrivalPos="19.00" duration="293.00" routeLength="79.00" timeLoss="186.91" maxSpeed="0.74"/>
    </personinfo>
    <personinfo id="p82" depart="82.00" type="p82" speedFactor="1.00">
        <walk depart="82.00" departPos="0.00" arrival="360.00" arrivalPos="19.00" duration="278.00" routeLength="79.00" timeLoss="179.48" maxSpeed="0.80"/>
    </personinfo>
    <personinfo id="p95" depart="95.00" type="p95" speedFactor="1.00">
        <walk depart="95.00" departPos="0.00" arrival="360.00" arrivalPos="19.00" duration="265.00" routeLength="79.00" timeLoss="168.13" maxSpeed="0.82"/>
    </personinfo>
    <personinfo id="p105" depart="105.00" type="p105" speedFactor="1.00">
        <walk depart="105.00" departPos="0.00" arrival="361.00" arrivalPos="19.00" duration="256.00" routeLength="79.00" timeLoss="175.42" maxSpeed="0.98"/>
    </personinfo>
    <personinfo id="p98" depart="98.00" type="p98" speedFactor="1.00">
        <walk depart="98.00" departPos="0.00" arrival="363.00" arrivalPos="19.00" duration="265.00" routeLength="79.00" timeLoss="156.90" maxSpeed="0.73"/>
    </personinfo>
    <personinfo id="p117" depart="117.00" type="p117" speedFactor="1.00">
        <walk depart="117.00" departPos="0.00" arrival="366.00" arrivalPos="19.00" duration="249.00" routeLength="79.00" timeLoss="145.07" maxSpeed="0.76"/>
    </personinfo>
    <personinfo id="p129" depart="129.00" type="p129" speedFactor="1.00">
        <walk depart="129.00" departPos="0.00" arrival="390.00" arrivalPos="19.00" duration="261.00" routeLength="79.00" timeLoss="205.18" maxSpeed="1.42"/>
    </personinfo>
    <personinfo id="p102" depart="102.00" type="p102" speedFactor="1.00">
        <walk depart="102.00" departPos="0.00" arrival="392.00" arrivalPos="19.00" duration="290.00" routeLength="79.00" timeLoss="230.08" maxSpeed="1.32"/>
    </personinfo>
    <personinfo id="p120" depart="120.00" type="p120" speedFactor="1.00">