<?xml version="1.0"?>

<!-- generated on 12/14/09 11:35:18 by SUMO sumo Version dev-SVN-r8086
<configuration>

    <input>
        <net-file value="net.net.xml"/>
        <additional-files value="input_routes.rou.xml,input_additional.add.xml,input_additional2.add.xml"/>
    </input>

    <time>
        <begin value="0"/>
        <end value="1000"/>
    </time>

    <report>
        <no-duration-log value="true"/>
        <no-step-log value="true"/>
    </report>

</configuration>
-->

<detector>
   <interval begin="0" end="300" id="3/1to2/1" nSamples="2220" meanSpeed="0.31" meanOccupancy="40.88" maxOccupancy="55.25" meanMaxJamLengthInVehicles="7.10" meanMaxJamLengthInMeters="35.60" maxJamLengthInVehicles="10" maxJamLengthInMeters="50.15" jamLengthInVehiclesSum="2130" jamLengthInMetersSum="10680.93" meanHaltingDuration="214.00" maxHaltingDuration="230.00" haltingDurationSum="2140.00" meanIntervalHaltingDuration="214.00" maxIntervalHaltingDuration="230.00" intervalHaltingDurationSum="2140.00" startedHalts="10.00" meanVehicleNumber="7.40" maxVehicleNumber="10" />
   <interval begin="300" end="500" id="3/1to2/1" nSamples="125" meanSpeed="2.05" meanOccupancy="3.26" maxOccupancy="54.37" meanMaxJamLengthInVehicles="0.27" meanMaxJamLengthInMeters="1.39" maxJamLengthInVehicles="9" maxJamLengthInMeters="45.92" jamLengthInVehiclesSum="55" jamLengthInMetersSum="282.10" meanHaltingDuration="219.50" maxHaltingDuration="231.00" haltingDurationSum="2195.00" meanIntervalHaltingDuration="5.50" maxIntervalHaltingDuration="10.00" intervalHaltingDurationSum="55.00" startedHalts="0.00" meanVehicleNumber="0.63" maxVehicleNumber="10" />
   <interval begin="500" end="800" id="3/1to2/1" nSamples="0" meanSpeed="-1.00" meanOccupancy="0.00" maxOccupancy="0.00" meanMaxJamLengthInVehicles="0.00" meanMaxJamLengthInMeters="0.00" maxJamLengthInVehicles="0" maxJamLengthInMeters="0.00" jamLengthInVehiclesSum="0" jamLengthInMetersSum="0.00" meanHaltingDuration="0.00" maxHaltingDuration="0.00" haltingDurationSum="0.00" meanIntervalHaltingDuration="0.00" maxIntervalHaltingDuration="0.00" intervalHaltingDurationSum="0.00" startedHalts="0.00" meanVehicleNumber="0.00" maxVehicleNumber="0" />
</detector>
