<?xml version="1.0" encoding="UTF-8"?>

<!-- generated on 2026-03-18T16:09:19.191941+01:00 by Eclipse SUMO sumo v1_26_0+0703-9cdad5d9757
<sumoConfiguration xmlns:xsi="http://www.w3.org/2001/XMLSchema-instance" xsi:noNamespaceSchemaLocation="http://sumo.dlr.de/xsd/sumoConfiguration.xsd">

    <input>
        <net-file value="input_net4.net.xml"/>
        <route-files value="input_routes.rou.xml"/>
        <additional-files value="input_additional4.add.xml"/>
    </input>

    <output>
        <vehroute-output value="vehroutes.xml"/>
    </output>

    <report>
        <no-step-log value="true"/>
    </report>

    <traci_server>
        <remote-port value="39223"/>
    </traci_server>

</sumoConfiguration>
-->

<routes xmlns:xsi="http://www.w3.org/2001/XMLSchema-instance" xsi:noNamespaceSchemaLocation="http://sumo.dlr.de/xsd/routes_file.xsd">
    <vehicle id="ego" depart="0.00" arrival="211.00">
        <routeDistribution>
            <route replacedOnEdge="" reason="traci:insertStop" replacedAtTime="0.00" probability="0" edges="A1B1 B1C1 C1D1"/>
            <route edges="A1B1 B1C1 C1B1 B1C1 C1D1"/>
        </routeDistribution>
        <stop busStop="busStop_B1C1" duration="30.00" until="180.00"/>
    </vehicle>

</routes>
