<?xml version="1.0" encoding="UTF-8"?>

<!-- generated on Thu Jan 26 09:25:48 2017 by SUMO Version dev-SVN-r22703
<?xml version="1.0" encoding="UTF-8"?>

<configuration xmlns:xsi="http://www.w3.org/2001/XMLSchema-instance" xsi:noNamespaceSchemaLocation="http://sumo.dlr.de/xsd/sumoConfiguration.xsd">

    <input>
        <net-file value="net.net.xml"/>
        <route-files value="input_routes.rou.xml"/>
    </input>

    <output>
        <fcd-output value="fcd.xml"/>
        <tripinfo-output value="tripinfos.xml"/>
    </output>

    <report>
        <xml-validation value="never"/>
        <no-step-log value="true"/>
    </report>

</configuration>
-->

<tripinfos xmlns:xsi="http://www.w3.org/2001/XMLSchema-instance" xsi:noNamespaceSchemaLocation="http://sumo.dlr.de/xsd/tripinfo_file.xsd">
    <tripinfo id="oncoming1" depart="0.00" departLane="-VODUGES_beg_0" departPos="100.00" departSpeed="0.00" departDelay="0.00" arrival="11.00" arrivalLane="-VODUGES_beg_0" arrivalPos="200.00" arrivalSpeed="13.73" duration="11.00" routeLength="100.00" waitSteps="0" timeLoss="3.31" rerouteNo="0" devices="tripinfo_oncoming1" vType="DEFAULT_VEHTYPE" speedFactor="1.00" vaporized=""/>
    <tripinfo id="oncoming2" depart="1.00" departLane="-VODUGES_beg_0" departPos="0.00" departSpeed="0.00" departDelay="0.00" arrival="20.00" arrivalLane="-VODUGES_beg_0" arrivalPos="200.00" arrivalSpeed="13.66" duration="19.00" routeLength="200.00" waitSteps="0" timeLoss="3.66" rerouteNo="0" devices="tripinfo_oncoming2" vType="DEFAULT_VEHTYPE" speedFactor="1.00" vaporized=""/>
    <tripinfo id="overtaking" depart="1.00" departLane="VODUGES_beg_0" departPos="0.00" departSpeed="0.00" departDelay="0.00" arrival="24.00" arrivalLane="VODUGES_beg_0" arrivalPos="200.00" arrivalSpeed="13.66" duration="23.00" routeLength="200.00" waitSteps="0" timeLoss="8.03" rerouteNo="0" devices="tripinfo_overtaking" vType="DEFAULT_VEHTYPE" speedFactor="1.00" vaporized=""/>
    <tripinfo id="stopped" depart="0.00" departLane="VODUGES_beg_0" departPos="40.00" departSpeed="0.00" departDelay="0.00" arrival="120.00" arrivalLane="VODUGES_beg_0" arrivalPos="200.00" arrivalSpeed="13.69" duration="120.00" routeLength="160.00" waitSteps="0" timeLoss="7.02" rerouteNo="0" devices="tripinfo_stopped" vType="DEFAULT_VEHTYPE" speedFactor="1.00" vaporized=""/>
</tripinfos>
