<?xml version="1.0" encoding="UTF-8"?>

<!-- generated on 2022-08-16 12:45:42 by Eclipse SUMO sumo Version v1_14_1+0331-153d228
This data file and the accompanying materials
are made available under the terms of the Eclipse Public License v2.0
which accompanies this distribution, and is available at
http://www.eclipse.org/legal/epl-v20.html
This file may also be made available under the following Secondary
Licenses when the conditions for such availability set forth in the Eclipse
Public License 2.0 are satisfied: GNU General Public License, version 2
or later which is available at
https://www.gnu.org/licenses/old-licenses/gpl-2.0-standalone.html
SPDX-License-Identifier: EPL-2.0 OR GPL-2.0-or-later
<configuration xmlns:xsi="http://www.w3.org/2001/XMLSchema-instance" xsi:noNamespaceSchemaLocation="http://sumo.dlr.de/xsd/sumoConfiguration.xsd">

    <input>
        <net-file value="net.net.xml"/>
        <route-files value="input_routes.rou.xml"/>
        <additional-files value="input_additional.add.xml,input_additional2.add.xml"/>
    </input>

    <output>
        <write-license value="true"/>
        <tripinfo-output.write-unfinished value="true"/>
    </output>

    <time>
        <begin value="0"/>
        <end value="3000"/>
    </time>

    <processing>
        <default.speeddev value="0"/>
    </processing>

    <report>
        <xml-validation value="never"/>
        <duration-log.statistics value="true"/>
        <no-step-log value="true"/>
    </report>

</configuration>
-->

<meandata xmlns:xsi="http://www.w3.org/2001/XMLSchema-instance" xsi:noNamespaceSchemaLocation="http://sumo.dlr.de/xsd/meandata_file.xsd">
    <interval begin="0.00" end="60.00" id="dump_60">
        <edge id="1/1to2/1" sampledSeconds="938.80" traveltime="194.14" overlapTraveltime="191.92" density="15.97" laneDensity="15.97" occupancy="7.93" waitingTime="0.00" timeLoss="692.98" speed="5.13" speedRelative="0.26" departed="60" arrived="0" entered="0" left="29" laneChangedFrom="0" laneChangedTo="0"/>
        <edge id="2/1to3/1" sampledSeconds="826.87" traveltime="54.89" overlapTraveltime="55.17" density="14.06" laneDensity="14.06" occupancy="6.98" waitingTime="0.00" timeLoss="73.70" speed="17.85" speedRelative="0.91" departed="0" arrived="0" entered="29" left="3" laneChangedFrom="0" laneChangedTo="0"/>
        <edge id="3/1to4/1" sampledSeconds="9.44" traveltime="50.00" overlapTraveltime="50.25" density="0.16" laneDensity="0.16" occupancy="0.08" waitingTime="0.00" timeLoss="0.00" speed="19.60" speedRelative="1.00" departed="0" arrived="0" entered="3" left="0" laneChangedFrom="0" laneChangedTo="0"/>
    </interval>
    <interval begin="60.00" end="120.00" id="dump_60">
        <edge id="1/1to2/1" sampledSeconds="2734.56" traveltime="187.71" overlapTraveltime="187.24" density="46.51" laneDensity="46.51" occupancy="23.22" waitingTime="159.00" timeLoss="2000.66" speed="5.26" speedRelative="0.27" departed="60" arrived="0" entered="0" left="31" laneChangedFrom="0" laneChangedTo="0"/>
        <edge id="2/1to3/1" sampledSeconds="1598.69" traveltime="56.53" overlapTraveltime="56.78" density="27.19" laneDensity="27.19" occupancy="13.53" waitingTime="4.00" timeLoss="183.84" speed="17.35" speedRelative="0.89" departed="0" arrived="0" entered="31" left="29" laneChangedFrom="0" laneChangedTo="0" teleported="1"/>
        <edge id="3/1to4/1" sampledSeconds="966.02" traveltime="50.00" overlapTraveltime="50.25" density="16.43" laneDensity="16.43" occupancy="8.18" waitingTime="0.00" timeLoss="0.00" speed="19.60" speedRelative="1.00" departed="0" arrived="0" entered="29" left="8" laneChangedFrom="0" laneChangedTo="0"/>
        <edge id="4/1to5/1" sampledSeconds="77.83" traveltime="50.00" overlapTraveltime="50.25" density="1.32" laneDensity="1.32" occupancy="0.65" waitingTime="0.00" timeLoss="0.00" speed="19.60" speedRelative="1.00" departed="0" arrived="0" entered="8" left="0" laneChangedFrom="0" laneChangedTo="0"/>
    </interval>
    <interval begin="120.00" end="180.00" id="dump_60">
        <edge id="1/1to2/1" sampledSeconds="4138.73" traveltime="183.96" overlapTraveltime="184.39" density="70.39" laneDensity="70.39" occupancy="35.03" waitingTime="404.00" timeLoss="3010.78" speed="5.34" speedRelative="0.27" departed="34" arrived="0" entered="0" left="29" laneChangedFrom="0" laneChangedTo="0" teleported="2"/>
        <edge id="2/1to3/1" sampledSeconds="1608.66" traveltime="55.09" overlapTraveltime="55.35" density="27.36" laneDensity="27.36" occupancy="13.59" waitingTime="3.00" timeLoss="148.05" speed="17.80" speedRelative="0.91" departed="0" arrived="0" entered="29" left="28" laneChangedFrom="0" laneChangedTo="0"/>
        <edge id="3/1to4/1" sampledSeconds="1406.11" traveltime="50.00" overlapTraveltime="50.25" density="23.91" laneDensity="23.91" occupancy="11.90" waitingTime="0.00" timeLoss="0.03" speed="19.60" speedRelative="1.00" departed="0" arrived="0" entered="27" left="29" laneChangedFrom="0" laneChangedTo="0"/>
        <edge id="4/1to5/1" sampledSeconds="1170.99" traveltime="50.00" overlapTraveltime="50.25" density="19.92" laneDensity="19.92" occupancy="9.91" waitingTime="0.00" timeLoss="0.00" speed="19.60" speedRelative="1.00" departed="0" arrived="0" entered="29" left="13" laneChangedFrom="0" laneChangedTo="0"/>
        <edge id="5/1to6/1" sampledSeconds="185.80" traveltime="50.00" overlapTraveltime="50.25" density="3.16" laneDensity="3.16" occupancy="1.57" waitingTime="0.00" timeLoss="0.00" speed="19.60" speedRelative="1.00" departed="0" arrived="0" entered="13" left="0" laneChangedFrom="0" laneChangedTo="0"/>
    </interval>
    <interval begin="180.00" end="240.00" id="dump_60">
        <edge id="1/1to2/1" sampledSeconds="3460.27" traveltime="135.74" overlapTraveltime="135.97" density="58.85" laneDensity="58.85" occupancy="29.28" waitingTime="265.00" timeLoss="2181.39" speed="7.24" speedRelative="0.37" departed="17" arrived="0" entered="0" left="32" laneChangedFrom="0" laneChangedTo="0" teleported="2"/>
        <edge id="2/1to3/1" sampledSeconds="1732.74" traveltime="62.59" overlapTraveltime="62.86" density="29.47" laneDensity="29.47" occupancy="14.66" waitingTime="1.00" timeLoss="347.58" speed="15.67" speedRelative="0.80" departed="0" arrived="0" entered="32" left="29" laneChangedFrom="0" laneChangedTo="0" teleported="2"/>
        <edge id="3/1to4/1" sampledSeconds="1358.31" traveltime="50.08" overlapTraveltime="50.33" density="23.10" laneDensity="23.10" occupancy="11.49" waitingTime="0.00" timeLoss="2.17" speed="19.57" speedRelative="1.00" departed="0" arrived="0" entered="30" left="27" laneChangedFrom="0" laneChangedTo="0"/>
        <edge id="4/1to5/1" sampledSeconds="1402.34" traveltime="50.00" overlapTraveltime="50.25" density="23.85" laneDensity="23.85" occupancy="11.87" waitingTime="0.00" timeLoss="0.00" speed="19.60" speedRelative="1.00" departed="0" arrived="0" entered="27" left="29" laneChangedFrom="0" laneChangedTo="0"/>
        <edge id="5/1to6/1" sampledSeconds="1293.52" traveltime="50.00" overlapTraveltime="50.25" density="22.00" laneDensity="22.00" occupancy="10.95" waitingTime="0.00" timeLoss="0.00" speed="19.60" speedRelative="1.00" departed="0" arrived="0" entered="28" left="18" laneChangedFrom="0" laneChangedTo="0"/>
        <edge id="6/1to7/1" sampledSeconds="339.68" traveltime="50.00" overlapTraveltime="50.25" density="5.78" laneDensity="5.78" occupancy="2.87" waitingTime="0.00" timeLoss="0.00" speed="19.60" speedRelative="1.00" departed="0" arrived="0" entered="18" left="0" laneChangedFrom="0" laneChangedTo="0"/>
    </interval>
    <interval begin="240.00" end="300.00" id="dump_60">
        <edge id="1/1to2/1" sampledSeconds="2749.53" traveltime="100.68" overlapTraveltime="101.38" density="46.76" laneDensity="46.76" occupancy="23.15" waitingTime="67.00" timeLoss="1386.67" speed="9.72" speedRelative="0.50" departed="19" arrived="0" entered="0" left="27" laneChangedFrom="0" laneChangedTo="0" teleported="2"/>
        <edge id="2/1to3/1" sampledSeconds="1838.68" traveltime="65.59" overlapTraveltime="66.31" density="31.27" laneDensity="31.27" occupancy="15.48" waitingTime="4.00" timeLoss="445.30" speed="14.85" speedRelative="0.76" departed="0" arrived="0" entered="27" left="28" laneChangedFrom="0" laneChangedTo="0" teleported="2"/>
        <edge id="3/1to4/1" sampledSeconds="1448.09" traveltime="52.79" overlapTraveltime="53.05" density="24.63" laneDensity="24.63" occupancy="12.21" waitingTime="1.00" timeLoss="76.25" speed="18.57" speedRelative="0.95" departed="0" arrived="0" entered="28" left="27" laneChangedFrom="0" laneChangedTo="0"/>
        <edge id="4/1to5/1" sampledSeconds="1355.33" traveltime="50.00" overlapTraveltime="50.25" density="23.05" laneDensity="23.05" occupancy="11.47" waitingTime="0.00" timeLoss="0.00" speed="19.60" speedRelative="1.00" departed="0" arrived="0" entered="27" left="26" laneChangedFrom="0" laneChangedTo="0"/>
        <edge id="5/1to6/1" sampledSeconds="1392.33" traveltime="50.00" overlapTraveltime="50.25" density="23.68" laneDensity="23.68" occupancy="11.78" waitingTime="0.00" timeLoss="0.00" speed="19.60" speedRelative="1.00" departed="0" arrived="0" entered="27" left="28" laneChangedFrom="0" laneChangedTo="0"/>
        <edge id="6/1to7/1" sampledSeconds="1373.09" traveltime="50.00" overlapTraveltime="50.25" density="23.35" laneDensity="23.35" occupancy="11.62" waitingTime="0.00" timeLoss="0.00" speed="19.60" speedRelative="1.00" departed="0" arrived="0" entered="28" left="23" laneChangedFrom="0" laneChangedTo="0"/>
        <edge id="7/1to8/1" sampledSeconds="538.14" traveltime="50.00" overlapTraveltime="50.25" density="9.15" laneDensity="9.15" occupancy="4.55" waitingTime="0.00" timeLoss="0.00" speed="19.60" speedRelative="1.00" departed="0" arrived="0" entered="22" left="0" laneChangedFrom="0" laneChangedTo="0"/>
    </interval>
    <interval begin="300.00" end="360.00" id="dump_60">
        <edge id="1/1to2/1" sampledSeconds="2351.82" traveltime="84.26" overlapTraveltime="84.68" density="40.00" laneDensity="40.00" occupancy="19.78" waitingTime="2.00" timeLoss="956.21" speed="11.63" speedRelative="0.59" departed="25" arrived="0" entered="0" left="30" laneChangedFrom="0" laneChangedTo="0"/>
        <edge id="2/1to3/1" sampledSeconds="1903.67" traveltime="68.47" overlapTraveltime="68.78" density="32.38" laneDensity="32.38" occupancy="16.10" waitingTime="4.00" timeLoss="512.82" speed="14.32" speedRelative="0.73" departed="0" arrived="0" entered="30" left="29" laneChangedFrom="0" laneChangedTo="0"/>
        <edge id="3/1to4/1" sampledSeconds="1560.48" traveltime="54.49" overlapTraveltime="54.75" density="26.54" laneDensity="26.54" occupancy="13.20" waitingTime="0.00" timeLoss="128.16" speed="17.99" speedRelative="0.92" departed="0" arrived="0" entered="29" left="28" laneChangedFrom="0" laneChangedTo="0" teleported="1"/>
        <edge id="4/1to5/1" sampledSeconds="1355.92" traveltime="50.00" overlapTraveltime="50.25" density="23.06" laneDensity="23.06" occupancy="11.47" waitingTime="0.00" timeLoss="0.03" speed="19.60" speedRelative="1.00" departed="0" arrived="0" entered="28" left="27" laneChangedFrom="0" laneChangedTo="0"/>
        <edge id="5/1to6/1" sampledSeconds="1355.66" traveltime="50.00" overlapTraveltime="50.25" density="23.06" laneDensity="23.06" occupancy="11.47" waitingTime="0.00" timeLoss="0.00" speed="19.60" speedRelative="1.00" departed="0" arrived="0" entered="27" left="27" laneChangedFrom="0" laneChangedTo="0"/>
        <edge id="6/1to7/1" sampledSeconds="1379.54" traveltime="50.00" overlapTraveltime="50.25" density="23.46" laneDensity="23.46" occupancy="11.67" waitingTime="0.00" timeLoss="0.00" speed="19.60" speedRelative="1.00" departed="0" arrived="0" entered="27" left="28" laneChangedFrom="0" laneChangedTo="0"/>
        <edge id="7/1to8/1" sampledSeconds="1406.85" traveltime="50.00" overlapTraveltime="50.25" density="23.93" laneDensity="23.93" occupancy="11.90" waitingTime="0.00" timeLoss="0.00" speed="19.60" speedRelative="1.00" departed="0" arrived="0" entered="29" left="27" laneChangedFrom="0" laneChangedTo="0"/>
        <edge id="8/1to9/1" sampledSeconds="768.25" traveltime="50.00" overlapTraveltime="50.25" density="13.07" laneDensity="13.07" occupancy="6.50" waitingTime="0.00" timeLoss="0.00" speed="19.60" speedRelative="1.00" departed="0" arrived="0" entered="27" left="4" laneChangedFrom="0" laneChangedTo="0"/>
        <edge id="9/1to10/1" sampledSeconds="14.00" traveltime="50.00" overlapTraveltime="50.25" density="0.24" laneDensity="0.24" occupancy="0.12" waitingTime="0.00" timeLoss="0.00" speed="19.60" speedRelative="1.00" departed="0" arrived="0" entered="4" left="0" laneChangedFrom="0" laneChangedTo="0"/>
    </interval>
    <interval begin="360.00" end="420.00" id="dump_60">
        <edge id="1/1to2/1" sampledSeconds="2145.48" traveltime="77.95" overlapTraveltime="78.52" density="36.49" laneDensity="36.49" occupancy="18.02" waitingTime="0.00" timeLoss="772.34" speed="12.54" speedRelative="0.64" departed="26" arrived="0" entered="0" left="28" laneChangedFrom="0" laneChangedTo="0"/>
        <edge id="10/1to1/1" sampledSeconds="70.56" traveltime="50.00" overlapTraveltime="50.25" density="1.20" laneDensity="1.20" occupancy="0.59" waitingTime="0.00" timeLoss="0.00" speed="19.60" speedRelative="1.00" departed="0" arrived="0" entered="8" left="0" laneChangedFrom="0" laneChangedTo="0"/>
        <edge id="2/1to3/1" sampledSeconds="1977.75" traveltime="69.42" overlapTraveltime="69.75" density="33.64" laneDensity="33.64" occupancy="16.71" waitingTime="4.00" timeLoss="552.95" speed="14.12" speedRelative="0.72" departed="0" arrived="0" entered="27" left="27" laneChangedFrom="0" laneChangedTo="0"/>
        <edge id="3/1to4/1" sampledSeconds="1611.64" traveltime="57.91" overlapTraveltime="58.17" density="27.41" laneDensity="27.41" occupancy="13.64" waitingTime="0.00" timeLoss="219.29" speed="16.93" speedRelative="0.86" departed="0" arrived="0" entered="27" left="28" laneChangedFrom="0" laneChangedTo="0"/>
        <edge id="4/1to5/1" sampledSeconds="1349.81" traveltime="50.08" overlapTraveltime="50.33" density="22.96" laneDensity="22.96" occupancy="11.42" waitingTime="0.00" timeLoss="2.20" speed="19.57" speedRelative="1.00" departed="0" arrived="0" entered="28" left="28" laneChangedFrom="0" laneChangedTo="0" teleported="1"/>
        <edge id="5/1to6/1" sampledSeconds="1353.94" traveltime="50.00" overlapTraveltime="50.25" density="23.03" laneDensity="23.03" occupancy="11.46" waitingTime="0.00" timeLoss="0.00" speed="19.60" speedRelative="1.00" departed="0" arrived="0" entered="28" left="27" laneChangedFrom="0" laneChangedTo="0"/>
        <edge id="6/1to7/1" sampledSeconds="1358.80" traveltime="50.00" overlapTraveltime="50.25" density="23.11" laneDensity="23.11" occupancy="11.50" waitingTime="0.00" timeLoss="0.00" speed="19.60" speedRelative="1.00" departed="0" arrived="0" entered="27" left="26" laneChangedFrom="0" laneChangedTo="0"/>
        <edge id="7/1to8/1" sampledSeconds="1368.36" traveltime="50.00" overlapTraveltime="50.25" density="23.27" laneDensity="23.27" occupancy="11.58" waitingTime="0.00" timeLoss="0.00" speed="19.60" speedRelative="1.00" departed="0" arrived="0" entered="26" left="28" laneChangedFrom="0" laneChangedTo="0"/>
        <edge id="8/1to9/1" sampledSeconds="1408.41" traveltime="50.00" overlapTraveltime="50.25" density="23.95" laneDensity="23.95" occupancy="11.92" waitingTime="0.00" timeLoss="0.00" speed="19.60" speedRelative="1.00" departed="0" arrived="0" entered="28" left="27" laneChangedFrom="0" laneChangedTo="0"/>
        <edge id="9/1to10/1" sampledSeconds="985.39" traveltime="50.00" overlapTraveltime="50.25" density="16.76" laneDensity="16.76" occupancy="8.34" waitingTime="0.00" timeLoss="0.00" speed="19.60" speedRelative="1.00" departed="0" arrived="0" entered="27" left="8" laneChangedFrom="0" laneChangedTo="0"/>
    </interval>
    <interval begin="420.00" end="480.00" id="dump_60">
        <edge id="1/1to2/1" sampledSeconds="2046.19" traveltime="74.00" overlapTraveltime="74.58" density="34.80" laneDensity="34.80" occupancy="17.24" waitingTime="1.00" timeLoss="667.50" speed="13.21" speedRelative="0.67" departed="12" arrived="0" entered="13" left="27" laneChangedFrom="0" laneChangedTo="0"/>
        <edge id="10/1to1/1" sampledSeconds="1157.08" traveltime="50.00" overlapTraveltime="50.26" density="19.68" laneDensity="19.68" occupancy="9.80" waitingTime="0.00" timeLoss="0.15" speed="19.60" speedRelative="1.00" departed="0" arrived="0" entered="28" left="13" laneChangedFrom="0" laneChangedTo="0"/>
        <edge id="2/1to3/1" sampledSeconds="1906.52" traveltime="67.48" overlapTraveltime="67.79" density="32.43" laneDensity="32.43" occupancy="16.11" waitingTime="0.00" timeLoss="493.32" speed="14.53" speedRelative="0.74" departed="0" arrived="0" entered="28" left="28" laneChangedFrom="0" laneChangedTo="0"/>
        <edge id="3/1to4/1" sampledSeconds="1589.88" traveltime="56.49" overlapTraveltime="56.84" density="27.04" laneDensity="27.04" occupancy="13.44" waitingTime="0.00" timeLoss="184.27" speed="17.33" speedRelative="0.88" departed="0" arrived="0" entered="28" left="29" laneChangedFrom="0" laneChangedTo="0"/>
        <edge id="4/1to5/1" sampledSeconds="1429.16" traveltime="50.68" overlapTraveltime="50.94" density="24.31" laneDensity="24.31" occupancy="12.08" waitingTime="0.00" timeLoss="19.27" speed="19.34" speedRelative="0.99" departed="0" arrived="0" entered="29" left="28" laneChangedFrom="0" laneChangedTo="0"/>
        <edge id="5/1to6/1" sampledSeconds="1360.20" traveltime="50.00" overlapTraveltime="50.25" density="23.13" laneDensity="23.13" occupancy="11.51" waitingTime="0.00" timeLoss="0.00" speed="19.60" speedRelative="1.00" departed="0" arrived="0" entered="28" left="27" laneChangedFrom="0" laneChangedTo="0" teleported="1"/>
        <edge id="6/1to7/1" sampledSeconds="1346.66" traveltime="50.00" overlapTraveltime="50.25" density="22.90" laneDensity="22.90" occupancy="11.39" waitingTime="0.00" timeLoss="0.00" speed="19.60" speedRelative="1.00" departed="0" arrived="0" entered="27" left="28" laneChangedFrom="0" laneChangedTo="0"/>
        <edge id="7/1to8/1" sampledSeconds="1363.02" traveltime="50.00" overlapTraveltime="50.25" density="23.18" laneDensity="23.18" occupancy="11.53" waitingTime="0.00" timeLoss="0.00" speed="19.60" speedRelative="1.00" departed="0" arrived="0" entered="28" left="27" laneChangedFrom="0" laneChangedTo="0"/>
        <edge id="8/1to9/1" sampledSeconds="1360.89" traveltime="50.00" overlapTraveltime="50.25" density="23.15" laneDensity="23.15" occupancy="11.51" waitingTime="0.00" timeLoss="0.00" speed="19.60" speedRelative="1.00" departed="0" arrived="0" entered="27" left="28" laneChangedFrom="0" laneChangedTo="0"/>
        <edge id="9/1to10/1" sampledSeconds="1406.75" traveltime="50.00" overlapTraveltime="50.25" density="23.93" laneDensity="23.93" occupancy="11.90" waitingTime="0.00" timeLoss="0.00" speed="19.60" speedRelative="1.00" departed="0" arrived="0" entered="28" left="28" laneChangedFrom="0" laneChangedTo="0"/>
    </interval>
    <interval begin="480.00" end="540.00" id="dump_60">
        <edge id="1/1to2/1" sampledSeconds="2020.08" traveltime="71.68" overlapTraveltime="72.26" density="34.36" laneDensity="34.36" occupancy="17.08" waitingTime="3.00" timeLoss="615.28" speed="13.63" speedRelative="0.70" departed="0" arrived="0" entered="28" left="27" laneChangedFrom="0" laneChangedTo="0"/>
        <edge id="10/1to1/1" sampledSeconds="1402.76" traveltime="50.00" overlapTraveltime="50.25" density="23.86" laneDensity="23.86" occupancy="11.87" waitingTime="0.00" timeLoss="0.00" speed="19.60" speedRelative="1.00" departed="0" arrived="0" entered="28" left="28" laneChangedFrom="0" laneChangedTo="0"/>
        <edge id="2/1to3/1" sampledSeconds="1841.77" traveltime="64.05" overlapTraveltime="64.79" density="31.32" laneDensity="31.32" occupancy="15.50" waitingTime="1.00" timeLoss="413.37" speed="15.20" speedRelative="0.78" departed="0" arrived="0" entered="27" left="29" laneChangedFrom="0" laneChangedTo="0"/>
        <edge id="3/1to4/1" sampledSeconds="1596.42" traveltime="57.54" overlapTraveltime="57.80" density="27.15" laneDensity="27.15" occupancy="13.45" waitingTime="0.00" timeLoss="208.41" speed="17.04" speedRelative="0.87" departed="0" arrived="0" entered="29" left="27" laneChangedFrom="0" laneChangedTo="0"/>
        <edge id="4/1to5/1" sampledSeconds="1460.50" traveltime="52.44" overlapTraveltime="52.70" density="24.84" laneDensity="24.84" occupancy="12.36" waitingTime="0.00" timeLoss="67.75" speed="18.69" speedRelative="0.95" departed="0" arrived="0" entered="27" left="28" laneChangedFrom="0" laneChangedTo="0"/>
        <edge id="5/1to6/1" sampledSeconds="1401.88" traveltime="50.00" overlapTraveltime="50.25" density="23.84" laneDensity="23.84" occupancy="11.86" waitingTime="0.00" timeLoss="0.00" speed="19.60" speedRelative="1.00" departed="0" arrived="0" entered="27" left="29" laneChangedFrom="0" laneChangedTo="0"/>
        <edge id="6/1to7/1" sampledSeconds="1378.52" traveltime="50.00" overlapTraveltime="50.25" density="23.45" laneDensity="23.45" occupancy="11.66" waitingTime="0.00" timeLoss="0.00" speed="19.60" speedRelative="1.00" departed="0" arrived="0" entered="29" left="27" laneChangedFrom="0" laneChangedTo="0" teleported="1"/>
        <edge id="7/1to8/1" sampledSeconds="1337.40" traveltime="50.00" overlapTraveltime="50.25" density="22.75" laneDensity="22.75" occupancy="11.32" waitingTime="0.00" timeLoss="0.00" speed="19.60" speedRelative="1.00" departed="0" arrived="0" entered="27" left="27" laneChangedFrom="0" laneChangedTo="0"/>
        <edge id="8/1to9/1" sampledSeconds="1361.62" traveltime="50.00" overlapTraveltime="50.25" density="23.16" laneDensity="23.16" occupancy="11.52" waitingTime="0.00" timeLoss="0.00" speed="19.60" speedRelative="1.00" departed="0" arrived="0" entered="27" left="27" laneChangedFrom="0" laneChangedTo="0"/>
        <edge id="9/1to10/1" sampledSeconds="1356.29" traveltime="50.00" overlapTraveltime="50.25" density="23.07" laneDensity="23.07" occupancy="11.47" waitingTime="0.00" timeLoss="0.00" speed="19.60" speedRelative="1.00" departed="0" arrived="0" entered="27" left="28" laneChangedFrom="0" laneChangedTo="0"/>
    </interval>
    <interval begin="540.00" end="600.00" id="dump_60">
        <edge id="1/1to2/1" sampledSeconds="2024.58" traveltime="73.40" overlapTraveltime="73.69" density="34.43" laneDensity="34.43" occupancy="17.15" waitingTime="1.00" timeLoss="643.94" speed="13.37" speedRelative="0.68" departed="0" arrived="0" entered="27" left="28" laneChangedFrom="0" laneChangedTo="0"/>
        <edge id="10/1to1/1" sampledSeconds="1355.33" traveltime="50.00" overlapTraveltime="50.25" density="23.05" laneDensity="23.05" occupancy="11.47" waitingTime="0.00" timeLoss="0.00" speed="19.60" speedRelative="1.00" departed="0" arrived="0" entered="27" left="27" laneChangedFrom="0" laneChangedTo="0"/>
        <edge id="2/1to3/1" sampledSeconds="1756.45" traveltime="61.57" overlapTraveltime="61.93" density="29.87" laneDensity="29.87" occupancy="14.86" waitingTime="1.00" timeLoss="331.20" speed="15.90" speedRelative="0.81" departed="0" arrived="0" entered="28" left="30" laneChangedFrom="0" laneChangedTo="0" teleported="1"/>
        <edge id="3/1to4/1" sampledSeconds="1628.87" traveltime="57.93" overlapTraveltime="58.18" density="27.70" laneDensity="27.70" occupancy="13.78" waitingTime="0.00" timeLoss="222.08" speed="16.93" speedRelative="0.86" departed="0" arrived="0" entered="29" left="28" laneChangedFrom="0" laneChangedTo="0"/>
        <edge id="4/1to5/1" sampledSeconds="1493.25" traveltime="53.45" overlapTraveltime="53.71" density="25.40" laneDensity="25.40" occupancy="12.64" waitingTime="0.00" timeLoss="96.07" speed="18.34" speedRelative="0.94" departed="0" arrived="0" entered="28" left="27" laneChangedFrom="0" laneChangedTo="0"/>
        <edge id="5/1to6/1" sampledSeconds="1370.02" traveltime="50.00" overlapTraveltime="50.25" density="23.30" laneDensity="23.30" occupancy="11.59" waitingTime="0.00" timeLoss="0.00" speed="19.60" speedRelative="1.00" departed="0" arrived="0" entered="28" left="27" laneChangedFrom="0" laneChangedTo="0"/>
        <edge id="6/1to7/1" sampledSeconds="1392.00" traveltime="50.00" overlapTraveltime="50.25" density="23.67" laneDensity="23.67" occupancy="11.78" waitingTime="0.00" timeLoss="0.00" speed="19.60" speedRelative="1.00" departed="0" arrived="0" entered="27" left="28" laneChangedFrom="0" laneChangedTo="0"/>
        <edge id="7/1to8/1" sampledSeconds="1398.11" traveltime="50.00" overlapTraveltime="50.25" density="23.78" laneDensity="23.78" occupancy="11.83" waitingTime="0.00" timeLoss="0.00" speed="19.60" speedRelative="1.00" departed="0" arrived="0" entered="28" left="27" laneChangedFrom="0" laneChangedTo="0" teleported="1"/>
        <edge id="8/1to9/1" sampledSeconds="1333.56" traveltime="50.00" overlapTraveltime="50.25" density="22.68" laneDensity="22.68" occupancy="11.28" waitingTime="0.00" timeLoss="0.00" speed="19.60" speedRelative="1.00" departed="0" arrived="0" entered="27" left="28" laneChangedFrom="0" laneChangedTo="0" teleported="1"/>
        <edge id="9/1to10/1" sampledSeconds="1358.13" traveltime="50.00" overlapTraveltime="50.25" density="23.10" laneDensity="23.10" occupancy="11.49" waitingTime="0.00" timeLoss="0.00" speed="19.60" speedRelative="1.00" departed="0" arrived="0" entered="28" left="27" laneChangedFrom="0" laneChangedTo="0"/>
    </interval>
    <interval begin="600.00" end="660.00" id="dump_60">
        <edge id="1/1to2/1" sampledSeconds="1883.14" traveltime="68.26" overlapTraveltime="68.53" density="32.03" laneDensity="32.03" occupancy="15.95" waitingTime="0.00" timeLoss="502.27" speed="14.37" speedRelative="0.73" departed="0" arrived="0" entered="27" left="30" laneChangedFrom="0" laneChangedTo="0"/>
        <edge id="10/1to1/1" sampledSeconds="1356.38" traveltime="50.00" overlapTraveltime="50.25" density="23.07" laneDensity="23.07" occupancy="11.48" waitingTime="0.00" timeLoss="0.00" speed="19.60" speedRelative="1.00" departed="0" arrived="0" entered="27" left="27" laneChangedFrom="0" laneChangedTo="0"/>
        <edge id="2/1to3/1" sampledSeconds="1798.64" traveltime="62.15" overlapTraveltime="62.61" density="30.59" laneDensity="30.59" occupancy="15.20" waitingTime="2.00" timeLoss="354.91" speed="15.73" speedRelative="0.80" departed="0" arrived="0" entered="30" left="27" laneChangedFrom="0" laneChangedTo="0"/>
        <edge id="3/1to4/1" sampledSeconds="1658.63" traveltime="59.75" overlapTraveltime="60.00" density="28.21" laneDensity="28.21" occupancy="14.01" waitingTime="1.00" timeLoss="269.54" speed="16.41" speedRelative="0.84" departed="0" arrived="0" entered="28" left="29" laneChangedFrom="0" laneChangedTo="0" teleported="1"/>
        <edge id="4/1to5/1" sampledSeconds="1509.05" traveltime="53.83" overlapTraveltime="54.08" density="25.67" laneDensity="25.67" occupancy="12.77" waitingTime="0.00" timeLoss="106.84" speed="18.21" speedRelative="0.93" departed="0" arrived="0" entered="29" left="28" laneChangedFrom="0" laneChangedTo="0"/>
        <edge id="5/1to6/1" sampledSeconds="1383.20" traveltime="50.00" overlapTraveltime="50.25" density="23.53" laneDensity="23.53" occupancy="11.70" waitingTime="0.00" timeLoss="0.00" speed="19.60" speedRelative="1.00" departed="0" arrived="0" entered="28" left="28" laneChangedFrom="0" laneChangedTo="0"/>
        <edge id="6/1to7/1" sampledSeconds="1372.96" traveltime="50.00" overlapTraveltime="50.25" density="23.35" laneDensity="23.35" occupancy="11.62" waitingTime="0.00" timeLoss="0.00" speed="19.60" speedRelative="1.00" departed="0" arrived="0" entered="27" left="27" laneChangedFrom="0" laneChangedTo="0"/>
        <edge id="7/1to8/1" sampledSeconds="1381.15" traveltime="50.00" overlapTraveltime="50.25" density="23.49" laneDensity="23.49" occupancy="11.68" waitingTime="0.00" timeLoss="0.00" speed="19.60" speedRelative="1.00" departed="0" arrived="0" entered="27" left="29" laneChangedFrom="0" laneChangedTo="0"/>
        <edge id="8/1to9/1" sampledSeconds="1409.66" traveltime="50.00" overlapTraveltime="50.25" density="23.98" laneDensity="23.98" occupancy="11.93" waitingTime="0.00" timeLoss="0.00" speed="19.60" speedRelative="1.00" departed="0" arrived="0" entered="29" left="27" laneChangedFrom="0" laneChangedTo="0"/>
        <edge id="9/1to10/1" sampledSeconds="1337.95" traveltime="50.00" overlapTraveltime="50.25" density="22.76" laneDensity="22.76" occupancy="11.32" waitingTime="0.00" timeLoss="0.00" speed="19.60" speedRelative="1.00" departed="0" arrived="0" entered="27" left="27" laneChangedFrom="0" laneChangedTo="0" teleported="1"/>
    </interval>
    <interval begin="660.00" end="720.00" id="dump_60">
        <edge id="1/1to2/1" sampledSeconds="1779.94" traveltime="64.27" overlapTraveltime="64.54" density="30.27" laneDensity="30.27" occupancy="15.07" waitingTime="0.00" timeLoss="394.05" speed="15.26" speedRelative="0.78" departed="0" arrived="0" entered="28" left="28" laneChangedFrom="0" laneChangedTo="0"/>
        <edge id="10/1to1/1" sampledSeconds="1346.63" traveltime="50.00" overlapTraveltime="50.25" density="22.90" laneDensity="22.90" occupancy="11.39" waitingTime="0.00" timeLoss="0.00" speed="19.60" speedRelative="1.00" departed="0" arrived="0" entered="28" left="28" laneChangedFrom="0" laneChangedTo="0" teleported="1"/>
        <edge id="2/1to3/1" sampledSeconds="1797.50" traveltime="63.44" overlapTraveltime="64.18" density="30.57" laneDensity="30.57" occupancy="15.17" waitingTime="4.00" timeLoss="389.98" speed="15.35" speedRelative="0.78" departed="0" arrived="0" entered="28" left="28" laneChangedFrom="0" laneChangedTo="0" teleported="2"/>