<?xml version="1.0" encoding="UTF-8"?>

<!-- generated on 2026-04-09T16:38:04.539930+01:00 by Eclipse SUMO sumo v1_26_0+1034-8d7c6592743
This data file and the accompanying materials
are made available under the terms of the Eclipse Public License v2.0
which accompanies this distribution, and is available at
http://www.eclipse.org/legal/epl-v20.html
This file may also be made available under the following Secondary
Licenses when the conditions for such availability set forth in the Eclipse
Public License 2.0 are satisfied: GNU General Public License, version 2
or later which is available at
https://www.gnu.org/licenses/old-licenses/gpl-2.0-standalone.html
SPDX-License-Identifier: EPL-2.0 OR GPL-2.0-or-later
<sumoConfiguration xmlns:xsi="http://www.w3.org/2001/XMLSchema-instance" xsi:noNamespaceSchemaLocation="http://sumo.dlr.de/xsd/sumoConfiguration.xsd">

    <input>
        <net-file value="motorway.net.xml"/>
        <route-files value="input_routes.rou.xml"/>
    </input>

    <output>
        <write-license value="true"/>
        <tripinfo-output value="tripinfos.xml"/>
    </output>

    <time>
        <step-length value="0.1"/>
    </time>

    <processing>
        <default.speeddev value="0"/>
    </processing>

    <report>
        <xml-validation value="never"/>
        <duration-log.disable value="true"/>
        <no-step-log value="true"/>
    </report>

    <mesoscopic>
        <mesosim value="true"/>
        <meso-junction-control value="true"/>
    </mesoscopic>

</sumoConfiguration>
-->

<tripinfos xmlns:xsi="http://www.w3.org/2001/XMLSchema-instance" xsi:noNamespaceSchemaLocation="http://sumo.dlr.de/xsd/tripinfo_file.xsd">
    <tripinfo id="stopped" depart="0.00" departLane="beg_0" departPos="2899.35" departSpeed="0.00" departDelay="0.00" arrival="505.60" arrivalLane="beg2_0" arrivalPos="10.00" arrivalSpeed="36.00" duration="505.60" routeLength="114.65" waitingTime="0.00" waitingCount="0" stopTime="500.00" timeLoss="500.00" rerouteNo="0" devices="tripinfo_stopped" vType="DEFAULT_VEHTYPE" speedFactor="1.00" vaporized=""/>
    <tripinfo id="overtaking" depart="0.00" departLane="beg_0" departPos="2899.35" departSpeed="0.19" departDelay="0.00" arrival="506.30" arrivalLane="beg2_0" arrivalPos="10.00" arrivalSpeed="36.00" duration="506.30" routeLength="114.65" waitingTime="0.00" waitingCount="0" stopTime="0.00" timeLoss="500.67" rerouteNo="0" devices="tripinfo_overtaking" vType="DEFAULT_VEHTYPE" speedFactor="1.00" vaporized=""/>
    <tripinfo id="overtaking2" depart="10.00" departLane="beg_0" departPos="2802.71" departSpeed="35.99" departDelay="0.00" arrival="507.00" arrivalLane="beg2_0" arrivalPos="10.00" arrivalSpeed="36.00" duration="497.00" routeLength="211.29" waitingTime="0.22" waitingCount="0" stopTime="0.00" timeLoss="488.65" rerouteNo="0" devices="tripinfo_overtaking2" vType="DEFAULT_VEHTYPE" speedFactor="1.00" vaporized=""/>
    <tripinfo id="overtaking3" depart="20.00" departLane="beg_0" departPos="2802.71" departSpeed="35.99" departDelay="0.00" arrival="507.60" arrivalLane="beg2_0" arrivalPos="10.00" arrivalSpeed="36.00" duration="487.60" routeLength="211.29" waitingTime="0.22" waitingCount="0" stopTime="0.00" timeLoss="479.32" rerouteNo="0" devices="tripinfo_overtaking3" vType="DEFAULT_VEHTYPE" speedFactor="1.00" vaporized=""/>
    <tripinfo id="overtaking4" depart="30.00" departLane="beg_0" departPos="2802.71" departSpeed="35.99" departDelay="0.00" arrival="508.30" arrivalLane="beg2_0" arrivalPos="10.00" arrivalSpeed="36.00" duration="478.30" routeLength="211.29" waitingTime="0.00" waitingCount="0" stopTime="1.00" timeLoss="469.99" rerouteNo="0" devices="tripinfo_overtaking4" vType="DEFAULT_VEHTYPE" speedFactor="1.00" vaporized=""/>
    <tripinfo id="stopped2" depart="50.00" departLane="beg_0" departPos="2899.35" departSpeed="0.00" departDelay="0.00" arrival="555.60" arrivalLane="beg2_0" arrivalPos="10.00" arrivalSpeed="36.00" duration="505.60" routeLength="114.65" waitingTime="0.00" waitingCount="0" stopTime="500.00" timeLoss="500.00" rerouteNo="0" devices="tripinfo_stopped2" vType="DEFAULT_VEHTYPE" speedFactor="1.00" vaporized=""/>
    <tripinfo id="overtaking5" depart="50.00" departLane="beg_0" departPos="2802.71" departSpeed="35.99" departDelay="0.00" arrival="556.30" arrivalLane="beg2_0" arrivalPos="10.00" arrivalSpeed="36.00" duration="506.30" routeLength="211.29" waitingTime="0.00" waitingCount="0" stopTime="0.00" timeLoss="497.98" rerouteNo="0" devices="tripinfo_overtaking5" vType="DEFAULT_VEHTYPE" speedFactor="1.00" vaporized=""/>
</tripinfos>
