<?xml version="1.0" encoding="UTF-8"?>

<!-- generated on Wed May 30 09:52:23 2018 by Eclipse SUMO Version b2daee9
This data file and the accompanying materials
are made available under the terms of the Eclipse Public License v2.0
which accompanies this distribution, and is available at
http://www.eclipse.org/legal/epl-v20.html
SPDX-License-Identifier: EPL-2.0
<configuration xmlns:xsi="http://www.w3.org/2001/XMLSchema-instance" xsi:noNamespaceSchemaLocation="http://sumo.dlr.de/xsd/sumoConfiguration.xsd">

    <input>
        <net-file value="motorway.net.xml"/>
        <route-files value="input_routes.rou.xml"/>
    </input>

    <output>
        <write-license value="true"/>
        <tripinfo-output value="tripinfos.xml"/>
    </output>

    <time>
        <step-length value="0.1"/>
    </time>

    <processing>
        <lateral-resolution value="0.8"/>
    </processing>

    <report>
        <xml-validation value="never"/>
        <duration-log.disable value="true"/>
        <no-step-log value="true"/>
    </report>

    <gui_only>
        <tracker-interval value="0.1"/>
    </gui_only>

</configuration>
-->

<tripinfos xmlns:xsi="http://www.w3.org/2001/XMLSchema-instance" xsi:noNamespaceSchemaLocation="http://sumo.dlr.de/xsd/tripinfo_file.xsd">
    <tripinfo id="overtaking" depart="0.00" departLane="beg_0" departPos="2968.50" departPosLat="0.00" departSpeed="0.00" departDelay="0.00" arrival="11.90" arrivalLane="beg2_1" arrivalPos="10.00" arrivalPosLat="-1.51" arrivalSpeed="12.48" duration="11.90" routeLength="43.00" waitingTime="1.00" waitingCount="1" stopTime="0.00" timeLoss="10.70" rerouteNo="0" devices="tripinfo_overtaking" vType="DEFAULT_VEHTYPE" speedFactor="1.00" vaporized=""/>
    <tripinfo id="overtaking2" depart="10.00" departLane="beg_0" departPos="2848.50" departPosLat="0.00" departSpeed="0.00" departDelay="0.00" arrival="31.80" arrivalLane="beg2_1" arrivalPos="10.00" arrivalPosLat="-1.51" arrivalSpeed="12.48" duration="21.80" routeLength="163.00" waitingTime="1.00" waitingCount="1" stopTime="0.00" timeLoss="17.27" rerouteNo="0" devices="tripinfo_overtaking2" vType="DEFAULT_VEHTYPE" speedFactor="1.00" vaporized=""/>
    <tripinfo id="overtaking3" depart="20.00" departLane="beg_1" departPos="2848.50" departPosLat="0.00" departSpeed="0.00" departDelay="0.00" arrival="41.70" arrivalLane="beg2_1" arrivalPos="10.00" arrivalPosLat="-1.52" arrivalSpeed="12.48" duration="21.70" routeLength="163.00" waitingTime="0.80" waitingCount="1" stopTime="0.00" timeLoss="17.17" rerouteNo="0" devices="tripinfo_overtaking3" vType="DEFAULT_VEHTYPE" speedFactor="1.00" vaporized=""/>
    <tripinfo id="overtaking4" depart="30.00" departLane="beg_0" departPos="2848.50" departPosLat="0.00" departSpeed="0.00" departDelay="0.00" arrival="56.00" arrivalLane="beg2_1" arrivalPos="10.00" arrivalPosLat="-1.49" arrivalSpeed="12.48" duration="26.00" routeLength="163.00" waitingTime="1.10" waitingCount="1" stopTime="1.10" timeLoss="20.37" rerouteNo="0" devices="tripinfo_overtaking4" vType="DEFAULT_VEHTYPE" speedFactor="1.00" vaporized=""/>
    <tripinfo id="overtaking5" depart="51.20" departLane="beg_0" departPos="2848.50" departPosLat="0.00" departSpeed="0.00" departDelay="1.20" arrival="72.40" arrivalLane="beg2_1" arrivalPos="10.00" arrivalPosLat="-1.43" arrivalSpeed="13.78" duration="21.20" routeLength="163.00" waitingTime="0.00" waitingCount="0" stopTime="0.00" timeLoss="16.64" rerouteNo="0" devices="tripinfo_overtaking5" vType="DEFAULT_VEHTYPE" speedFactor="1.00" vaporized=""/>
    <tripinfo id="stopped" depart="0.00" departLane="beg_0" departPos="2988.50" departPosLat="0.00" departSpeed="0.00" departDelay="0.00" arrival="504.30" arrivalLane="beg2_0" arrivalPos="10.00" arrivalPosLat="0.00" arrivalSpeed="10.92" duration="504.30" routeLength="23.00" waitingTime="0.00" waitingCount="0" stopTime="500.10" timeLoss="3.55" rerouteNo="0" devices="tripinfo_stopped" vType="DEFAULT_VEHTYPE" speedFactor="1.00" vaporized=""/>
    <tripinfo id="stopped2" depart="51.20" departLane="beg_0" departPos="2978.50" departPosLat="0.00" departSpeed="0.00" departDelay="1.20" arrival="556.30" arrivalLane="beg2_0" arrivalPos="10.00" arrivalPosLat="0.00" arrivalSpeed="13.00" duration="505.10" routeLength="33.00" waitingTime="0.00" waitingCount="0" stopTime="500.10" timeLoss="4.08" rerouteNo="0" devices="tripinfo_stopped2" vType="DEFAULT_VEHTYPE" speedFactor="1.00" vaporized=""/>
</tripinfos>
