<?xml version="1.0" encoding="UTF-8"?>

<!-- generated on 2022-01-18 17:02:22 by Eclipse SUMO sumo Version v1_11_0+1250-df02d0a
This data file and the accompanying materials
are made available under the terms of the Eclipse Public License v2.0
which accompanies this distribution, and is available at
http://www.eclipse.org/legal/epl-v20.html
SPDX-License-Identifier: EPL-2.0
<configuration xmlns:xsi="http://www.w3.org/2001/XMLSchema-instance" xsi:noNamespaceSchemaLocation="http://sumo.dlr.de/xsd/sumoConfiguration.xsd">

    <input>
        <net-file value="net.net.xml"/>
        <route-files value="input_routes.rou.xml"/>
        <additional-files value="input_additional.add.xml"/>
    </input>

    <output>
        <write-license value="true"/>
        <tripinfo-output value="tripinfos.xml"/>
        <stop-output value="stopinfos.xml"/>
    </output>

    <processing>
        <default.speeddev value="0"/>
        <pedestrian.model value="nonInteracting"/>
    </processing>

    <report>
        <verbose value="true"/>
        <xml-validation value="never"/>
        <xml-validation.routes value="never"/>
        <no-step-log value="true"/>
    </report>

</configuration>
-->

<tripinfos xmlns:xsi="http://www.w3.org/2001/XMLSchema-instance" xsi:noNamespaceSchemaLocation="http://sumo.dlr.de/xsd/tripinfo_file.xsd">
    <containerinfo id="container.0" depart="0.00" type="DEFAULT_CONTAINERTYPE">
        <tranship depart="0.00" departPos="0.00" arrival="111.00" arrivalPos="55.00" duration="111.00" routeLength="154.17" maxSpeed="1.39"/>
        <transport waitingTime="360.00" vehicle="train0" depart="471.00" arrival="490.00" arrivalPos="60.00" duration="19.00" routeLength="190.08" timeLoss="5.33"/>
        <tranship depart="490.00" departPos="60.00" arrival="552.00" arrivalPos="45.00" duration="62.00" routeLength="86.11" maxSpeed="1.39"/>
        <stop duration="20.00" arrival="572.00" arrivalPos="45.00" actType="singing"/>
        <transport waitingTime="0.00" vehicle="car0" depart="572.00" arrival="592.00" arrivalPos="92.00" duration="20.00" routeLength="242.00" timeLoss="2.19"/>
    </containerinfo>
    <tripinfo id="car0" depart="572.00" departLane="1/4to2/4_0" departPos="50.00" departSpeed="0.00" departDelay="0.00" arrival="592.00" arrivalLane="3/4to4/4_0" arrivalPos="92.00" arrivalSpeed="13.90" duration="20.00" routeLength="242.00" waitingTime="0.00" waitingCount="0" stopTime="0.00" timeLoss="2.19" rerouteNo="0" devices="tripinfo_car0 container_car0" vType="DEFAULT_VEHTYPE" speedFactor="1.00" vaporized=""/>
    <tripinfo id="train0" depart="50.00" departLane="1/4to1/3_0" departPos="5.10" departSpeed="0.00" departDelay="0.00" arrival="861.00" arrivalLane="1/4to1/3_0" arrivalPos="90.50" arrivalSpeed="13.90" duration="811.00" routeLength="467.98" waitingTime="0.00" waitingCount="0" stopTime="765.00" timeLoss="11.70" rerouteNo="0" devices="tripinfo_train0 container_train0" vType="DEFAULT_VEHTYPE" speedFactor="1.00" vaporized=""/>
    <containerinfo id="container.2" depart="0.50" type="DEFAULT_CONTAINERTYPE">
        <tranship depart="1.00" departPos="0.00" arrival="112.00" arrivalPos="55.00" duration="111.00" routeLength="154.17" maxSpeed="1.39"/>
        <transport waitingTime="359.00" vehicle="train0" depart="471.00" arrival="579.00" arrivalPos="60.00" duration="108.00" routeLength="190.08" timeLoss="5.33"/>
        <tranship depart="579.00" departPos="60.00" arrival="641.00" arrivalPos="45.00" duration="62.00" routeLength="86.11" maxSpeed="1.39"/>
        <stop duration="20.00" arrival="661.00" arrivalPos="45.00" actType="singing"/>
        <transport waitingTime="201.00" vehicle="NULL" depart="-1" arrival="-1" arrivalPos="-1" duration="-1" routeLength="-1" timeLoss="-1"/>
    </containerinfo>
    <containerinfo id="container.1" depart="0.25" type="DEFAULT_CONTAINERTYPE">
        <tranship depart="1.00" departPos="0.00" arrival="112.00" arrivalPos="55.00" duration="111.00" routeLength="154.17" maxSpeed="1.39"/>
        <transport waitingTime="359.00" vehicle="train0" depart="471.00" arrival="669.00" arrivalPos="60.00" duration="198.00" routeLength="190.08" timeLoss="5.33"/>
        <tranship depart="669.00" departPos="60.00" arrival="731.00" arrivalPos="45.00" duration="62.00" routeLength="86.11" maxSpeed="1.39"/>
        <stop duration="20.00" arrival="751.00" arrivalPos="45.00" actType="singing"/>
        <transport waitingTime="111.00" vehicle="NULL" depart="-1" arrival="-1" arrivalPos="-1" duration="-1" routeLength="-1" timeLoss="-1"/>
    </containerinfo>
    <containerinfo id="container.3" depart="0.75" type="DEFAULT_CONTAINERTYPE">
        <tranship depart="1.00" departPos="0.00" arrival="112.00" arrivalPos="55.00" duration="111.00" routeLength="154.17" maxSpeed="1.39"/>
        <transport waitingTime="359.00" vehicle="train0" depart="471.00" arrival="759.00" arrivalPos="60.00" duration="288.00" routeLength="190.08" timeLoss="5.33"/>
        <tranship depart="759.00" departPos="60.00" arrival="821.00" arrivalPos="45.00" duration="62.00" routeLength="86.11" maxSpeed="1.39"/>
        <stop duration="20.00" arrival="841.00" arrivalPos="45.00" actType="singing"/>
        <transport waitingTime="21.00" vehicle="NULL" depart="-1" arrival="-1" arrivalPos="-1" duration="-1" routeLength="-1" timeLoss="-1"/>
    </containerinfo>
</tripinfos>
