<?xml version="1.0" encoding="UTF-8"?>

<!-- generated on Wed Feb 12 15:16:42 2020 by Eclipse SUMO Version v1_5_0+0030-33ecf87
This data file and the accompanying materials
are made available under the terms of the Eclipse Public License v2.0
which accompanies this distribution, and is available at
http://www.eclipse.org/legal/epl-v20.html
SPDX-License-Identifier: EPL-2.0
<configuration xmlns:xsi="http://www.w3.org/2001/XMLSchema-instance" xsi:noNamespaceSchemaLocation="http://sumo.dlr.de/xsd/sumoConfiguration.xsd">

    <input>
        <net-file value="net.net.xml"/>
        <route-files value="input_routes.rou.xml"/>
    </input>

    <output>
        <write-license value="true"/>
        <fcd-output value="fcd.xml"/>
        <tripinfo-output value="tripinfos.xml"/>
        <lanechange-output value="lanechanges.xml"/>
    </output>

    <time>
        <step-length value="0.2"/>
    </time>

    <processing>
        <lateral-resolution value="0.2"/>
        <default.speeddev value="0"/>
    </processing>

    <report>
        <xml-validation value="never"/>
        <no-step-log value="true"/>
    </report>

    <gui_only>
        <tracker-interval value="0.2"/>
    </gui_only>

</configuration>
-->

<tripinfos xmlns:xsi="http://www.w3.org/2001/XMLSchema-instance" xsi:noNamespaceSchemaLocation="http://sumo.dlr.de/xsd/tripinfo_file.xsd">
    <tripinfo id="ego" depart="0.00" departLane="beg_0" departPos="0.10" departPosLat="0.00" departSpeed="13.89" departDelay="0.00" arrival="21.60" arrivalLane="end_0" arrivalPos="96.00" arrivalPosLat="0.00" arrivalSpeed="13.89" duration="21.60" routeLength="299.90" waitingTime="0.00" waitingCount="0" stopTime="0.00" timeLoss="0.00" rerouteNo="0" devices="tripinfo_ego fcd_ego" vType="tEgo" speedFactor="1.00" vaporized=""/>
    <tripinfo id="B" depart="0.00" departLane="beg_1" departPos="0.00" departPosLat="0.00" departSpeed="13.89" departDelay="0.00" arrival="23.20" arrivalLane="end_0" arrivalPos="96.00" arrivalPosLat="0.00" arrivalSpeed="13.89" duration="23.20" routeLength="300.00" waitingTime="0.00" waitingCount="0" stopTime="0.00" timeLoss="1.52" rerouteNo="0" devices="tripinfo_B fcd_B" vType="tB" speedFactor="1.00" vaporized=""/>
</tripinfos>
