<?xml version="1.0"?>

<!-- generated on 11/28/07 13:54:46 by SUMO sumo Version 0.9.7
<configuration>

   <input>
      <net-file>net.net.xml</net-file>
      <route-files>input_routes.rou.xml</route-files>
   </input>

   <output>
      <tripinfo-output>tripinfos.xml</tripinfo-output>
   </output>

   <time>
      <begin>0</begin>
      <end>1000</end>
   </time>

   <processing>
      <no-duration-log>true</no-duration-log>
      <no-step-log>true</no-step-log>
   </processing>

</configuration>
-->

<tripinfos>
   <tripinfo vehicle_id="horizontal" start="100" wished="100" end="331" duration="231" waited="0" reroutes="0" devices="" vtype="SUMO_DEFAULT_TYPE"/>
   <tripinfo vehicle_id="horizontal_0" start="110" wished="110" end="333" duration="223" waited="0" reroutes="0" devices="" vtype="SUMO_DEFAULT_TYPE"/>
   <tripinfo vehicle_id="horizontal_1" start="120" wished="120" end="335" duration="215" waited="0" reroutes="0" devices="" vtype="SUMO_DEFAULT_TYPE"/>
   <tripinfo vehicle_id="horizontal_2" start="130" wished="130" end="337" duration="207" waited="0" reroutes="0" devices="" vtype="SUMO_DEFAULT_TYPE"/>
   <tripinfo vehicle_id="vertical" start="100" wished="100" end="363" duration="263" waited="0" reroutes="0" devices="" vtype="SUMO_DEFAULT_TYPE"/>
   <tripinfo vehicle_id="vertical_0" start="110" wished="110" end="365" duration="255" waited="0" reroutes="0" devices="" vtype="SUMO_DEFAULT_TYPE"/>
   <tripinfo vehicle_id="vertical_1" start="120" wished="120" end="367" duration="247" waited="0" reroutes="0" devices="" vtype="SUMO_DEFAULT_TYPE"/>
   <tripinfo vehicle_id="vertical_2" start="130" wished="130" end="369" duration="239" waited="0" reroutes="0" devices="" vtype="SUMO_DEFAULT_TYPE"/>
   <tripinfo vehicle_id="vertical_3" start="140" wished="140" end="371" duration="231" waited="0" reroutes="0" devices="" vtype="SUMO_DEFAULT_TYPE"/>
   <tripinfo vehicle_id="vertical_4" start="150" wished="150" end="373" duration="223" waited="0" reroutes="0" devices="" vtype="SUMO_DEFAULT_TYPE"/>
   <tripinfo vehicle_id="horizontal_3" start="140" wished="140" end="394" duration="254" waited="0" reroutes="0" devices="" vtype="SUMO_DEFAULT_TYPE"/>
   <tripinfo vehicle_id="horizontal_4" start="150" wished="150" end="396" duration="246" waited="0" reroutes="0" devices="" vtype="SUMO_DEFAULT_TYPE"/>
   <tripinfo vehicle_id="horizontal_5" start="160" wished="160" end="398" duration="238" waited="0" reroutes="0" devices="" vtype="SUMO_DEFAULT_TYPE"/>
   <tripinfo vehicle_id="horizontal_6" start="170" wished="170" end="401" duration="231" waited="0" reroutes="0" devices="" vtype="SUMO_DEFAULT_TYPE"/>
   <tripinfo vehicle_id="horizontal_7" start="180" wished="180" end="402" duration="222" waited="0" reroutes="0" devices="" vtype="SUMO_DEFAULT_TYPE"/>
   <tripinfo vehicle_id="horizontal_8" start="190" wished="190" end="404" duration="214" waited="0" reroutes="0" devices="" vtype="SUMO_DEFAULT_TYPE"/>
   <tripinfo vehicle_id="horizontal_9" start="200" wished="200" end="406" duration="206" waited="0" reroutes="0" devices="" vtype="SUMO_DEFAULT_TYPE"/>
   <tripinfo vehicle_id="vertical_5" start="160" wished="160" end="426" duration="266" waited="0" reroutes="0" devices="" vtype="SUMO_DEFAULT_TYPE"/>
   <tripinfo vehicle_id="vertical_6" start="170" wished="170" end="428" duration="258" waited="0" reroutes="0" devices="" vtype="SUMO_DEFAULT_TYPE"/>
   <tripinfo vehicle_id="vertical_7" start="180" wished="180" end="430" duration="250" waited="0" reroutes="0" devices="" vtype="SUMO_DEFAULT_TYPE"/>
   <tripinfo vehicle_id="vertical_8" start="190" wished="190" end="431" duration="241" waited="0" reroutes="0" devices="" vtype="SUMO_DEFAULT_TYPE"/>
   <tripinfo vehicle_id="vertical_9" start="200" wished="200" end="433" duration="233" waited="0" reroutes="0" devices="" vtype="SUMO_DEFAULT_TYPE"/>
   <tripinfo vehicle_id="vertical_10" start="210" wished="210" end="434" duration="224" waited="0" reroutes="0" devices="" vtype="SUMO_DEFAULT_TYPE"/>
   <tripinfo vehicle_id="vertical_11" start="220" wished="220" end="436" duration="216" waited="0" reroutes="0" devices="" vtype="SUMO_DEFAULT_TYPE"/>
   <tripinfo vehicle_id="horizontal_10" start="210" wished="210" end="456" duration="246" waited="0" reroutes="0" devices="" vtype="SUMO_DEFAULT_TYPE"/>
   <tripinfo vehicle_id="horizontal_11" start="220" wished="220" end="458" duration="238" waited="0" reroutes="0" devices="" vtype="SUMO_DEFAULT_TYPE"/>
   <tripinfo vehicle_id="horizontal_13" start="240" wished="240" end="460" duration="220" waited="0" reroutes="0" devices="" vtype="SUMO_DEFAULT_TYPE"/>
   <tripinfo vehicle_id="horizontal_12" start="230" wished="230" end="462" duration="232" waited="0" reroutes="0" devices="" vtype="SUMO_DEFAULT_TYPE"/>
   <tripinfo vehicle_id="vertical_12" start="230" wished="230" end="487" duration="257" waited="0" reroutes="0" devices="" vtype="SUMO_DEFAULT_TYPE"/>
   <tripinfo vehicle_id="vertical_13" start="240" wished="240" end="490" duration="250" waited="0" reroutes="0" devices="" vtype="SUMO_DEFAULT_TYPE"/>
   <tripinfo vehicle_id="vertical_14" start="250" wished="250" end="492" duration="242" waited="0" reroutes="0" devices="" vtype="SUMO_DEFAULT_TYPE"/>
   <tripinfo vehicle_id="vertical_15" start="260" wished="260" end="493" duration="233" waited="0" reroutes="0" devices="" vtype="SUMO_DEFAULT_TYPE"/>
   <tripinfo vehicle_id="vertical_16" start="270" wished="270" end="495" duration="225" waited="0" reroutes="0" devices="" vtype="SUMO_DEFAULT_TYPE"/>
   <tripinfo vehicle_id="vertical_17" start="280" wished="280" end="496" duration="216" waited="0" reroutes="0" devices="" vtype="SUMO_DEFAULT_TYPE"/>
   <tripinfo vehicle_id="always_right" start="100" wished="100" end="504" duration="404" waited="0" reroutes="0" devices="" vtype="SUMO_DEFAULT_TYPE"/>
   <tripinfo vehicle_id="always_left" start="100" wished="100" end="511" duration="411" waited="0" reroutes="0" devices="" vtype="SUMO_DEFAULT_TYPE"/>
   <tripinfo vehicle_id="always_left_0" start="110" wished="110" end="513" duration="403" waited="0" reroutes="0" devices="" vtype="SUMO_DEFAULT_TYPE"/>
   <tripinfo vehicle_id="always_left_1" start="120" wished="120" end="515" duration="395" waited="0" reroutes="0" devices="" vtype="SUMO_DEFAULT_TYPE"/>
   <tripinfo vehicle_id="always_left_2" start="130" wished="130" end="516" duration="386" waited="0" reroutes="0" devices="" vtype="SUMO_DEFAULT_TYPE"/>
   <tripinfo vehicle_id="horizontal_14" start="250" wished="250" end="518" duration="268" waited="0" reroutes="0" devices="" vtype="SUMO_DEFAULT_TYPE"/>
   <tripinfo vehicle_id="always_left_3" start="140" wished="140" end="518" duration="378" waited="0" reroutes="0" devices="" vtype="SUMO_DEFAULT_TYPE"/>
   <tripinfo vehicle_id="horizontal_15" start="260" wished="260" end="520" duration="260" waited="0" reroutes="0" devices="" vtype="SUMO_DEFAULT_TYPE"/>
   <tripinfo vehicle_id="always_left_4" start="150" wished="150" end="520" duration="370" waited="0" reroutes="0" devices="" vtype="SUMO_DEFAULT_TYPE"/>
   <tripinfo vehicle_id="horizontal_16" start="270" wished="270" end="522" duration="252" waited="0" reroutes="0" devices="" vtype="SUMO_DEFAULT_TYPE"/>
   <tripinfo vehicle_id="horizontal_17" start="280" wished="280" end="524" duration="244" waited="0" reroutes="0" devices="" vtype="SUMO_DEFAULT_TYPE"/>
   <tripinfo vehicle_id="horizontal_18" start="290" wished="290" end="525" duration="235" waited="0" reroutes="0" devices="" vtype="SUMO_DEFAULT_TYPE"/>
   <tripinfo vehicle_id="horizontal_20" start="310" wished="310" end="527" duration="217" waited="0" reroutes="0" devices="" vtype="SUMO_DEFAULT_TYPE"/>
   <tripinfo vehicle_id="horizontal_19" start="300" wished="300" end="529" duration="229" waited="0" reroutes="0" devices="" vtype="SUMO_DEFAULT_TYPE"/>
   <tripinfo vehicle_id="vertical_18" start="290" wished="290" end="549" duration="259" waited="0" reroutes="0" devices="" vtype="SUMO_DEFAULT_TYPE"/>
   <tripinfo vehicle_id="vertical_19" start="300" wished="300" end="552" duration="252" waited="0" reroutes="0" devices="" vtype="SUMO_DEFAULT_TYPE"/>
   <tripinfo vehicle_id="vertical_20" start="310" wished="310" end="554" duration="244" waited="0" reroutes="0" devices="" vtype="SUMO_DEFAULT_TYPE"/>
   <tripinfo vehicle_id="vertical_21" start="320" wished="320" end="556" duration="236" waited="0" reroutes="0" devices="" vtype="SUMO_DEFAULT_TYPE"/>
   <tripinfo vehicle_id="vertical_22" start="330" wished="330" end="557" duration="227" waited="0" reroutes="0" devices="" vtype="SUMO_DEFAULT_TYPE"/>
   <tripinfo vehicle_id="vertical_23" start="340" wished="340" end="559" duration="219" waited="0" reroutes="0" devices="" vtype="SUMO_DEFAULT_TYPE"/>
   <tripinfo vehicle_id="always_right_0" start="110" wished="110" end="568" duration="458" waited="0" reroutes="0" devices="" vtype="SUMO_DEFAULT_TYPE"/>
   <tripinfo vehicle_id="always_right_1" start="120" wished="120" end="570" duration="450" waited="0" reroutes="0" devices="" vtype="SUMO_DEFAULT_TYPE"/>
   <tripinfo vehicle_id="horizontal_21" start="320" wished="320" end="579" duration="259" waited="0" reroutes="0" devices="" vtype="SUMO_DEFAULT_TYPE"/>
   <tripinfo vehicle_id="horizontal_22" start="330" wished="330" end="582" duration="252" waited="0" reroutes="0" devices="" vtype="SUMO_DEFAULT_TYPE"/>
   <tripinfo vehicle_id="horizontal_23" start="340" wished="340" end="583" duration="243" waited="0" reroutes="0" devices="" vtype="SUMO_DEFAULT_TYPE"/>
   <tripinfo vehicle_id="always_left_5" start="160" wished="160" end="583" duration="423" waited="0" reroutes="0" devices="" vtype="SUMO_DEFAULT_TYPE"/>
   <tripinfo vehicle_id="horizontal_24" start="350" wished="350" end="585" duration="235" waited="0" reroutes="0" devices="" vtype="SUMO_DEFAULT_TYPE"/>
   <tripinfo vehicle_id="always_left_6" start="170" wished="170" end="585" duration="415" waited="0" reroutes="0" devices="" vtype="SUMO_DEFAULT_TYPE"/>
   <tripinfo vehicle_id="always_left_7" start="180" wished="180" end="586" duration="406" waited="0" reroutes="0" devices="" vtype="SUMO_DEFAULT_TYPE"/>
   <tripinfo vehicle_id="horizontal_26" start="370" wished="370" end="587" duration="217" waited="0" reroutes="0" devices="" vtype="SUMO_DEFAULT_TYPE"/>
   <tripinfo vehicle_id="always_left_8" start="190" wished="190" end="588" duration="398" waited="0" reroutes="0" devices="" vtype="SUMO_DEFAULT_TYPE"/>
   <tripinfo vehicle_id="horizontal_25" start="360" wished="360" end="589" duration="229" waited="0" reroutes="0" devices="" vtype="SUMO_DEFAULT_TYPE"/>
   <tripinfo vehicle_id="always_left_9" start="200" wished="200" end="590" duration="390" waited="0" reroutes="0" devices="" vtype="SUMO_DEFAULT_TYPE"/>
   <tripinfo vehicle_id="always_left_10" start="210" wished="210" end="591" duration="381" waited="0" reroutes="0" devices="" vtype="SUMO_DEFAULT_TYPE"/>
   <tripinfo vehicle_id="always_left_11" start="220" wished="220" end="593" duration="373" waited="0" reroutes="0" devices="" vtype="SUMO_DEFAULT_TYPE"/>
   <tripinfo vehicle_id="vertical_24" start="350" wished="350" end="611" duration="261" waited="0" reroutes="0" devices="" vtype="SUMO_DEFAULT_TYPE"/>
   <tripinfo vehicle_id="vertical_25" start="360" wished="360" end="613" duration="253" waited="0" reroutes="0" devices="" vtype="SUMO_DEFAULT_TYPE"/>
   <tripinfo vehicle_id="vertical_26" start="370" wished="370" end="615" duration="245" waited="0" reroutes="0" devices="" vtype="SUMO_DEFAULT_TYPE"/>
   <tripinfo vehicle_id="vertical_27" start="380" wished="380" end="616" duration="236" waited="0" reroutes="0" devices="" vtype="SUMO_DEFAULT_TYPE"/>
   <tripinfo vehicle_id="vertical_28" start="390" wished="390" end="618" duration="228" waited="0" reroutes="0" devices="" vtype="SUMO_DEFAULT_TYPE"/>
   <tripinfo vehicle_id="vertical_29" start="400" wished="400" end="620" duration="220" waited="0" reroutes="0" devices="" vtype="SUMO_DEFAULT_TYPE"/>
   <tripinfo vehicle_id="always_right_2" start="130" wished="130" end="627" duration="497" waited="0" reroutes="0" devices="" vtype="SUMO_DEFAULT_TYPE"/>
   <tripinfo vehicle_id="always_right_3" start="140" wished="140" end="629" duration="489" waited="0" reroutes="0" devices="" vtype="SUMO_DEFAULT_TYPE"/>
   <tripinfo vehicle_id="horizontal_27" start="380" wished="380" end="642" duration="262" waited="0" reroutes="0" devices="" vtype="SUMO_DEFAULT_TYPE"/>
   <tripinfo vehicle_id="horizontal_28" start="390" wished="390" end="644" duration="254" waited="0" reroutes="0" devices="" vtype="SUMO_DEFAULT_TYPE"/>
   <tripinfo vehicle_id="always_left_12" start="230" wished="230" end="644" duration="414" waited="0" reroutes="0" devices="" vtype="SUMO_DEFAULT_TYPE"/>
   <tripinfo vehicle_id="horizontal_29" start="400" wished="400" end="646" duration="246" waited="0" reroutes="0" devices="" vtype="SUMO_DEFAULT_TYPE"/>
   <tripinfo vehicle_id="always_left_13" start="240" wished="240" end="646" duration="406" waited="0" reroutes="0" devices="" vtype="SUMO_DEFAULT_TYPE"/>
   <tripinfo vehicle_id="horizontal_30" start="410" wished="410" end="648" duration="238" waited="0" reroutes="0" devices="" vtype="SUMO_DEFAULT_TYPE"/>
   <tripinfo vehicle_id="always_left_14" start="250" wished="250" end="648" duration="398" waited="0" reroutes="0" devices="" vtype="SUMO_DEFAULT_TYPE"/>
   <tripinfo vehicle_id="always_left_15" start="260" wished="260" end="649" duration="389" waited="0" reroutes="0" devices="" vtype="SUMO_DEFAULT_TYPE"/>
   <tripinfo vehicle_id="horizontal_31" start="420" wished="420" end="650" duration="230" waited="0" reroutes="0" devices="" vtype="SUMO_DEFAULT_TYPE"/>
   <tripinfo vehicle_id="horizontal_33" start="440" wished="440" end="651" duration="211" waited="0" reroutes="0" devices="" vtype="SUMO_DEFAULT_TYPE"/>
   <tripinfo vehicle_id="always_left_16" start="270" wished="270" end="651" duration="381" waited="0" reroutes="0" devices="" vtype="SUMO_DEFAULT_TYPE"/>
   <tripinfo vehicle_id="always_left_17" start="280" wished="280" end="652" duration="372" waited="0" reroutes="0" devices="" vtype="SUMO_DEFAULT_TYPE"/>
   <tripinfo vehicle_id="horizontal_32" start="430" wished="430" end="653" duration="223" waited="0" reroutes="0" devices="" vtype="SUMO_DEFAULT_TYPE"/>
   <tripinfo vehicle_id="vertical_30" start="410" wished="410" end="672" duration="262" waited="0" reroutes="0" devices="" vtype="SUMO_DEFAULT_TYPE"/>
   <tripinfo vehicle_id="vertical_32" start="430" wished="430" end="674" duration="244" waited="0" reroutes="0" devices="" vtype="SUMO_DEFAULT_TYPE"/>
   <tripinfo vehicle_id="vertical_31" start="420" wished="420" end="677" duration="257" waited="0" reroutes="0" devices="" vtype="SUMO_DEFAULT_TYPE"/>
   <tripinfo vehicle_id="vertical_33" start="440" wished="440" end="679" duration="239" waited="0" reroutes="0" devices="" vtype="SUMO_DEFAULT_TYPE"/>
   <tripinfo vehicle_id="vertical_34" start="450" wished="450" end="681" duration="231" waited="0" reroutes="0" devices="" vtype="SUMO_DEFAULT_TYPE"/>
   <tripinfo vehicle_id="vertical_36" start="470" wished="470" end="682" duration="212" waited="0" reroutes="0" devices="" vtype="SUMO_DEFAULT_TYPE"/>
   <tripinfo vehicle_id="vertical_35" start="460" wished="460" end="684" duration="224" waited="0" reroutes="0" devices="" vtype="SUMO_DEFAULT_TYPE"/>
   <tripinfo vehicle_id="always_right_4" start="150" wished="150" end="691" duration="541" waited="0" reroutes="0" devices="" vtype="SUMO_DEFAULT_TYPE"/>
   <tripinfo vehicle_id="always_right_5" start="160" wished="160" end="692" duration="532" waited="0" reroutes="0" devices="" vtype="SUMO_DEFAULT_TYPE"/>
   <tripinfo vehicle_id="always_right_6" start="170" wished="170" end="694" duration="524" waited="0" reroutes="0" devices="" vtype="SUMO_DEFAULT_TYPE"/>
   <tripinfo vehicle_id="horizontal_35" start="460" wished="460" end="703" duration="243" waited="0" reroutes="0" devices="" vtype="SUMO_DEFAULT_TYPE"/>
   <tripinfo vehicle_id="horizontal_34" start="450" wished="450" end="706" duration="256" waited="0" reroutes="0" devices="" vtype="SUMO_DEFAULT_TYPE"/>
   <tripinfo vehicle_id="always_left_18" start="290" wished="290" end="707" duration="417" waited="0" reroutes="0" devices="" vtype="SUMO_DEFAULT_TYPE"/>
   <tripinfo vehicle_id="horizontal_36" start="470" wished="470" end="708" duration="238" waited="0" reroutes="0" devices="" vtype="SUMO_DEFAULT_TYPE"/>
   <tripinfo vehicle_id="always_left_19" start="300" wished="300" end="708" duration="408" waited="0" reroutes="0" devices="" vtype="SUMO_DEFAULT_TYPE"/>
   <tripinfo vehicle_id="horizontal_37" start="480" wished="480" end="710" duration="230" waited="0" reroutes="0" devices="" vtype="SUMO_DEFAULT_TYPE"/>
   <tripinfo vehicle_id="always_left_20" start="310" wished="310" end="710" duration="400" waited="0" reroutes="0" devices="" vtype="SUMO_DEFAULT_TYPE"/>
   <tripinfo vehicle_id="horizontal_38" start="490" wished="490" end="712" duration="222" waited="0" reroutes="0" devices="" vtype="SUMO_DEFAULT_TYPE"/>
   <tripinfo vehicle_id="always_left_21" start="320" wished="320" end="712" duration="392" waited="0" reroutes="0" devices="" vtype="SUMO_DEFAULT_TYPE"/>
   <tripinfo vehicle_id="always_left_22" start="330" wished="330" end="713" duration="383" waited="0" reroutes="0" devices="" vtype="SUMO_DEFAULT_TYPE"/>
   <tripinfo vehicle_id="horizontal_39" start="500" wished="500" end="714" duration="214" waited="0" reroutes="0" devices="" vtype="SUMO_DEFAULT_TYPE"/>
   <tripinfo vehicle_id="always_right_7" start="180" wished="180" end="736" duration="556" waited="0" reroutes="0" devices="" vtype="SUMO_DEFAULT_TYPE"/>
   <tripinfo vehicle_id="vertical_38" start="490" wished="490" end="736" duration="246" waited="0" reroutes="0" devices="" vtype="SUMO_DEFAULT_TYPE"/>
   <tripinfo vehicle_id="vertical_37" start="480" wished="480" end="737" duration="257" waited="0" reroutes="0" devices="" vtype="SUMO_DEFAULT_TYPE"/>
   <tripinfo vehicle_id="vertical_40" start="510" wished="510" end="739" duration="229" waited="0" reroutes="0" devices="" vtype="SUMO_DEFAULT_TYPE"/>
   <tripinfo vehicle_id="vertical_39" start="500" wished="500" end="740" duration="240" waited="0" reroutes="0" devices="" vtype="SUMO_DEFAULT_TYPE"/>
   <tripinfo vehicle_id="vertical_43" start="540" wished="540" end="743" duration="203" waited="0" reroutes="0" devices="" vtype="SUMO_DEFAULT_TYPE"/>
   <tripinfo vehicle_id="vertical_41" start="520" wished="520" end="745" duration="225" waited="0" reroutes="0" devices="" vtype="SUMO_DEFAULT_TYPE"/>
   <tripinfo vehicle_id="always_right_8" start="190" wished="190" end="753" duration="563" waited="0" reroutes="0" devices="" vtype="SUMO_DEFAULT_TYPE"/>
   <tripinfo vehicle_id="always_left_23" start="340" wished="340" end="758" duration="418" waited="0" reroutes="0" devices="" vtype="SUMO_DEFAULT_TYPE"/>
   <tripinfo vehicle_id="always_left_24" start="350" wished="350" end="760" duration="410" waited="0" reroutes="0" devices="" vtype="SUMO_DEFAULT_TYPE"/>
   <tripinfo vehicle_id="always_left_25" start="360" wished="360" end="762" duration="402" waited="0" reroutes="0" devices="" vtype="SUMO_DEFAULT_TYPE"/>
   <tripinfo vehicle_id="always_left_26" start="370" wished="370" end="763" duration="393" waited="0" reroutes="0" devices="" vtype="SUMO_DEFAULT_TYPE"/>
   <tripinfo vehicle_id="always_left_27" start="380" wished="380" end="765" duration="385" waited="0" reroutes="0" devices="" vtype="SUMO_DEFAULT_TYPE"/>
   <tripinfo vehicle_id="horizontal_41" start="520" wished="520" end="766" duration="246" waited="0" reroutes="0" devices="" vtype="SUMO_DEFAULT_TYPE"/>
   <tripinfo vehicle_id="always_left_28" start="390" wished="390" end="766" duration="376" waited="0" reroutes="0" devices="" vtype="SUMO_DEFAULT_TYPE"/>
   <tripinfo vehicle_id="horizontal_40" start="510" wished="510" end="768" duration="258" waited="0" reroutes="0" devices="" vtype="SUMO_DEFAULT_TYPE"/>
   <tripinfo vehicle_id="always_left_29" start="400" wished="400" end="768" duration="368" waited="0" reroutes="0" devices="" vtype="SUMO_DEFAULT_TYPE"/>
   <tripinfo vehicle_id="horizontal_42" start="530" wished="530" end="770" duration="240" waited="0" reroutes="0" devices="" vtype="SUMO_DEFAULT_TYPE"/>
   <tripinfo vehicle_id="horizontal_43" start="540" wished="540" end="772" duration="232" waited="0" reroutes="0" devices="" vtype="SUMO_DEFAULT_TYPE"/>
   <tripinfo vehicle_id="horizontal_45" start="560" wished="560" end="773" duration="213" waited="0" reroutes="0" devices="" vtype="SUMO_DEFAULT_TYPE"/>
   <tripinfo vehicle_id="horizontal_44" start="550" wished="550" end="775" duration="225" waited="0" reroutes="0" devices="" vtype="SUMO_DEFAULT_TYPE"/>
   <tripinfo vehicle_id="vertical_42" start="530" wished="530" end="797" duration="267" waited="0" reroutes="0" devices="" vtype="SUMO_DEFAULT_TYPE"/>
   <tripinfo vehicle_id="vertical_44" start="550" wished="550" end="799" duration="249" waited="0" reroutes="0" devices="" vtype="SUMO_DEFAULT_TYPE"/>
   <tripinfo vehicle_id="vertical_45" start="560" wished="560" end="800" duration="240" waited="0" reroutes="0" devices="" vtype="SUMO_DEFAULT_TYPE"/>
   <tripinfo vehicle_id="vertical_46" start="570" wished="570" end="802" duration="232" waited="0" reroutes="0" devices="" vtype="SUMO_DEFAULT_TYPE"/>
   <tripinfo vehicle_id="vertical_48" start="590" wished="590" end="804" duration="214" waited="0" reroutes="0" devices="" vtype="SUMO_DEFAULT_TYPE"/>
   <tripinfo vehicle_id="vertical_47" start="580" wished="580" end="806" duration="226" waited="0" reroutes="0" devices="" vtype="SUMO_DEFAULT_TYPE"/>
   <tripinfo vehicle_id="vertical_49" start="600" wished="600" end="808" duration="208" waited="0" reroutes="0" devices="" vtype="SUMO_DEFAULT_TYPE"/>
   <tripinfo vehicle_id="always_right_9" start="200" wished="200" end="816" duration="616" waited="0" reroutes="0" devices="" vtype="SUMO_DEFAULT_TYPE"/>
   <tripinfo vehicle_id="always_right_10" start="210" wished="210" end="818" duration="608" waited="0" reroutes="0" devices="" vtype="SUMO_DEFAULT_TYPE"/>
   <tripinfo vehicle_id="always_right_11" start="220" wished="220" end="819" duration="599" waited="0" reroutes="0" devices="" vtype="SUMO_DEFAULT_TYPE"/>
   <tripinfo vehicle_id="horizontal_46" start="570" wished="570" end="828" duration="258" waited="0" reroutes="0" devices="" vtype="SUMO_DEFAULT_TYPE"/>
   <tripinfo vehicle_id="horizontal_47" start="580" wished="580" end="830" duration="250" waited="0" reroutes="0" devices="" vtype="SUMO_DEFAULT_TYPE"/>
   <tripinfo vehicle_id="always_left_30" start="410" wished="410" end="830" duration="420" waited="0" reroutes="0" devices="" vtype="SUMO_DEFAULT_TYPE"/>
   <tripinfo vehicle_id="horizontal_48" start="590" wished="590" end="832" duration="242" waited="0" reroutes="0" devices="" vtype="SUMO_DEFAULT_TYPE"/>
   <tripinfo vehicle_id="always_left_31" start="420" wished="420" end="832" duration="412" waited="0" reroutes="0" devices="" vtype="SUMO_DEFAULT_TYPE"/>
   <tripinfo vehicle_id="always_left_32" start="430" wished="430" end="833" duration="403" waited="0" reroutes="0" devices="" vtype="SUMO_DEFAULT_TYPE"/>
   <tripinfo vehicle_id="horizontal_49" start="600" wished="600" end="834" duration="234" waited="0" reroutes="0" devices="" vtype="SUMO_DEFAULT_TYPE"/>
   <tripinfo vehicle_id="always_left_33" start="440" wished="440" end="835" duration="395" waited="0" reroutes="0" devices="" vtype="SUMO_DEFAULT_TYPE"/>
   <tripinfo vehicle_id="horizontal_51" start="620" wished="620" end="836" duration="216" waited="0" reroutes="0" devices="" vtype="SUMO_DEFAULT_TYPE"/>
   <tripinfo vehicle_id="always_left_34" start="450" wished="450" end="836" duration="386" waited="0" reroutes="0" devices="" vtype="SUMO_DEFAULT_TYPE"/>
   <tripinfo vehicle_id="horizontal_50" start="610" wished="610" end="837" duration="227" waited="0" reroutes="0" devices="" vtype="SUMO_DEFAULT_TYPE"/>
   <tripinfo vehicle_id="always_left_35" start="460" wished="460" end="838" duration="378" waited="0" reroutes="0" devices="" vtype="SUMO_DEFAULT_TYPE"/>
   <tripinfo vehicle_id="vertical_50" start="610" wished="610" end="859" duration="249" waited="0" reroutes="0" devices="" vtype="SUMO_DEFAULT_TYPE"/>
   <tripinfo vehicle_id="vertical_51" start="620" wished="620" end="860" duration="240" waited="0" reroutes="0" devices="" vtype="SUMO_DEFAULT_TYPE"/>
   <tripinfo vehicle_id="vertical_53" start="640" wished="640" end="863" duration="223" waited="0" reroutes="0" devices="" vtype="SUMO_DEFAULT_TYPE"/>
   <tripinfo vehicle_id="vertical_52" start="630" wished="630" end="865" duration="235" waited="0" reroutes="0" devices="" vtype="SUMO_DEFAULT_TYPE"/>
   <tripinfo vehicle_id="vertical_54" start="650" wished="650" end="867" duration="217" waited="0" reroutes="0" devices="" vtype="SUMO_DEFAULT_TYPE"/>
   <tripinfo vehicle_id="vertical_55" start="660" wished="660" end="868" duration="208" waited="0" reroutes="0" devices="" vtype="SUMO_DEFAULT_TYPE"/>
   <tripinfo vehicle_id="always_right_12" start="230" wished="230" end="879" duration="649" waited="0" reroutes="0" devices="" vtype="SUMO_DEFAULT_TYPE"/>
   <tripinfo vehicle_id="always_right_13" start="240" wished="240" end="881" duration="641" waited="0" reroutes="0" devices="" vtype="SUMO_DEFAULT_TYPE"/>
   <tripinfo vehicle_id="always_left_36" start="470" wished="470" end="884" duration="414" waited="0" reroutes="0" devices="" vtype="SUMO_DEFAULT_TYPE"/>
   <tripinfo vehicle_id="always_left_37" start="480" wished="480" end="886" duration="406" waited="0" reroutes="0" devices="" vtype="SUMO_DEFAULT_TYPE"/>
   <tripinfo vehicle_id="always_left_38" start="490" wished="490" end="888" duration="398" waited="0" reroutes="0" devices="" vtype="SUMO_DEFAULT_TYPE"/>
   <tripinfo vehicle_id="always_left_39" start="500" wished="500" end="889" duration="389" waited="0" reroutes="0" devices="" vtype="SUMO_DEFAULT_TYPE"/>
   <tripinfo vehicle_id="horizontal_52" start="630" wished="630" end="890" duration="260" waited="0" reroutes="0" devices="" vtype="SUMO_DEFAULT_TYPE"/>
   <tripinfo vehicle_id="always_left_40" start="510" wished="510" end="891" duration="381" waited="0" reroutes="0" devices="" vtype="SUMO_DEFAULT_TYPE"/>
   <tripinfo vehicle_id="horizontal_53" start="640" wished="640" end="892" duration="252" waited="0" reroutes="0" devices="" vtype="SUMO_DEFAULT_TYPE"/>
   <tripinfo vehicle_id="always_left_41" start="520" wished="520" end="892" duration="372" waited="0" reroutes="0" devices="" vtype="SUMO_DEFAULT_TYPE"/>
   <tripinfo vehicle_id="horizontal_54" start="650" wished="650" end="894" duration="244" waited="0" reroutes="0" devices="" vtype="SUMO_DEFAULT_TYPE"/>
   <tripinfo vehicle_id="always_left_43" start="540" wished="540" end="894" duration="354" waited="0" reroutes="0" devices="" vtype="SUMO_DEFAULT_TYPE"/>
   <tripinfo vehicle_id="always_left_42" start="530" wished="530" end="895" duration="365" waited="0" reroutes="0" devices="" vtype="SUMO_DEFAULT_TYPE"/>
   <tripinfo vehicle_id="horizontal_55" start="660" wished="660" end="896" duration="236" waited="0" reroutes="0" devices="" vtype="SUMO_DEFAULT_TYPE"/>
   <tripinfo vehicle_id="horizontal_56" start="670" wished="670" end="897" duration="227" waited="0" reroutes="0" devices="" vtype="SUMO_DEFAULT_TYPE"/>
   <tripinfo vehicle_id="horizontal_58" start="690" wished="690" end="899" duration="209" waited="0" reroutes="0" devices="" vtype="SUMO_DEFAULT_TYPE"/>
   <tripinfo vehicle_id="vertical_56" start="670" wished="670" end="922" duration="252" waited="0" reroutes="0" devices="" vtype="SUMO_DEFAULT_TYPE"/>
   <tripinfo vehicle_id="vertical_57" start="680" wished="680" end="926" duration="246" waited="0" reroutes="0" devices="" vtype="SUMO_DEFAULT_TYPE"/>
   <tripinfo vehicle_id="vertical_58" start="690" wished="690" end="927" duration="237" waited="0" reroutes="0" devices="" vtype="SUMO_DEFAULT_TYPE"/>
   <tripinfo vehicle_id="vertical_60" start="710" wished="710" end="929" duration="219" waited="0" reroutes="0" devices="" vtype="SUMO_DEFAULT_TYPE"/>
   <tripinfo vehicle_id="vertical_59" start="700" wished="700" end="930" duration="230" waited="0" reroutes="0" devices="" vtype="SUMO_DEFAULT_TYPE"/>
   <tripinfo vehicle_id="always_right_14" start="250" wished="250" end="936" duration="686" waited="0" reroutes="0" devices="" vtype="SUMO_DEFAULT_TYPE"/>
   <tripinfo vehicle_id="always_right_15" start="260" wished="260" end="939" duration="679" waited="0" reroutes="0" devices="" vtype="SUMO_DEFAULT_TYPE"/>
   <tripinfo vehicle_id="always_right_17" start="280" wished="280" end="941" duration="661" waited="0" reroutes="0" devices="" vtype="SUMO_DEFAULT_TYPE"/>
   <tripinfo vehicle_id="always_left_44" start="550" wished="550" end="947" duration="397" waited="0" reroutes="0" devices="" vtype="SUMO_DEFAULT_TYPE"/>
   <tripinfo vehicle_id="always_left_45" start="560" wished="560" end="949" duration="389" waited="0" reroutes="0" devices="" vtype="SUMO_DEFAULT_TYPE"/>
   <tripinfo vehicle_id="always_left_46" start="570" wished="570" end="951" duration="381" waited="0" reroutes="0" devices="" vtype="SUMO_DEFAULT_TYPE"/>
   <tripinfo vehicle_id="horizontal_57" start="680" wished="680" end="952" duration="272" waited="0" reroutes="0" devices="" vtype="SUMO_DEFAULT_TYPE"/>
   <tripinfo vehicle_id="always_left_47" start="580" wished="580" end="952" duration="372" waited="0" reroutes="0" devices="" vtype="SUMO_DEFAULT_TYPE"/>
   <tripinfo vehicle_id="horizontal_59" start="700" wished="700" end="954" duration="254" waited="0" reroutes="0" devices="" vtype="SUMO_DEFAULT_TYPE"/>
   <tripinfo vehicle_id="horizontal_60" start="710" wished="710" end="956" duration="246" waited="0" reroutes="0" devices="" vtype="SUMO_DEFAULT_TYPE"/>
   <tripinfo vehicle_id="horizontal_61" start="720" wished="720" end="958" duration="238" waited="0" reroutes="0" devices="" vtype="SUMO_DEFAULT_TYPE"/>
   <tripinfo vehicle_id="horizontal_62" start="730" wished="730" end="960" duration="230" waited="0" reroutes="0" devices="" vtype="SUMO_DEFAULT_TYPE"/>