<?xml version="1.0" encoding="UTF-8"?>

<!-- generated on 05/02/13 14:16:27 by SUMO sumo Version 0.17.0
<?xml version="1.0" encoding="UTF-8"?>

<configuration xmlns:xsi="http://www.w3.org/2001/XMLSchema-instance" xsi:noNamespaceSchemaLocation="http://sumo-sim.org/xsd/sumoConfiguration.xsd">

    <input>
        <net-file value="three_split.net.xml"/>
        <additional-files value="input_additional.add.xml"/>
    </input>

    <time>
        <end value="7201"/>
    </time>

    <report>
        <no-duration-log value="true"/>
        <no-step-log value="true"/>
    </report>

</configuration>
-->

<meandata xmlns:xsi="http://www.w3.org/2001/XMLSchema-instance" xsi:noNamespaceSchemaLocation="http://sumo-sim.org/xsd/meandata_file.xsd">
    <interval begin="0.00" end="1800.00" id="expect_1250_vehs_0">
        <edge id="beg" sampledSeconds="21693.67" traveltime="17.41" density="24.34" occupancy="12.17" waitingTime="0.00" speed="28.44" departed="1250" arrived="0" entered="0" left="1238" laneChangedFrom="0" laneChangedTo="0"/>
        <edge id="beg2left" sampledSeconds="0.00" departed="0" arrived="0" entered="0" left="0" laneChangedFrom="0" laneChangedTo="0"/>
        <edge id="beg2right" sampledSeconds="0.00" departed="0" arrived="0" entered="0" left="0" laneChangedFrom="0" laneChangedTo="0"/>
        <edge id="end" sampledSeconds="24207.78" traveltime="19.97" density="27.16" occupancy="13.58" waitingTime="0.00" speed="24.80" departed="0" arrived="0" entered="1208" left="1192" laneChangedFrom="0" laneChangedTo="0"/>
        <edge id="left" sampledSeconds="0.00" departed="0" arrived="0" entered="0" left="0" laneChangedFrom="0" laneChangedTo="0"/>
        <edge id="left2end" sampledSeconds="0.00" departed="0" arrived="0" entered="0" left="0" laneChangedFrom="0" laneChangedTo="0"/>
        <edge id="middle" sampledSeconds="48089.03" traveltime="39.12" density="26.97" occupancy="13.49" waitingTime="0.00" speed="25.32" departed="0" arrived="0" entered="1238" left="1208" laneChangedFrom="0" laneChangedTo="0"/>
        <edge id="rend" sampledSeconds="22524.81" traveltime="18.83" density="25.03" occupancy="12.51" waitingTime="0.00" speed="26.55" departed="0" arrived="1178" entered="1192" left="0" laneChangedFrom="0" laneChangedTo="0"/>
        <edge id="right" sampledSeconds="0.00" departed="0" arrived="0" entered="0" left="0" laneChangedFrom="0" laneChangedTo="0"/>
        <edge id="right2end" sampledSeconds="0.00" departed="0" arrived="0" entered="0" left="0" laneChangedFrom="0" laneChangedTo="0"/>
    </interval>
    <interval begin="1800.00" end="3600.00" id="expect_1250_vehs_3600">
        <edge id="beg" sampledSeconds="33861.92" traveltime="32.20" density="37.99" occupancy="18.99" waitingTime="0.00" speed="15.38" departed="1124" arrived="0" entered="0" left="1115" laneChangedFrom="0" laneChangedTo="0"/>
        <edge id="beg2left" sampledSeconds="0.00" departed="0" arrived="0" entered="0" left="0" laneChangedFrom="0" laneChangedTo="0"/>
        <edge id="beg2right" sampledSeconds="0.00" departed="0" arrived="0" entered="0" left="0" laneChangedFrom="0" laneChangedTo="0"/>
        <edge id="end" sampledSeconds="21645.25" traveltime="19.02" density="24.28" occupancy="12.14" waitingTime="0.00" speed="26.05" departed="0" arrived="0" entered="1126" left="1128" laneChangedFrom="0" laneChangedTo="0"/>
        <edge id="left" sampledSeconds="0.00" departed="0" arrived="0" entered="0" left="0" laneChangedFrom="0" laneChangedTo="0"/>
        <edge id="left2end" sampledSeconds="0.00" departed="0" arrived="0" entered="0" left="0" laneChangedFrom="0" laneChangedTo="0"/>
        <edge id="middle" sampledSeconds="41814.51" traveltime="37.13" density="23.45" occupancy="11.73" waitingTime="0.00" speed="26.68" departed="0" arrived="0" entered="1115" left="1126" laneChangedFrom="0" laneChangedTo="0"/>
        <edge id="rend" sampledSeconds="21322.08" traveltime="18.73" density="23.69" occupancy="11.85" waitingTime="0.00" speed="26.70" departed="0" arrived="1128" entered="1128" left="0" laneChangedFrom="0" laneChangedTo="0"/>
        <edge id="right" sampledSeconds="0.00" departed="0" arrived="0" entered="0" left="0" laneChangedFrom="0" laneChangedTo="0"/>
        <edge id="right2end" sampledSeconds="0.00" departed="0" arrived="0" entered="0" left="0" laneChangedFrom="0" laneChangedTo="0"/>
    </interval>
    <interval begin="3600.00" end="5400.00" id="expect_1250_vehs_7200">
        <edge id="beg" sampledSeconds="45336.64" traveltime="49.18" density="50.86" occupancy="25.43" waitingTime="0.00" speed="10.07" departed="989" arrived="0" entered="0" left="986" laneChangedFrom="0" laneChangedTo="0"/>
        <edge id="beg2left" sampledSeconds="0.00" departed="0" arrived="0" entered="0" left="0" laneChangedFrom="0" laneChangedTo="0"/>
        <edge id="beg2right" sampledSeconds="0.00" departed="0" arrived="0" entered="0" left="0" laneChangedFrom="0" laneChangedTo="0"/>
        <edge id="end" sampledSeconds="18211.13" traveltime="18.28" density="20.43" occupancy="10.21" waitingTime="0.00" speed="27.09" departed="0" arrived="0" entered="985" left="989" laneChangedFrom="0" laneChangedTo="0"/>
        <edge id="left" sampledSeconds="0.00" departed="0" arrived="0" entered="0" left="0" laneChangedFrom="0" laneChangedTo="0"/>
        <edge id="left2end" sampledSeconds="0.00" departed="0" arrived="0" entered="0" left="0" laneChangedFrom="0" laneChangedTo="0"/>
        <edge id="middle" sampledSeconds="36356.02" traveltime="36.74" density="20.39" occupancy="10.20" waitingTime="0.00" speed="26.96" departed="0" arrived="0" entered="986" left="985" laneChangedFrom="0" laneChangedTo="0"/>
        <edge id="rend" sampledSeconds="18360.66" traveltime="18.35" density="20.40" occupancy="10.20" waitingTime="0.00" speed="27.25" departed="0" arrived="993" entered="989" left="0" laneChangedFrom="0" laneChangedTo="0"/>
        <edge id="right" sampledSeconds="0.00" departed="0" arrived="0" entered="0" left="0" laneChangedFrom="0" laneChangedTo="0"/>
        <edge id="right2end" sampledSeconds="0.00" departed="0" arrived="0" entered="0" left="0" laneChangedFrom="0" laneChangedTo="0"/>
    </interval>
    <interval begin="5400.00" end="7200.00" id="expect_1250_vehs_10800">
        <edge id="beg" sampledSeconds="64948.31" traveltime="104.55" density="72.86" occupancy="36.43" waitingTime="0.00" speed="4.74" departed="725" arrived="0" entered="0" left="714" laneChangedFrom="0" laneChangedTo="0"/>
        <edge id="beg2left" sampledSeconds="0.00" departed="0" arrived="0" entered="0" left="0" laneChangedFrom="0" laneChangedTo="0"/>
        <edge id="beg2right" sampledSeconds="0.00" departed="0" arrived="0" entered="0" left="0" laneChangedFrom="0" laneChangedTo="0"/>
        <edge id="end" sampledSeconds="13091.77" traveltime="17.93" density="14.69" occupancy="7.34" waitingTime="0.00" speed="27.62" departed="0" arrived="0" entered="719" left="723" laneChangedFrom="0" laneChangedTo="0"/>
        <edge id="left" sampledSeconds="0.00" departed="0" arrived="0" entered="0" left="0" laneChangedFrom="0" laneChangedTo="0"/>
        <edge id="left2end" sampledSeconds="0.00" departed="0" arrived="0" entered="0" left="0" laneChangedFrom="0" laneChangedTo="0"/>
        <edge id="middle" sampledSeconds="26619.64" traveltime="36.94" density="14.93" occupancy="7.47" waitingTime="0.00" speed="26.81" departed="0" arrived="0" entered="714" left="719" laneChangedFrom="0" laneChangedTo="0"/>
        <edge id="rend" sampledSeconds="13455.48" traveltime="18.39" density="14.95" occupancy="7.48" waitingTime="0.00" speed="27.19" departed="0" arrived="728" entered="723" left="0" laneChangedFrom="0" laneChangedTo="0"/>
        <edge id="right" sampledSeconds="0.00" departed="0" arrived="0" entered="0" left="0" laneChangedFrom="0" laneChangedTo="0"/>
        <edge id="right2end" sampledSeconds="0.00" departed="0" arrived="0" entered="0" left="0" laneChangedFrom="0" laneChangedTo="0"/>
    </interval>
</meandata>
