<?xml version="1.0" encoding="UTF-8"?>

<!-- generated on Wed Mar 11 22:22:11 2020 by Eclipse SUMO Version v1_5_0+0662-a598ecae47
This data file and the accompanying materials
are made available under the terms of the Eclipse Public License v2.0
which accompanies this distribution, and is available at
http://www.eclipse.org/legal/epl-v20.html
SPDX-License-Identifier: EPL-2.0
<configuration xmlns:xsi="http://www.w3.org/2001/XMLSchema-instance" xsi:noNamespaceSchemaLocation="http://sumo.dlr.de/xsd/sumoConfiguration.xsd">

    <input>
        <net-file value="net.net.xml"/>
        <route-files value="input_routes.rou.xml"/>
        <additional-files value="input_additional.add.xml"/>
    </input>

    <output>
        <write-license value="true"/>
        <tripinfo-output value="tripinfos.xml"/>
    </output>

    <time>
        <end value="1000"/>
    </time>

    <processing>
        <default.speeddev value="0"/>
    </processing>

    <report>
        <xml-validation value="never"/>
        <duration-log.disable value="true"/>
        <no-step-log value="true"/>
    </report>

</configuration>
-->

<tripinfos xmlns:xsi="http://www.w3.org/2001/XMLSchema-instance" xsi:noNamespaceSchemaLocation="http://sumo.dlr.de/xsd/tripinfo_file.xsd">
    <tripinfo id="v0" depart="0.00" departLane="gneE0_0" departPos="50.00" departSpeed="0.00" departDelay="0.00" arrival="110.00" arrivalLane="gneE2_0" arrivalPos="278.05" arrivalSpeed="13.46" duration="110.00" routeLength="834.99" waitingTime="0.00" waitingCount="0" stopTime="30.00" timeLoss="19.42" rerouteNo="0" devices="tripinfo_v0" vType="busShort" speedFactor="1.00" vaporized=""/>
    <tripinfo id="v1" depart="0.00" departLane="gneE0_0" departPos="0.00" departSpeed="0.00" departDelay="0.00" arrival="112.00" arrivalLane="gneE2_0" arrivalPos="278.05" arrivalSpeed="13.70" duration="112.00" routeLength="884.99" waitingTime="0.00" waitingCount="0" stopTime="30.00" timeLoss="17.79" rerouteNo="0" devices="tripinfo_v1" vType="busShort" speedFactor="1.00" vaporized=""/>
</tripinfos>
