<?xml version="1.0" encoding="UTF-8"?>

<!-- generated on Wed Oct 17 20:24:26 2018 by Eclipse SUMO Version v1_0_1+0313-d13dc10
This data file and the accompanying materials
are made available under the terms of the Eclipse Public License v2.0
which accompanies this distribution, and is available at
http://www.eclipse.org/legal/epl-v20.html
SPDX-License-Identifier: EPL-2.0
<configuration xmlns:xsi="http://www.w3.org/2001/XMLSchema-instance" xsi:noNamespaceSchemaLocation="http://sumo.dlr.de/xsd/sumoConfiguration.xsd">

    <input>
        <net-file value="net.net.xml"/>
        <route-files value="input_routes.rou.xml"/>
    </input>

    <output>
        <write-license value="true"/>
        <tripinfo-output value="tripinfos.xml"/>
    </output>

    <processing>
        <default.speeddev value="0"/>
        <pedestrian.model value="nonInteracting"/>
    </processing>

    <report>
        <xml-validation value="never"/>
        <duration-log.disable value="true"/>
        <no-step-log value="true"/>
    </report>

</configuration>
-->

<tripinfos xmlns:xsi="http://www.w3.org/2001/XMLSchema-instance" xsi:noNamespaceSchemaLocation="http://sumo.dlr.de/xsd/tripinfo_file.xsd">
    <personinfo id="p1" depart="0.00" type="DEFAULT_PEDTYPE">
        <walk depart="0.00" departPos="0.00" arrival="96.00" arrivalPos="62.32" duration="96.00" routeLength="189.16" timeLoss="1.42" maxSpeed="2.00"/>
    </personinfo>
</tripinfos>
