<?xml version="1.0" encoding="UTF-8"?>

<!-- generated on Fri Nov 10 09:27:48 2017 by SUMO Version v0_31_0-1056-gab55b65
<?xml version="1.0" encoding="UTF-8"?>

<configuration xmlns:xsi="http://www.w3.org/2001/XMLSchema-instance" xsi:noNamespaceSchemaLocation="http://sumo.dlr.de/xsd/sumoConfiguration.xsd">

    <input>
        <net-file value="net.net.xml"/>
        <route-files value="input_routes.rou.xml"/>
    </input>

    <output>
        <tripinfo-output value="tripinfos.xml"/>
    </output>

    <processing>
        <pedestrian.model value="nonInteracting"/>
    </processing>

    <report>
        <xml-validation value="never"/>
        <duration-log.disable value="true"/>
        <no-step-log value="true"/>
    </report>

</configuration>
-->

<tripinfos xmlns:xsi="http://www.w3.org/2001/XMLSchema-instance" xsi:noNamespaceSchemaLocation="http://sumo.dlr.de/xsd/tripinfo_file.xsd">
    <personinfo id="p1" depart="0.00">
        <walk depart="0.00" departPos="0.00" arrival="127.00" arrivalPos="124.64" duration="127.00" routeLength="251.48" timeLoss="1.26" maxSpeed="2.00"/>
    </personinfo>
</tripinfos>
