<?xml version="1.0" encoding="UTF-8"?>

<!-- generated on 2021-11-23 12:57:46 by Eclipse SUMO sumo Version v1_11_0+0012-279bcfd
This data file and the accompanying materials
are made available under the terms of the Eclipse Public License v2.0
which accompanies this distribution, and is available at
http://www.eclipse.org/legal/epl-v20.html
SPDX-License-Identifier: EPL-2.0
<configuration xmlns:xsi="http://www.w3.org/2001/XMLSchema-instance" xsi:noNamespaceSchemaLocation="http://sumo.dlr.de/xsd/sumoConfiguration.xsd">

    <input>
        <net-file value="net.net.xml"/>
        <route-files value="input_routes.rou.xml"/>
        <additional-files value="input_additional.add.xml"/>
    </input>

    <output>
        <write-license value="true"/>
    </output>

    <processing>
        <default.speeddev value="0"/>
        <pedestrian.model value="nonInteracting"/>
    </processing>

    <report>
        <xml-validation value="never"/>
        <xml-validation.routes value="never"/>
        <no-step-log value="true"/>
    </report>

    <mesoscopic>
        <mesosim value="true"/>
        <meso-junction-control value="true"/>
    </mesoscopic>

</configuration>
-->

<meandata xmlns:xsi="http://www.w3.org/2001/XMLSchema-instance" xsi:noNamespaceSchemaLocation="http://sumo.dlr.de/xsd/meandata_file.xsd">
    <interval begin="0.00" end="835.00" id="dump">
        <edge id="a" sampledSeconds="833.45" traveltime="208.36" overlapTraveltime="208.50" density="0.13" laneDensity="0.13" occupancy="0.07" waitingTime="0.00" timeLoss="0.13" speed="35.99" speedRelative="1.00" departed="1" arrived="1" entered="3" left="3" laneChangedFrom="0" laneChangedTo="0"/>
        <edge id="b" sampledSeconds="0.01" traveltime="0.00" overlapTraveltime="0.15" density="0.11" laneDensity="0.11" occupancy="0.05" waitingTime="0.00" timeLoss="0.00" speed="33.33" speedRelative="0.93" departed="0" arrived="0" entered="3" left="3" laneChangedFrom="0" laneChangedTo="0"/>
    </interval>
</meandata>
