<?xml version="1.0" encoding="UTF-8"?>

<!-- generated on Thu Apr 27 16:41:47 2017 by SUMO Version dev-SVN-r24105
<?xml version="1.0" encoding="UTF-8"?>

<configuration xmlns:xsi="http://www.w3.org/2001/XMLSchema-instance" xsi:noNamespaceSchemaLocation="http://sumo.dlr.de/xsd/sumoConfiguration.xsd">

    <input>
        <net-file value="net.net.xml"/>
        <route-files value="input_routes.rou.xml"/>
    </input>

    <output>
        <fcd-output value="fcd.xml"/>
    </output>

    <time>
        <begin value="0"/>
        <end value="3000"/>
    </time>

    <report>
        <xml-validation value="never"/>
        <duration-log.disable value="true"/>
        <no-step-log value="true"/>
    </report>

</configuration>
-->

<fcd-export xmlns:xsi="http://www.w3.org/2001/XMLSchema-instance" xsi:noNamespaceSchemaLocation="http://sumo.dlr.de/xsd/fcd_file.xsd">
    <timestep time="0.00">
        <vehicle id="r0" x="135.10" y="-0.37" z="0.68" angle="89.46" type="0" speed="0.00" pos="135.10" lane="e0_0" slope="0.29"/>
    </timestep>
    <timestep time="1.00">
        <vehicle id="r0" x="136.08" y="-0.36" z="0.68" angle="89.46" type="0" speed="0.98" pos="136.08" lane="e0_0" slope="0.29"/>
    </timestep>
    <timestep time="2.00">
        <vehicle id="r0" x="138.04" y="-0.35" z="0.69" angle="89.46" type="0" speed="1.96" pos="138.04" lane="e0_0" slope="0.29"/>
    </timestep>
    <timestep time="3.00">
        <vehicle id="r0" x="140.98" y="-0.32" z="0.71" angle="89.46" type="0" speed="2.94" pos="140.98" lane="e0_0" slope="0.29"/>
    </timestep>
    <timestep time="4.00">
        <vehicle id="r0" x="144.90" y="-0.28" z="0.72" angle="89.46" type="0" speed="3.92" pos="144.90" lane="e0_0" slope="0.29"/>
    </timestep>
    <timestep time="5.00">
        <vehicle id="r0" x="149.79" y="-0.23" z="0.75" angle="89.46" type="0" speed="4.90" pos="149.79" lane="e0_0" slope="0.29"/>
    </timestep>
    <timestep time="6.00">
        <vehicle id="r0" x="155.67" y="-0.18" z="0.78" angle="89.46" type="0" speed="5.88" pos="155.67" lane="e0_0" slope="0.29"/>
    </timestep>
    <timestep time="7.00">
        <vehicle id="r0" x="162.52" y="-0.11" z="0.81" angle="89.46" type="0" speed="6.85" pos="162.52" lane="e0_0" slope="0.29"/>
    </timestep>
    <timestep time="8.00">
        <vehicle id="r0" x="170.36" y="-0.04" z="0.85" angle="89.46" type="0" speed="7.83" pos="170.36" lane="e0_0" slope="0.29"/>
    </timestep>
    <timestep time="9.00">
        <vehicle id="r0" x="179.17" y="0.04" z="0.90" angle="89.46" type="0" speed="8.81" pos="179.17" lane="e0_0" slope="0.29"/>
    </timestep>
    <timestep time="10.00">
        <vehicle id="r0" x="188.95" y="0.13" z="0.95" angle="89.46" type="0" speed="9.79" pos="188.96" lane="e0_0" slope="0.29"/>
    </timestep>
    <timestep time="11.00">
        <vehicle id="r0" x="199.72" y="0.24" z="1.00" angle="89.46" type="0" speed="10.77" pos="199.73" lane="e0_0" slope="0.29"/>
    </timestep>
    <timestep time="12.00">
        <vehicle id="r0" x="211.46" y="0.35" z="1.06" angle="89.46" type="0" speed="11.74" pos="211.47" lane="e0_0" slope="0.29"/>
    </timestep>
    <timestep time="13.00">
        <vehicle id="r0" x="224.18" y="0.47" z="1.12" angle="89.46" type="0" speed="12.72" pos="224.19" lane="e0_0" slope="0.29"/>
    </timestep>
    <timestep time="14.00">
        <vehicle id="r0" x="237.88" y="0.60" z="1.19" angle="89.46" type="0" speed="13.70" pos="237.89" lane="e0_0" slope="0.29"/>
    </timestep>
    <timestep time="15.00">
        <vehicle id="r0" x="252.55" y="0.74" z="1.26" angle="89.46" type="0" speed="14.68" pos="252.57" lane="e0_0" slope="0.29"/>
    </timestep>
    <timestep time="16.00">
        <vehicle id="r0" x="268.20" y="0.88" z="1.34" angle="89.46" type="0" speed="15.65" pos="268.22" lane="e0_0" slope="0.29"/>
    </timestep>
    <timestep time="17.00">
        <vehicle id="r0" x="284.83" y="1.04" z="1.43" angle="89.46" type="0" speed="16.63" pos="284.85" lane="e0_0" slope="0.29"/>
    </timestep>
    <timestep time="18.00">
        <vehicle id="r0" x="302.43" y="1.21" z="1.51" angle="89.46" type="0" speed="17.60" pos="302.45" lane="e0_0" slope="0.29"/>
    </timestep>
    <timestep time="19.00">
        <vehicle id="r0" x="321.01" y="1.38" z="1.61" angle="89.46" type="0" speed="18.58" pos="321.03" lane="e0_0" slope="0.29"/>
    </timestep>
    <timestep time="20.00">
        <vehicle id="r0" x="340.56" y="1.57" z="1.70" angle="89.46" type="0" speed="19.56" pos="340.59" lane="e0_0" slope="0.29"/>
    </timestep>
    <timestep time="21.00">
        <vehicle id="r0" x="361.09" y="1.76" z="1.81" angle="89.46" type="0" speed="20.53" pos="361.12" lane="e0_0" slope="0.29"/>
    </timestep>
    <timestep time="22.00">
        <vehicle id="r0" x="382.59" y="1.96" z="1.91" angle="89.46" type="0" speed="21.51" pos="382.62" lane="e0_0" slope="0.29"/>
    </timestep>
    <timestep time="23.00">
        <vehicle id="r0" x="405.07" y="2.18" z="2.03" angle="89.46" type="0" speed="22.48" pos="405.10" lane="e0_0" slope="0.29"/>
    </timestep>
    <timestep time="24.00">
        <vehicle id="r0" x="428.52" y="2.40" z="2.14" angle="89.46" type="0" speed="23.45" pos="428.56" lane="e0_0" slope="0.29"/>
    </timestep>
    <timestep time="25.00">
        <vehicle id="r0" x="452.95" y="2.63" z="2.27" angle="89.46" type="0" speed="24.43" pos="452.98" lane="e0_0" slope="0.29"/>
    </timestep>
    <timestep time="26.00">
        <vehicle id="r0" x="478.35" y="2.87" z="2.39" angle="89.46" type="0" speed="25.40" pos="478.39" lane="e0_0" slope="0.29"/>
    </timestep>
    <timestep time="27.00">
        <vehicle id="r0" x="504.72" y="3.12" z="2.53" angle="89.46" type="0" speed="26.38" pos="504.76" lane="e0_0" slope="0.29"/>
    </timestep>
    <timestep time="28.00">
        <vehicle id="r0" x="532.06" y="3.38" z="2.66" angle="89.46" type="0" speed="27.35" pos="532.11" lane="e0_0" slope="0.29"/>
    </timestep>
    <timestep time="29.00">
        <vehicle id="r0" x="560.38" y="3.64" z="2.80" angle="89.46" type="0" speed="28.32" pos="560.43" lane="e0_0" slope="0.29"/>
    </timestep>
    <timestep time="30.00">
        <vehicle id="r0" x="589.67" y="3.92" z="2.95" angle="89.46" type="0" speed="29.29" pos="589.72" lane="e0_0" slope="0.29"/>
    </timestep>
    <timestep time="31.00">
        <vehicle id="r0" x="619.93" y="4.21" z="3.10" angle="89.46" type="0" speed="30.27" pos="619.99" lane="e0_0" slope="0.29"/>
    </timestep>
    <timestep time="32.00">
        <vehicle id="r0" x="651.17" y="4.50" z="3.26" angle="89.46" type="0" speed="31.24" pos="651.23" lane="e0_0" slope="0.29"/>
    </timestep>
    <timestep time="33.00">
        <vehicle id="r0" x="683.37" y="4.81" z="3.42" angle="89.46" type="0" speed="32.21" pos="683.44" lane="e0_0" slope="0.29"/>
    </timestep>
    <timestep time="34.00">
        <vehicle id="r0" x="716.55" y="5.12" z="3.59" angle="89.46" type="0" speed="33.18" pos="716.62" lane="e0_0" slope="0.29"/>
    </timestep>
    <timestep time="35.00">
        <vehicle id="r0" x="750.70" y="5.44" z="3.76" angle="89.46" type="0" speed="34.15" pos="750.77" lane="e0_0" slope="0.29"/>
    </timestep>
    <timestep time="36.00">
        <vehicle id="r0" x="785.82" y="5.77" z="3.93" angle="89.46" type="0" speed="35.12" pos="785.90" lane="e0_0" slope="0.29"/>
    </timestep>
    <timestep time="37.00">
        <vehicle id="r0" x="821.91" y="6.11" z="4.11" angle="89.46" type="0" speed="36.09" pos="821.99" lane="e0_0" slope="0.29"/>
    </timestep>
    <timestep time="38.00">
        <vehicle id="r0" x="858.96" y="6.47" z="4.30" angle="89.46" type="0" speed="37.06" pos="859.05" lane="e0_0" slope="0.29"/>
    </timestep>
    <timestep time="39.00">
        <vehicle id="r0" x="896.99" y="6.82" z="4.49" angle="89.46" type="0" speed="38.03" pos="897.08" lane="e0_0" slope="0.29"/>
    </timestep>
    <timestep time="40.00">
        <vehicle id="r0" x="935.99" y="7.19" z="4.68" angle="89.46" type="0" speed="39.00" pos="936.08" lane="e0_0" slope="0.29"/>
    </timestep>
    <timestep time="41.00">
        <vehicle id="r0" x="975.95" y="7.57" z="4.88" angle="89.46" type="0" speed="39.97" pos="976.05" lane="e0_0" slope="0.29"/>
    </timestep>
    <timestep time="42.00">
        <vehicle id="r0" x="1016.88" y="7.96" z="5.09" angle="89.46" type="0" speed="40.94" pos="1016.99" lane="e0_0" slope="0.29"/>
    </timestep>
    <timestep time="43.00">
        <vehicle id="r0" x="1058.78" y="8.35" z="5.30" angle="89.46" type="0" speed="41.90" pos="1058.89" lane="e0_0" slope="0.29"/>
    </timestep>
    <timestep time="44.00">
        <vehicle id="r0" x="1101.65" y="8.76" z="5.51" angle="89.46" type="0" speed="42.87" pos="1101.76" lane="e0_0" slope="0.29"/>
    </timestep>
    <timestep time="45.00">
        <vehicle id="r0" x="1145.48" y="9.17" z="5.73" angle="89.46" type="0" speed="43.84" pos="1145.60" lane="e0_0" slope="0.29"/>
    </timestep>
    <timestep time="46.00">
        <vehicle id="r0" x="1190.28" y="9.60" z="5.96" angle="89.46" type="0" speed="44.80" pos="1190.41" lane="e0_0" slope="0.29"/>
    </timestep>
    <timestep time="47.00">
        <vehicle id="r0" x="1234.72" y="10.02" z="6.18" angle="89.46" type="0" speed="44.44" pos="1234.85" lane="e0_0" slope="0.29"/>
    </timestep>
    <timestep time="48.00">
        <vehicle id="r0" x="1279.16" y="10.43" z="6.40" angle="89.46" type="0" speed="44.44" pos="1279.30" lane="e0_0" slope="0.29"/>
    </timestep>
    <timestep time="49.00">
        <vehicle id="r0" x="1323.60" y="10.85" z="6.62" angle="89.46" type="0" speed="44.44" pos="1323.74" lane="e0_0" slope="0.29"/>
    </timestep>
    <timestep time="50.00">
        <vehicle id="r0" x="1368.03" y="11.27" z="6.85" angle="89.46" type="0" speed="44.44" pos="1368.19" lane="e0_0" slope="0.29"/>
    </timestep>
    <timestep time="51.00">
        <vehicle id="r0" x="1412.47" y="11.69" z="7.07" angle="89.46" type="0" speed="44.44" pos="1412.63" lane="e0_0" slope="0.29"/>
    </timestep>
    <timestep time="52.00">
        <vehicle id="r0" x="1456.91" y="12.11" z="7.29" angle="89.46" type="0" speed="44.44" pos="1457.07" lane="e0_0" slope="0.29"/>
    </timestep>
    <timestep time="53.00">
        <vehicle id="r0" x="1501.35" y="12.53" z="7.51" angle="89.46" type="0" speed="44.44" pos="1501.52" lane="e0_0" slope="0.29"/>
    </timestep>
    <timestep time="54.00">
        <vehicle id="r0" x="1545.79" y="12.95" z="7.74" angle="89.46" type="0" speed="44.44" pos="1545.96" lane="e0_0" slope="0.29"/>
    </timestep>
    <timestep time="55.00">
        <vehicle id="r0" x="1590.23" y="13.37" z="7.96" angle="89.46" type="0" speed="44.44" pos="1590.41" lane="e0_0" slope="0.29"/>
    </timestep>
    <timestep time="56.00">
        <vehicle id="r0" x="1634.67" y="13.79" z="8.18" angle="89.46" type="0" speed="44.44" pos="1634.85" lane="e0_0" slope="0.29"/>
    </timestep>
    <timestep time="57.00">
        <vehicle id="r0" x="1679.11" y="14.21" z="8.40" angle="89.46" type="0" speed="44.44" pos="1679.30" lane="e0_0" slope="0.29"/>
    </timestep>
    <timestep time="58.00">
        <vehicle id="r0" x="1723.55" y="14.63" z="8.62" angle="89.46" type="0" speed="44.44" pos="1723.74" lane="e0_0" slope="0.29"/>
    </timestep>
    <timestep time="59.00">
        <vehicle id="r0" x="1767.98" y="15.05" z="8.85" angle="89.46" type="0" speed="44.44" pos="1768.19" lane="e0_0" slope="0.29"/>
    </timestep>
    <timestep time="60.00">
        <vehicle id="r0" x="1812.42" y="15.47" z="9.07" angle="89.46" type="0" speed="44.44" pos="1812.63" lane="e0_0" slope="0.29"/>
    </timestep>
    <timestep time="61.00">
        <vehicle id="r0" x="1856.86" y="15.89" z="9.29" angle="89.46" type="0" speed="44.44" pos="1857.07" lane="e0_0" slope="0.29"/>
    </timestep>
    <timestep time="62.00">
        <vehicle id="r0" x="1901.30" y="16.31" z="9.51" angle="89.46" type="0" speed="44.44" pos="1901.52" lane="e0_0" slope="0.29"/>
    </timestep>
    <timestep time="63.00">
        <vehicle id="r0" x="1945.74" y="16.73" z="9.74" angle="89.46" type="0" speed="44.44" pos="1945.96" lane="e0_0" slope="0.29"/>
    </timestep>
    <timestep time="64.00">
        <vehicle id="r0" x="1990.18" y="17.15" z="9.96" angle="89.46" type="0" speed="44.44" pos="1990.41" lane="e0_0" slope="0.29"/>
    </timestep>
    <timestep time="65.00">
        <vehicle id="r0" x="2002.30" y="17.22" z="9.98" angle="89.49" type="0" speed="44.44" pos="36.23" lane="e1_0" slope="-0.29"/>
    </timestep>
    <timestep time="66.00">
        <vehicle id="r0" x="2006.74" y="17.20" z="9.96" angle="89.56" type="0" speed="44.44" pos="80.68" lane="e1_0" slope="-0.29"/>
    </timestep>
    <timestep time="67.00">
        <vehicle id="r0" x="2011.18" y="17.18" z="9.94" angle="89.88" type="0" speed="44.44" pos="125.12" lane="e1_0" slope="-0.29"/>
    </timestep>
    <timestep time="68.00">
        <vehicle id="r0" x="2015.63" y="17.17" z="9.92" angle="90.21" type="0" speed="44.44" pos="169.57" lane="e1_0" slope="-0.29"/>
    </timestep>
    <timestep time="69.00">
        <vehicle id="r0" x="2020.07" y="17.15" z="9.89" angle="90.21" type="0" speed="44.44" pos="214.01" lane="e1_0" slope="-0.29"/>
    </timestep>
    <timestep time="70.00">
        <vehicle id="r0" x="2024.51" y="17.13" z="9.87" angle="90.21" type="0" speed="44.44" pos="258.45" lane="e1_0" slope="-0.29"/>
    </timestep>
    <timestep time="71.00">
        <vehicle id="r0" x="2028.95" y="17.12" z="9.85" angle="90.21" type="0" speed="44.44" pos="302.90" lane="e1_0" slope="-0.29"/>
    </timestep>
    <timestep time="72.00">
        <vehicle id="r0" x="2033.39" y="17.10" z="9.83" angle="90.21" type="0" speed="44.44" pos="347.34" lane="e1_0" slope="-0.29"/>
    </timestep>
    <timestep time="73.00">
        <vehicle id="r0" x="2037.83" y="17.08" z="9.80" angle="90.21" type="0" speed="44.44" pos="391.79" lane="e1_0" slope="-0.29"/>
    </timestep>
    <timestep time="74.00">
        <vehicle id="r0" x="2042.27" y="17.07" z="9.78" angle="90.21" type="0" speed="44.44" pos="436.23" lane="e1_0" slope="-0.29"/>
    </timestep>
    <timestep time="75.00">
        <vehicle id="r0" x="2046.72" y="17.05" z="9.76" angle="90.21" type="0" speed="44.44" pos="480.68" lane="e1_0" slope="-0.29"/>
    </timestep>
    <timestep time="76.00">
        <vehicle id="r0" x="2051.16" y="17.03" z="9.74" angle="90.21" type="0" speed="44.44" pos="525.12" lane="e1_0" slope="-0.29"/>
    </timestep>
    <timestep time="77.00">
        <vehicle id="r0" x="2055.60" y="17.02" z="9.72" angle="90.21" type="0" speed="44.44" pos="569.57" lane="e1_0" slope="-0.29"/>
    </timestep>
    <timestep time="78.00">
        <vehicle id="r0" x="2060.04" y="17.00" z="9.69" angle="90.21" type="0" speed="44.44" pos="614.01" lane="e1_0" slope="-0.29"/>
    </timestep>
    <timestep time="79.00">
        <vehicle id="r0" x="2064.48" y="16.98" z="9.67" angle="90.21" type="0" speed="44.44" pos="658.45" lane="e1_0" slope="-0.29"/>
    </timestep>
    <timestep time="80.00">
        <vehicle id="r0" x="2068.92" y="16.97" z="9.65" angle="90.21" type="0" speed="44.44" pos="702.90" lane="e1_0" slope="-0.29"/>
    </timestep>
    <timestep time="81.00">
        <vehicle id="r0" x="2073.36" y="16.95" z="9.63" angle="90.21" type="0" speed="44.44" pos="747.34" lane="e1_0" slope="-0.29"/>
    </timestep>
    <timestep time="82.00">
        <vehicle id="r0" x="2077.81" y="16.93" z="9.60" angle="90.21" type="0" speed="44.44" pos="791.79" lane="e1_0" slope="-0.29"/>
    </timestep>
    <timestep time="83.00">
        <vehicle id="r0" x="2082.25" y="16.92" z="9.58" angle="90.21" type="0" speed="44.44" pos="836.23" lane="e1_0" slope="-0.29"/>
    </timestep>
    <timestep time="84.00">
        <vehicle id="r0" x="2086.69" y="16.90" z="9.56" angle="90.21" type="0" speed="44.44" pos="880.68" lane="e1_0" slope="-0.29"/>
    </timestep>
    <timestep time="85.00">
        <vehicle id="r0" x="2091.13" y="16.88" z="9.54" angle="90.21" type="0" speed="44.44" pos="925.12" lane="e1_0" slope="-0.29"/>
    </timestep>
    <timestep time="86.00">
        <vehicle id="r0" x="2095.57" y="16.87" z="9.52" angle="90.21" type="0" speed="44.44" pos="969.57" lane="e1_0" slope="-0.29"/>
    </timestep>
    <timestep time="87.00">
        <vehicle id="r0" x="2100.01" y="16.85" z="9.49" angle="90.21" type="0" speed="44.44" pos="1014.01" lane="e1_0" slope="-0.29"/>
    </timestep>
    <timestep time="88.00">
        <vehicle id="r0" x="2104.45" y="16.84" z="9.47" angle="90.21" type="0" speed="44.44" pos="1058.45" lane="e1_0" slope="-0.29"/>
    </timestep>
    <timestep time="89.00">
        <vehicle id="r0" x="2108.90" y="16.82" z="9.45" angle="90.21" type="0" speed="44.44" pos="1102.90" lane="e1_0" slope="-0.29"/>
    </timestep>
    <timestep time="90.00">
        <vehicle id="r0" x="2113.34" y="16.80" z="9.43" angle="90.21" type="0" speed="44.44" pos="1147.34" lane="e1_0" slope="-0.29"/>
    </timestep>
    <timestep time="91.00">
        <vehicle id="r0" x="2117.78" y="16.79" z="9.40" angle="90.21" type="0" speed="44.44" pos="1191.79" lane="e1_0" slope="-0.29"/>
    </timestep>
    <timestep time="92.00">
        <vehicle id="r0" x="2122.22" y="16.77" z="9.38" angle="90.21" type="0" speed="44.44" pos="1236.23" lane="e1_0" slope="-0.29"/>
    </timestep>
    <timestep time="93.00">
        <vehicle id="r0" x="2126.66" y="16.75" z="9.36" angle="90.21" type="0" speed="44.44" pos="1280.68" lane="e1_0" slope="-0.29"/>
    </timestep>
    <timestep time="94.00">
        <vehicle id="r0" x="2131.10" y="16.74" z="9.34" angle="90.21" type="0" speed="44.44" pos="1325.12" lane="e1_0" slope="-0.29"/>
    </timestep>
    <timestep time="95.00">
        <vehicle id="r0" x="2135.54" y="16.72" z="9.32" angle="90.21" type="0" speed="44.44" pos="1369.57" lane="e1_0" slope="-0.29"/>
    </timestep>
    <timestep time="96.00">
        <vehicle id="r0" x="2139.99" y="16.70" z="9.29" angle="90.21" type="0" speed="44.44" pos="1414.01" lane="e1_0" slope="-0.29"/>
    </timestep>
    <timestep time="97.00">
        <vehicle id="r0" x="2144.43" y="16.69" z="9.27" angle="90.21" type="0" speed="44.44" pos="1458.45" lane="e1_0" slope="-0.29"/>
    </timestep>
    <timestep time="98.00">
        <vehicle id="r0" x="2148.87" y="16.67" z="9.25" angle="90.21" type="0" speed="44.44" pos="1502.90" lane="e1_0" slope="-0.29"/>
    </timestep>
    <timestep time="99.00">
        <vehicle id="r0" x="2153.31" y="16.65" z="9.23" angle="90.21" type="0" speed="44.44" pos="1547.34" lane="e1_0" slope="-0.29"/>
    </timestep>
    <timestep time="100.00">
        <vehicle id="r0" x="2157.75" y="16.64" z="9.20" angle="90.21" type="0" speed="44.44" pos="1591.79" lane="e1_0" slope="-0.29"/>
    </timestep>
    <timestep time="101.00">
        <vehicle id="r0" x="2162.19" y="16.62" z="9.18" angle="90.21" type="0" speed="44.44" pos="1636.23" lane="e1_0" slope="-0.29"/>
    </timestep>
    <timestep time="102.00">
        <vehicle id="r0" x="2166.64" y="16.60" z="9.16" angle="90.21" type="0" speed="44.44" pos="1680.68" lane="e1_0" slope="-0.29"/>
    </timestep>
    <timestep time="103.00">
        <vehicle id="r0" x="2171.08" y="16.59" z="9.14" angle="90.21" type="0" speed="44.44" pos="1725.12" lane="e1_0" slope="-0.29"/>
    </timestep>
    <timestep time="104.00">
        <vehicle id="r0" x="2175.52" y="16.57" z="9.12" angle="90.21" type="0" speed="44.44" pos="1769.57" lane="e1_0" slope="-0.29"/>
    </timestep>
    <timestep time="105.00">
        <vehicle id="r0" x="2179.96" y="16.55" z="9.09" angle="90.21" type="0" speed="44.44" pos="1814.01" lane="e1_0" slope="-0.29"/>
    </timestep>
    <timestep time="106.00">
        <vehicle id="r0" x="2184.40" y="16.54" z="9.07" angle="90.21" type="0" speed="44.44" pos="1858.45" lane="e1_0" slope="-0.29"/>
    </timestep>
    <timestep time="107.00">
        <vehicle id="r0" x="2188.84" y="16.52" z="9.05" angle="90.21" type="0" speed="44.44" pos="1902.90" lane="e1_0" slope="-0.29"/>
    </timestep>
    <timestep time="108.00">
        <vehicle id="r0" x="2193.28" y="16.50" z="9.03" angle="90.21" type="0" speed="44.44" pos="1947.34" lane="e1_0" slope="-0.29"/>
    </timestep>
    <timestep time="109.00">
        <vehicle id="r0" x="2197.73" y="16.49" z="9.00" angle="90.21" type="0" speed="44.44" pos="1991.79" lane="e1_0" slope="-0.29"/>
    </timestep>
    <timestep time="110.00">
        <vehicle id="r0" x="2202.17" y="16.47" z="8.98" angle="90.21" type="0" speed="44.44" pos="2036.23" lane="e1_0" slope="-0.29"/>
    </timestep>
    <timestep time="111.00">
        <vehicle id="r0" x="2206.61" y="16.45" z="8.96" angle="90.21" type="0" speed="44.44" pos="2080.68" lane="e1_0" slope="-0.29"/>
    </timestep>
    <timestep time="112.00">
        <vehicle id="r0" x="2211.05" y="16.44" z="8.94" angle="90.21" type="0" speed="44.44" pos="2125.12" lane="e1_0" slope="-0.29"/>
    </timestep>
    <timestep time="113.00">
        <vehicle id="r0" x="2215.49" y="16.42" z="8.92" angle="90.21" type="0" speed="44.44" pos="2169.57" lane="e1_0" slope="-0.29"/>
    </timestep>
    <timestep time="114.00">
        <vehicle id="r0" x="2219.93" y="16.40" z="8.89" angle="90.21" type="0" speed="44.44" pos="2214.01" lane="e1_0" slope="-0.29"/>
    </timestep>
    <timestep time="115.00">
        <vehicle id="r0" x="2224.37" y="16.39" z="8.87" angle="90.21" type="0" speed="44.44" pos="2258.45" lane="e1_0" slope="-0.29"/>
    </timestep>
    <timestep time="116.00">
        <vehicle id="r0" x="2228.82" y="16.37" z="8.85" angle="90.21" type="0" speed="44.44" pos="2302.90" lane="e1_0" slope="-0.29"/>
    </timestep>
    <timestep time="117.00">
        <vehicle id="r0" x="2233.26" y="16.35" z="8.83" angle="90.21" type="0" speed="44.44" pos="2347.34" lane="e1_0" slope="-0.29"/>
    </timestep>
    <timestep time="118.00">
        <vehicle id="r0" x="2237.70" y="16.34" z="8.80" angle="90.21" type="0" speed="44.44" pos="2391.79" lane="e1_0" slope="-0.29"/>
    </timestep>
    <timestep time="119.00">
        <vehicle id="r0" x="2242.14" y="16.32" z="8.78" angle="90.21" type="0" speed="44.44" pos="2436.23" lane="e1_0" slope="-0.29"/>
    </timestep>
    <timestep time="120.00">
        <vehicle id="r0" x="2246.58" y="16.30" z="8.76" angle="90.21" type="0" speed="44.44" pos="2480.68" lane="e1_0" slope="-0.29"/>
    </timestep>
    <timestep time="121.00">
        <vehicle id="r0" x="2251.02" y="16.29" z="8.74" angle="90.21" type="0" speed="44.44" pos="2525.12" lane="e1_0" slope="-0.29"/>
    </timestep>
    <timestep time="122.00">
        <vehicle id="r0" x="2255.46" y="16.27" z="8.72" angle="90.21" type="0" speed="44.44" pos="2569.57" lane="e1_0" slope="-0.29"/>
    </timestep>
    <timestep time="123.00">
        <vehicle id="r0" x="2259.91" y="16.25" z="8.69" angle="90.21" type="0" speed="44.44" pos="2614.01" lane="e1_0" slope="-0.29"/>
    </timestep>
    <timestep time="124.00">
        <vehicle id="r0" x="2264.35" y="16.24" z="8.67" angle="90.21" type="0" speed="44.44" pos="2658.45" lane="e1_0" slope="-0.29"/>
    </timestep>
    <timestep time="125.00">
        <vehicle id="r0" x="2268.79" y="16.22" z="8.65" angle="90.21" type="0" speed="44.44" pos="2702.90" lane="e1_0" slope="-0.29"/>
    </timestep>
    <timestep time="126.00">
        <vehicle id="r0" x="2273.23" y="16.21" z="8.63" angle="90.21" type="0" speed="44.44" pos="2747.34" lane="e1_0" slope="-0.29"/>
    </timestep>
    <timestep time="127.00">
        <vehicle id="r0" x="2277.67" y="16.19" z="8.60" angle="90.21" type="0" speed="44.44" pos="2791.79" lane="e1_0" slope="-0.29"/>
    </timestep>
    <timestep time="128.00">
        <vehicle id="r0" x="2282.11" y="16.17" z="8.58" angle="90.21" type="0" speed="44.44" pos="2836.23" lane="e1_0" slope="-0.29"/>
    </timestep>
    <timestep time="129.00">
        <vehicle id="r0" x="2286.55" y="16.16" z="8.56" angle="90.21" type="0" speed="44.44" pos="2880.68" lane="e1_0" slope="-0.29"/>
    </timestep>
    <timestep time="130.00">
        <vehicle id="r0" x="2291.00" y="16.14" z="8.54" angle="90.21" type="0" speed="44.44" pos="2925.12" lane="e1_0" slope="-0.29"/>
    </timestep>
    <timestep time="131.00">
        <vehicle id="r0" x="2295.44" y="16.12" z="8.52" angle="90.21" type="0" speed="44.44" pos="2969.57" lane="e1_0" slope="-0.29"/>
    </timestep>
    <timestep time="132.00">
        <vehicle id="r0" x="2299.88" y="16.11" z="8.49" angle="90.21" type="0" speed="44.44" pos="3014.01" lane="e1_0" slope="-0.29"/>
    </timestep>
    <timestep time="133.00">
        <vehicle id="r0" x="2304.32" y="16.09" z="8.47" angle="90.21" type="0" speed="44.44" pos="3058.45" lane="e1_0" slope="-0.29"/>
    </timestep>
    <timestep time="134.00">
        <vehicle id="r0" x="2308.76" y="16.07" z="8.45" angle="90.21" type="0" speed="44.44" pos="3102.90" lane="e1_0" slope="-0.29"/>
    </timestep>
    <timestep time="135.00">
        <vehicle id="r0" x="2313.20" y="16.06" z="8.43" angle="90.21" type="0" speed="44.44" pos="3147.34" lane="e1_0" slope="-0.29"/>
    </timestep>
    <timestep time="136.00">
        <vehicle id="r0" x="2317.64" y="16.04" z="8.40" angle="90.21" type="0" speed="44.44" pos="3191.79" lane="e1_0" slope="-0.29"/>
    </timestep>
    <timestep time="137.00">
        <vehicle id="r0" x="2322.09" y="16.02" z="8.38" angle="90.21" type="0" speed="44.44" pos="3236.23" lane="e1_0" slope="-0.29"/>
    </timestep>
    <timestep time="138.00">
        <vehicle id="r0" x="2326.53" y="16.01" z="8.36" angle="90.21" type="0" speed="44.44" pos="3280.68" lane="e1_0" slope="-0.29"/>
    </timestep>
    <timestep time="139.00">
        <vehicle id="r0" x="2330.97" y="15.99" z="8.34" angle="90.21" type="0" speed="44.44" pos="3325.12" lane="e1_0" slope="-0.29"/>
    </timestep>
    <timestep time="140.00">
        <vehicle id="r0" x="2335.41" y="15.97" z="8.32" angle="90.21" type="0" speed="44.44" pos="3369.57" lane="e1_0" slope="-0.29"/>
    </timestep>
    <timestep time="141.00">
        <vehicle id="r0" x="2339.85" y="15.96" z="8.29" angle="90.21" type="0" speed="44.44" pos="3414.01" lane="e1_0" slope="-0.29"/>
    </timestep>
    <timestep time="142.00">
        <vehicle id="r0" x="2344.29" y="15.94" z="8.27" angle="90.21" type="0" speed="44.44" pos="3458.45" lane="e1_0" slope="-0.29"/>
    </timestep>
    <timestep time="143.00">
        <vehicle id="r0" x="2348.74" y="15.92" z="8.25" angle="90.21" type="0" speed="44.44" pos="3502.90" lane="e1_0" slope="-0.29"/>
    </timestep>
    <timestep time="144.00">
        <vehicle id="r0" x="2353.18" y="15.91" z="8.23" angle="90.21" type="0" speed="44.44" pos="3547.34" lane="e1_0" slope="-0.29"/>
    </timestep>
    <timestep time="145.00">
        <vehicle id="r0" x="2357.62" y="15.89" z="8.20" angle="90.21" type="0" speed="44.44" pos="3591.79" lane="e1_0" slope="-0.29"/>
    </timestep>
    <timestep time="146.00">
        <vehicle id="r0" x="2362.06" y="15.87" z="8.18" angle="90.21" type="0" speed="44.44" pos="3636.23" lane="e1_0" slope="-0.29"/>
    </timestep>
    <timestep time="147.00">
        <vehicle id="r0" x="2366.50" y="15.86" z="8.16" angle="90.21" type="0" speed="44.44" pos="3680.68" lane="e1_0" slope="-0.29"/>
    </timestep>
    <timestep time="148.00">
        <vehicle id="r0" x="2370.94" y="15.84" z="8.14" angle="90.21" type="0" speed="44.44" pos="3725.12" lane="e1_0" slope="-0.29"/>
    </timestep>
    <timestep time="149.00">
        <vehicle id="r0" x="2375.38" y="15.82" z="8.12" angle="90.21" type="0" speed="44.44" pos="3769.57" lane="e1_0" slope="-0.29"/>
    </timestep>
    <timestep time="150.00">
        <vehicle id="r0" x="2379.83" y="15.81" z="8.09" angle="90.21" type="0" speed="44.44" pos="3814.01" lane="e1_0" slope="-0.29"/>
    </timestep>
    <timestep time="151.00">
        <vehicle id="r0" x="2384.27" y="15.79" z="8.07" angle="90.21" type="0" speed="44.44" pos="3858.45" lane="e1_0" slope="-0.29"/>
    </timestep>
    <timestep time="152.00">
        <vehicle id="r0" x="2388.71" y="15.77" z="8.05" angle="90.21" type="0" speed="44.44" pos="3902.90" lane="e1_0" slope="-0.29"/>
    </timestep>
    <timestep time="153.00">
        <vehicle id="r0" x="2393.15" y="15.76" z="8.03" angle="90.21" type="0" speed="44.44" pos="3947.34" lane="e1_0" slope="-0.29"/>
    </timestep>
    <timestep time="154.00">
        <vehicle id="r0" x="2397.59" y="15.74" z="8.00" angle="90.21" type="0" speed="44.44" pos="3991.79" lane="e1_0" slope="-0.29"/>
    </timestep>
    <timestep time="155.00">
        <vehicle id="r0" x="2402.03" y="15.72" z="7.98" angle="90.21" type="0" speed="44.44" pos="4036.23" lane="e1_0" slope="-0.29"/>
    </timestep>
    <timestep time="156.00">
        <vehicle id="r0" x="2406.47" y="15.71" z="7.96" angle="90.21" type="0" speed="44.44" pos="4080.68" lane="e1_0" slope="-0.29"/>
    </timestep>
    <timestep time="157.00">
        <vehicle id="r0" x="2410.92" y="15.69" z="7.94" angle="90.21" type="0" speed="44.44" pos="4125.12" lane="e1_0" slope="-0.29"/>
    </timestep>
    <timestep time="158.00">
        <vehicle id="r0" x="2415.36" y="15.67" z="7.92" angle="90.21" type="0" speed="44.44" pos="4169.57" lane="e1_0" slope="-0.29"/>
    </timestep>
    <timestep time="159.00">
        <vehicle id="r0" x="2419.80" y="15.66" z="7.89" angle="90.21" type="0" speed="44.44" pos="4214.01" lane="e1_0" slope="-0.29"/>
    </timestep>
    <timestep time="160.00">
        <vehicle id="r0" x="2424.24" y="15.64" z="7.87" angle="90.21" type="0" speed="44.44" pos="4258.45" lane="e1_0" slope="-0.29"/>
    </timestep>
    <timestep time="161.00">
        <vehicle id="r0" x="2428.68" y="15.63" z="7.85" angle="90.21" type="0" speed="44.44" pos="4302.90" lane="e1_0" slope="-0.29"/>
    </timestep>
    <timestep time="162.00">
        <vehicle id="r0" x="2433.12" y="15.61" z="7.83" angle="90.21" type="0" speed="44.44" pos="4347.34" lane="e1_0" slope="-0.29"/>
    </timestep>
    <timestep time="163.00">