<?xml version="1.0" encoding="UTF-8"?>

<!-- generated on 05/02/13 14:18:19 by SUMO sumo Version 0.17.0
<?xml version="1.0" encoding="UTF-8"?>

<configuration xmlns:xsi="http://www.w3.org/2001/XMLSchema-instance" xsi:noNamespaceSchemaLocation="http://sumo-sim.org/xsd/sumoConfiguration.xsd">

    <input>
        <net-file value="net.net.xml"/>
        <route-files value="input_routes.rou.xml"/>
    </input>

    <output>
        <netstate-dump value="rawdump.xml"/>
    </output>

    <report>
        <no-duration-log value="true"/>
        <no-step-log value="true"/>
    </report>

</configuration>
-->

<netstate xmlns:xsi="http://www.w3.org/2001/XMLSchema-instance" xsi:noNamespaceSchemaLocation="http://sumo-sim.org/xsd/netstate_file.xsd">
    <timestep time="0.00">
        <edge id="gneE0">
            <lane id="gneE0_0">
                <vehicle id="0" pos="5.10" speed="10.00"/>
            </lane>
        </edge>
    </timestep>
    <timestep time="1.00">
        <edge id="gneE0">
            <lane id="gneE0_0">
                <vehicle id="0" pos="15.10" speed="10.00"/>
            </lane>
        </edge>
    </timestep>
    <timestep time="2.00">
        <edge id="gneE0">
            <lane id="gneE0_0">
                <vehicle id="0" pos="25.10" speed="10.00"/>
            </lane>
        </edge>
    </timestep>
    <timestep time="3.00">
        <edge id="gneE0">
            <lane id="gneE0_0">
                <vehicle id="0" pos="35.10" speed="10.00"/>
            </lane>
        </edge>
    </timestep>
    <timestep time="4.00">
        <edge id="gneE0">
            <lane id="gneE0_0">
                <vehicle id="0" pos="45.10" speed="10.00"/>
            </lane>
        </edge>
    </timestep>
    <timestep time="5.00">
        <edge id="gneE0">
            <lane id="gneE0_0">
                <vehicle id="0" pos="55.10" speed="10.00"/>
            </lane>
        </edge>
    </timestep>
    <timestep time="6.00">
        <edge id="gneE0">
            <lane id="gneE0_0">
                <vehicle id="0" pos="65.10" speed="10.00"/>
            </lane>
        </edge>
    </timestep>
    <timestep time="7.00">
        <edge id="gneE0">
            <lane id="gneE0_0">
                <vehicle id="0" pos="75.10" speed="10.00"/>
            </lane>
        </edge>
    </timestep>
    <timestep time="8.00">
        <edge id="gneE0">
            <lane id="gneE0_0">
                <vehicle id="0" pos="85.10" speed="10.00"/>
            </lane>
        </edge>
    </timestep>
    <timestep time="9.00">
        <edge id="gneE1">
            <lane id="gneE1_0">
                <vehicle id="0" pos="7.62" speed="10.00"/>
            </lane>
        </edge>
    </timestep>
    <timestep time="10.00">
        <edge id="gneE1">
            <lane id="gneE1_0">
                <vehicle id="0" pos="17.62" speed="10.00"/>
            </lane>
        </edge>
    </timestep>
    <timestep time="11.00">
        <edge id="gneE1">
            <lane id="gneE1_0">
                <vehicle id="0" pos="27.62" speed="10.00"/>
            </lane>
        </edge>
    </timestep>
    <timestep time="12.00">
        <edge id=":gneJ2_0">
            <lane id=":gneJ2_0_0">
                <vehicle id="0" pos="3.78" speed="10.00"/>
            </lane>
        </edge>
    </timestep>
    <timestep time="13.00">
        <edge id="gneE2">
            <lane id="gneE2_0">
                <vehicle id="0" pos="8.96" speed="10.00"/>
            </lane>
        </edge>
    </timestep>
    <timestep time="14.00">
        <edge id="gneE2">
            <lane id="gneE2_0">
                <vehicle id="0" pos="18.96" speed="10.00"/>
            </lane>
        </edge>
    </timestep>
    <timestep time="15.00">
        <edge id="gneE2">
            <lane id="gneE2_0">
                <vehicle id="0" pos="28.96" speed="10.00"/>
            </lane>
        </edge>
    </timestep>
    <timestep time="16.00">
        <edge id="gneE2">
            <lane id="gneE2_0">
                <vehicle id="0" pos="38.96" speed="10.00"/>
            </lane>
        </edge>
    </timestep>
    <timestep time="17.00">
        <edge id="gneE2">
            <lane id="gneE2_0">
                <vehicle id="0" pos="48.96" speed="10.00"/>
            </lane>
        </edge>
    </timestep>
    <timestep time="18.00">
        <edge id="gneE2">
            <lane id="gneE2_0">
                <vehicle id="0" pos="58.96" speed="10.00"/>
            </lane>
        </edge>
    </timestep>
    <timestep time="19.00">
        <edge id="gneE2">
            <lane id="gneE2_0">
                <vehicle id="0" pos="68.96" speed="10.00"/>
            </lane>
        </edge>
    </timestep>
    <timestep time="20.00">
        <edge id="gneE2">
            <lane id="gneE2_0">
                <vehicle id="0" pos="78.96" speed="10.00"/>
            </lane>
        </edge>
    </timestep>
    <timestep time="21.00">
        <edge id="gneE2">
            <lane id="gneE2_0">
                <vehicle id="0" pos="88.96" speed="10.00"/>
            </lane>
        </edge>
    </timestep>
    <timestep time="22.00">
        <edge id="gneE2">
            <lane id="gneE2_0">
                <vehicle id="0" pos="98.96" speed="10.00"/>
            </lane>
        </edge>
    </timestep>
    <timestep time="23.00">
        <edge id="gneE2">
            <lane id="gneE2_0">
                <vehicle id="0" pos="108.96" speed="10.00"/>
            </lane>
        </edge>
    </timestep>
    <timestep time="24.00">
        <edge id="gneE2">
            <lane id="gneE2_0">
                <vehicle id="0" pos="118.96" speed="10.00"/>
            </lane>
        </edge>
    </timestep>
    <timestep time="25.00">
        <edge id="gneE2">
            <lane id="gneE2_0">
                <vehicle id="0" pos="128.96" speed="10.00"/>
            </lane>
        </edge>
    </timestep>
    <timestep time="26.00">
        <edge id="gneE2">
            <lane id="gneE2_0">
                <vehicle id="0" pos="138.96" speed="10.00"/>
            </lane>
        </edge>
    </timestep>
    <timestep time="27.00">
        <edge id="gneE2">
            <lane id="gneE2_0">
                <vehicle id="0" pos="148.96" speed="10.00"/>
            </lane>
        </edge>
    </timestep>
    <timestep time="28.00">
        <edge id="gneE2">
            <lane id="gneE2_0">
                <vehicle id="0" pos="158.96" speed="10.00"/>
            </lane>
        </edge>
    </timestep>
    <timestep time="29.00">
        <edge id="gneE2">
            <lane id="gneE2_0">
                <vehicle id="0" pos="168.96" speed="10.00"/>
            </lane>
        </edge>
    </timestep>
    <timestep time="30.00">
        <edge id="gneE2">
            <lane id="gneE2_0">
                <vehicle id="0" pos="178.96" speed="10.00"/>
            </lane>
        </edge>
    </timestep>
    <timestep time="31.00">
        <edge id="gneE2">
            <lane id="gneE2_0">
                <vehicle id="0" pos="188.96" speed="10.00"/>
            </lane>
        </edge>
    </timestep>
    <timestep time="32.00">
        <edge id="gneE2">
            <lane id="gneE2_0">
                <vehicle id="0" pos="198.96" speed="10.00"/>
            </lane>
        </edge>
    </timestep>
    <timestep time="33.00">
        <edge id="gneE2">
            <lane id="gneE2_0">
                <vehicle id="0" pos="208.96" speed="10.00"/>
            </lane>
        </edge>
    </timestep>
    <timestep time="34.00">
        <edge id="gneE2">
            <lane id="gneE2_0">
                <vehicle id="0" pos="218.96" speed="10.00"/>
            </lane>
        </edge>
    </timestep>
    <timestep time="35.00">
        <edge id="gneE2">
            <lane id="gneE2_0">
                <vehicle id="0" pos="228.96" speed="10.00"/>
            </lane>
        </edge>
    </timestep>
    <timestep time="36.00">
        <edge id="gneE2">
            <lane id="gneE2_0">
                <vehicle id="0" pos="238.96" speed="10.00"/>
            </lane>
        </edge>
    </timestep>
    <timestep time="37.00">
        <edge id="gneE2">
            <lane id="gneE2_0">
                <vehicle id="0" pos="248.96" speed="10.00"/>
            </lane>
        </edge>
    </timestep>
    <timestep time="38.00">
        <edge id="gneE2">
            <lane id="gneE2_0">
                <vehicle id="0" pos="258.96" speed="10.00"/>
            </lane>
        </edge>
    </timestep>
    <timestep time="39.00">
        <edge id="gneE2">
            <lane id="gneE2_0">
                <vehicle id="0" pos="268.96" speed="10.00"/>
            </lane>
        </edge>
    </timestep>
    <timestep time="40.00">
        <edge id="gneE2">
            <lane id="gneE2_0">
                <vehicle id="0" pos="278.96" speed="10.00"/>
            </lane>
        </edge>
    </timestep>
    <timestep time="41.00">
        <edge id=":gneJ3_0">
            <lane id=":gneJ3_0_0">
                <vehicle id="0" pos="0.61" speed="10.00"/>
            </lane>
        </edge>
    </timestep>
    <timestep time="42.00">
        <edge id="gneE3">
            <lane id="gneE3_0">
                <vehicle id="0" pos="5.90" speed="10.00"/>
            </lane>
        </edge>
    </timestep>
    <timestep time="43.00">
        <edge id="gneE3">
            <lane id="gneE3_0">
                <vehicle id="0" pos="15.90" speed="10.00"/>
            </lane>
        </edge>
    </timestep>
    <timestep time="44.00">
        <edge id="gneE3">
            <lane id="gneE3_0">
                <vehicle id="0" pos="25.90" speed="10.00"/>
            </lane>
        </edge>
    </timestep>
    <timestep time="45.00">
        <edge id="gneE3">
            <lane id="gneE3_0">
                <vehicle id="0" pos="35.90" speed="10.00"/>
            </lane>
        </edge>
    </timestep>
    <timestep time="46.00">
        <edge id="gneE3">
            <lane id="gneE3_0">
                <vehicle id="0" pos="45.90" speed="10.00"/>
            </lane>
        </edge>
    </timestep>
    <timestep time="47.00">
        <edge id="gneE3">
            <lane id="gneE3_0">
                <vehicle id="0" pos="55.90" speed="10.00"/>
            </lane>
        </edge>
    </timestep>
    <timestep time="48.00">
        <edge id="gneE3">
            <lane id="gneE3_0">
                <vehicle id="0" pos="65.90" speed="10.00"/>
            </lane>
        </edge>
    </timestep>
    <timestep time="49.00">
        <edge id="gneE3">
            <lane id="gneE3_0">
                <vehicle id="0" pos="75.90" speed="10.00"/>
            </lane>
        </edge>
    </timestep>
    <timestep time="50.00">
        <edge id="gneE3">
            <lane id="gneE3_0">
                <vehicle id="0" pos="85.90" speed="10.00"/>
            </lane>
        </edge>
    </timestep>
    <timestep time="51.00">
        <edge id="gneE3">
            <lane id="gneE3_0">
                <vehicle id="0" pos="95.90" speed="10.00"/>
            </lane>
        </edge>
    </timestep>
    <timestep time="52.00">
        <edge id="gneE3">
            <lane id="gneE3_0">
                <vehicle id="0" pos="105.90" speed="10.00"/>
            </lane>
        </edge>
    </timestep>
    <timestep time="53.00">
        <edge id="gneE3">
            <lane id="gneE3_0">
                <vehicle id="0" pos="115.90" speed="10.00"/>
            </lane>
        </edge>
    </timestep>
    <timestep time="54.00">
        <edge id="gneE3">
            <lane id="gneE3_0">
                <vehicle id="0" pos="125.90" speed="10.00"/>
            </lane>
        </edge>
    </timestep>
    <timestep time="55.00">
        <edge id="gneE3">
            <lane id="gneE3_0">
                <vehicle id="0" pos="135.90" speed="10.00"/>
            </lane>
        </edge>
    </timestep>
    <timestep time="56.00">
        <edge id="gneE3">
            <lane id="gneE3_0">
                <vehicle id="0" pos="145.90" speed="10.00"/>
            </lane>
        </edge>
    </timestep>
    <timestep time="57.00">
        <edge id="gneE3">
            <lane id="gneE3_0">
                <vehicle id="0" pos="155.90" speed="10.00"/>
            </lane>
        </edge>
    </timestep>
    <timestep time="58.00">
        <edge id="gneE3">
            <lane id="gneE3_0">
                <vehicle id="0" pos="165.90" speed="10.00"/>
            </lane>
        </edge>
    </timestep>
    <timestep time="59.00">
        <edge id="gneE3">
            <lane id="gneE3_0">
                <vehicle id="0" pos="175.90" speed="10.00"/>
            </lane>
        </edge>
    </timestep>
    <timestep time="60.00">
        <edge id="gneE3">
            <lane id="gneE3_0">
                <vehicle id="0" pos="185.90" speed="10.00"/>
            </lane>
        </edge>
    </timestep>
    <timestep time="61.00">
        <edge id="gneE3">
            <lane id="gneE3_0">
                <vehicle id="0" pos="195.90" speed="10.00"/>
            </lane>
        </edge>
    </timestep>
    <timestep time="62.00">
        <edge id="gneE3">
            <lane id="gneE3_0">
                <vehicle id="0" pos="205.90" speed="10.00"/>
            </lane>
        </edge>
    </timestep>
    <timestep time="63.00">
        <edge id="gneE3">
            <lane id="gneE3_0">
                <vehicle id="0" pos="215.90" speed="10.00"/>
            </lane>
        </edge>
    </timestep>
    <timestep time="64.00">
        <edge id="gneE3">
            <lane id="gneE3_0">
                <vehicle id="0" pos="225.90" speed="10.00"/>
            </lane>
        </edge>
    </timestep>
    <timestep time="65.00">
        <edge id="gneE3">
            <lane id="gneE3_0">
                <vehicle id="0" pos="235.90" speed="10.00"/>
            </lane>
        </edge>
    </timestep>
    <timestep time="66.00">
        <edge id="gneE3">
            <lane id="gneE3_0">
                <vehicle id="0" pos="245.90" speed="10.00"/>
            </lane>
        </edge>
    </timestep>
    <timestep time="67.00">
        <edge id="gneE3">
            <lane id="gneE3_0">
                <vehicle id="0" pos="255.90" speed="10.00"/>
            </lane>
        </edge>
    </timestep>
    <timestep time="68.00">
        <edge id="gneE3">
            <lane id="gneE3_0">
                <vehicle id="0" pos="265.90" speed="10.00"/>
            </lane>
        </edge>
    </timestep>
    <timestep time="69.00">
        <edge id="gneE3">
            <lane id="gneE3_0">
                <vehicle id="0" pos="275.90" speed="10.00"/>
            </lane>
        </edge>
    </timestep>
    <timestep time="70.00">
        <edge id="gneE3">
            <lane id="gneE3_0">
                <vehicle id="0" pos="285.90" speed="10.00"/>
            </lane>
        </edge>
    </timestep>
    <timestep time="71.00">
        <edge id="gneE3">
            <lane id="gneE3_0">
                <vehicle id="0" pos="295.90" speed="10.00"/>
            </lane>
        </edge>
    </timestep>
    <timestep time="72.00">
        <edge id="gneE3">
            <lane id="gneE3_0">
                <vehicle id="0" pos="305.90" speed="10.00"/>
            </lane>
        </edge>
    </timestep>
    <timestep time="73.00">
        <edge id="gneE3">
            <lane id="gneE3_0">
                <vehicle id="0" pos="315.90" speed="10.00"/>
            </lane>
        </edge>
    </timestep>
    <timestep time="74.00">
        <edge id="gneE3">
            <lane id="gneE3_0">
                <vehicle id="0" pos="325.90" speed="10.00"/>
            </lane>
        </edge>
    </timestep>
    <timestep time="75.00">
        <edge id="gneE3">
            <lane id="gneE3_0">
                <vehicle id="0" pos="335.90" speed="10.00"/>
            </lane>
        </edge>
    </timestep>
    <timestep time="76.00">
        <edge id="gneE3">
            <lane id="gneE3_0">
                <vehicle id="0" pos="345.90" speed="10.00"/>
            </lane>
        </edge>
    </timestep>
    <timestep time="77.00">
        <edge id="gneE3">
            <lane id="gneE3_0">
                <vehicle id="0" pos="355.90" speed="10.00"/>
            </lane>
        </edge>
    </timestep>
    <timestep time="78.00">
        <edge id="gneE3">
            <lane id="gneE3_0">
                <vehicle id="0" pos="365.90" speed="10.00"/>
            </lane>
        </edge>
    </timestep>
    <timestep time="79.00">
        <edge id="gneE3">
            <lane id="gneE3_0">
                <vehicle id="0" pos="375.90" speed="10.00"/>
            </lane>
        </edge>
    </timestep>
    <timestep time="80.00">
        <edge id="gneE3">
            <lane id="gneE3_0">
                <vehicle id="0" pos="385.90" speed="10.00"/>
            </lane>
        </edge>
    </timestep>
    <timestep time="81.00">
        <edge id="gneE3">
            <lane id="gneE3_0">
                <vehicle id="0" pos="395.90" speed="10.00"/>
            </lane>
        </edge>
    </timestep>
    <timestep time="82.00">
        <edge id=":gneJ4_0">
            <lane id=":gneJ4_0_0">
                <vehicle id="0" pos="0.70" speed="10.00"/>
            </lane>
        </edge>
    </timestep>
    <timestep time="83.00">
        <edge id="gneE4">
            <lane id="gneE4_0">
                <vehicle id="0" pos="5.93" speed="10.00"/>
            </lane>
        </edge>
    </timestep>
    <timestep time="84.00">
        <edge id="gneE4">
            <lane id="gneE4_0">
                <vehicle id="0" pos="15.93" speed="10.00"/>
            </lane>
        </edge>
    </timestep>
    <timestep time="85.00">
        <edge id="gneE4">
            <lane id="gneE4_0">
                <vehicle id="0" pos="25.93" speed="10.00"/>
            </lane>
        </edge>
    </timestep>
    <timestep time="86.00">
        <edge id="gneE4">
            <lane id="gneE4_0">
                <vehicle id="0" pos="35.93" speed="10.00"/>
            </lane>
        </edge>
    </timestep>
    <timestep time="87.00">
        <edge id="gneE4">
            <lane id="gneE4_0">
                <vehicle id="0" pos="45.93" speed="10.00"/>
            </lane>
        </edge>
    </timestep>
    <timestep time="88.00">
        <edge id="gneE4">
            <lane id="gneE4_0">
                <vehicle id="0" pos="55.93" speed="10.00"/>
            </lane>
        </edge>
    </timestep>
    <timestep time="89.00">
        <edge id="gneE4">
            <lane id="gneE4_0">
                <vehicle id="0" pos="65.93" speed="10.00"/>
            </lane>
        </edge>
    </timestep>
    <timestep time="90.00">
        <edge id="gneE4">
            <lane id="gneE4_0">
                <vehicle id="0" pos="75.93" speed="10.00"/>
            </lane>
        </edge>
    </timestep>
    <timestep time="91.00">
        <edge id="gneE4">
            <lane id="gneE4_0">
                <vehicle id="0" pos="85.93" speed="10.00"/>
            </lane>
        </edge>
    </timestep>
    <timestep time="92.00">
        <edge id="gneE4">
            <lane id="gneE4_0">
                <vehicle id="0" pos="95.93" speed="10.00"/>
            </lane>
        </edge>
    </timestep>
    <timestep time="93.00">
        <edge id="gneE5">
            <lane id="gneE5_0">
                <vehicle id="0" pos="7.61" speed="10.00"/>
            </lane>
        </edge>
    </timestep>
    <timestep time="94.00">
        <edge id="gneE5">
            <lane id="gneE5_0">
                <vehicle id="0" pos="17.61" speed="10.00"/>
            </lane>
        </edge>
    </timestep>
    <timestep time="95.00">
        <edge id="gneE5">
            <lane id="gneE5_0">
                <vehicle id="0" pos="27.61" speed="10.00"/>
            </lane>
        </edge>
    </timestep>
    <timestep time="96.00">
        <edge id="gneE5">
            <lane id="gneE5_0">
                <vehicle id="0" pos="37.61" speed="10.00"/>
            </lane>
        </edge>
    </timestep>
    <timestep time="97.00">
        <edge id="gneE5">
            <lane id="gneE5_0">
                <vehicle id="0" pos="47.61" speed="10.00"/>
            </lane>
        </edge>
    </timestep>
    <timestep time="98.00">
        <edge id="gneE5">
            <lane id="gneE5_0">
                <vehicle id="0" pos="57.61" speed="10.00"/>
            </lane>
        </edge>
    </timestep>
    <timestep time="99.00">
        <edge id="gneE5">
            <lane id="gneE5_0">
                <vehicle id="0" pos="67.61" speed="10.00"/>
            </lane>
        </edge>
    </timestep>
    <timestep time="100.00">
        <edge id="gneE5">
            <lane id="gneE5_0">
                <vehicle id="0" pos="77.61" speed="10.00"/>
            </lane>
        </edge>
    </timestep>
    <timestep time="101.00">
        <edge id="gneE5">
            <lane id="gneE5_0">
                <vehicle id="0" pos="87.61" speed="10.00"/>
            </lane>
        </edge>
    </timestep>
    <timestep time="102.00">
        <edge id="gneE5">
            <lane id="gneE5_0">
                <vehicle id="0" pos="97.61" speed="10.00"/>
            </lane>
        </edge>
    </timestep>
    <timestep time="103.00">
        <edge id="gneE5">
            <lane id="gneE5_0">
                <vehicle id="0" pos="107.61" speed="10.00"/>
            </lane>
        </edge>
    </timestep>
    <timestep time="104.00">
        <edge id="gneE5">
            <lane id="gneE5_0">
                <vehicle id="0" pos="117.61" speed="10.00"/>
            </lane>
        </edge>
    </timestep>
    <timestep time="105.00"/>
</netstate>
