<?xml version="1.0" encoding="UTF-8"?>

<!-- generated on Sat Sep 16 09:42:30 2017 by SUMO Version dev-SVN-r24506
<?xml version="1.0" encoding="UTF-8"?>

<configuration xmlns:xsi="http://www.w3.org/2001/XMLSchema-instance" xsi:noNamespaceSchemaLocation="http://sumo.dlr.de/xsd/sumoConfiguration.xsd">

    <input>
        <net-file value="net.net.xml"/>
        <route-files value="input_routes.rou.xml"/>
    </input>

    <output>
        <fcd-output value="fcd.xml"/>
    </output>

    <processing>
        <lateral-resolution value="0.64"/>
        <collision.check-junctions value="true"/>
        <pedestrian.model value="striping"/>
        <pedestrian.striping.dawdling value="0"/>
    </processing>

    <report>
        <xml-validation value="never"/>
        <no-step-log value="true"/>
    </report>

</configuration>
-->

<fcd-export xmlns:xsi="http://www.w3.org/2001/XMLSchema-instance" xsi:noNamespaceSchemaLocation="http://sumo.dlr.de/xsd/fcd_file.xsd">
    <timestep time="0.00">
        <vehicle id="car.0" x="5.10" y="-1.65" angle="90.00" type="car" speed="0.00" pos="5.10" lane="WC_0" slope="0.00"/>
        <person id="p0" x="59.75" y="2.33" angle="270.00" speed="0.00" pos="40.25" edge="EC" slope="0.00"/>
    </timestep>
    <timestep time="1.00">
        <vehicle id="car.0" x="7.70" y="-1.65" angle="90.00" type="car" speed="2.60" pos="7.70" lane="WC_0" slope="0.00"/>
        <person id="p0" x="58.36" y="2.33" angle="270.00" speed="1.39" pos="41.64" edge="EC" slope="0.00"/>
    </timestep>
    <timestep time="2.00">
        <vehicle id="car.0" x="12.90" y="-1.65" angle="90.00" type="car" speed="5.20" pos="12.90" lane="WC_0" slope="0.00"/>
        <person id="p0" x="56.97" y="2.33" angle="270.00" speed="1.39" pos="43.03" edge="EC" slope="0.00"/>
    </timestep>
    <timestep time="3.00">
        <vehicle id="car.0" x="20.70" y="-1.65" angle="90.00" type="car" speed="7.80" pos="20.70" lane="WC_0" slope="0.00"/>
        <person id="p0" x="55.58" y="2.33" angle="270.00" speed="1.39" pos="44.42" edge="EC" slope="0.00"/>
    </timestep>
    <timestep time="4.00">
        <vehicle id="car.0" x="31.10" y="-1.65" angle="90.00" type="car" speed="10.40" pos="31.10" lane="WC_0" slope="0.00"/>
        <person id="p0" x="54.19" y="2.33" angle="270.00" speed="1.39" pos="0.56" edge=":C_w0" slope="0.00"/>
    </timestep>
    <timestep time="5.00">
        <vehicle id="car.0" x="42.55" y="-1.65" angle="90.00" type="car" speed="11.45" pos="42.55" lane="WC_0" slope="0.00"/>
        <person id="p0" x="52.81" y="2.33" angle="270.00" speed="1.39" pos="1.94" edge=":C_w0" slope="0.00"/>
    </timestep>
    <timestep time="6.00">
        <vehicle id="car.0" x="49.50" y="-1.65" angle="90.00" type="car" speed="6.95" pos="4.25" lane=":C_4_0" slope="0.00"/>
        <person id="p0" x="51.42" y="2.33" angle="270.00" speed="1.39" pos="3.33" edge=":C_w0" slope="0.00"/>
    </timestep>
    <timestep time="7.00">
        <vehicle id="car.0" x="52.29" y="-1.65" angle="90.00" type="car" speed="2.79" pos="7.04" lane=":C_4_0" slope="0.00"/>
        <person id="p0" x="50.03" y="2.33" angle="270.00" speed="1.39" pos="4.72" edge=":C_w0" slope="0.00"/>
    </timestep>
    <timestep time="8.00">
        <vehicle id="car.0" x="56.48" y="-1.65" angle="90.00" type="car" speed="4.18" pos="1.73" lane="CE_0" slope="0.00"/>
        <person id="p0" x="48.64" y="2.33" angle="270.00" speed="1.39" pos="6.11" edge=":C_w0" slope="0.00"/>
    </timestep>
    <timestep time="9.00">
        <vehicle id="car.0" x="63.26" y="-1.65" angle="90.00" type="car" speed="6.78" pos="8.51" lane="CE_0" slope="0.00"/>
        <person id="p0" x="47.25" y="2.33" angle="270.00" speed="1.39" pos="7.50" edge=":C_w0" slope="0.00"/>
    </timestep>
    <timestep time="10.00">
        <vehicle id="car.0" x="72.65" y="-1.65" angle="90.00" type="car" speed="9.38" pos="17.90" lane="CE_0" slope="0.00"/>
        <person id="p0" x="45.86" y="2.33" angle="270.00" speed="1.39" pos="8.89" edge=":C_w0" slope="0.00"/>
    </timestep>
    <timestep time="11.00">
        <vehicle id="car.0" x="84.63" y="-1.65" angle="90.00" type="car" speed="11.98" pos="29.88" lane="CE_0" slope="0.00"/>
        <person id="p0" x="44.47" y="2.33" angle="270.00" speed="1.39" pos="0.78" edge="CW" slope="0.00"/>
    </timestep>
    <timestep time="12.00">
        <vehicle id="car.0" x="98.52" y="-1.65" angle="90.00" type="car" speed="13.89" pos="43.77" lane="CE_0" slope="0.00"/>
        <person id="p0" x="43.08" y="2.33" angle="270.00" speed="1.39" pos="2.17" edge="CW" slope="0.00"/>
    </timestep>
    <timestep time="13.00">
        <person id="p0" x="41.69" y="2.33" angle="270.00" speed="1.39" pos="3.56" edge="CW" slope="0.00"/>
    </timestep>
    <timestep time="14.00">
        <person id="p0" x="40.31" y="2.33" angle="270.00" speed="1.39" pos="4.94" edge="CW" slope="0.00"/>
    </timestep>
    <timestep time="15.00">
        <person id="p0" x="38.92" y="2.33" angle="270.00" speed="1.39" pos="6.33" edge="CW" slope="0.00"/>
    </timestep>
    <timestep time="16.00">
        <person id="p0" x="37.53" y="2.33" angle="270.00" speed="1.39" pos="7.72" edge="CW" slope="0.00"/>
    </timestep>
    <timestep time="17.00">
        <person id="p0" x="36.14" y="2.33" angle="270.00" speed="1.39" pos="9.11" edge="CW" slope="0.00"/>
    </timestep>
    <timestep time="18.00">
        <person id="p0" x="34.75" y="2.33" angle="270.00" speed="1.39" pos="10.50" edge="CW" slope="0.00"/>
    </timestep>
    <timestep time="19.00">
        <person id="p0" x="33.36" y="2.33" angle="270.00" speed="1.39" pos="11.89" edge="CW" slope="0.00"/>
    </timestep>
    <timestep time="20.00">
        <person id="p0" x="31.97" y="2.33" angle="270.00" speed="1.39" pos="13.28" edge="CW" slope="0.00"/>
    </timestep>
    <timestep time="21.00">
        <person id="p0" x="30.58" y="2.33" angle="270.00" speed="1.39" pos="14.67" edge="CW" slope="0.00"/>
    </timestep>
    <timestep time="22.00">
        <person id="p0" x="29.19" y="2.33" angle="270.00" speed="1.39" pos="16.06" edge="CW" slope="0.00"/>
    </timestep>
    <timestep time="23.00">
        <person id="p0" x="27.81" y="2.33" angle="270.00" speed="1.39" pos="17.44" edge="CW" slope="0.00"/>
    </timestep>
    <timestep time="24.00">
        <person id="p0" x="26.42" y="2.33" angle="270.00" speed="1.39" pos="18.83" edge="CW" slope="0.00"/>
    </timestep>
    <timestep time="25.00">
        <person id="p0" x="25.03" y="2.33" angle="270.00" speed="1.39" pos="20.22" edge="CW" slope="0.00"/>
    </timestep>
    <timestep time="26.00">
        <person id="p0" x="23.64" y="2.33" angle="270.00" speed="1.39" pos="21.61" edge="CW" slope="0.00"/>
    </timestep>
    <timestep time="27.00">
        <person id="p0" x="22.25" y="2.33" angle="270.00" speed="1.39" pos="23.00" edge="CW" slope="0.00"/>
    </timestep>
    <timestep time="28.00">
        <person id="p0" x="20.86" y="2.33" angle="270.00" speed="1.39" pos="24.39" edge="CW" slope="0.00"/>
    </timestep>
    <timestep time="29.00">
        <person id="p0" x="19.47" y="2.33" angle="270.00" speed="1.39" pos="25.78" edge="CW" slope="0.00"/>
    </timestep>
    <timestep time="30.00">
        <person id="p0" x="18.08" y="2.33" angle="270.00" speed="1.39" pos="27.17" edge="CW" slope="0.00"/>
    </timestep>
    <timestep time="31.00">
        <person id="p0" x="16.69" y="2.33" angle="270.00" speed="1.39" pos="28.56" edge="CW" slope="0.00"/>
    </timestep>
    <timestep time="32.00">
        <person id="p0" x="15.31" y="2.33" angle="270.00" speed="1.39" pos="29.94" edge="CW" slope="0.00"/>
    </timestep>
    <timestep time="33.00">
        <person id="p0" x="13.92" y="2.33" angle="270.00" speed="1.39" pos="31.33" edge="CW" slope="0.00"/>
    </timestep>
    <timestep time="34.00">
        <person id="p0" x="12.53" y="2.33" angle="270.00" speed="1.39" pos="32.72" edge="CW" slope="0.00"/>
    </timestep>
    <timestep time="35.00">
        <person id="p0" x="11.14" y="2.33" angle="270.00" speed="1.39" pos="34.11" edge="CW" slope="0.00"/>
    </timestep>
    <timestep time="36.00">
        <person id="p0" x="9.75" y="2.33" angle="270.00" speed="1.39" pos="35.50" edge="CW" slope="0.00"/>
    </timestep>
    <timestep time="37.00">
        <person id="p0" x="8.36" y="2.33" angle="270.00" speed="1.39" pos="36.89" edge="CW" slope="0.00"/>
    </timestep>
    <timestep time="38.00">
        <person id="p0" x="6.97" y="2.33" angle="270.00" speed="1.39" pos="38.28" edge="CW" slope="0.00"/>
    </timestep>
    <timestep time="39.00">
        <person id="p0" x="5.58" y="2.33" angle="270.00" speed="1.39" pos="39.67" edge="CW" slope="0.00"/>
    </timestep>
    <timestep time="40.00">
        <person id="p0" x="4.19" y="2.33" angle="270.00" speed="1.39" pos="41.06" edge="CW" slope="0.00"/>
    </timestep>
    <timestep time="41.00">
        <person id="p0" x="2.81" y="2.33" angle="270.00" speed="1.39" pos="42.44" edge="CW" slope="0.00"/>
    </timestep>
    <timestep time="42.00">
        <person id="p0" x="1.42" y="2.33" angle="270.00" speed="1.39" pos="43.83" edge="CW" slope="0.00"/>
    </timestep>
    <timestep time="43.00"/>
</fcd-export>
