<?xml version="1.0"?>

<!-- generated on 03/19/10 11:09:40 by SUMO sumo Version dev-SVN-r8163
<configuration>

    <input>
        <net-file value="net.net.xml"/>
        <route-files value="routes.rou.xml"/>
    </input>

    <output>
        <netstate-dump value="netstate_dump.xml"/>
    </output>

    <report>
        <no-step-log value="true"/>
    </report>

    <traci_server>
        <remote-port value="8854"/>
        <penetration value="1"/>
    </traci_server>

</configuration>
-->

<sumo-netstate>
    <timestep time="0.00">
        <edge id="e_m0">
            <lane id="e_m0_0">
                <vehicle id="veh0" pos="0.00" speed="0.00"/>
            </lane>
            <lane id="e_m0_1"/>
            <lane id="e_m0_2"/>
        </edge>
        <edge id="e_o1">
            <lane id="e_o1_0">
                <vehicle id="veh2.0" pos="0.00" speed="0.00"/>
            </lane>
            <lane id="e_o1_1"/>
            <lane id="e_o1_2"/>
        </edge>
    </timestep>
    <timestep time="1.00">
        <edge id="e_m0">
            <lane id="e_m0_0">
                <vehicle id="veh0" pos="0.52" speed="0.52"/>
            </lane>
            <lane id="e_m0_1"/>
            <lane id="e_m0_2"/>
        </edge>
        <edge id="e_o1">
            <lane id="e_o1_0">
                <vehicle id="veh2.0" pos="0.45" speed="0.45"/>
            </lane>
            <lane id="e_o1_1"/>
            <lane id="e_o1_2"/>
        </edge>
    </timestep>
    <timestep time="2.00">
        <edge id="e_m0">
            <lane id="e_m0_0">
                <vehicle id="veh0" pos="1.64" speed="1.12"/>
            </lane>
            <lane id="e_m0_1"/>
            <lane id="e_m0_2"/>
        </edge>
        <edge id="e_o1">
            <lane id="e_o1_0">
                <vehicle id="veh2.0" pos="1.67" speed="1.22"/>
            </lane>
            <lane id="e_o1_1"/>
            <lane id="e_o1_2"/>
        </edge>
    </timestep>
</sumo-netstate>
