<?xml version="1.0" encoding="UTF-8"?>

<!-- generated on 2025-06-18 13:24:08 by Eclipse SUMO sumo Version v1_23_1+0645-00bdb5bc2df
This data file and the accompanying materials
are made available under the terms of the Eclipse Public License v2.0
which accompanies this distribution, and is available at
http://www.eclipse.org/legal/epl-v20.html
This file may also be made available under the following Secondary
Licenses when the conditions for such availability set forth in the Eclipse
Public License 2.0 are satisfied: GNU General Public License, version 2
or later which is available at
https://www.gnu.org/licenses/old-licenses/gpl-2.0-standalone.html
SPDX-License-Identifier: EPL-2.0 OR GPL-2.0-or-later
<sumoConfiguration xmlns:xsi="http://www.w3.org/2001/XMLSchema-instance" xsi:noNamespaceSchemaLocation="http://sumo.dlr.de/xsd/sumoConfiguration.xsd">

    <input>
        <net-file value="net.net.xml"/>
        <route-files value="input_routes.rou.xml"/>
        <additional-files value="input_additional.add.xml,input_additional2.add.xml"/>
    </input>

    <output>
        <write-license value="true"/>
        <vehroute-output value="vehroutes.xml"/>
    </output>

    <processing>
        <default.speeddev value="0"/>
    </processing>

    <report>
        <xml-validation value="never"/>
        <duration-log.disable value="true"/>
        <no-step-log value="true"/>
    </report>

</sumoConfiguration>
-->

<routes xmlns:xsi="http://www.w3.org/2001/XMLSchema-instance" xsi:noNamespaceSchemaLocation="http://sumo.dlr.de/xsd/routes_file.xsd">
    <vehicle id="t_1" type="orig" depart="1.00" arrival="157.00">
        <route edges="E7 E3 E4"/>
    </vehicle>

    <vehicle id="t_2" type="orig" depart="1.00" arrival="172.00">
        <route edges="E8 E5 E6"/>
    </vehicle>

    <vehicle id="t_0" type="orig" depart="0.00" arrival="244.00">
        <route edges="E0 E1 E2"/>
        <stop containerStop="ct_0" triggered="container" parking="0"/>
        <stop containerStop="ct_1" duration="60.00"/>
    </vehicle>

</routes>
