<?xml version="1.0" encoding="UTF-8"?>

<!-- generated on 05/02/13 14:14:18 by SUMO sumo Version 0.17.0
<?xml version="1.0" encoding="UTF-8"?>

<configuration xmlns:xsi="http://www.w3.org/2001/XMLSchema-instance" xsi:noNamespaceSchemaLocation="http://sumo-sim.org/xsd/sumoConfiguration.xsd">

    <input>
        <net-file value="net.net.xml"/>
        <additional-files value="input_routes.rou.xml,input_additional.add.xml,input_additional2.add.xml"/>
    </input>

    <time>
        <begin value="0"/>
        <end value="150"/>
    </time>

    <report>
        <no-duration-log value="true"/>
        <no-step-log value="true"/>
    </report>

</configuration>
-->

<meandata xmlns:xsi="http://www.w3.org/2001/XMLSchema-instance" xsi:noNamespaceSchemaLocation="http://sumo-sim.org/xsd/meandata_file.xsd">
    <interval begin="0.00" end="15.00" id="dump_15">
        <edge id="4/1to3/1">
            <lane id="4/1to3/1_0" sampledSeconds="23.00" CO_abs="0" CO2_abs="38641.625405" HC_abs="6.766531" PMx_abs="2.252746" NOx_abs="61.310824" fuel_abs="15.405830"
            CO_normed="0" CO2_normed="23749.014333" HC_normed="4.158687" PMx_normed="1.384530" NOx_normed="37.681428" fuel_normed="9.468372"
            traveltime="39.05" CO_perVeh="0" CO2_perVeh="65606.759655" HC_perVeh="11.488393" PMx_perVeh="3.824771" NOx_perVeh="104.095116" fuel_perVeh="26.156421"/>
        </edge>
    </interval>
    <interval begin="15.00" end="30.00" id="dump_15">
        <edge id="4/1to3/1">
            <lane id="4/1to3/1_0" sampledSeconds="30.00" CO_abs="0" CO2_abs="50402.120093" HC_abs="8.825910" PMx_abs="2.938365" NOx_abs="79.970640" fuel_abs="20.094561"
            CO_normed="0" CO2_normed="30976.975217" HC_normed="5.424375" PMx_normed="1.805909" NOx_normed="49.149689" fuel_normed="12.350051"
            traveltime="39.05" CO_perVeh="0" CO2_perVeh="65606.759655" HC_perVeh="11.488393" PMx_perVeh="3.824771" NOx_perVeh="104.095116" fuel_perVeh="26.156421"/>
        </edge>
    </interval>
    <interval begin="30.00" end="45.00" id="dump_15">
        <edge id="3/1to2/1">
            <lane id="3/1to2/1_0" sampledSeconds="24.90" CO_abs="0" CO2_abs="41833.759677" HC_abs="7.325505" PMx_abs="2.438843" NOx_abs="66.375631" fuel_abs="16.678486"
            CO_normed="0" CO2_normed="25710.889430" HC_normed="4.502231" PMx_normed="1.498905" NOx_normed="40.794242" fuel_normed="10.250542"
            traveltime="39.05" CO_perVeh="0" CO2_perVeh="65606.759655" HC_perVeh="11.488393" PMx_perVeh="3.824771" NOx_perVeh="104.095116" fuel_perVeh="26.156421"/>
        </edge>
        <edge id="4/1to3/1">
            <lane id="4/1to3/1_0" sampledSeconds="5.70" CO_abs="0" CO2_abs="9576.402818" HC_abs="1.676923" PMx_abs="0.558289" NOx_abs="15.194422" fuel_abs="3.817967"
            CO_normed="0" CO2_normed="5885.625291" HC_normed="1.030631" PMx_normed="0.343123" NOx_normed="9.338441" fuel_normed="2.346510"
            traveltime="39.05" CO_perVeh="0" CO2_perVeh="65606.759655" HC_perVeh="11.488393" PMx_perVeh="3.824771" NOx_perVeh="104.095116" fuel_perVeh="26.156421"/>
        </edge>
    </interval>
    <interval begin="45.00" end="60.00" id="dump_15">
        <edge id="3/1to2/1">
            <lane id="3/1to2/1_0" sampledSeconds="30.00" CO_abs="0" CO2_abs="50402.120093" HC_abs="8.825910" PMx_abs="2.938365" NOx_abs="79.970640" fuel_abs="20.094561"
            CO_normed="0" CO2_normed="30976.975217" HC_normed="5.424375" PMx_normed="1.805909" NOx_normed="49.149689" fuel_normed="12.350051"
            traveltime="39.05" CO_perVeh="0" CO2_perVeh="65606.759655" HC_perVeh="11.488393" PMx_perVeh="3.824771" NOx_perVeh="104.095116" fuel_perVeh="26.156421"/>
        </edge>
    </interval>
    <interval begin="60.00" end="75.00" id="dump_15">
        <edge id="2/1to1/1">
            <lane id="2/1to1/1_0" sampledSeconds="6.80" CO_abs="0" CO2_abs="11424.480554" HC_abs="2.000540" PMx_abs="0.666029" NOx_abs="18.126678" fuel_abs="4.554767"
            CO_normed="0" CO2_normed="7021.447716" HC_normed="1.229525" PMx_normed="0.409339" NOx_normed="11.140596" fuel_normed="2.799345"
            traveltime="39.05" CO_perVeh="0" CO2_perVeh="65606.759655" HC_perVeh="11.488393" PMx_perVeh="3.824771" NOx_perVeh="104.095116" fuel_perVeh="26.156421"/>
        </edge>
        <edge id="3/1to2/1">
            <lane id="3/1to2/1_0" sampledSeconds="23.80" CO_abs="0" CO2_abs="39985.681941" HC_abs="7.001889" PMx_abs="2.331103" NOx_abs="63.443374" fuel_abs="15.941685"
            CO_normed="0" CO2_normed="24575.067006" HC_normed="4.303337" PMx_normed="1.432688" NOx_normed="38.992087" fuel_normed="9.797707"
            traveltime="39.05" CO_perVeh="0" CO2_perVeh="65606.759655" HC_perVeh="11.488393" PMx_perVeh="3.824771" NOx_perVeh="104.095116" fuel_perVeh="26.156421"/>
        </edge>
    </interval>
    <interval begin="75.00" end="90.00" id="dump_15">
        <edge id="2/1to1/1">
            <lane id="2/1to1/1_0" sampledSeconds="30.00" CO_abs="0" CO2_abs="50402.120093" HC_abs="8.825910" PMx_abs="2.938365" NOx_abs="79.970640" fuel_abs="20.094561"
            CO_normed="0" CO2_normed="30976.975217" HC_normed="5.424375" PMx_normed="1.805909" NOx_normed="49.149689" fuel_normed="12.350051"
            traveltime="39.05" CO_perVeh="0" CO2_perVeh="65606.759655" HC_perVeh="11.488393" PMx_perVeh="3.824771" NOx_perVeh="104.095116" fuel_perVeh="26.156421"/>
        </edge>
    </interval>
    <interval begin="90.00" end="105.00" id="dump_15">
        <edge id="2/1to1/1">
            <lane id="2/1to1/1_0" sampledSeconds="30.00" CO_abs="0" CO2_abs="50402.120093" HC_abs="8.825910" PMx_abs="2.938365" NOx_abs="79.970640" fuel_abs="20.094561"
            CO_normed="0" CO2_normed="30976.975217" HC_normed="5.424375" PMx_normed="1.805909" NOx_normed="49.149689" fuel_normed="12.350051"
            traveltime="39.05" CO_perVeh="0" CO2_perVeh="65606.759655" HC_perVeh="11.488393" PMx_perVeh="3.824771" NOx_perVeh="104.095116" fuel_perVeh="26.156421"/>
        </edge>
    </interval>
    <interval begin="105.00" end="120.00" id="dump_15">
        <edge id="1/1to0/1">
            <lane id="1/1to0/1_0" sampledSeconds="18.70" CO_abs="0" CO2_abs="31417.321525" HC_abs="5.501484" PMx_abs="1.831581" NOx_abs="49.848366" fuel_abs="12.525610"
            CO_normed="0" CO2_normed="19308.981219" HC_normed="3.381194" PMx_normed="1.125683" NOx_normed="30.636640" fuel_normed="7.698198"
            traveltime="39.05" CO_perVeh="0" CO2_perVeh="65606.759655" HC_perVeh="11.488393" PMx_perVeh="3.824771" NOx_perVeh="104.095116" fuel_perVeh="26.156421"/>
        </edge>
        <edge id="2/1to1/1">
            <lane id="2/1to1/1_0" sampledSeconds="11.90" CO_abs="0" CO2_abs="19992.840970" HC_abs="3.500944" PMx_abs="1.165551" NOx_abs="31.721687" fuel_abs="7.970843"
            CO_normed="0" CO2_normed="12287.533503" HC_normed="2.151669" PMx_normed="0.716344" NOx_normed="19.496043" fuel_normed="4.898853"
            traveltime="39.05" CO_perVeh="0" CO2_perVeh="65606.759655" HC_perVeh="11.488393" PMx_perVeh="3.824771" NOx_perVeh="104.095116" fuel_perVeh="26.156421"/>
        </edge>
    </interval>
    <interval begin="120.00" end="135.00" id="dump_15">
        <edge id="1/1to0/1">
            <lane id="1/1to0/1_0" sampledSeconds="30.00" CO_abs="0" CO2_abs="50402.120093" HC_abs="8.825910" PMx_abs="2.938365" NOx_abs="79.970640" fuel_abs="20.094561"
            CO_normed="0" CO2_normed="30976.975217" HC_normed="5.424375" PMx_normed="1.805909" NOx_normed="49.149689" fuel_normed="12.350051"
            traveltime="39.05" CO_perVeh="0" CO2_perVeh="65606.759655" HC_perVeh="11.488393" PMx_perVeh="3.824771" NOx_perVeh="104.095116" fuel_perVeh="26.156421"/>
        </edge>
    </interval>
    <interval begin="135.00" end="150.00" id="dump_15">
        <edge id="1/1to0/1">
            <lane id="1/1to0/1_0" sampledSeconds="27.50" CO_abs="0" CO2_abs="46201.943419" HC_abs="8.090417" PMx_abs="2.693501" NOx_abs="73.306420" fuel_abs="18.420015"
            CO_normed="0" CO2_normed="28395.560616" HC_normed="4.972344" PMx_normed="1.655417" NOx_normed="45.053882" fuel_normed="11.320880"
            traveltime="39.05" CO_perVeh="0" CO2_perVeh="65606.759655" HC_perVeh="11.488393" PMx_perVeh="3.824771" NOx_perVeh="104.095116" fuel_perVeh="26.156421"/>
        </edge>
    </interval>
</meandata>
