<?xml version="1.0" encoding="UTF-8"?>

<!-- generated on Mon Jun 22 02:31:28 2020 by Eclipse SUMO Version v1_6_0+0887-0dd4682dc5
This data file and the accompanying materials
are made available under the terms of the Eclipse Public License v2.0
which accompanies this distribution, and is available at
http://www.eclipse.org/legal/epl-v20.html
SPDX-License-Identifier: EPL-2.0
<configuration xmlns:xsi="http://www.w3.org/2001/XMLSchema-instance" xsi:noNamespaceSchemaLocation="http://sumo.dlr.de/xsd/sumoConfiguration.xsd">

    <input>
        <net-file value="net3.net.xml"/>
        <route-files value="input_routes.rou.xml"/>
        <additional-files value="input_additional2.add.xml"/>
    </input>

    <output>
        <write-license value="true"/>
        <tripinfo-output value="tripinfos.xml"/>
    </output>

    <processing>
        <collision.check-junctions value="true"/>
        <default.speeddev value="0"/>
        <pedestrian.model value="striping"/>
        <pedestrian.striping.dawdling value="0"/>
    </processing>

    <report>
        <xml-validation value="never"/>
        <no-step-log value="true"/>
    </report>

</configuration>
-->

<tripinfos xmlns:xsi="http://www.w3.org/2001/XMLSchema-instance" xsi:noNamespaceSchemaLocation="http://sumo.dlr.de/xsd/tripinfo_file.xsd">
    <tripinfo id="EW.1" depart="5.00" departLane="EC_4" departPos="5.10" departSpeed="0.00" departDelay="0.00" arrival="27.00" arrivalLane="CW_4" arrivalPos="86.15" arrivalSpeed="13.89" duration="22.00" routeLength="194.90" waitingTime="2.00" waitingCount="1" stopTime="0.00" timeLoss="7.61" rerouteNo="0" devices="tripinfo_EW.1" vType="car" speedFactor="1.00" vaporized=""/>
    <tripinfo id="EW.0" depart="2.00" departLane="EC_3" departPos="5.10" departSpeed="0.00" departDelay="0.00" arrival="28.00" arrivalLane="CW_3" arrivalPos="86.15" arrivalSpeed="13.89" duration="26.00" routeLength="194.90" waitingTime="6.00" waitingCount="1" stopTime="0.00" timeLoss="11.61" rerouteNo="0" devices="tripinfo_EW.0" vType="car" speedFactor="1.00" vaporized=""/>
    <tripinfo id="EW.2" depart="10.00" departLane="EC_3" departPos="5.10" departSpeed="0.00" departDelay="0.00" arrival="29.00" arrivalLane="CW_4" arrivalPos="86.15" arrivalSpeed="13.89" duration="19.00" routeLength="194.90" waitingTime="0.00" waitingCount="0" stopTime="0.00" timeLoss="4.18" rerouteNo="0" devices="tripinfo_EW.2" vType="car" speedFactor="1.00" vaporized=""/>
    <tripinfo id="EW.3" depart="16.00" departLane="EC_4" departPos="5.10" departSpeed="0.00" departDelay="0.00" arrival="33.00" arrivalLane="CW_4" arrivalPos="86.15" arrivalSpeed="13.89" duration="17.00" routeLength="194.90" waitingTime="0.00" waitingCount="0" stopTime="0.00" timeLoss="2.19" rerouteNo="0" devices="tripinfo_EW.3" vType="car" speedFactor="1.00" vaporized=""/>
    <personinfo id="p0" depart="0.00" type="p0">
        <walk depart="0.00" departPos="83.90" arrival="53.00" arrivalPos="43.45" duration="53.00" routeLength="72.65" timeLoss="0.69" maxSpeed="1.39"/>
    </personinfo>
</tripinfos>
