<?xml version="1.0"?>

<!-- generated on 04/05/11 12:35:47 by SUMO sumo Version dev-SVN-r10057
<?xml version="1.0" encoding="iso-8859-1"?>

<configuration xmlns:xsi="http://www.w3.org/2001/XMLSchema-instance" xsi:noNamespaceSchemaLocation="http://sumo.sf.net/xsd/sumoConfiguration.xsd">

    <input>
        <net-file value="net.net.xml"/>
        <route-files value="input_routes.rou.xml"/>
    </input>

    <output>
        <netstate-dump value="netstate_dump.xml"/>
    </output>

    <report>
        <no-step-log value="true"/>
    </report>

    <traci_server>
        <remote-port value="8837"/>
    </traci_server>

</configuration>
-->

<sumo-netstate>
    <timestep time="0.00">
        <edge id="4/1to3/1">
            <lane id="4/1to3/1_0">
                <vehicle id="0" pos="100.00" speed="10.00"/>
            </lane>
        </edge>
    </timestep>
    <timestep time="1.00">
        <edge id="4/1to3/1">
            <lane id="4/1to3/1_0">
                <vehicle id="0" pos="110.00" speed="10.00"/>
            </lane>
        </edge>
    </timestep>
    <timestep time="2.00">
        <edge id="4/1to3/1">
            <lane id="4/1to3/1_0">
                <vehicle id="0" pos="120.00" speed="10.00"/>
            </lane>
        </edge>
    </timestep>
</sumo-netstate>
