<?xml version="1.0" encoding="UTF-8"?>

<!-- generated on 05/02/13 14:15:27 by SUMO sumo Version 0.17.0
<?xml version="1.0" encoding="UTF-8"?>

<configuration xmlns:xsi="http://www.w3.org/2001/XMLSchema-instance" xsi:noNamespaceSchemaLocation="http://sumo-sim.org/xsd/sumoConfiguration.xsd">

    <input>
        <net-file value="net.net.xml"/>
        <route-files value="input_routes.rou.xml"/>
    </input>

    <output>
        <vehroute-output value="vehroutes.xml"/>
    </output>

    <time>
        <begin value="0"/>
    </time>

    <processing>
        <scale value="0.8"/>
    </processing>

    <report>
        <no-duration-log value="true"/>
        <no-step-log value="true"/>
    </report>

</configuration>
-->

<routes xmlns:xsi="http://www.w3.org/2001/XMLSchema-instance" xsi:noNamespaceSchemaLocation="http://sumo-sim.org/xsd/routes_file.xsd">
    <vehicle id="horizontal01" depart="100.00" arrival="292.00">
        <route edges="2fi 2si 1o 1fi 1si 2o 2fi"/>
    </vehicle>

    <vehicle id="horizontal03" depart="102.00" arrival="295.00">
        <route edges="2fi 2si 1o 1fi 1si 2o 2fi"/>
    </vehicle>

    <vehicle id="horizontal04" depart="105.00" arrival="297.00">
        <route edges="2fi 2si 1o 1fi 1si 2o 2fi"/>
    </vehicle>

    <vehicle id="horizontal05" depart="108.00" arrival="300.00">
        <route edges="2fi 2si 1o 1fi 1si 2o 2fi"/>
    </vehicle>

    <vehicle id="horizontal06" depart="110.00" arrival="303.00">
        <route edges="2fi 2si 1o 1fi 1si 2o 2fi"/>
    </vehicle>

    <vehicle id="horizontal08" depart="113.00" arrival="305.00">
        <route edges="2fi 2si 1o 1fi 1si 2o 2fi"/>
    </vehicle>

    <vehicle id="horizontal09" depart="116.00" arrival="308.00">
        <route edges="2fi 2si 1o 1fi 1si 2o 2fi"/>
    </vehicle>

    <vehicle id="horizontal10" depart="118.00" arrival="311.00">
        <route edges="2fi 2si 1o 1fi 1si 2o 2fi"/>
    </vehicle>

</routes>
