<?xml version="1.0" encoding="UTF-8"?>

<!-- generated on 2024-06-20 21:53:55 by Eclipse SUMO sumo Version v1_20_0+0685-fd40beaaee6
This data file and the accompanying materials
are made available under the terms of the Eclipse Public License v2.0
which accompanies this distribution, and is available at
http://www.eclipse.org/legal/epl-v20.html
This file may also be made available under the following Secondary
Licenses when the conditions for such availability set forth in the Eclipse
Public License 2.0 are satisfied: GNU General Public License, version 2
or later which is available at
https://www.gnu.org/licenses/old-licenses/gpl-2.0-standalone.html
SPDX-License-Identifier: EPL-2.0 OR GPL-2.0-or-later
<sumoConfiguration xmlns:xsi="http://www.w3.org/2001/XMLSchema-instance" xsi:noNamespaceSchemaLocation="http://sumo.dlr.de/xsd/sumoConfiguration.xsd">

    <input>
        <net-file value="net.net.xml"/>
        <route-files value="input_routes.rou.xml"/>
    </input>

    <output>
        <write-license value="true"/>
        <fcd-output value="fcd.xml"/>
        <fcd-output.attributes value="speed,acceleration"/>
    </output>

    <processing>
        <default.carfollowmodel value="EIDM"/>
        <default.speeddev value="0"/>
    </processing>

    <report>
        <xml-validation value="never"/>
        <no-step-log value="true"/>
    </report>

</sumoConfiguration>
-->

<fcd-export xmlns:xsi="http://www.w3.org/2001/XMLSchema-instance" xsi:noNamespaceSchemaLocation="http://sumo.dlr.de/xsd/fcd_file.xsd">
    <timestep time="0.00">
        <vehicle id="f.0" speed="29.45" acceleration="0.00"/>
        <vehicle id="slow" speed="19.45" acceleration="0.00"/>
    </timestep>
    <timestep time="1.00">
        <vehicle id="f.0" speed="29.45" acceleration="0.00"/>
        <vehicle id="slow" speed="19.45" acceleration="0.00"/>
    </timestep>
    <timestep time="2.00">
        <vehicle id="f.0" speed="29.33" acceleration="-0.12"/>
        <vehicle id="f.1" speed="26.07" acceleration="0.00"/>
        <vehicle id="slow" speed="19.46" acceleration="0.01"/>
    </timestep>
    <timestep time="3.00">
        <vehicle id="f.0" speed="28.52" acceleration="-0.81"/>
        <vehicle id="f.1" speed="26.07" acceleration="0.00"/>
        <vehicle id="slow" speed="19.39" acceleration="-0.06"/>
    </timestep>
    <timestep time="4.00">
        <vehicle id="f.0" speed="27.35" acceleration="-1.17"/>
        <vehicle id="f.1" speed="26.09" acceleration="0.02"/>
        <vehicle id="f.2" speed="28.07" acceleration="0.00"/>
        <vehicle id="slow" speed="19.36" acceleration="-0.03"/>
    </timestep>
    <timestep time="5.00">
        <vehicle id="f.0" speed="25.92" acceleration="-1.43"/>
        <vehicle id="f.1" speed="26.02" acceleration="-0.07"/>
        <vehicle id="f.2" speed="28.07" acceleration="0.00"/>
        <vehicle id="slow" speed="19.24" acceleration="-0.12"/>
    </timestep>
    <timestep time="6.00">
        <vehicle id="f.0" speed="24.81" acceleration="-1.10"/>
        <vehicle id="f.1" speed="26.10" acceleration="0.08"/>
        <vehicle id="f.2" speed="28.02" acceleration="-0.05"/>
        <vehicle id="f.3" speed="30.08" acceleration="0.00"/>
        <vehicle id="slow" speed="19.22" acceleration="-0.02"/>
    </timestep>
    <timestep time="7.00">
        <vehicle id="f.0" speed="23.77" acceleration="-1.05"/>
        <vehicle id="f.1" speed="25.98" acceleration="-0.12"/>
        <vehicle id="f.2" speed="28.11" acceleration="0.09"/>
        <vehicle id="f.3" speed="30.08" acceleration="0.00"/>
        <vehicle id="slow" speed="19.29" acceleration="0.07"/>
    </timestep>
    <timestep time="8.00">
        <vehicle id="f.0" speed="22.97" acceleration="-0.80"/>
        <vehicle id="f.1" speed="25.95" acceleration="-0.03"/>
        <vehicle id="f.2" speed="28.02" acceleration="-0.09"/>
        <vehicle id="f.3" speed="30.12" acceleration="0.04"/>
        <vehicle id="f.4" speed="28.62" acceleration="0.00"/>
        <vehicle id="slow" speed="19.23" acceleration="-0.06"/>
    </timestep>
    <timestep time="9.00">
        <vehicle id="f.0" speed="22.01" acceleration="-0.95"/>
        <vehicle id="f.1" speed="25.93" acceleration="-0.02"/>
        <vehicle id="f.2" speed="27.89" acceleration="-0.13"/>
        <vehicle id="f.3" speed="30.10" acceleration="-0.02"/>
        <vehicle id="f.4" speed="28.62" acceleration="0.00"/>
        <vehicle id="slow" speed="19.20" acceleration="-0.03"/>
    </timestep>
    <timestep time="10.00">
        <vehicle id="f.0" speed="21.33" acceleration="-0.68"/>
        <vehicle id="f.1" speed="25.74" acceleration="-0.18"/>
        <vehicle id="f.2" speed="27.51" acceleration="-0.38"/>
        <vehicle id="f.3" speed="30.22" acceleration="0.12"/>
        <vehicle id="f.4" speed="28.57" acceleration="-0.05"/>
        <vehicle id="f.5" speed="23.09" acceleration="0.00"/>
        <vehicle id="slow" speed="19.22" acceleration="0.02"/>
    </timestep>
    <timestep time="11.00">
        <vehicle id="f.0" speed="20.88" acceleration="-0.45"/>
        <vehicle id="f.1" speed="25.06" acceleration="-0.68"/>
        <vehicle id="f.2" speed="26.88" acceleration="-0.63"/>
        <vehicle id="f.3" speed="30.13" acceleration="-0.09"/>
        <vehicle id="f.4" speed="28.63" acceleration="0.06"/>
        <vehicle id="f.5" speed="23.09" acceleration="0.00"/>
        <vehicle id="slow" speed="19.14" acceleration="-0.08"/>
    </timestep>
    <timestep time="12.00">
        <vehicle id="f.0" speed="20.48" acceleration="-0.40"/>
        <vehicle id="f.1" speed="24.35" acceleration="-0.71"/>
        <vehicle id="f.2" speed="26.13" acceleration="-0.75"/>
        <vehicle id="f.3" speed="29.40" acceleration="-0.73"/>
        <vehicle id="f.4" speed="28.68" acceleration="0.04"/>
        <vehicle id="f.5" speed="23.21" acceleration="0.12"/>
        <vehicle id="f.6" speed="28.91" acceleration="0.00"/>
        <vehicle id="slow" speed="19.18" acceleration="0.04"/>
    </timestep>
    <timestep time="13.00">
        <vehicle id="f.0" speed="19.77" acceleration="-0.71"/>
        <vehicle id="f.1" speed="23.43" acceleration="-0.92"/>
        <vehicle id="f.2" speed="25.29" acceleration="-0.84"/>
        <vehicle id="f.3" speed="28.18" acceleration="-1.22"/>
        <vehicle id="f.4" speed="28.60" acceleration="-0.08"/>
        <vehicle id="f.5" speed="23.33" acceleration="0.13"/>
        <vehicle id="f.6" speed="27.14" acceleration="-1.77"/>
        <vehicle id="slow" speed="19.37" acceleration="0.19"/>
    </timestep>
    <timestep time="14.00">
        <vehicle id="f.0" speed="19.56" acceleration="-0.20"/>
        <vehicle id="f.1" speed="22.28" acceleration="-1.16"/>
        <vehicle id="f.2" speed="24.31" acceleration="-0.98"/>
        <vehicle id="f.3" speed="26.94" acceleration="-1.24"/>
        <vehicle id="f.4" speed="28.63" acceleration="0.03"/>
        <vehicle id="f.5" speed="23.40" acceleration="0.06"/>
        <vehicle id="f.6" speed="26.20" acceleration="-0.93"/>
        <vehicle id="f.7" speed="24.61" acceleration="0.00"/>
        <vehicle id="slow" speed="19.51" acceleration="0.14"/>
    </timestep>
    <timestep time="15.00">
        <vehicle id="f.0" speed="19.58" acceleration="0.01"/>
        <vehicle id="f.1" speed="21.44" acceleration="-0.83"/>
        <vehicle id="f.2" speed="22.81" acceleration="-1.50"/>
        <vehicle id="f.3" speed="25.75" acceleration="-1.19"/>
        <vehicle id="f.4" speed="28.76" acceleration="0.13"/>
        <vehicle id="f.5" speed="23.40" acceleration="-0.00"/>
        <vehicle id="f.6" speed="25.54" acceleration="-0.67"/>
        <vehicle id="f.7" speed="24.61" acceleration="0.00"/>
        <vehicle id="slow" speed="19.53" acceleration="0.02"/>
    </timestep>
    <timestep time="16.00">
        <vehicle id="f.0" speed="19.81" acceleration="0.23"/>
        <vehicle id="f.1" speed="20.85" acceleration="-0.59"/>
        <vehicle id="f.2" speed="21.78" acceleration="-1.03"/>
        <vehicle id="f.3" speed="23.76" acceleration="-1.98"/>
        <vehicle id="f.4" speed="28.93" acceleration="0.17"/>
        <vehicle id="f.5" speed="23.41" acceleration="0.01"/>
        <vehicle id="f.6" speed="25.25" acceleration="-0.29"/>
        <vehicle id="f.7" speed="24.66" acceleration="0.04"/>
        <vehicle id="f.8" speed="26.05" acceleration="0.00"/>
        <vehicle id="slow" speed="19.53" acceleration="0.00"/>
    </timestep>
    <timestep time="17.00">
        <vehicle id="f.0" speed="19.78" acceleration="-0.03"/>
        <vehicle id="f.1" speed="20.60" acceleration="-0.25"/>
        <vehicle id="f.2" speed="21.09" acceleration="-0.70"/>
        <vehicle id="f.3" speed="22.46" acceleration="-1.30"/>
        <vehicle id="f.4" speed="28.15" acceleration="-0.79"/>
        <vehicle id="f.5" speed="23.70" acceleration="0.30"/>
        <vehicle id="f.6" speed="24.86" acceleration="-0.39"/>
        <vehicle id="f.7" speed="24.63" acceleration="-0.03"/>
        <vehicle id="f.8" speed="26.05" acceleration="0.00"/>
        <vehicle id="slow" speed="19.66" acceleration="0.13"/>
    </timestep>
    <timestep time="18.00">
        <vehicle id="f.0" speed="19.90" acceleration="0.12"/>
        <vehicle id="f.1" speed="20.43" acceleration="-0.17"/>
        <vehicle id="f.2" speed="20.74" acceleration="-0.34"/>
        <vehicle id="f.3" speed="21.25" acceleration="-1.21"/>
        <vehicle id="f.4" speed="26.69" acceleration="-1.46"/>
        <vehicle id="f.5" speed="23.51" acceleration="-0.19"/>
        <vehicle id="f.6" speed="24.70" acceleration="-0.16"/>
        <vehicle id="f.7" speed="24.58" acceleration="-0.05"/>
        <vehicle id="f.8" speed="26.20" acceleration="0.15"/>
        <vehicle id="f.9" speed="23.80" acceleration="0.00"/>
        <vehicle id="slow" speed="19.66" acceleration="0.01"/>
    </timestep>
    <timestep time="19.00">
        <vehicle id="f.0" speed="19.95" acceleration="0.05"/>
        <vehicle id="f.1" speed="20.41" acceleration="-0.01"/>
        <vehicle id="f.2" speed="20.54" acceleration="-0.21"/>
        <vehicle id="f.3" speed="20.76" acceleration="-0.49"/>
        <vehicle id="f.4" speed="25.10" acceleration="-1.59"/>
        <vehicle id="f.5" speed="23.61" acceleration="0.10"/>
        <vehicle id="f.6" speed="24.43" acceleration="-0.27"/>
        <vehicle id="f.7" speed="24.73" acceleration="0.15"/>
        <vehicle id="f.8" speed="26.07" acceleration="-0.13"/>
        <vehicle id="f.9" speed="23.80" acceleration="0.00"/>
        <vehicle id="slow" speed="19.75" acceleration="0.09"/>
    </timestep>
    <timestep time="20.00">
        <vehicle id="f.0" speed="19.85" acceleration="-0.10"/>
        <vehicle id="f.1" speed="20.30" acceleration="-0.12"/>
        <vehicle id="f.2" speed="20.26" acceleration="-0.28"/>
        <vehicle id="f.3" speed="20.59" acceleration="-0.17"/>
        <vehicle id="f.4" speed="23.80" acceleration="-1.30"/>
        <vehicle id="f.5" speed="23.57" acceleration="-0.03"/>
        <vehicle id="f.6" speed="24.07" acceleration="-0.36"/>
        <vehicle id="f.7" speed="24.80" acceleration="0.07"/>
        <vehicle id="f.8" speed="26.04" acceleration="-0.03"/>
        <vehicle id="f.9" speed="23.76" acceleration="-0.04"/>
        <vehicle id="slow" speed="19.67" acceleration="-0.08"/>
    </timestep>
    <timestep time="21.00">
        <vehicle id="f.0" speed="20.01" acceleration="0.16"/>
        <vehicle id="f.1" speed="20.10" acceleration="-0.20"/>
        <vehicle id="f.2" speed="20.32" acceleration="0.07"/>
        <vehicle id="f.3" speed="20.26" acceleration="-0.33"/>
        <vehicle id="f.4" speed="22.88" acceleration="-0.92"/>
        <vehicle id="f.5" speed="23.59" acceleration="0.02"/>
        <vehicle id="f.6" speed="23.84" acceleration="-0.23"/>
        <vehicle id="f.7" speed="24.97" acceleration="0.17"/>
        <vehicle id="f.8" speed="26.02" acceleration="-0.02"/>
        <vehicle id="f.9" speed="23.67" acceleration="-0.10"/>
        <vehicle id="slow" speed="19.45" acceleration="-0.21"/>
    </timestep>
    <timestep time="22.00">
        <vehicle id="f.0" speed="19.88" acceleration="-0.13"/>
        <vehicle id="f.1" speed="20.15" acceleration="0.05"/>
        <vehicle id="f.2" speed="20.30" acceleration="-0.03"/>
        <vehicle id="f.3" speed="20.24" acceleration="-0.02"/>
        <vehicle id="f.4" speed="21.93" acceleration="-0.94"/>
        <vehicle id="f.5" speed="23.66" acceleration="0.07"/>
        <vehicle id="f.6" speed="23.67" acceleration="-0.16"/>
        <vehicle id="f.7" speed="25.15" acceleration="0.18"/>
        <vehicle id="f.8" speed="26.05" acceleration="0.03"/>
        <vehicle id="f.9" speed="23.60" acceleration="-0.06"/>
        <vehicle id="slow" speed="19.36" acceleration="-0.09"/>
    </timestep>
    <timestep time="23.00">
        <vehicle id="f.0" speed="19.66" acceleration="-0.23"/>
        <vehicle id="f.1" speed="19.97" acceleration="-0.18"/>
        <vehicle id="f.2" speed="20.20" acceleration="-0.10"/>
        <vehicle id="f.3" speed="20.35" acceleration="0.12"/>
        <vehicle id="f.4" speed="21.53" acceleration="-0.40"/>
        <vehicle id="f.5" speed="23.89" acceleration="0.23"/>
        <vehicle id="f.6" speed="23.69" acceleration="0.02"/>
        <vehicle id="f.7" speed="25.31" acceleration="0.16"/>
        <vehicle id="f.8" speed="26.04" acceleration="-0.01"/>
        <vehicle id="f.9" speed="23.47" acceleration="-0.13"/>
        <vehicle id="slow" speed="19.21" acceleration="-0.16"/>
    </timestep>
    <timestep time="24.00">
        <vehicle id="f.0" speed="19.09" acceleration="-0.57"/>
        <vehicle id="f.1" speed="19.77" acceleration="-0.20"/>
        <vehicle id="f.2" speed="20.12" acceleration="-0.08"/>
        <vehicle id="f.3" speed="20.42" acceleration="0.07"/>
        <vehicle id="f.4" speed="21.24" acceleration="-0.30"/>
        <vehicle id="f.5" speed="23.90" acceleration="0.01"/>
        <vehicle id="f.6" speed="23.88" acceleration="0.20"/>
        <vehicle id="f.7" speed="25.40" acceleration="0.09"/>
        <vehicle id="f.8" speed="26.13" acceleration="0.09"/>
        <vehicle id="f.9" speed="23.54" acceleration="0.07"/>
        <vehicle id="slow" speed="18.95" acceleration="-0.26"/>
    </timestep>
    <timestep time="25.00">
        <vehicle id="f.0" speed="18.95" acceleration="-0.14"/>
        <vehicle id="f.1" speed="19.03" acceleration="-0.74"/>
        <vehicle id="f.2" speed="20.02" acceleration="-0.10"/>
        <vehicle id="f.3" speed="20.27" acceleration="-0.15"/>
        <vehicle id="f.4" speed="21.15" acceleration="-0.09"/>
        <vehicle id="f.5" speed="23.95" acceleration="0.05"/>
        <vehicle id="f.6" speed="24.04" acceleration="0.16"/>
        <vehicle id="f.7" speed="25.28" acceleration="-0.13"/>
        <vehicle id="f.8" speed="26.19" acceleration="0.07"/>
        <vehicle id="f.9" speed="23.72" acceleration="0.18"/>
        <vehicle id="slow" speed="18.95" acceleration="0.00"/>
    </timestep>
    <timestep time="26.00">
        <vehicle id="f.0" speed="18.91" acceleration="-0.04"/>
        <vehicle id="f.1" speed="18.88" acceleration="-0.16"/>
        <vehicle id="f.2" speed="19.46" acceleration="-0.56"/>
        <vehicle id="f.3" speed="20.18" acceleration="-0.09"/>
        <vehicle id="f.4" speed="20.85" acceleration="-0.30"/>
        <vehicle id="f.5" speed="23.90" acceleration="-0.05"/>
        <vehicle id="f.6" speed="24.05" acceleration="0.01"/>
        <vehicle id="f.7" speed="25.33" acceleration="0.06"/>
        <vehicle id="f.8" speed="26.09" acceleration="-0.11"/>
        <vehicle id="f.9" speed="23.70" acceleration="-0.02"/>
        <vehicle id="slow" speed="18.98" acceleration="0.03"/>
    </timestep>
    <timestep time="27.00">
        <vehicle id="f.0" speed="18.98" acceleration="0.08"/>
        <vehicle id="f.1" speed="18.74" acceleration="-0.13"/>
        <vehicle id="f.2" speed="18.95" acceleration="-0.51"/>
        <vehicle id="f.3" speed="19.75" acceleration="-0.43"/>
        <vehicle id="f.4" speed="20.81" acceleration="-0.04"/>
        <vehicle id="f.5" speed="23.76" acceleration="-0.14"/>
        <vehicle id="f.6" speed="24.03" acceleration="-0.02"/>
        <vehicle id="f.7" speed="25.26" acceleration="-0.07"/>
        <vehicle id="f.8" speed="26.16" acceleration="0.08"/>
        <vehicle id="f.9" speed="23.72" acceleration="0.01"/>
        <vehicle id="slow" speed="19.01" acceleration="0.03"/>
    </timestep>
    <timestep time="28.00">
        <vehicle id="f.0" speed="18.95" acceleration="-0.03"/>
        <vehicle id="f.1" speed="18.74" acceleration="-0.01"/>
        <vehicle id="f.2" speed="18.55" acceleration="-0.40"/>
        <vehicle id="f.3" speed="19.21" acceleration="-0.54"/>
        <vehicle id="f.4" speed="20.36" acceleration="-0.45"/>
        <vehicle id="f.5" speed="23.55" acceleration="-0.21"/>
        <vehicle id="f.6" speed="23.99" acceleration="-0.04"/>
        <vehicle id="f.7" speed="25.31" acceleration="0.05"/>
        <vehicle id="f.8" speed="26.15" acceleration="-0.01"/>
        <vehicle id="f.9" speed="23.93" acceleration="0.21"/>
        <vehicle id="slow" speed="19.14" acceleration="0.13"/>
    </timestep>
    <timestep time="29.00">
        <vehicle id="f.0" speed="19.08" acceleration="0.13"/>
        <vehicle id="f.1" speed="18.66" acceleration="-0.07"/>
        <vehicle id="f.2" speed="18.60" acceleration="0.05"/>
        <vehicle id="f.3" speed="18.76" acceleration="-0.45"/>
        <vehicle id="f.4" speed="19.74" acceleration="-0.61"/>
        <vehicle id="f.5" speed="23.47" acceleration="-0.09"/>
        <vehicle id="f.6" speed="23.83" acceleration="-0.16"/>
        <vehicle id="f.7" speed="25.24" acceleration="-0.08"/>
        <vehicle id="f.8" speed="26.16" acceleration="0.01"/>
        <vehicle id="f.9" speed="23.88" acceleration="-0.05"/>
        <vehicle id="slow" speed="19.37" acceleration="0.23"/>
    </timestep>
    <timestep time="30.00">
        <vehicle id="f.0" speed="19.24" acceleration="0.16"/>
        <vehicle id="f.1" speed="18.69" acceleration="0.02"/>
        <vehicle id="f.2" speed="18.73" acceleration="0.13"/>
        <vehicle id="f.3" speed="18.60" acceleration="-0.16"/>
        <vehicle id="f.4" speed="19.15" acceleration="-0.60"/>
        <vehicle id="f.5" speed="23.26" acceleration="-0.20"/>
        <vehicle id="f.6" speed="23.76" acceleration="-0.08"/>
        <vehicle id="f.7" speed="25.16" acceleration="-0.08"/>
        <vehicle id="f.8" speed="26.09" acceleration="-0.07"/>
        <vehicle id="f.9" speed="23.73" acceleration="-0.15"/>
        <vehicle id="slow" speed="19.58" acceleration="0.21"/>
    </timestep>
    <timestep time="31.00">
        <vehicle id="f.0" speed="19.37" acceleration="0.13"/>
        <vehicle id="f.1" speed="18.89" acceleration="0.21"/>
        <vehicle id="f.2" speed="18.96" acceleration="0.23"/>
        <vehicle id="f.3" speed="18.66" acceleration="0.06"/>
        <vehicle id="f.4" speed="18.69" acceleration="-0.46"/>
        <vehicle id="f.5" speed="23.14" acceleration="-0.12"/>
        <vehicle id="f.6" speed="23.73" acceleration="-0.03"/>
        <vehicle id="f.7" speed="25.16" acceleration="-0.00"/>
        <vehicle id="f.8" speed="25.78" acceleration="-0.31"/>
        <vehicle id="f.9" speed="23.57" acceleration="-0.16"/>
        <vehicle id="slow" speed="19.88" acceleration="0.30"/>
    </timestep>
    <timestep time="32.00">
        <vehicle id="f.0" speed="19.56" acceleration="0.19"/>
        <vehicle id="f.1" speed="19.22" acceleration="0.32"/>
        <vehicle id="f.2" speed="19.31" acceleration="0.35"/>
        <vehicle id="f.3" speed="18.87" acceleration="0.21"/>
        <vehicle id="f.4" speed="18.64" acceleration="-0.04"/>
        <vehicle id="f.5" speed="23.07" acceleration="-0.08"/>
        <vehicle id="f.6" speed="23.58" acceleration="-0.16"/>
        <vehicle id="f.7" speed="25.05" acceleration="-0.10"/>
        <vehicle id="f.8" speed="25.48" acceleration="-0.31"/>
        <vehicle id="f.9" speed="23.39" acceleration="-0.18"/>
        <vehicle id="slow" speed="19.82" acceleration="-0.07"/>
    </timestep>
    <timestep time="33.00">
        <vehicle id="f.0" speed="19.59" acceleration="0.03"/>
        <vehicle id="f.1" speed="19.50" acceleration="0.28"/>
        <vehicle id="f.2" speed="19.50" acceleration="0.19"/>
        <vehicle id="f.3" speed="19.18" acceleration="0.31"/>
        <vehicle id="f.4" speed="18.73" acceleration="0.08"/>
        <vehicle id="f.5" speed="23.19" acceleration="0.12"/>
        <vehicle id="f.6" speed="23.18" acceleration="-0.40"/>
        <vehicle id="f.7" speed="24.94" acceleration="-0.11"/>
        <vehicle id="f.8" speed="25.22" acceleration="-0.26"/>
        <vehicle id="f.9" speed="23.08" acceleration="-0.31"/>
        <vehicle id="slow" speed="19.63" acceleration="-0.18"/>
    </timestep>
    <timestep time="34.00">
        <vehicle id="f.0" speed="19.58" acceleration="-0.02"/>
        <vehicle id="f.1" speed="19.65" acceleration="0.15"/>
        <vehicle id="f.2" speed="19.70" acceleration="0.20"/>
        <vehicle id="f.3" speed="19.38" acceleration="0.20"/>
        <vehicle id="f.4" speed="18.94" acceleration="0.22"/>
        <vehicle id="f.5" speed="23.24" acceleration="0.05"/>
        <vehicle id="f.6" speed="23.31" acceleration="0.13"/>
        <vehicle id="f.7" speed="24.68" acceleration="-0.25"/>
        <vehicle id="f.8" speed="24.91" acceleration="-0.31"/>
        <vehicle id="f.9" speed="23.11" acceleration="0.03"/>
        <vehicle id="slow" speed="19.51" acceleration="-0.12"/>
    </timestep>
    <timestep time="35.00">
        <vehicle id="f.0" speed="19.59" acceleration="0.02"/>
        <vehicle id="f.1" speed="19.67" acceleration="0.02"/>
        <vehicle id="f.2" speed="19.62" acceleration="-0.09"/>
        <vehicle id="f.3" speed="19.59" acceleration="0.20"/>
        <vehicle id="f.4" speed="19.32" acceleration="0.37"/>
        <vehicle id="f.5" speed="23.40" acceleration="0.16"/>
        <vehicle id="f.6" speed="23.20" acceleration="-0.10"/>
        <vehicle id="f.7" speed="24.61" acceleration="-0.08"/>
        <vehicle id="f.8" speed="24.51" acceleration="-0.40"/>
        <vehicle id="f.9" speed="23.16" acceleration="0.04"/>
        <vehicle id="slow" speed="19.37" acceleration="-0.15"/>
    </timestep>
    <timestep time="36.00">
        <vehicle id="f.0" speed="19.56" acceleration="-0.03"/>
        <vehicle id="f.1" speed="19.63" acceleration="-0.04"/>
        <vehicle id="f.2" speed="19.51" acceleration="-0.11"/>
        <vehicle id="f.3" speed="19.65" acceleration="0.07"/>
        <vehicle id="f.4" speed="19.45" acceleration="0.13"/>
        <vehicle id="f.5" speed="23.29" acceleration="-0.11"/>
        <vehicle id="f.6" speed="23.33" acceleration="0.12"/>
        <vehicle id="f.7" speed="24.44" acceleration="-0.17"/>
        <vehicle id="f.8" speed="24.43" acceleration="-0.07"/>
        <vehicle id="f.9" speed="23.26" acceleration="0.10"/>
        <vehicle id="slow" speed="19.31" acceleration="-0.06"/>
    </timestep>
    <timestep time="37.00">
        <vehicle id="f.0" speed="19.26" acceleration="-0.30"/>
        <vehicle id="f.1" speed="19.64" acceleration="0.01"/>
        <vehicle id="f.2" speed="19.49" acceleration="-0.02"/>
        <vehicle id="f.3" speed="19.53" acceleration="-0.13"/>
        <vehicle id="f.4" speed="19.60" acceleration="0.15"/>
        <vehicle id="f.5" speed="23.15" acceleration="-0.13"/>
        <vehicle id="f.6" speed="23.16" acceleration="-0.17"/>
        <vehicle id="f.7" speed="24.05" acceleration="-0.39"/>
        <vehicle id="f.8" speed="24.29" acceleration="-0.15"/>
        <vehicle id="f.9" speed="23.30" acceleration="0.05"/>
        <vehicle id="slow" speed="19.31" acceleration="0.00"/>
    </timestep>
    <timestep time="38.00">
        <vehicle id="f.0" speed="19.21" acceleration="-0.05"/>
        <vehicle id="f.1" speed="19.46" acceleration="-0.18"/>
        <vehicle id="f.2" speed="19.43" acceleration="-0.06"/>
        <vehicle id="f.3" speed="19.32" acceleration="-0.20"/>
        <vehicle id="f.4" speed="19.42" acceleration="-0.18"/>
        <vehicle id="f.5" speed="23.08" acceleration="-0.07"/>
        <vehicle id="f.6" speed="23.14" acceleration="-0.02"/>
        <vehicle id="f.7" speed="23.62" acceleration="-0.43"/>
        <vehicle id="f.8" speed="24.09" acceleration="-0.20"/>
        <vehicle id="f.9" speed="23.27" acceleration="-0.03"/>
        <vehicle id="slow" speed="19.31" acceleration="0.00"/>
    </timestep>
    <timestep time="39.00">
        <vehicle id="f.0" speed="19.21" acceleration="0.00"/>
        <vehicle id="f.1" speed="19.35" acceleration="-0.11"/>
        <vehicle id="f.2" speed="19.31" acceleration="-0.12"/>
        <vehicle id="f.3" speed="19.39" acceleration="0.07"/>
        <vehicle id="f.4" speed="19.26" acceleration="-0.16"/>
        <vehicle id="f.5" speed="22.54" acceleration="-0.54"/>
        <vehicle id="f.6" speed="23.06" acceleration="-0.08"/>
        <vehicle id="f.7" speed="23.47" acceleration="-0.15"/>
        <vehicle id="f.8" speed="23.75" acceleration="-0.35"/>
        <vehicle id="f.9" speed="23.21" acceleration="-0.07"/>
        <vehicle id="slow" speed="19.36" acceleration="0.05"/>
    </timestep>
    <timestep time="40.00">
        <vehicle id="f.0" speed="19.48" acceleration="0.27"/>
        <vehicle id="f.1" speed="19.24" acceleration="-0.12"/>
        <vehicle id="f.2" speed="19.01" acceleration="-0.30"/>
        <vehicle id="f.3" speed="19.16" acceleration="-0.23"/>
        <vehicle id="f.4" speed="19.16" acceleration="-0.10"/>
        <vehicle id="f.5" speed="21.81" acceleration="-0.72"/>
        <vehicle id="f.6" speed="22.47" acceleration="-0.59"/>
        <vehicle id="f.7" speed="23.30" acceleration="-0.17"/>
        <vehicle id="f.8" speed="23.45" acceleration="-0.30"/>
        <vehicle id="f.9" speed="23.22" acceleration="0.02"/>
        <vehicle id="slow" speed="19.40" acceleration="0.04"/>
    </timestep>
    <timestep time="41.00">
        <vehicle id="f.0" speed="19.43" acceleration="-0.06"/>
        <vehicle id="f.1" speed="19.31" acceleration="0.08"/>
        <vehicle id="f.2" speed="19.07" acceleration="0.06"/>
        <vehicle id="f.3" speed="18.85" acceleration="-0.31"/>
        <vehicle id="f.4" speed="19.00" acceleration="-0.17"/>
        <vehicle id="f.5" speed="20.88" acceleration="-0.94"/>
        <vehicle id="f.6" speed="21.89" acceleration="-0.58"/>
        <vehicle id="f.7" speed="22.56" acceleration="-0.74"/>
        <vehicle id="f.8" speed="23.14" acceleration="-0.30"/>
        <vehicle id="f.9" speed="23.23" acceleration="0.01"/>
        <vehicle id="slow" speed="19.52" acceleration="0.12"/>
    </timestep>
    <timestep time="42.00">
        <vehicle id="f.0" speed="19.41" acceleration="-0.02"/>
        <vehicle id="f.1" speed="19.30" acceleration="-0.02"/>
        <vehicle id="f.2" speed="19.18" acceleration="0.11"/>
        <vehicle id="f.3" speed="19.00" acceleration="0.15"/>
        <vehicle id="f.4" speed="18.78" acceleration="-0.21"/>
        <vehicle id="f.5" speed="20.09" acceleration="-0.78"/>
        <vehicle id="f.6" speed="21.15" acceleration="-0.74"/>
        <vehicle id="f.7" speed="22.06" acceleration="-0.50"/>
        <vehicle id="f.8" speed="22.51" acceleration="-0.63"/>
        <vehicle id="f.9" speed="23.21" acceleration="-0.03"/>
        <vehicle id="slow" speed="19.61" acceleration="0.09"/>
    </timestep>
    <timestep time="43.00">
        <vehicle id="f.0" speed="19.33" acceleration="-0.08"/>
        <vehicle id="f.1" speed="19.39" acceleration="0.10"/>
        <vehicle id="f.2" speed="19.08" acceleration="-0.10"/>
        <vehicle id="f.3" speed="19.06" acceleration="0.06"/>
        <vehicle id="f.4" speed="18.85" acceleration="0.07"/>
        <vehicle id="f.5" speed="19.55" acceleration="-0.54"/>
        <vehicle id="f.6" speed="20.40" acceleration="-0.74"/>
        <vehicle id="f.7" speed="21.43" acceleration="-0.62"/>
        <vehicle id="f.8" speed="22.15" acceleration="-0.36"/>
        <vehicle id="f.9" speed="23.33" acceleration="0.13"/>
        <vehicle id="slow" speed="19.67" acceleration="0.06"/>
    </timestep>
    <timestep time="44.00">
        <vehicle id="f.0" speed="19.28" acceleration="-0.05"/>
        <vehicle id="f.1" speed="19.55" acceleration="0.15"/>
        <vehicle id="f.2" speed="19.06" acceleration="-0.02"/>
        <vehicle id="f.3" speed="19.07" acceleration="0.01"/>
        <vehicle id="f.4" speed="18.88" acceleration="0.03"/>
        <vehicle id="f.5" speed="19.36" acceleration="-0.19"/>
        <vehicle id="f.6" speed="19.70" acceleration="-0.70"/>
        <vehicle id="f.7" speed="20.42" acceleration="-1.01"/>
        <vehicle id="f.8" speed="21.62" acceleration="-0.53"/>
        <vehicle id="f.9" speed="23.44" acceleration="0.11"/>
        <vehicle id="slow" speed="19.57" acceleration="-0.10"/>
    </timestep>
    <timestep time="45.00">
        <vehicle id="f.0" speed="19.08" acceleration="-0.19"/>
        <vehicle id="f.1" speed="19.62" acceleration="0.08"/>
        <vehicle id="f.2" speed="19.27" acceleration="0.21"/>
        <vehicle id="f.3" speed="19.12" acceleration="0.05"/>
        <vehicle id="f.4" speed="18.75" acceleration="-0.14"/>
        <vehicle id="f.5" speed="19.00" acceleration="-0.36"/>
        <vehicle id="f.6" speed="19.42" acceleration="-0.28"/>
        <vehicle id="f.7" speed="19.74" acceleration="-0.69"/>
        <vehicle id="f.8" speed="20.71" acceleration="-0.91"/>
        <vehicle id="f.9" speed="23.56" acceleration="0.12"/>
        <vehicle id="slow" speed="19.61" acceleration="0.04"/>
    </timestep>
    <timestep time="46.00">
        <vehicle id="f.0" speed="19.18" acceleration="0.09"/>
        <vehicle id="f.1" speed="19.41" acceleration="-0.21"/>
        <vehicle id="f.2" speed="19.56" acceleration="0.29"/>
        <vehicle id="f.3" speed="19.22" acceleration="0.10"/>
        <vehicle id="f.4" speed="18.96" acceleration="0.21"/>