<?xml version="1.0" encoding="UTF-8"?>

<!-- generated on 06/20/19 11:19:57 by Eclipse SUMO Version v1_2_0+0771-4380e3528ec
This data file and the accompanying materials
are made available under the terms of the Eclipse Public License v2.0
which accompanies this distribution, and is available at
http://www.eclipse.org/legal/epl-v20.html
SPDX-License-Identifier: EPL-2.0
<configuration xmlns:xsi="http://www.w3.org/2001/XMLSchema-instance" xsi:noNamespaceSchemaLocation="http://sumo.dlr.de/xsd/sumoConfiguration.xsd">

    <input>
        <net-file value="../net.net.xml"/>
        <route-files value="input_routes.rou.xml"/>
    </input>

    <output>
        <write-license value="true"/>
        <tripinfo-output value="tripinfos.xml"/>
        <save-state.times value="26"/>
        <save-state.files value="input_state.xml"/>
    </output>

    <time>
        <begin value="0"/>
    </time>

    <processing>
        <default.speeddev value="0"/>
    </processing>

    <report>
        <verbose value="true"/>
        <duration-log.disable value="true"/>
        <no-step-log value="true"/>
    </report>

</configuration>
-->

<tripinfos xmlns:xsi="http://www.w3.org/2001/XMLSchema-instance" xsi:noNamespaceSchemaLocation="http://sumo.dlr.de/xsd/tripinfo_file.xsd">
    <tripinfo id="v0" depart="0.00" departLane="beg_0" departPos="5.10" departSpeed="0.00" departDelay="0.00" arrival="26.00" arrivalLane="end_0" arrivalPos="100.00" arrivalSpeed="13.89" duration="26.00" routeLength="301.90" waitingTime="0.00" waitingCount="0" stopTime="0.00" timeLoss="2.77" rerouteNo="0" devices="tripinfo_v0" vType="type0" speedFactor="1.00" vaporized=""/>
</tripinfos>
