<?xml version="1.0" encoding="UTF-8"?>

<!-- generated on Wed May  6 14:41:53 2020 by Eclipse SUMO Version v1_6_0+0116-fc17f5a0a5
This data file and the accompanying materials
are made available under the terms of the Eclipse Public License v2.0
which accompanies this distribution, and is available at
http://www.eclipse.org/legal/epl-v20.html
SPDX-License-Identifier: EPL-2.0
<configuration xmlns:xsi="http://www.w3.org/2001/XMLSchema-instance" xsi:noNamespaceSchemaLocation="http://sumo.dlr.de/xsd/sumoConfiguration.xsd">

    <input>
        <net-file value="net.net.xml"/>
        <route-files value="input_routes.rou.xml"/>
    </input>

    <output>
        <write-license value="true"/>
        <tripinfo-output value="tripinfos.xml"/>
    </output>

    <processing>
        <default.speeddev value="0"/>
        <pedestrian.model value="nonInteracting"/>
    </processing>

    <report>
        <xml-validation value="never"/>
        <duration-log.disable value="true"/>
        <no-step-log value="true"/>
    </report>

    <mesoscopic>
        <mesosim value="true"/>
    </mesoscopic>

</configuration>
-->

<tripinfos xmlns:xsi="http://www.w3.org/2001/XMLSchema-instance" xsi:noNamespaceSchemaLocation="http://sumo.dlr.de/xsd/tripinfo_file.xsd">
    <tripinfo id="across.0" depart="0.00" departLane="" departPos="0.00" departSpeed="13.89" departDelay="0.00" arrival="9.00" arrivalLane="" arrivalPos="4.00" arrivalSpeed="13.90" duration="9.00" routeLength="99.25" waitingTime="0.00" waitingCount="0" stopTime="0.00" timeLoss="0.00" rerouteNo="0" devices="tripinfo_across.0" vType="DEFAULT_VEHTYPE" speedFactor="1.00" vaporized=""/>
    <tripinfo id="blocker.0" depart="0.00" departLane="" departPos="0.00" departSpeed="6.41" departDelay="0.00" arrival="15.00" arrivalLane="" arrivalPos="20.00" arrivalSpeed="6.41" duration="15.00" routeLength="20.00" waitingTime="0.00" waitingCount="0" stopTime="8.00" timeLoss="8.00" rerouteNo="0" devices="tripinfo_blocker.0" vType="DEFAULT_VEHTYPE" speedFactor="1.00" vaporized=""/>
    <tripinfo id="ego.0" depart="4.00" departLane="" departPos="0.00" departSpeed="13.90" departDelay="0.00" arrival="17.00" arrivalLane="" arrivalPos="20.00" arrivalSpeed="8.51" duration="13.00" routeLength="38.55" waitingTime="0.00" waitingCount="0" stopTime="0.00" timeLoss="4.33" rerouteNo="0" devices="tripinfo_ego.0" vType="egoType" speedFactor="1.00" vaporized=""/>
    <tripinfo id="ego.1" depart="7.00" departLane="" departPos="0.00" departSpeed="13.90" departDelay="0.00" arrival="19.00" arrivalLane="" arrivalPos="20.00" arrivalSpeed="9.66" duration="12.00" routeLength="38.55" waitingTime="0.00" waitingCount="0" stopTime="0.00" timeLoss="3.00" rerouteNo="0" devices="tripinfo_ego.1" vType="egoType" speedFactor="1.00" vaporized=""/>
    <tripinfo id="across.1" depart="10.00" departLane="" departPos="0.00" departSpeed="13.89" departDelay="0.00" arrival="19.00" arrivalLane="" arrivalPos="4.00" arrivalSpeed="13.90" duration="9.00" routeLength="99.25" waitingTime="0.00" waitingCount="0" stopTime="0.00" timeLoss="0.00" rerouteNo="0" devices="tripinfo_across.1" vType="DEFAULT_VEHTYPE" speedFactor="1.00" vaporized=""/>
    <tripinfo id="ego.2" depart="12.00" departLane="" departPos="0.00" departSpeed="13.90" departDelay="0.00" arrival="21.00" arrivalLane="" arrivalPos="20.00" arrivalSpeed="13.89" duration="9.00" routeLength="38.55" waitingTime="0.00" waitingCount="0" stopTime="0.00" timeLoss="0.00" rerouteNo="0" devices="tripinfo_ego.2" vType="egoType" speedFactor="1.00" vaporized=""/>
    <tripinfo id="ego.3" depart="18.00" departLane="" departPos="0.00" departSpeed="13.90" departDelay="0.00" arrival="27.00" arrivalLane="" arrivalPos="20.00" arrivalSpeed="13.89" duration="9.00" routeLength="38.55" waitingTime="0.00" waitingCount="0" stopTime="0.00" timeLoss="0.00" rerouteNo="0" devices="tripinfo_ego.3" vType="egoType" speedFactor="1.00" vaporized=""/>
    <tripinfo id="across.2" depart="20.00" departLane="" departPos="0.00" departSpeed="13.89" departDelay="0.00" arrival="29.00" arrivalLane="" arrivalPos="4.00" arrivalSpeed="13.90" duration="9.00" routeLength="99.25" waitingTime="0.00" waitingCount="0" stopTime="0.00" timeLoss="0.00" rerouteNo="0" devices="tripinfo_across.2" vType="DEFAULT_VEHTYPE" speedFactor="1.00" vaporized=""/>
    <tripinfo id="blocker.1" depart="20.00" departLane="" departPos="0.00" departSpeed="6.41" departDelay="0.00" arrival="35.00" arrivalLane="" arrivalPos="20.00" arrivalSpeed="6.41" duration="15.00" routeLength="20.00" waitingTime="0.00" waitingCount="0" stopTime="8.00" timeLoss="8.00" rerouteNo="0" devices="tripinfo_blocker.1" vType="DEFAULT_VEHTYPE" speedFactor="1.00" vaporized=""/>
    <tripinfo id="ego.4" depart="22.00" departLane="" departPos="0.00" departSpeed="13.90" departDelay="0.00" arrival="37.00" arrivalLane="" arrivalPos="20.00" arrivalSpeed="7.22" duration="15.00" routeLength="38.55" waitingTime="0.00" waitingCount="0" stopTime="0.00" timeLoss="6.33" rerouteNo="0" devices="tripinfo_ego.4" vType="egoType" speedFactor="1.00" vaporized=""/>
    <tripinfo id="across.3" depart="30.00" departLane="" departPos="0.00" departSpeed="13.89" departDelay="0.00" arrival="39.00" arrivalLane="" arrivalPos="4.00" arrivalSpeed="13.90" duration="9.00" routeLength="99.25" waitingTime="0.00" waitingCount="0" stopTime="0.00" timeLoss="0.00" rerouteNo="0" devices="tripinfo_across.3" vType="DEFAULT_VEHTYPE" speedFactor="1.00" vaporized=""/>
    <tripinfo id="ego.5" depart="32.00" departLane="" departPos="0.00" departSpeed="13.90" departDelay="0.00" arrival="41.00" arrivalLane="" arrivalPos="20.00" arrivalSpeed="13.89" duration="9.00" routeLength="38.55" waitingTime="0.00" waitingCount="0" stopTime="0.00" timeLoss="0.00" rerouteNo="0" devices="tripinfo_ego.5" vType="egoType" speedFactor="1.00" vaporized=""/>
    <tripinfo id="ego.6" depart="37.00" departLane="" departPos="0.00" departSpeed="13.90" departDelay="0.00" arrival="46.00" arrivalLane="" arrivalPos="20.00" arrivalSpeed="13.89" duration="9.00" routeLength="38.55" waitingTime="0.00" waitingCount="0" stopTime="0.00" timeLoss="0.00" rerouteNo="0" devices="tripinfo_ego.6" vType="egoType" speedFactor="1.00" vaporized=""/>
    <tripinfo id="across.4" depart="40.00" departLane="" departPos="0.00" departSpeed="13.89" departDelay="0.00" arrival="49.00" arrivalLane="" arrivalPos="4.00" arrivalSpeed="13.90" duration="9.00" routeLength="99.25" waitingTime="0.00" waitingCount="0" stopTime="0.00" timeLoss="0.00" rerouteNo="0" devices="tripinfo_across.4" vType="DEFAULT_VEHTYPE" speedFactor="1.00" vaporized=""/>
    <tripinfo id="blocker.2" depart="40.00" departLane="" departPos="0.00" departSpeed="6.41" departDelay="0.00" arrival="55.00" arrivalLane="" arrivalPos="20.00" arrivalSpeed="6.41" duration="15.00" routeLength="20.00" waitingTime="0.00" waitingCount="0" stopTime="8.00" timeLoss="8.00" rerouteNo="0" devices="tripinfo_blocker.2" vType="DEFAULT_VEHTYPE" speedFactor="1.00" vaporized=""/>
    <tripinfo id="across.5" depart="50.00" departLane="" departPos="0.00" departSpeed="13.89" departDelay="0.00" arrival="59.00" arrivalLane="" arrivalPos="4.00" arrivalSpeed="13.90" duration="9.00" routeLength="99.25" waitingTime="0.00" waitingCount="0" stopTime="0.00" timeLoss="0.00" rerouteNo="0" devices="tripinfo_across.5" vType="DEFAULT_VEHTYPE" speedFactor="1.00" vaporized=""/>
    <tripinfo id="ego.7" depart="50.00" departLane="" departPos="0.00" departSpeed="13.90" departDelay="0.00" arrival="59.00" arrivalLane="" arrivalPos="20.00" arrivalSpeed="13.89" duration="9.00" routeLength="38.55" waitingTime="0.00" waitingCount="0" stopTime="0.00" timeLoss="0.00" rerouteNo="0" devices="tripinfo_ego.7" vType="egoType" speedFactor="1.00" vaporized=""/>
    <tripinfo id="across.6" depart="60.00" departLane="" departPos="0.00" departSpeed="13.89" departDelay="0.00" arrival="69.00" arrivalLane="" arrivalPos="4.00" arrivalSpeed="13.90" duration="9.00" routeLength="99.25" waitingTime="0.00" waitingCount="0" stopTime="0.00" timeLoss="0.00" rerouteNo="0" devices="tripinfo_across.6" vType="DEFAULT_VEHTYPE" speedFactor="1.00" vaporized=""/>
    <tripinfo id="blocker.3" depart="60.00" departLane="" departPos="0.00" departSpeed="6.41" departDelay="0.00" arrival="75.00" arrivalLane="" arrivalPos="20.00" arrivalSpeed="6.41" duration="15.00" routeLength="20.00" waitingTime="0.00" waitingCount="0" stopTime="8.00" timeLoss="8.00" rerouteNo="0" devices="tripinfo_blocker.3" vType="DEFAULT_VEHTYPE" speedFactor="1.00" vaporized=""/>
    <tripinfo id="ego.8" depart="65.00" departLane="" departPos="0.00" departSpeed="13.90" departDelay="0.00" arrival="77.00" arrivalLane="" arrivalPos="20.00" arrivalSpeed="9.35" duration="12.00" routeLength="38.55" waitingTime="0.00" waitingCount="0" stopTime="0.00" timeLoss="3.33" rerouteNo="0" devices="tripinfo_ego.8" vType="egoType" speedFactor="1.00" vaporized=""/>
    <tripinfo id="ego.9" depart="69.00" departLane="" departPos="0.00" departSpeed="13.90" departDelay="0.00" arrival="79.00" arrivalLane="" arrivalPos="20.00" arrivalSpeed="12.12" duration="10.00" routeLength="38.55" waitingTime="0.00" waitingCount="0" stopTime="0.00" timeLoss="1.00" rerouteNo="0" devices="tripinfo_ego.9" vType="egoType" speedFactor="1.00" vaporized=""/>
    <tripinfo id="across.7" depart="70.00" departLane="" departPos="0.00" departSpeed="13.89" departDelay="0.00" arrival="79.00" arrivalLane="" arrivalPos="4.00" arrivalSpeed="13.90" duration="9.00" routeLength="99.25" waitingTime="0.00" waitingCount="0" stopTime="0.00" timeLoss="0.00" rerouteNo="0" devices="tripinfo_across.7" vType="DEFAULT_VEHTYPE" speedFactor="1.00" vaporized=""/>
    <tripinfo id="ego.10" depart="74.00" departLane="" departPos="0.00" departSpeed="13.90" departDelay="0.00" arrival="83.00" arrivalLane="" arrivalPos="20.00" arrivalSpeed="13.89" duration="9.00" routeLength="38.55" waitingTime="0.00" waitingCount="0" stopTime="0.00" timeLoss="0.00" rerouteNo="0" devices="tripinfo_ego.10" vType="egoType" speedFactor="1.00" vaporized=""/>
    <tripinfo id="ego.11" depart="78.00" departLane="" departPos="0.00" departSpeed="13.90" departDelay="0.00" arrival="87.00" arrivalLane="" arrivalPos="20.00" arrivalSpeed="13.89" duration="9.00" routeLength="38.55" waitingTime="0.00" waitingCount="0" stopTime="0.00" timeLoss="0.00" rerouteNo="0" devices="tripinfo_ego.11" vType="egoType" speedFactor="1.00" vaporized=""/>
    <tripinfo id="across.8" depart="80.00" departLane="" departPos="0.00" departSpeed="13.89" departDelay="0.00" arrival="89.00" arrivalLane="" arrivalPos="4.00" arrivalSpeed="13.90" duration="9.00" routeLength="99.25" waitingTime="0.00" waitingCount="0" stopTime="0.00" timeLoss="0.00" rerouteNo="0" devices="tripinfo_across.8" vType="DEFAULT_VEHTYPE" speedFactor="1.00" vaporized=""/>
    <tripinfo id="blocker.4" depart="80.00" departLane="" departPos="0.00" departSpeed="6.41" departDelay="0.00" arrival="95.00" arrivalLane="" arrivalPos="20.00" arrivalSpeed="6.41" duration="15.00" routeLength="20.00" waitingTime="0.00" waitingCount="0" stopTime="8.00" timeLoss="8.00" rerouteNo="0" devices="tripinfo_blocker.4" vType="DEFAULT_VEHTYPE" speedFactor="1.00" vaporized=""/>
    <tripinfo id="ego.12" depart="80.00" departLane="" departPos="0.00" departSpeed="13.90" departDelay="1.00" arrival="97.00" arrivalLane="" arrivalPos="20.00" arrivalSpeed="6.27" duration="17.00" routeLength="38.55" waitingTime="0.00" waitingCount="0" stopTime="0.00" timeLoss="8.33" rerouteNo="0" devices="tripinfo_ego.12" vType="egoType" speedFactor="1.00" vaporized=""/>
    <tripinfo id="across.9" depart="90.00" departLane="" departPos="0.00" departSpeed="13.89" departDelay="0.00" arrival="99.00" arrivalLane="" arrivalPos="4.00" arrivalSpeed="13.90" duration="9.00" routeLength="99.25" waitingTime="0.00" waitingCount="0" stopTime="0.00" timeLoss="0.00" rerouteNo="0" devices="tripinfo_across.9" vType="DEFAULT_VEHTYPE" speedFactor="1.00" vaporized=""/>
    <tripinfo id="ego.13" depart="94.00" departLane="" departPos="0.00" departSpeed="13.90" departDelay="0.00" arrival="103.00" arrivalLane="" arrivalPos="20.00" arrivalSpeed="13.89" duration="9.00" routeLength="38.55" waitingTime="0.00" waitingCount="0" stopTime="0.00" timeLoss="0.00" rerouteNo="0" devices="tripinfo_ego.13" vType="egoType" speedFactor="1.00" vaporized=""/>
    <tripinfo id="across.10" depart="100.00" departLane="" departPos="0.00" departSpeed="13.89" departDelay="0.00" arrival="109.00" arrivalLane="" arrivalPos="4.00" arrivalSpeed="13.90" duration="9.00" routeLength="99.25" waitingTime="0.00" waitingCount="0" stopTime="0.00" timeLoss="0.00" rerouteNo="0" devices="tripinfo_across.10" vType="DEFAULT_VEHTYPE" speedFactor="1.00" vaporized=""/>
    <tripinfo id="blocker.5" depart="100.00" departLane="" departPos="0.00" departSpeed="6.41" departDelay="0.00" arrival="115.00" arrivalLane="" arrivalPos="20.00" arrivalSpeed="6.41" duration="15.00" routeLength="20.00" waitingTime="0.00" waitingCount="0" stopTime="8.00" timeLoss="8.00" rerouteNo="0" devices="tripinfo_blocker.5" vType="DEFAULT_VEHTYPE" speedFactor="1.00" vaporized=""/>
    <tripinfo id="across.11" depart="110.00" departLane="" departPos="0.00" departSpeed="13.89" departDelay="0.00" arrival="119.00" arrivalLane="" arrivalPos="4.00" arrivalSpeed="13.90" duration="9.00" routeLength="99.25" waitingTime="0.00" waitingCount="0" stopTime="0.00" timeLoss="0.00" rerouteNo="0" devices="tripinfo_across.11" vType="DEFAULT_VEHTYPE" speedFactor="1.00" vaporized=""/>
    <tripinfo id="across.12" depart="120.00" departLane="" departPos="0.00" departSpeed="13.89" departDelay="0.00" arrival="129.00" arrivalLane="" arrivalPos="4.00" arrivalSpeed="13.90" duration="9.00" routeLength="99.25" waitingTime="0.00" waitingCount="0" stopTime="0.00" timeLoss="0.00" rerouteNo="0" devices="tripinfo_across.12" vType="DEFAULT_VEHTYPE" speedFactor="1.00" vaporized=""/>
    <tripinfo id="blocker.6" depart="120.00" departLane="" departPos="0.00" departSpeed="6.41" departDelay="0.00" arrival="135.00" arrivalLane="" arrivalPos="20.00" arrivalSpeed="6.41" duration="15.00" routeLength="20.00" waitingTime="0.00" waitingCount="0" stopTime="8.00" timeLoss="8.00" rerouteNo="0" devices="tripinfo_blocker.6" vType="DEFAULT_VEHTYPE" speedFactor="1.00" vaporized=""/>
    <tripinfo id="ego.14" depart="123.00" departLane="" departPos="0.00" departSpeed="13.90" departDelay="0.00" arrival="137.00" arrivalLane="" arrivalPos="20.00" arrivalSpeed="7.81" duration="14.00" routeLength="38.55" waitingTime="0.00" waitingCount="0" stopTime="0.00" timeLoss="5.33" rerouteNo="0" devices="tripinfo_ego.14" vType="egoType" speedFactor="1.00" vaporized=""/>
    <tripinfo id="across.13" depart="130.00" departLane="" departPos="0.00" departSpeed="13.89" departDelay="0.00" arrival="139.00" arrivalLane="" arrivalPos="4.00" arrivalSpeed="13.90" duration="9.00" routeLength="99.25" waitingTime="0.00" waitingCount="0" stopTime="0.00" timeLoss="0.00" rerouteNo="0" devices="tripinfo_across.13" vType="DEFAULT_VEHTYPE" speedFactor="1.00" vaporized=""/>
    <tripinfo id="across.14" depart="140.00" departLane="" departPos="0.00" departSpeed="13.89" departDelay="0.00" arrival="149.00" arrivalLane="" arrivalPos="4.00" arrivalSpeed="13.90" duration="9.00" routeLength="99.25" waitingTime="0.00" waitingCount="0" stopTime="0.00" timeLoss="0.00" rerouteNo="0" devices="tripinfo_across.14" vType="DEFAULT_VEHTYPE" speedFactor="1.00" vaporized=""/>
    <tripinfo id="blocker.7" depart="140.00" departLane="" departPos="0.00" departSpeed="6.41" departDelay="0.00" arrival="155.00" arrivalLane="" arrivalPos="20.00" arrivalSpeed="6.41" duration="15.00" routeLength="20.00" waitingTime="0.00" waitingCount="0" stopTime="8.00" timeLoss="8.00" rerouteNo="0" devices="tripinfo_blocker.7" vType="DEFAULT_VEHTYPE" speedFactor="1.00" vaporized=""/>
    <tripinfo id="ego.15" depart="145.00" departLane="" departPos="0.00" departSpeed="13.90" departDelay="0.00" arrival="157.00" arrivalLane="" arrivalPos="20.00" arrivalSpeed="9.35" duration="12.00" routeLength="38.55" waitingTime="0.00" waitingCount="0" stopTime="0.00" timeLoss="3.33" rerouteNo="0" devices="tripinfo_ego.15" vType="egoType" speedFactor="1.00" vaporized=""/>
    <tripinfo id="across.15" depart="150.00" departLane="" departPos="0.00" departSpeed="13.89" departDelay="0.00" arrival="159.00" arrivalLane="" arrivalPos="4.00" arrivalSpeed="13.90" duration="9.00" routeLength="99.25" waitingTime="0.00" waitingCount="0" stopTime="0.00" timeLoss="0.00" rerouteNo="0" devices="tripinfo_across.15" vType="DEFAULT_VEHTYPE" speedFactor="1.00" vaporized=""/>
    <tripinfo id="ego.16" depart="155.00" departLane="" departPos="0.00" departSpeed="13.90" departDelay="0.00" arrival="164.00" arrivalLane="" arrivalPos="20.00" arrivalSpeed="13.89" duration="9.00" routeLength="38.55" waitingTime="0.00" waitingCount="0" stopTime="0.00" timeLoss="0.00" rerouteNo="0" devices="tripinfo_ego.16" vType="egoType" speedFactor="1.00" vaporized=""/>
    <tripinfo id="ego.17" depart="158.00" departLane="" departPos="0.00" departSpeed="13.90" departDelay="0.00" arrival="167.00" arrivalLane="" arrivalPos="20.00" arrivalSpeed="13.89" duration="9.00" routeLength="38.55" waitingTime="0.00" waitingCount="0" stopTime="0.00" timeLoss="0.00" rerouteNo="0" devices="tripinfo_ego.17" vType="egoType" speedFactor="1.00" vaporized=""/>
    <tripinfo id="across.16" depart="160.00" departLane="" departPos="0.00" departSpeed="13.89" departDelay="0.00" arrival="169.00" arrivalLane="" arrivalPos="4.00" arrivalSpeed="13.90" duration="9.00" routeLength="99.25" waitingTime="0.00" waitingCount="0" stopTime="0.00" timeLoss="0.00" rerouteNo="0" devices="tripinfo_across.16" vType="DEFAULT_VEHTYPE" speedFactor="1.00" vaporized=""/>
    <tripinfo id="blocker.8" depart="160.00" departLane="" departPos="0.00" departSpeed="6.41" departDelay="0.00" arrival="175.00" arrivalLane="" arrivalPos="20.00" arrivalSpeed="6.41" duration="15.00" routeLength="20.00" waitingTime="0.00" waitingCount="0" stopTime="8.00" timeLoss="8.00" rerouteNo="0" devices="tripinfo_blocker.8" vType="DEFAULT_VEHTYPE" speedFactor="1.00" vaporized=""/>
    <tripinfo id="across.17" depart="170.00" departLane="" departPos="0.00" departSpeed="13.89" departDelay="0.00" arrival="179.00" arrivalLane="" arrivalPos="4.00" arrivalSpeed="13.90" duration="9.00" routeLength="99.25" waitingTime="0.00" waitingCount="0" stopTime="0.00" timeLoss="0.00" rerouteNo="0" devices="tripinfo_across.17" vType="DEFAULT_VEHTYPE" speedFactor="1.00" vaporized=""/>
    <tripinfo id="across.18" depart="180.00" departLane="" departPos="0.00" departSpeed="13.89" departDelay="0.00" arrival="189.00" arrivalLane="" arrivalPos="4.00" arrivalSpeed="13.90" duration="9.00" routeLength="99.25" waitingTime="0.00" waitingCount="0" stopTime="0.00" timeLoss="0.00" rerouteNo="0" devices="tripinfo_across.18" vType="DEFAULT_VEHTYPE" speedFactor="1.00" vaporized=""/>
    <tripinfo id="blocker.9" depart="180.00" departLane="" departPos="0.00" departSpeed="6.41" departDelay="0.00" arrival="195.00" arrivalLane="" arrivalPos="20.00" arrivalSpeed="6.41" duration="15.00" routeLength="20.00" waitingTime="0.00" waitingCount="0" stopTime="8.00" timeLoss="8.00" rerouteNo="0" devices="tripinfo_blocker.9" vType="DEFAULT_VEHTYPE" speedFactor="1.00" vaporized=""/>
    <tripinfo id="ego.18" depart="186.00" departLane="" departPos="0.00" departSpeed="13.90" departDelay="0.00" arrival="197.00" arrivalLane="" arrivalPos="20.00" arrivalSpeed="10.36" duration="11.00" routeLength="38.55" waitingTime="0.00" waitingCount="0" stopTime="0.00" timeLoss="2.33" rerouteNo="0" devices="tripinfo_ego.18" vType="egoType" speedFactor="1.00" vaporized=""/>
    <tripinfo id="across.19" depart="190.00" departLane="" departPos="0.00" departSpeed="13.89" departDelay="0.00" arrival="199.00" arrivalLane="" arrivalPos="4.00" arrivalSpeed="13.90" duration="9.00" routeLength="99.25" waitingTime="0.00" waitingCount="0" stopTime="0.00" timeLoss="0.00" rerouteNo="0" devices="tripinfo_across.19" vType="DEFAULT_VEHTYPE" speedFactor="1.00" vaporized=""/>
</tripinfos>
