<?xml version="1.0" encoding="UTF-8"?>

<!-- generated on Mon Mar  3 12:15:07 2014 by SUMO sumo Version dev-SVN-r15793
<?xml version="1.0" encoding="UTF-8"?>

<configuration xmlns:xsi="http://www.w3.org/2001/XMLSchema-instance" xsi:noNamespaceSchemaLocation="http://sumo-sim.org/xsd/sumoConfiguration.xsd">

    <input>
        <net-file value="three_split.net.xml"/>
        <additional-files value="input_routes.rou.xml"/>
    </input>

    <output>
        <vehroute-output value="vehroutes.xml"/>
    </output>

    <time>
        <begin value="0"/>
    </time>

    <report>
        <xml-validation value="never"/>
        <no-duration-log value="true"/>
        <no-step-log value="true"/>
    </report>

    <routing>
        <device.rerouting.probability value="1"/>
    </routing>

</configuration>
-->

<routes xmlns:xsi="http://www.w3.org/2001/XMLSchema-instance" xsi:noNamespaceSchemaLocation="http://sumo-sim.org/xsd/routes_file.xsd">
    <vehicle id="0.0" depart="0.00" arrival="95.00">
        <routeDistribution>
            <route replacedOnEdge="" replacedAtTime="0.00" probability="0" edges="beg middle end rend"/>
            <route edges="beg middle end rend"/>
        </routeDistribution>
    </vehicle>

    <vehicle id="0.1" depart="20.00" arrival="115.00">
        <routeDistribution>
            <route replacedOnEdge="" replacedAtTime="20.00" probability="0" edges="beg middle end rend"/>
            <route edges="beg middle end rend"/>
        </routeDistribution>
    </vehicle>

    <vehicle id="0.2" depart="40.00" arrival="135.00">
        <routeDistribution>
            <route replacedOnEdge="" replacedAtTime="40.00" probability="0" edges="beg middle end rend"/>
            <route edges="beg middle end rend"/>
        </routeDistribution>
    </vehicle>

    <vehicle id="0.3" depart="60.00" arrival="155.00">
        <routeDistribution>
            <route replacedOnEdge="" replacedAtTime="60.00" probability="0" edges="beg middle end rend"/>
            <route edges="beg middle end rend"/>
        </routeDistribution>
    </vehicle>

    <vehicle id="0.4" depart="80.00" arrival="175.00">
        <routeDistribution>
            <route replacedOnEdge="" replacedAtTime="80.00" probability="0" edges="beg middle end rend"/>
            <route edges="beg middle end rend"/>
        </routeDistribution>
    </vehicle>

    <vehicle id="0.5" depart="100.00" arrival="195.00">
        <routeDistribution>
            <route replacedOnEdge="" replacedAtTime="100.00" probability="0" edges="beg middle end rend"/>
            <route edges="beg middle end rend"/>
        </routeDistribution>
    </vehicle>

    <vehicle id="0.6" depart="120.00" arrival="215.00">
        <routeDistribution>
            <route replacedOnEdge="" replacedAtTime="120.00" probability="0" edges="beg middle end rend"/>
            <route edges="beg middle end rend"/>
        </routeDistribution>
    </vehicle>

    <vehicle id="0.7" depart="140.00" arrival="235.00">
        <routeDistribution>
            <route replacedOnEdge="" replacedAtTime="140.00" probability="0" edges="beg middle end rend"/>
            <route edges="beg middle end rend"/>
        </routeDistribution>
    </vehicle>

    <vehicle id="0.8" depart="160.00" arrival="255.00">
        <routeDistribution>
            <route replacedOnEdge="" replacedAtTime="160.00" probability="0" edges="beg middle end rend"/>
            <route edges="beg middle end rend"/>
        </routeDistribution>
    </vehicle>

    <vehicle id="0.9" depart="180.00" arrival="275.00">
        <routeDistribution>
            <route replacedOnEdge="" replacedAtTime="180.00" probability="0" edges="beg middle end rend"/>
            <route edges="beg middle end rend"/>
        </routeDistribution>
    </vehicle>

    <vehicle id="0.10" depart="200.00" arrival="295.00">
        <routeDistribution>
            <route replacedOnEdge="" replacedAtTime="200.00" probability="0" edges="beg middle end rend"/>
            <route edges="beg middle end rend"/>
        </routeDistribution>
    </vehicle>

</routes>
