<?xml version="1.0"?>

<!-- generated on 11/03/08 14:22:25 by SUMO sumo Version dev-SVN-r6273
<configuration>

   <input>
      <net-file>three_split.net.xml</net-file>
      <additional-files>input_routes.rou.xml</additional-files>
   </input>

   <output>
      <vehroute-output>vehroutes.xml</vehroute-output>
   </output>

   <time>
      <begin>0</begin>
   </time>

   <processing>
      <no-duration-log>true</no-duration-log>
      <no-step-log>true</no-step-log>
   </processing>

   <routing>
      <device.routing.probability>1</device.routing.probability>
   </routing>

</configuration>
-->

<routes>
   <vehicle id="0" depart="0" arrival="80">
      <route>beg middle end rend</route>
   </vehicle>

   <vehicle id="0_0" depart="20" arrival="100">
      <route>beg middle end rend</route>
   </vehicle>

   <vehicle id="0_1" depart="40" arrival="120">
      <route>beg middle end rend</route>
   </vehicle>

   <vehicle id="0_2" depart="60" arrival="141">
      <route>beg middle end rend</route>
   </vehicle>

   <vehicle id="0_3" depart="80" arrival="160">
      <route>beg middle end rend</route>
   </vehicle>

   <vehicle id="0_4" depart="100" arrival="181">
      <route>beg middle end rend</route>
   </vehicle>

   <vehicle id="0_5" depart="120" arrival="201">
      <route>beg middle end rend</route>
   </vehicle>

   <vehicle id="0_6" depart="140" arrival="220">
      <route>beg middle end rend</route>
   </vehicle>

   <vehicle id="0_7" depart="160" arrival="240">
      <route>beg middle end rend</route>
   </vehicle>

   <vehicle id="0_8" depart="180" arrival="261">
      <route>beg middle end rend</route>
   </vehicle>

   <vehicle id="0_9" depart="200" arrival="280">
      <route>beg middle end rend</route>
   </vehicle>

</routes>
