<?xml version="1.0" encoding="UTF-8"?>

<!-- generated on 2026-04-15T10:45:05.177688+01:00 by Eclipse SUMO sumo v1_26_0+1166-f38e976d003
<sumoConfiguration xmlns:xsi="http://www.w3.org/2001/XMLSchema-instance" xsi:noNamespaceSchemaLocation="http://sumo.dlr.de/xsd/sumoConfiguration.xsd">

    <input>
        <net-file value="net.net.xml"/>
        <load-state value="state.xml"/>
    </input>

    <output>
        <output-suffix value="2"/>
        <tripinfo-output value="tripinfo.xml"/>
        <tripinfo-output.write-unfinished value="true"/>
        <vehroute-output value="vehroutes.xml"/>
        <vehroute-output.write-unfinished value="true"/>
    </output>

    <processing>
        <default.departspeed value="0"/>
        <default.departlane value="first"/>
    </processing>

    <report>
        <duration-log.statistics value="true"/>
        <no-step-log value="true"/>
    </report>

    <taxi_device>
        <device.taxi.dispatch-algorithm.output value="dispatchinfos.xml"/>
    </taxi_device>

    <mesoscopic>
        <mesosim value="true"/>
    </mesoscopic>

</sumoConfiguration>
-->

<tripinfos xmlns:xsi="http://www.w3.org/2001/XMLSchema-instance" xsi:noNamespaceSchemaLocation="http://sumo.dlr.de/xsd/tripinfo_file.xsd">
    <personinfo id="p2" depart="20.00" type="DEFAULT_PEDTYPE" speedFactor="1.03" duration="214.00" waitingTime="165.00" timeLoss="0.00" traveltime="49.00">
        <ride waitingTime="165.00" vehicle="trip_0" depart="185.00" arrival="234.00" arrivalPos="0.00" duration="49.00" routeLength="1313.60" timeLoss="0.00"/>
    </personinfo>
    <personinfo id="p4" depart="40.00" type="DEFAULT_PEDTYPE" speedFactor="1.05" duration="404.00" waitingTime="299.00" timeLoss="0.00" traveltime="105.00">
        <ride waitingTime="299.00" vehicle="trip_0" depart="339.00" arrival="444.00" arrivalPos="0.00" duration="105.00" routeLength="2806.40" timeLoss="0.00"/>
    </personinfo>
    <personinfo id="p5" depart="50.00" type="DEFAULT_PEDTYPE" speedFactor="0.89" duration="537.00" waitingTime="488.00" timeLoss="0.00" traveltime="49.00">
        <ride waitingTime="488.00" vehicle="trip_0" depart="538.00" arrival="587.00" arrivalPos="0.00" duration="49.00" routeLength="1313.60" timeLoss="0.00"/>
    </personinfo>
    <personinfo id="p6" depart="60.00" type="DEFAULT_PEDTYPE" speedFactor="0.94" duration="739.00" waitingTime="649.00" timeLoss="0.00" traveltime="90.00">
        <ride waitingTime="649.00" vehicle="trip_0" depart="709.00" arrival="799.00" arrivalPos="190.40" duration="90.00" routeLength="2246.40" timeLoss="0.00"/>
    </personinfo>
    <personinfo id="p7" depart="70.00" type="DEFAULT_PEDTYPE" speedFactor="0.86" duration="844.00" waitingTime="809.00" timeLoss="0.00" traveltime="35.00">
        <ride waitingTime="809.00" vehicle="trip_0" depart="879.00" arrival="914.00" arrivalPos="0.00" duration="35.00" routeLength="913.60" timeLoss="0.00"/>
    </personinfo>
    <personinfo id="p8" depart="80.00" type="DEFAULT_PEDTYPE" speedFactor="1.09" duration="942.00" waitingTime="928.00" timeLoss="0.00" traveltime="14.00">
        <ride waitingTime="928.00" vehicle="trip_0" depart="1008.00" arrival="1022.00" arrivalPos="0.00" duration="14.00" routeLength="342.40" timeLoss="0.00"/>
    </personinfo>
    <personinfo id="p9" depart="90.00" type="DEFAULT_PEDTYPE" speedFactor="1.03" duration="1122.00" waitingTime="1018.00" timeLoss="0.00" traveltime="104.00">
        <ride waitingTime="1018.00" vehicle="trip_0" depart="1108.00" arrival="1212.00" arrivalPos="190.40" duration="104.00" routeLength="2646.40" timeLoss="0.00"/>
    </personinfo>
    <personinfo id="p3" depart="30.00" type="DEFAULT_PEDTYPE" speedFactor="0.83" duration="-1" waitingTime="1243.00" timeLoss="-1" traveltime="-1">
        <ride waitingTime="1243.00" vehicle="NULL" depart="-1" arrival="-1" arrivalPos="-1" duration="-1" routeLength="-1" timeLoss="-1"/>
    </personinfo>
    <tripinfo id="trip_0" depart="0.00" departLane="A0B0_1" departPos="0.00" departSpeed="14.31" departDelay="0.00" arrival="-1.00" arrivalLane="" arrivalPos="-1.00" arrivalSpeed="-1.00" duration="1273.00" routeLength="11971.27" waitingTime="0.00" waitingCount="0" stopTime="429.00" timeLoss="60.00" rerouteNo="17" devices="vehroute_trip_0 tripinfo_trip_0 routing_trip_0 taxi_trip_0 person_trip_0" vType="taxi" speedFactor="1.03" vaporized="">
        <taxi customers="7" occupiedDistance="6272.65" occupiedTime="445.43"/>
    </tripinfo>
    <tripinfo id="trip_1" depart="0.00" departLane="A2B2_1" departPos="0.00" departSpeed="13.46" departDelay="0.00" arrival="-1.00" arrivalLane="" arrivalPos="-1.00" arrivalSpeed="-1.00" duration="1273.00" routeLength="972.98" waitingTime="0.00" waitingCount="0" stopTime="62.00" timeLoss="0.00" rerouteNo="5" devices="vehroute_trip_1 tripinfo_trip_1 routing_trip_1 taxi_trip_1" vType="taxi" speedFactor="0.97" vaporized="end">
        <taxi customers="0" occupiedDistance="0.00" occupiedTime="0.00"/>
    </tripinfo>
</tripinfos>
