<?xml version="1.0" encoding="UTF-8"?>

<!-- generated on Tue Dec  3 15:40:15 2013 by SUMO sumo Version dev-SVN-r15233
<?xml version="1.0" encoding="UTF-8"?>

<configuration xmlns:xsi="http://www.w3.org/2001/XMLSchema-instance" xsi:noNamespaceSchemaLocation="http://sumo-sim.org/xsd/sumoConfiguration.xsd">

    <input>
        <net-file value="net.net.xml"/>
        <additional-files value="input_routes.rou.xml,input_additional.add.xml,input_additional2.add.xml"/>
    </input>

    <time>
        <begin value="0"/>
        <end value="1000"/>
    </time>

    <report>
        <no-duration-log value="true"/>
        <no-step-log value="true"/>
    </report>

</configuration>
-->

<detector xmlns:xsi="http://www.w3.org/2001/XMLSchema-instance" xsi:noNamespaceSchemaLocation="http://sumo-sim.org/xsd/det_e2_file.xsd">
   <interval begin="0.00" end="300.00" id="3/1to2/1" nSamples="2175" meanSpeed="0.31" meanOccupancy="24.03" maxOccupancy="33.15" meanMaxJamLengthInVehicles="6.97" meanMaxJamLengthInMeters="34.84" maxJamLengthInVehicles="10" maxJamLengthInMeters="50.01" jamLengthInVehiclesSum="2090" jamLengthInMetersSum="10451.86" meanHaltingDuration="210.00" maxHaltingDuration="230.00" haltingDurationSum="2100.00" meanIntervalHaltingDuration="210.00" maxIntervalHaltingDuration="230.00" intervalHaltingDurationSum="2100.00" startedHalts="10.00" meanVehicleNumber="7.25" maxVehicleNumber="10" />
   <interval begin="500.00" end="800.00" id="3/1to2/1" nSamples="0" meanSpeed="-1.00" meanOccupancy="0.00" maxOccupancy="0.00" meanMaxJamLengthInVehicles="0.00" meanMaxJamLengthInMeters="0.00" maxJamLengthInVehicles="0" maxJamLengthInMeters="0.00" jamLengthInVehiclesSum="0" jamLengthInMetersSum="0.00" meanHaltingDuration="0.00" maxHaltingDuration="0.00" haltingDurationSum="0.00" meanIntervalHaltingDuration="0.00" maxIntervalHaltingDuration="0.00" intervalHaltingDurationSum="0.00" startedHalts="0.00" meanVehicleNumber="0.00" maxVehicleNumber="0" />
</detector>
