<?xml version="1.0" encoding="UTF-8"?>

<!-- generated on 2026-04-17T07:56:19.159596+01:00 by Eclipse SUMO sumo v1_26_0+1228-6056de2409c
<sumoConfiguration xmlns:xsi="http://www.w3.org/2001/XMLSchema-instance" xsi:noNamespaceSchemaLocation="http://sumo.dlr.de/xsd/sumoConfiguration.xsd">

    <input>
        <net-file value="net.net.xml"/>
        <route-files value="input_routes.rou.xml"/>
        <additional-files value="input_additional.add.xml"/>
    </input>

    <output>
        <tripinfo-output value="tripinfo.xml"/>
        <tripinfo-output.write-unfinished value="true"/>
        <vehroute-output value="vehroutes.xml"/>
        <vehroute-output.exit-times value="true"/>
        <vehroute-output.write-unfinished value="true"/>
        <save-state.times value="500"/>
        <save-state.files value="state.xml"/>
        <save-state.transportables value="true"/>
    </output>

    <processing>
        <default.departspeed value="0"/>
        <default.departlane value="first"/>
    </processing>

    <report>
        <duration-log.disable value="true"/>
        <no-step-log value="true"/>
    </report>

</sumoConfiguration>
-->

<snapshot type="micro" version="v1_26_0+1228-6056de2409c" time="500.00" xmlns:xsi="http://www.w3.org/2001/XMLSchema-instance" xsi:noNamespaceSchemaLocation="http://sumo.dlr.de/xsd/state_file.xsd">
    <route id="!bus" state="0" edges="beg beg left end end"/>
    <route id="!bus.0!var#1" state="0" edges="beg beg2left left left2end end"/>
    <route id="!bus.1!var#1" state="0" edges="beg beg2left left left2end end"/>
    <delay number="1" begin="2" end="1" depart="0.00" time="210.00" speedFactor="1.00" decel="4.50"/>
    <vType id="DEFAULT_PEDTYPE" vClass="pedestrian"/>
    <vType id="busType" speedFactor="normc(1.00,0.00)" sigma="0"/>
    <vehicle id="bus.1" type="busType" depart="300.00" line="bus" route="!bus.1!var#1" distance="2512.32 1" speedFactor="1.0000" reroute="1" state="295074 300000 4 5.10 0 3.00 499000 1 2" pos="500.00 495.00 0.00" speed="0.00 0.00" angle="90.00" posLat="0.00" waitingTime="100000 1 89000 90000" lcStateBase="0.00" lcState2="0 0 0 208137167 0">
        <stop busStop="beg_0" until="310.00" started="327.00" ended="328.00"/>
        <stop busStop="left_0" until="410.00" started="391.00" ended="410.00"/>
        <stop busStop="end_0" until="510.00" started="455.00"/>
        <device id="vehroute_bus.1" state="0 0.00 0.00 5.10 1 !NULL 300000 !bus device.rerouting -1 0" exitTimes="329000 352000 411000 434000" edge="left2end"/>
        <device id="tripinfo_bus.1" state="beg_0 0 0 2507.22 2000 0 2 65000 -1 -1000 NONE -1 0 -1"/>
        <device id="routing_bus.1" state="0 300000"/>
        <device id="person_bus.1" state="1 455500 0"/>
    </vehicle>
    <flowState id="bus" type="busType" begin="0.00" end="1000.00" period="300" line="bus" next="600.00" route="!bus" done="2" index="2" reroute="1">
        <stop busStop="beg_0" until="10.00"/>
        <stop busStop="left_0" until="110.00"/>
        <stop busStop="end_0" until="210.00"/>
    </flowState>
    <transportables type="person" state="3 3 0 0 0 0 0 0 0 0">
        <person id="p0" type="DEFAULT_PEDTYPE" depart="0.00" speedFactor="1.0600" state="262144 3 455000 0 455000 end_0 441.846 2.56 -1 1.35505 0 0 0 null null 0 null null null 0">
            <walk edges="beg" busStop="beg_0" exitTimes="189.00" started="0.00" ended="189.00"/>
            <ride from="beg" to="end" busStop="end_0" intended="bus.1" depart="310.00" vehicle="bus.1" started="328.00" ended="455.00"/>
            <walk edges="end" exitTimes="-1" started="455.00" ended="-1"/>
        </person>
        <person id="p1" type="DEFAULT_PEDTYPE" depart="0.00" speedFactor="0.9383" state="262144 1 0 1 1000 middle_0 417.228 1.92 -1 1.14731 0 0 0 null null 0 beg_0 beg_0 middle_0 -1">
            <walk edges="end middle beg" exitTimes="1.00 -1 -1" started="0.00" ended="-1"/>
        </person>
        <person id="walker" type="DEFAULT_PEDTYPE" depart="0.00" speedFactor="1.0104" state="262144 1 0 1 396000 middle_0 131.071 2.56 1 1.20579 0 0 0 null null 0 end_0 middle_0 end_0 1">
            <walk edges="beg middle end" exitTimes="396.00 -1 -1" started="0.00" ended="-1"/>
        </person>
    </transportables>
    <lane id="end_0">
        <vehicles value="bus.1"/>
    </lane>
    <routingEngine last="500000" index="140">
        <edge id="beg" speed="27.46" pastSpeed="27.80 27.80 27.80 27.80 27.80 27.80 27.80 27.80 27.80 27.80 27.80 27.80 27.80 27.80 27.80 27.80 27.80 27.80 27.80 27.80 27.80 27.80 27.80 27.80 27.80 27.80 27.80 27.80 27.80 27.80 27.80 27.80 27.80 27.80 27.80 27.80 27.80 27.80 27.80 27.80 27.80 27.80 27.80 27.80 27.80 27.80 27.80 27.80 27.80 27.80 27.80 27.80 27.80 27.80 27.80 27.80 27.80 27.80 27.80 27.80 27.80 27.80 27.80 27.80 27.80 27.80 27.80 27.80 27.80 27.80 27.80 27.80 27.80 27.80 27.80 27.80 27.80 27.80 27.80 27.80 27.80 27.80 27.80 27.80 27.80 27.80 27.80 27.80 27.80 27.80 27.80 27.80 27.80 27.80 27.80 27.80 27.80 27.80 27.80 27.80 27.80 27.80 27.80 27.80 27.80 27.80 27.80 27.80 27.80 27.80 27.80 27.80 27.80 27.80 27.80 27.80 27.80 27.80 27.80 27.80 27.80 27.80 27.80 27.80 27.80 27.80 27.80 27.80 27.80 27.80 27.80 27.80 27.80 27.80 27.80 27.80 27.80 27.80 27.80 27.80 27.80 25.68 23.43 21.18 18.93 16.68 14.43 27.80 13.90 27.80 27.80 27.80 27.80 27.80 27.80 27.80 27.80 27.80 27.80 27.80 27.80 27.80 27.80 27.80 27.80 27.80 27.80 27.80 27.80 27.80 27.80 27.80 27.80 27.80 27.80 27.80 27.80 27.80 27.80 27.80"/>
        <edge id="beg2left" speed="27.05" pastSpeed="27.80 27.80 27.80 27.80 27.80 27.80 27.80 27.80 27.80 27.80 27.80 27.80 27.80 27.80 27.80 27.80 27.80 27.80 27.80 27.80 27.80 27.80 27.80 27.80 27.80 27.80 27.80 27.80 27.80 27.80 27.80 27.80 27.80 27.80 27.80 27.80 27.80 27.80 27.80 27.80 27.80 27.80 27.80 27.80 27.80 27.80 27.80 27.80 27.80 27.80 27.80 27.80 27.80 27.80 27.80 27.80 27.80 27.80 27.80 27.80 27.80 27.80 27.80 27.80 27.80 27.80 27.80 27.80 27.80 27.80 27.80 27.80 27.80 27.80 27.80 27.80 27.80 27.80 27.80 27.80 27.80 27.80 27.80 27.80 27.80 27.80 27.80 27.80 27.80 27.80 27.80 27.80 27.80 27.80 27.80 27.80 27.80 27.80 27.80 27.80 27.80 27.80 27.80 27.80 27.80 27.80 27.80 27.80 27.80 27.80 27.80 27.80 27.80 27.80 27.80 27.80 27.80 27.80 27.80 27.80 27.80 27.80 27.80 27.80 27.80 27.80 27.80 27.80 27.80 27.80 27.80 27.80 27.80 27.80 27.80 27.80 27.80 27.80 27.80 27.80 27.80 27.80 27.80 27.80 27.80 27.80 27.80 27.80 27.80 2.60 5.20 7.80 10.40 13.00 15.60 18.20 20.80 23.40 26.00 27.80 27.80 27.80 27.80 27.80 27.80 27.80 27.80 27.80 27.80 27.80 27.80 27.80 27.80 27.80 27.80 27.80 27.80 27.80 27.80 27.80"/>
        <edge id="end" speed="27.57" pastSpeed="27.80 27.80 27.80 27.80 27.80 27.80 27.80 27.80 27.80 27.80 27.80 27.80 27.80 27.80 27.80 27.80 27.80 27.80 27.80 27.80 27.80 27.80 27.80 27.80 27.80 27.80 27.80 27.80 27.80 27.80 27.80 27.80 27.80 27.80 27.80 27.80 27.80 27.80 27.80 27.80 27.80 27.80 27.80 27.80 27.80 27.80 27.80 27.80 27.80 27.80 27.80 27.80 27.80 27.80 27.80 27.80 27.80 27.80 27.80 27.80 27.80 27.80 27.80 27.80 27.80 27.80 27.80 27.80 27.80 27.80 27.80 27.80 27.80 27.80 27.80 27.80 27.80 27.80 27.80 27.80 27.80 27.80 27.80 27.80 27.80 27.80 27.80 27.80 27.80 26.66 24.41 22.16 19.91 17.66 15.41 27.80 27.80 27.80 27.80 27.80 27.80 27.80 27.80 27.80 27.80 27.80 27.80 27.80 27.80 27.80 27.80 27.80 27.80 27.80 27.80 27.80 27.80 27.80 27.80 27.80 27.80 27.80 27.80 27.80 27.80 27.80 27.80 27.80 27.80 27.80 27.80 27.80 27.80 27.80 27.80 27.80 27.80 27.80 27.80 27.80 27.80 27.80 27.80 27.80 27.80 27.80 27.80 27.80 27.80 27.80 27.80 27.80 27.80 27.80 27.80 27.80 27.80 27.80 27.80 27.80 27.80 27.80 27.80 27.80 27.80 27.80 27.80 27.80 27.80 27.80 27.80 27.80 27.80 27.80 27.80 27.80 27.80 27.80 27.80 27.80"/>
        <edge id="left" speed="24.25" pastSpeed="27.80 27.80 27.80 27.80 27.80 27.80 27.80 27.80 27.80 27.80 27.80 27.80 27.80 27.80 27.80 27.80 27.80 27.80 27.80 27.80 27.80 27.80 27.80 27.80 27.80 25.17 20.67 16.17 11.67 7.17 2.67 0.00 0.00 0.00 0.00 0.00 0.00 0.00 0.00 0.00 0.00 0.00 0.00 0.00 0.00 0.00 0.00 0.00 0.00 0.00 0.00 27.80 27.80 27.80 27.80 27.80 27.80 27.80 27.80 27.80 27.80 27.80 27.80 27.80 27.80 27.80 27.80 27.80 27.80 27.80 27.80 27.80 27.80 27.80 27.80 27.80 27.80 27.80 27.80 27.80 27.80 27.80 27.80 27.80 27.80 27.80 27.80 27.80 27.80 27.80 27.80 27.80 27.80 27.80 27.80 27.80 27.80 27.80 27.80 27.80 27.80 27.80 27.80 27.80 27.80 27.80 27.80 27.80 27.80 27.80 27.80 27.80 27.80 27.80 27.80 27.80 27.80 27.80 27.80 27.80 27.80 27.80 27.80 27.80 27.80 27.80 27.80 27.80 27.80 27.80 27.80 27.80 27.80 27.80 27.80 27.80 27.80 27.80 27.80 27.80 27.80 27.80 27.80 27.80 27.80 27.80 27.80 27.80 27.80 27.80 27.80 27.80 27.80 27.80 27.80 27.80 27.80 27.80 27.80 27.80 27.80 27.80 27.80 27.80 27.80 27.80 27.80 27.80 27.80 27.80 27.80 27.80 27.80 27.80 27.80 27.80 27.80 27.80 27.80 27.80"/>
        <edge id="left2end" speed="27.05" pastSpeed="27.80 27.80 27.80 27.80 27.80 27.80 27.80 27.80 27.80 27.80 27.80 27.80 27.80 27.80 27.80 27.80 27.80 27.80 27.80 27.80 27.80 27.80 27.80 27.80 27.80 27.80 27.80 27.80 27.80 27.80 27.80 27.80 27.80 27.80 27.80 27.80 27.80 27.80 27.80 27.80 27.80 27.80 27.80 27.80 27.80 27.80 27.80 27.80 27.80 27.80 27.80 2.60 5.20 7.80 10.40 13.00 15.60 18.20 20.80 23.40 26.00 27.80 27.80 27.80 27.80 27.80 27.80 27.80 27.80 27.80 27.80 27.80 27.80 27.80 27.80 27.80 27.80 27.80 27.80 27.80 27.80 27.80 27.80 27.80 27.80 27.80 27.80 27.80 27.80 27.80 27.80 27.80 27.80 27.80 27.80 27.80 27.80 27.80 27.80 27.80 27.80 27.80 27.80 27.80 27.80 27.80 27.80 27.80 27.80 27.80 27.80 27.80 27.80 27.80 27.80 27.80 27.80 27.80 27.80 27.80 27.80 27.80 27.80 27.80 27.80 27.80 27.80 27.80 27.80 27.80 27.80 27.80 27.80 27.80 27.80 27.80 27.80 27.80 27.80 27.80 27.80 27.80 27.80 27.80 27.80 27.80 27.80 27.80 27.80 27.80 27.80 27.80 27.80 27.80 27.80 27.80 27.80 27.80 27.80 27.80 27.80 27.80 27.80 27.80 27.80 27.80 27.80 27.80 27.80 27.80 27.80 27.80 27.80 27.80 27.80 27.80 27.80 27.80 27.80 27.80"/>
    </routingEngine>
</snapshot>
