<?xml version="1.0" encoding="UTF-8"?>

<!-- generated on 05/02/13 14:01:06 by SUMO dfrouter Version 0.17.0
<?xml version="1.0" encoding="UTF-8"?>

<configuration xmlns:xsi="http://www.w3.org/2001/XMLSchema-instance" xsi:noNamespaceSchemaLocation="http://sumo-sim.org/xsd/dfrouterConfiguration.xsd">

    <input>
        <net-file value="input_net.net.xml"/>
        <detector-files value="input_detectors.det.xml"/>
    </input>

    <output>
        <routes-output value="routes.rou.xml"/>
    </output>

</configuration>
-->

<routes>

    <route id="beg_to_end" edges="beg middle end"/>
    <route id="beg_to_L" edges="beg 1toL L"/>
    <route id="beg_to_R" edges="beg 1toR R"/>

</routes>
