<?xml version="1.0" encoding="UTF-8"?>

<!-- generated on Wed Jan  3 09:21:37 2018 by SUMO Version v0_32_0+0043-24523c2
<?xml version="1.0" encoding="UTF-8"?>

<configuration xmlns:xsi="http://www.w3.org/2001/XMLSchema-instance" xsi:noNamespaceSchemaLocation="http://sumo.dlr.de/xsd/sumoConfiguration.xsd">

    <input>
        <net-file value="net2.net.xml"/>
        <route-files value="input_routes.rou.xml"/>
    </input>

    <output>
        <tripinfo-output value="tripinfos.xml"/>
    </output>

    <processing>
        <pedestrian.model value="striping"/>
        <pedestrian.striping.dawdling value="0"/>
    </processing>

    <report>
        <xml-validation value="never"/>
        <no-step-log value="true"/>
    </report>

</configuration>
-->

<tripinfos xmlns:xsi="http://www.w3.org/2001/XMLSchema-instance" xsi:noNamespaceSchemaLocation="http://sumo.dlr.de/xsd/tripinfo_file.xsd">
    <tripinfo id="v0" depart="6.00" departLane="SC_0" departPos="5.10" departSpeed="0.00" departDelay="4.00" arrival="15.00" arrivalLane="SC_1" arrivalPos="91.95" arrivalSpeed="13.89" duration="9.00" routeLength="86.85" waitingTime="0.00" stopTime="0.00" timeLoss="2.44" rerouteNo="0" devices="tripinfo_v0" vType="car" speedFactor="1.00" vaporized=""/>
    <personinfo id="p0" depart="0.00">
        <walk depart="0.00" departPos="0.00" arrival="67.00" arrivalPos="91.94" duration="67.00" routeLength="91.94" timeLoss="0.80" maxSpeed="1.39"/>
    </personinfo>
</tripinfos>
