<?xml version="1.0" encoding="UTF-8"?>

<!-- generated on Mon 12 May 2014 10:43:01 AM CEST by SUMO gui Version dev-SVN-r16348
<?xml version="1.0" encoding="UTF-8"?>

<configuration xmlns:xsi="http://www.w3.org/2001/XMLSchema-instance" xsi:noNamespaceSchemaLocation="http://sumo-sim.org/xsd/sumo-gui.exeConfiguration.xsd">

    <input>
        <net-file value="net.net.xml"/>
        <route-files value="input_routes.rou.xml"/>
        <additional-files value="input_additional.add.xml"/>
    </input>

    <output>
        <tripinfo-output value="tripinfos.xml"/>
        <save-state.prefix value="state"/>
    </output>

    <report>
        <no-step-log value="true"/>
    </report>

    <emissions>
        <phemlight-path value="./PHEMlight/"/>
    </emissions>

</configuration>
-->

<tripinfos xmlns:xsi="http://www.w3.org/2001/XMLSchema-instance" xsi:noNamespaceSchemaLocation="http://sumo-sim.org/xsd/tripinfo_file.xsd">
</tripinfos>
