<?xml version="1.0"?>

<!-- generated on 03/25/10 08:16:41 by SUMO sumo Version dev-SVN-r8511
<configuration>

    <input>
        <net-file value="net.net.xml"/>
        <additional-files value="input_routes.rou.xml,input_additional.add.xml"/>
    </input>

    <output>
        <netstate-dump value="rawdump.xml"/>
    </output>

    <time>
        <begin value="0"/>
        <end value="0"/>
    </time>

    <report>
        <no-duration-log value="true"/>
        <no-step-log value="true"/>
    </report>

    <mesoscopic>
        <mesosim value="true"/>
    </mesoscopic>

</configuration>
-->

<sumo-netstate>
    <timestep time="0.00">
        <edge id="beg">
            <vehicle id="3" pos="0.00" speed="22.07"/>
            <vehicle id="2" pos="0.00" speed="24.61"/>
            <vehicle id="1" pos="0.00" speed="27.80"/>
        </edge>
    </timestep>
</sumo-netstate>
