<?xml version="1.0" encoding="UTF-8"?>

<!-- generated on Thu Nov  2 15:37:59 2017 by SUMO Version v0_31_0-870-g7affc8e
<?xml version="1.0" encoding="UTF-8"?>

<configuration xmlns:xsi="http://www.w3.org/2001/XMLSchema-instance" xsi:noNamespaceSchemaLocation="http://sumo.dlr.de/xsd/sumoConfiguration.xsd">

    <input>
        <net-file value="motorway.net.xml"/>
        <route-files value="input_routes.rou.xml"/>
        <additional-files value="input_additional.add.xml"/>
    </input>

    <time>
        <end value="900"/>
    </time>

    <processing>
        <max-depart-delay value="1"/>
    </processing>

    <report>
        <verbose value="true"/>
        <xml-validation value="never"/>
        <duration-log.statistics value="true"/>
        <no-step-log value="true"/>
    </report>

    <mesoscopic>
        <mesosim value="true"/>
        <meso-junction-control value="true"/>
    </mesoscopic>

</configuration>
-->

<meandata xmlns:xsi="http://www.w3.org/2001/XMLSchema-instance" xsi:noNamespaceSchemaLocation="http://sumo.dlr.de/xsd/meandata_file.xsd">
    <interval begin="0.00" end="900.00" id="laneData">
        <edge id="beg" sampledSeconds="375887.19" traveltime="322.34" overlapTraveltime="322.88" density="139.29" occupancy="23.21" waitingTime="0.00" speed="9.30" departed="1411" arrived="0" entered="0" left="914" laneChangedFrom="0" laneChangedTo="0"/>
        <edge id="beg2" sampledSeconds="212806.90" traveltime="353.32" overlapTraveltime="353.91" density="78.90" occupancy="19.72" waitingTime="0.00" speed="8.48" departed="0" arrived="0" entered="914" left="401" laneChangedFrom="0" laneChangedTo="0"/>
        <edge id="end" sampledSeconds="13076.94" traveltime="34.09" overlapTraveltime="34.96" density="73.76" occupancy="18.44" waitingTime="0.00" speed="5.78" departed="0" arrived="0" entered="391" left="375" laneChangedFrom="0" laneChangedTo="0"/>
        <edge id="end2" sampledSeconds="29460.09" traveltime="83.30" overlapTraveltime="83.44" density="10.92" occupancy="5.46" waitingTime="0.00" speed="36.00" departed="0" arrived="332" entered="375" left="0" laneChangedFrom="0" laneChangedTo="0"/>
        <edge id="end3" sampledSeconds="0.00" departed="0" arrived="0" entered="0" left="0" laneChangedFrom="0" laneChangedTo="0"/>
        <edge id="merge" sampledSeconds="8903.58" traveltime="22.40" overlapTraveltime="23.55" density="101.99" occupancy="17.00" waitingTime="0.00" speed="4.33" departed="0" arrived="0" entered="401" left="391" laneChangedFrom="0" laneChangedTo="0"/>
        <edge id="offRamp" sampledSeconds="0.00" departed="0" arrived="0" entered="0" left="0" laneChangedFrom="0" laneChangedTo="0"/>
        <edge id="onRamp" sampledSeconds="0.00" departed="0" arrived="0" entered="0" left="0" laneChangedFrom="0" laneChangedTo="0"/>
    </interval>
</meandata>
