<?xml version="1.0" encoding="UTF-8"?>

<!-- generated on Mon Feb  1 15:21:42 2021 by Eclipse SUMO sumo Version v1_8_0+0859-2adf04d
This data file and the accompanying materials
are made available under the terms of the Eclipse Public License v2.0
which accompanies this distribution, and is available at
http://www.eclipse.org/legal/epl-v20.html
SPDX-License-Identifier: EPL-2.0
<configuration xmlns:xsi="http://www.w3.org/2001/XMLSchema-instance" xsi:noNamespaceSchemaLocation="http://sumo.dlr.de/xsd/sumoConfiguration.xsd">

    <input>
        <net-file value="motorway.net.xml"/>
        <route-files value="input_routes.rou.xml"/>
        <additional-files value="input_additional.add.xml"/>
    </input>

    <output>
        <write-license value="true"/>
    </output>

    <time>
        <end value="900"/>
    </time>

    <processing>
        <max-depart-delay value="1"/>
        <default.speeddev value="0"/>
        <pedestrian.model value="nonInteracting"/>
    </processing>

    <report>
        <verbose value="true"/>
        <xml-validation value="never"/>
        <xml-validation.routes value="never"/>
        <duration-log.statistics value="true"/>
        <no-step-log value="true"/>
    </report>

    <mesoscopic>
        <mesosim value="true"/>
        <meso-junction-control value="true"/>
    </mesoscopic>

</configuration>
-->

<meandata xmlns:xsi="http://www.w3.org/2001/XMLSchema-instance" xsi:noNamespaceSchemaLocation="http://sumo.dlr.de/xsd/meandata_file.xsd">
    <interval begin="0.00" end="900.00" id="laneData">
        <edge id="beg" sampledSeconds="294362.85" traveltime="223.43" overlapTraveltime="223.81" density="109.17" laneDensity="36.39" occupancy="18.19" waitingTime="0.00" timeLoss="184721.20" speed="13.41" departed="1525" arrived="0" entered="0" left="927" laneChangedFrom="0" laneChangedTo="0"/>
        <edge id="beg2" sampledSeconds="239151.48" traveltime="314.88" overlapTraveltime="315.41" density="88.81" laneDensity="44.41" occupancy="22.20" waitingTime="0.00" timeLoss="176028.53" speed="9.50" departed="0" arrived="0" entered="927" left="597" laneChangedFrom="0" laneChangedTo="0"/>
        <edge id="end" sampledSeconds="17974.74" traveltime="32.55" overlapTraveltime="33.40" density="104.02" laneDensity="52.01" occupancy="26.01" waitingTime="0.00" timeLoss="15029.48" speed="5.90" departed="0" arrived="0" entered="561" left="543" laneChangedFrom="0" laneChangedTo="0"/>
        <edge id="end2" sampledSeconds="42685.85" traveltime="83.52" overlapTraveltime="83.66" density="15.83" laneDensity="15.83" occupancy="7.92" waitingTime="0.00" timeLoss="152.79" speed="35.87" departed="0" arrived="480" entered="543" left="0" laneChangedFrom="0" laneChangedTo="0"/>
        <edge id="end3" sampledSeconds="0.00" departed="0" arrived="0" entered="0" left="0" laneChangedFrom="0" laneChangedTo="0"/>
        <edge id="merge" sampledSeconds="13102.63" traveltime="22.76" overlapTraveltime="23.99" density="158.24" laneDensity="52.75" occupancy="26.37" waitingTime="0.00" timeLoss="11631.18" speed="4.04" departed="0" arrived="0" entered="597" left="561" laneChangedFrom="0" laneChangedTo="0"/>
        <edge id="offRamp" sampledSeconds="0.00" departed="0" arrived="0" entered="0" left="0" laneChangedFrom="0" laneChangedTo="0"/>
        <edge id="onRamp" sampledSeconds="0.00" departed="0" arrived="0" entered="0" left="0" laneChangedFrom="0" laneChangedTo="0"/>
    </interval>
</meandata>
