<?xml version="1.0"?>

<!-- generated on Wed Feb 13 20:26:06 2013 by SUMO sumo Version dev-SVN-r13328
<?xml version="1.0" encoding="UTF-8"?>

<configuration xmlns:xsi="http://www.w3.org/2001/XMLSchema-instance" xsi:noNamespaceSchemaLocation="http://sumo.sf.net/xsd/sumoConfiguration.xsd">

    <input>
        <net-file value="net.net.xml"/>
        <route-files value="input_routes.rou.xml"/>
    </input>

    <output>
        <vehroute-output value="vehroutes.xml"/>
    </output>

    <time>
        <begin value="0"/>
        <end value="1000"/>
    </time>

    <report>
        <no-duration-log value="true"/>
        <no-step-log value="true"/>
    </report>

</configuration>
-->

<routes>
    <vehicle id="horizontal.0" type="SUMO_DEFAULT_TYPE" depart="100.00" arrival="313.00">
        <route edges="2fi 2si 1o 1fi 1si 2o 2fi"/>
    </vehicle>

    <vehicle id="horizontal.1" type="SUMO_DEFAULT_TYPE" depart="110.00" arrival="324.00">
        <route edges="2fi 2si 1o 1fi 1si 2o 2fi"/>
    </vehicle>

    <vehicle id="vertical.0" type="SUMO_DEFAULT_TYPE" depart="104.00" arrival="352.00">
        <route edges="3fi 3si 4o 4fi 4si 3o 3fi"/>
    </vehicle>

    <vehicle id="vertical.1" type="SUMO_DEFAULT_TYPE" depart="114.00" arrival="354.00">
        <route edges="3fi 3si 4o 4fi 4si 3o 3fi"/>
    </vehicle>

    <vehicle id="vertical.2" type="SUMO_DEFAULT_TYPE" depart="125.00" arrival="356.00">
        <route edges="3fi 3si 4o 4fi 4si 3o 3fi"/>
    </vehicle>

    <vehicle id="vertical.3" type="SUMO_DEFAULT_TYPE" depart="134.00" arrival="359.00">
        <route edges="3fi 3si 4o 4fi 4si 3o 3fi"/>
    </vehicle>

    <vehicle id="vertical.4" type="SUMO_DEFAULT_TYPE" depart="144.00" arrival="361.00">
        <route edges="3fi 3si 4o 4fi 4si 3o 3fi"/>
    </vehicle>

    <vehicle id="vertical.5" type="SUMO_DEFAULT_TYPE" depart="154.00" arrival="362.00">
        <route edges="3fi 3si 4o 4fi 4si 3o 3fi"/>
    </vehicle>

    <vehicle id="horizontal.2" type="SUMO_DEFAULT_TYPE" depart="120.00" arrival="400.00">
        <route edges="2fi 2si 1o 1fi 1si 2o 2fi"/>
    </vehicle>

    <vehicle id="horizontal.3" type="SUMO_DEFAULT_TYPE" depart="130.00" arrival="402.00">
        <route edges="2fi 2si 1o 1fi 1si 2o 2fi"/>
    </vehicle>

    <vehicle id="horizontal.4" type="SUMO_DEFAULT_TYPE" depart="140.00" arrival="404.00">
        <route edges="2fi 2si 1o 1fi 1si 2o 2fi"/>
    </vehicle>

    <vehicle id="horizontal.5" type="SUMO_DEFAULT_TYPE" depart="150.00" arrival="406.00">
        <route edges="2fi 2si 1o 1fi 1si 2o 2fi"/>
    </vehicle>

    <vehicle id="horizontal.6" type="SUMO_DEFAULT_TYPE" depart="160.00" arrival="407.00">
        <route edges="2fi 2si 1o 1fi 1si 2o 2fi"/>
    </vehicle>

    <vehicle id="horizontal.7" type="SUMO_DEFAULT_TYPE" depart="170.00" arrival="410.00">
        <route edges="2fi 2si 1o 1fi 1si 2o 2fi"/>
    </vehicle>

    <vehicle id="horizontal.8" type="SUMO_DEFAULT_TYPE" depart="180.00" arrival="412.00">
        <route edges="2fi 2si 1o 1fi 1si 2o 2fi"/>
    </vehicle>

    <vehicle id="horizontal.9" type="SUMO_DEFAULT_TYPE" depart="190.00" arrival="413.00">
        <route edges="2fi 2si 1o 1fi 1si 2o 2fi"/>
    </vehicle>

    <vehicle id="horizontal.10" type="SUMO_DEFAULT_TYPE" depart="200.00" arrival="415.00">
        <route edges="2fi 2si 1o 1fi 1si 2o 2fi"/>
    </vehicle>

    <vehicle id="vertical.6" type="SUMO_DEFAULT_TYPE" depart="164.00" arrival="445.00">
        <route edges="3fi 3si 4o 4fi 4si 3o 3fi"/>
    </vehicle>

    <vehicle id="vertical.7" type="SUMO_DEFAULT_TYPE" depart="175.00" arrival="447.00">
        <route edges="3fi 3si 4o 4fi 4si 3o 3fi"/>
    </vehicle>

    <vehicle id="vertical.8" type="SUMO_DEFAULT_TYPE" depart="184.00" arrival="449.00">
        <route edges="3fi 3si 4o 4fi 4si 3o 3fi"/>
    </vehicle>

    <vehicle id="vertical.9" type="SUMO_DEFAULT_TYPE" depart="194.00" arrival="450.00">
        <route edges="3fi 3si 4o 4fi 4si 3o 3fi"/>
    </vehicle>

    <vehicle id="vertical.10" type="SUMO_DEFAULT_TYPE" depart="204.00" arrival="452.00">
        <route edges="3fi 3si 4o 4fi 4si 3o 3fi"/>
    </vehicle>

    <vehicle id="vertical.11" type="SUMO_DEFAULT_TYPE" depart="214.00" arrival="454.00">
        <route edges="3fi 3si 4o 4fi 4si 3o 3fi"/>
    </vehicle>

    <vehicle id="vertical.12" type="SUMO_DEFAULT_TYPE" depart="224.00" arrival="456.00">
        <route edges="3fi 3si 4o 4fi 4si 3o 3fi"/>
    </vehicle>

    <vehicle id="vertical.13" type="SUMO_DEFAULT_TYPE" depart="234.00" arrival="458.00">
        <route edges="3fi 3si 4o 4fi 4si 3o 3fi"/>
    </vehicle>

    <vehicle id="vertical.14" type="SUMO_DEFAULT_TYPE" depart="244.00" arrival="459.00">
        <route edges="3fi 3si 4o 4fi 4si 3o 3fi"/>
    </vehicle>

    <vehicle id="horizontal.11" type="SUMO_DEFAULT_TYPE" depart="210.00" arrival="488.00">
        <route edges="2fi 2si 1o 1fi 1si 2o 2fi"/>
    </vehicle>

    <vehicle id="horizontal.12" type="SUMO_DEFAULT_TYPE" depart="220.00" arrival="491.00">
        <route edges="2fi 2si 1o 1fi 1si 2o 2fi"/>
    </vehicle>

    <vehicle id="horizontal.13" type="SUMO_DEFAULT_TYPE" depart="230.00" arrival="493.00">
        <route edges="2fi 2si 1o 1fi 1si 2o 2fi"/>
    </vehicle>

    <vehicle id="horizontal.14" type="SUMO_DEFAULT_TYPE" depart="249.00" arrival="494.00">
        <route edges="2fi 2si 1o 1fi 1si 2o 2fi"/>
    </vehicle>

    <vehicle id="horizontal.15" type="SUMO_DEFAULT_TYPE" depart="257.00" arrival="496.00">
        <route edges="2fi 2si 1o 1fi 1si 2o 2fi"/>
    </vehicle>

    <vehicle id="horizontal.16" type="SUMO_DEFAULT_TYPE" depart="261.00" arrival="497.00">
        <route edges="2fi 2si 1o 1fi 1si 2o 2fi"/>
    </vehicle>

    <vehicle id="horizontal.17" type="SUMO_DEFAULT_TYPE" depart="270.00" arrival="499.00">
        <route edges="2fi 2si 1o 1fi 1si 2o 2fi"/>
    </vehicle>

    <vehicle id="horizontal.18" type="SUMO_DEFAULT_TYPE" depart="280.00" arrival="501.00">
        <route edges="2fi 2si 1o 1fi 1si 2o 2fi"/>
    </vehicle>

    <vehicle id="horizontal.19" type="SUMO_DEFAULT_TYPE" depart="290.00" arrival="502.00">
        <route edges="2fi 2si 1o 1fi 1si 2o 2fi"/>
    </vehicle>

    <vehicle id="vertical.15" type="SUMO_DEFAULT_TYPE" depart="254.00" arrival="535.00">
        <route edges="3fi 3si 4o 4fi 4si 3o 3fi"/>
    </vehicle>

    <vehicle id="vertical.16" type="SUMO_DEFAULT_TYPE" depart="264.00" arrival="537.00">
        <route edges="3fi 3si 4o 4fi 4si 3o 3fi"/>
    </vehicle>

    <vehicle id="vertical.17" type="SUMO_DEFAULT_TYPE" depart="274.00" arrival="539.00">
        <route edges="3fi 3si 4o 4fi 4si 3o 3fi"/>
    </vehicle>

    <vehicle id="vertical.18" type="SUMO_DEFAULT_TYPE" depart="284.00" arrival="540.00">
        <route edges="3fi 3si 4o 4fi 4si 3o 3fi"/>
    </vehicle>

    <vehicle id="vertical.19" type="SUMO_DEFAULT_TYPE" depart="294.00" arrival="542.00">
        <route edges="3fi 3si 4o 4fi 4si 3o 3fi"/>
    </vehicle>

    <vehicle id="vertical.20" type="SUMO_DEFAULT_TYPE" depart="304.00" arrival="544.00">
        <route edges="3fi 3si 4o 4fi 4si 3o 3fi"/>
    </vehicle>

    <vehicle id="vertical.21" type="SUMO_DEFAULT_TYPE" depart="314.00" arrival="546.00">
        <route edges="3fi 3si 4o 4fi 4si 3o 3fi"/>
    </vehicle>

    <vehicle id="vertical.22" type="SUMO_DEFAULT_TYPE" depart="340.00" arrival="555.00">
        <route edges="3fi 3si 4o 4fi 4si 3o 3fi"/>
    </vehicle>

    <vehicle id="horizontal.20" type="SUMO_DEFAULT_TYPE" depart="300.00" arrival="579.00">
        <route edges="2fi 2si 1o 1fi 1si 2o 2fi"/>
    </vehicle>

    <vehicle id="horizontal.21" type="SUMO_DEFAULT_TYPE" depart="310.00" arrival="581.00">
        <route edges="2fi 2si 1o 1fi 1si 2o 2fi"/>
    </vehicle>

    <vehicle id="horizontal.22" type="SUMO_DEFAULT_TYPE" depart="320.00" arrival="582.00">
        <route edges="2fi 2si 1o 1fi 1si 2o 2fi"/>
    </vehicle>

    <vehicle id="horizontal.23" type="SUMO_DEFAULT_TYPE" depart="343.00" arrival="584.00">
        <route edges="2fi 2si 1o 1fi 1si 2o 2fi"/>
    </vehicle>

    <vehicle id="horizontal.24" type="SUMO_DEFAULT_TYPE" depart="350.00" arrival="586.00">
        <route edges="2fi 2si 1o 1fi 1si 2o 2fi"/>
    </vehicle>

    <vehicle id="horizontal.25" type="SUMO_DEFAULT_TYPE" depart="362.00" arrival="587.00">
        <route edges="2fi 2si 1o 1fi 1si 2o 2fi"/>
    </vehicle>

    <vehicle id="horizontal.26" type="SUMO_DEFAULT_TYPE" depart="366.00" arrival="589.00">
        <route edges="2fi 2si 1o 1fi 1si 2o 2fi"/>
    </vehicle>

    <vehicle id="vertical.23" type="SUMO_DEFAULT_TYPE" depart="349.00" arrival="622.00">
        <route edges="3fi 3si 4o 4fi 4si 3o 3fi"/>
    </vehicle>

    <vehicle id="vertical.24" type="SUMO_DEFAULT_TYPE" depart="357.00" arrival="624.00">
        <route edges="3fi 3si 4o 4fi 4si 3o 3fi"/>
    </vehicle>

    <vehicle id="vertical.25" type="SUMO_DEFAULT_TYPE" depart="366.00" arrival="626.00">
        <route edges="3fi 3si 4o 4fi 4si 3o 3fi"/>
    </vehicle>

    <vehicle id="vertical.26" type="SUMO_DEFAULT_TYPE" depart="374.00" arrival="627.00">
        <route edges="3fi 3si 4o 4fi 4si 3o 3fi"/>
    </vehicle>

    <vehicle id="vertical.27" type="SUMO_DEFAULT_TYPE" depart="382.00" arrival="629.00">
        <route edges="3fi 3si 4o 4fi 4si 3o 3fi"/>
    </vehicle>

    <vehicle id="vertical.28" type="SUMO_DEFAULT_TYPE" depart="390.00" arrival="630.00">
        <route edges="3fi 3si 4o 4fi 4si 3o 3fi"/>
    </vehicle>

    <vehicle id="vertical.29" type="SUMO_DEFAULT_TYPE" depart="399.00" arrival="632.00">
        <route edges="3fi 3si 4o 4fi 4si 3o 3fi"/>
    </vehicle>

    <vehicle id="vertical.30" type="SUMO_DEFAULT_TYPE" depart="407.00" arrival="634.00">
        <route edges="3fi 3si 4o 4fi 4si 3o 3fi"/>
    </vehicle>

    <vehicle id="always_right.0" type="SUMO_DEFAULT_TYPE" depart="100.00" arrival="646.00">
        <route edges="1fi 1si 4o 4fi 4si 2o 2fi 2si 3o 3fi 3si 1o 1fi"/>
    </vehicle>

    <vehicle id="always_right.1" type="SUMO_DEFAULT_TYPE" depart="110.00" arrival="648.00">
        <route edges="1fi 1si 4o 4fi 4si 2o 2fi 2si 3o 3fi 3si 1o 1fi"/>
    </vehicle>

    <vehicle id="always_right.2" type="SUMO_DEFAULT_TYPE" depart="120.00" arrival="650.00">
        <route edges="1fi 1si 4o 4fi 4si 2o 2fi 2si 3o 3fi 3si 1o 1fi"/>
    </vehicle>

    <vehicle id="horizontal.27" type="SUMO_DEFAULT_TYPE" depart="392.00" arrival="670.00">
        <route edges="2fi 2si 1o 1fi 1si 2o 2fi"/>
    </vehicle>

    <vehicle id="always_left.0" type="SUMO_DEFAULT_TYPE" depart="100.00" arrival="670.00">
        <route edges="3fi 3si 2o 2fi 2si 4o 4fi 4si 1o 1fi 1si 3o 3fi"/>
    </vehicle>

    <vehicle id="horizontal.28" type="SUMO_DEFAULT_TYPE" depart="396.00" arrival="671.00">
        <route edges="2fi 2si 1o 1fi 1si 2o 2fi"/>
    </vehicle>

    <vehicle id="always_left.1" type="SUMO_DEFAULT_TYPE" depart="110.00" arrival="672.00">
        <route edges="3fi 3si 2o 2fi 2si 4o 4fi 4si 1o 1fi 1si 3o 3fi"/>
    </vehicle>

    <vehicle id="horizontal.29" type="SUMO_DEFAULT_TYPE" depart="400.00" arrival="673.00">
        <route edges="2fi 2si 1o 1fi 1si 2o 2fi"/>
    </vehicle>

    <vehicle id="horizontal.30" type="SUMO_DEFAULT_TYPE" depart="404.00" arrival="675.00">
        <route edges="2fi 2si 1o 1fi 1si 2o 2fi"/>
    </vehicle>

    <vehicle id="always_left.2" type="SUMO_DEFAULT_TYPE" depart="120.00" arrival="675.00">
        <route edges="3fi 3si 2o 2fi 2si 4o 4fi 4si 1o 1fi 1si 3o 3fi"/>
    </vehicle>

    <vehicle id="always_left.3" type="SUMO_DEFAULT_TYPE" depart="130.00" arrival="676.00">
        <route edges="3fi 3si 2o 2fi 2si 4o 4fi 4si 1o 1fi 1si 3o 3fi"/>
    </vehicle>

    <vehicle id="horizontal.31" type="SUMO_DEFAULT_TYPE" depart="410.00" arrival="677.00">
        <route edges="2fi 2si 1o 1fi 1si 2o 2fi"/>
    </vehicle>

    <vehicle id="horizontal.32" type="SUMO_DEFAULT_TYPE" depart="437.00" arrival="679.00">
        <route edges="2fi 2si 1o 1fi 1si 2o 2fi"/>
    </vehicle>

    <vehicle id="always_left.4" type="SUMO_DEFAULT_TYPE" depart="140.00" arrival="679.00">
        <route edges="3fi 3si 2o 2fi 2si 4o 4fi 4si 1o 1fi 1si 3o 3fi"/>
    </vehicle>

    <vehicle id="horizontal.33" type="SUMO_DEFAULT_TYPE" depart="441.00" arrival="680.00">
        <route edges="2fi 2si 1o 1fi 1si 2o 2fi"/>
    </vehicle>

    <vehicle id="always_left.5" type="SUMO_DEFAULT_TYPE" depart="150.00" arrival="681.00">
        <route edges="3fi 3si 2o 2fi 2si 4o 4fi 4si 1o 1fi 1si 3o 3fi"/>
    </vehicle>

    <vehicle id="horizontal.34" type="SUMO_DEFAULT_TYPE" depart="455.00" arrival="682.00">
        <route edges="2fi 2si 1o 1fi 1si 2o 2fi"/>
    </vehicle>

    <vehicle id="always_left.6" type="SUMO_DEFAULT_TYPE" depart="160.00" arrival="683.00">
        <route edges="3fi 3si 2o 2fi 2si 4o 4fi 4si 1o 1fi 1si 3o 3fi"/>
    </vehicle>

    <vehicle id="vertical.31" type="SUMO_DEFAULT_TYPE" depart="437.00" arrival="713.00">
        <route edges="3fi 3si 4o 4fi 4si 3o 3fi"/>
    </vehicle>

    <vehicle id="vertical.32" type="SUMO_DEFAULT_TYPE" depart="445.00" arrival="716.00">
        <route edges="3fi 3si 4o 4fi 4si 3o 3fi"/>
    </vehicle>

    <vehicle id="vertical.33" type="SUMO_DEFAULT_TYPE" depart="454.00" arrival="718.00">
        <route edges="3fi 3si 4o 4fi 4si 3o 3fi"/>
    </vehicle>

    <vehicle id="vertical.34" type="SUMO_DEFAULT_TYPE" depart="463.00" arrival="719.00">
        <route edges="3fi 3si 4o 4fi 4si 3o 3fi"/>
    </vehicle>

    <vehicle id="vertical.35" type="SUMO_DEFAULT_TYPE" depart="472.00" arrival="721.00">
        <route edges="3fi 3si 4o 4fi 4si 3o 3fi"/>
    </vehicle>

    <vehicle id="vertical.36" type="SUMO_DEFAULT_TYPE" depart="480.00" arrival="723.00">
        <route edges="3fi 3si 4o 4fi 4si 3o 3fi"/>
    </vehicle>

    <vehicle id="vertical.37" type="SUMO_DEFAULT_TYPE" depart="497.00" arrival="725.00">
        <route edges="3fi 3si 4o 4fi 4si 3o 3fi"/>
    </vehicle>

    <vehicle id="always_right.3" type="SUMO_DEFAULT_TYPE" depart="130.00" arrival="733.00">
        <route edges="1fi 1si 4o 4fi 4si 2o 2fi 2si 3o 3fi 3si 1o 1fi"/>
    </vehicle>

    <vehicle id="always_right.4" type="SUMO_DEFAULT_TYPE" depart="140.00" arrival="735.00">
        <route edges="1fi 1si 4o 4fi 4si 2o 2fi 2si 3o 3fi 3si 1o 1fi"/>
    </vehicle>

    <vehicle id="always_right.5" type="SUMO_DEFAULT_TYPE" depart="150.00" arrival="736.00">
        <route edges="1fi 1si 4o 4fi 4si 2o 2fi 2si 3o 3fi 3si 1o 1fi"/>
    </vehicle>

    <vehicle id="always_right.6" type="SUMO_DEFAULT_TYPE" depart="160.00" arrival="738.00">
        <route edges="1fi 1si 4o 4fi 4si 2o 2fi 2si 3o 3fi 3si 1o 1fi"/>
    </vehicle>

    <vehicle id="always_right.7" type="SUMO_DEFAULT_TYPE" depart="170.00" arrival="739.00">
        <route edges="1fi 1si 4o 4fi 4si 2o 2fi 2si 3o 3fi 3si 1o 1fi"/>
    </vehicle>

    <vehicle id="always_left.7" type="SUMO_DEFAULT_TYPE" depart="170.00" arrival="758.00">
        <route edges="3fi 3si 2o 2fi 2si 4o 4fi 4si 1o 1fi 1si 3o 3fi"/>
    </vehicle>

    <vehicle id="always_left.8" type="SUMO_DEFAULT_TYPE" depart="180.00" arrival="760.00">
        <route edges="3fi 3si 2o 2fi 2si 4o 4fi 4si 1o 1fi 1si 3o 3fi"/>
    </vehicle>

    <vehicle id="horizontal.35" type="SUMO_DEFAULT_TYPE" depart="480.00" arrival="761.00">
        <route edges="2fi 2si 1o 1fi 1si 2o 2fi"/>
    </vehicle>

    <vehicle id="always_left.9" type="SUMO_DEFAULT_TYPE" depart="190.00" arrival="762.00">
        <route edges="3fi 3si 2o 2fi 2si 4o 4fi 4si 1o 1fi 1si 3o 3fi"/>
    </vehicle>

    <vehicle id="horizontal.36" type="SUMO_DEFAULT_TYPE" depart="484.00" arrival="763.00">
        <route edges="2fi 2si 1o 1fi 1si 2o 2fi"/>
    </vehicle>

    <vehicle id="horizontal.37" type="SUMO_DEFAULT_TYPE" depart="488.00" arrival="764.00">
        <route edges="2fi 2si 1o 1fi 1si 2o 2fi"/>
    </vehicle>

    <vehicle id="always_left.10" type="SUMO_DEFAULT_TYPE" depart="200.00" arrival="764.00">
        <route edges="3fi 3si 2o 2fi 2si 4o 4fi 4si 1o 1fi 1si 3o 3fi"/>
    </vehicle>

    <vehicle id="always_left.11" type="SUMO_DEFAULT_TYPE" depart="210.00" arrival="765.00">
        <route edges="3fi 3si 2o 2fi 2si 4o 4fi 4si 1o 1fi 1si 3o 3fi"/>
    </vehicle>

    <vehicle id="horizontal.38" type="SUMO_DEFAULT_TYPE" depart="492.00" arrival="767.00">
        <route edges="2fi 2si 1o 1fi 1si 2o 2fi"/>
    </vehicle>

    <vehicle id="always_left.12" type="SUMO_DEFAULT_TYPE" depart="220.00" arrival="767.00">
        <route edges="3fi 3si 2o 2fi 2si 4o 4fi 4si 1o 1fi 1si 3o 3fi"/>
    </vehicle>

    <vehicle id="horizontal.39" type="SUMO_DEFAULT_TYPE" depart="496.00" arrival="769.00">
        <route edges="2fi 2si 1o 1fi 1si 2o 2fi"/>
    </vehicle>

    <vehicle id="always_left.13" type="SUMO_DEFAULT_TYPE" depart="230.00" arrival="769.00">
        <route edges="3fi 3si 2o 2fi 2si 4o 4fi 4si 1o 1fi 1si 3o 3fi"/>
    </vehicle>

    <vehicle id="always_left.14" type="SUMO_DEFAULT_TYPE" depart="240.00" arrival="770.00">
        <route edges="3fi 3si 2o 2fi 2si 4o 4fi 4si 1o 1fi 1si 3o 3fi"/>
    </vehicle>

    <vehicle id="horizontal.40" type="SUMO_DEFAULT_TYPE" depart="501.00" arrival="771.00">
        <route edges="2fi 2si 1o 1fi 1si 2o 2fi"/>
    </vehicle>

    <vehicle id="always_left.15" type="SUMO_DEFAULT_TYPE" depart="250.00" arrival="772.00">
        <route edges="3fi 3si 2o 2fi 2si 4o 4fi 4si 1o 1fi 1si 3o 3fi"/>
    </vehicle>

    <vehicle id="horizontal.41" type="SUMO_DEFAULT_TYPE" depart="537.00" arrival="773.00">
        <route edges="2fi 2si 1o 1fi 1si 2o 2fi"/>
    </vehicle>

    <vehicle id="horizontal.42" type="SUMO_DEFAULT_TYPE" depart="541.00" arrival="775.00">
        <route edges="2fi 2si 1o 1fi 1si 2o 2fi"/>
    </vehicle>

    <vehicle id="horizontal.43" type="SUMO_DEFAULT_TYPE" depart="545.00" arrival="778.00">
        <route edges="2fi 2si 1o 1fi 1si 2o 2fi"/>
    </vehicle>

    <vehicle id="vertical.38" type="SUMO_DEFAULT_TYPE" depart="522.00" arrival="798.00">
        <route edges="3fi 3si 4o 4fi 4si 3o 3fi"/>
    </vehicle>

    <vehicle id="vertical.39" type="SUMO_DEFAULT_TYPE" depart="534.00" arrival="800.00">
        <route edges="3fi 3si 4o 4fi 4si 3o 3fi"/>
    </vehicle>

    <vehicle id="vertical.40" type="SUMO_DEFAULT_TYPE" depart="542.00" arrival="801.00">
        <route edges="3fi 3si 4o 4fi 4si 3o 3fi"/>
    </vehicle>

    <vehicle id="vertical.41" type="SUMO_DEFAULT_TYPE" depart="551.00" arrival="803.00">
        <route edges="3fi 3si 4o 4fi 4si 3o 3fi"/>
    </vehicle>

    <vehicle id="vertical.42" type="SUMO_DEFAULT_TYPE" depart="559.00" arrival="805.00">
        <route edges="3fi 3si 4o 4fi 4si 3o 3fi"/>
    </vehicle>

    <vehicle id="vertical.43" type="SUMO_DEFAULT_TYPE" depart="567.00" arrival="807.00">
        <route edges="3fi 3si 4o 4fi 4si 3o 3fi"/>
    </vehicle>

    <vehicle id="vertical.44" type="SUMO_DEFAULT_TYPE" depart="589.00" arrival="810.00">
        <route edges="3fi 3si 4o 4fi 4si 3o 3fi"/>
    </vehicle>

    <vehicle id="always_right.8" type="SUMO_DEFAULT_TYPE" depart="180.00" arrival="827.00">
        <route edges="1fi 1si 4o 4fi 4si 2o 2fi 2si 3o 3fi 3si 1o 1fi"/>
    </vehicle>

    <vehicle id="always_right.9" type="SUMO_DEFAULT_TYPE" depart="190.00" arrival="829.00">
        <route edges="1fi 1si 4o 4fi 4si 2o 2fi 2si 3o 3fi 3si 1o 1fi"/>
    </vehicle>

    <vehicle id="always_right.10" type="SUMO_DEFAULT_TYPE" depart="200.00" arrival="831.00">
        <route edges="1fi 1si 4o 4fi 4si 2o 2fi 2si 3o 3fi 3si 1o 1fi"/>
    </vehicle>

    <vehicle id="always_right.11" type="SUMO_DEFAULT_TYPE" depart="210.00" arrival="833.00">
        <route edges="1fi 1si 4o 4fi 4si 2o 2fi 2si 3o 3fi 3si 1o 1fi"/>
    </vehicle>

    <vehicle id="always_right.12" type="SUMO_DEFAULT_TYPE" depart="220.00" arrival="835.00">
        <route edges="1fi 1si 4o 4fi 4si 2o 2fi 2si 3o 3fi 3si 1o 1fi"/>
    </vehicle>

    <vehicle id="horizontal.44" type="SUMO_DEFAULT_TYPE" depart="566.00" arrival="847.00">
        <route edges="2fi 2si 1o 1fi 1si 2o 2fi"/>
    </vehicle>

    <vehicle id="always_left.16" type="SUMO_DEFAULT_TYPE" depart="260.00" arrival="847.00">
        <route edges="3fi 3si 2o 2fi 2si 4o 4fi 4si 1o 1fi 1si 3o 3fi"/>
    </vehicle>

    <vehicle id="always_left.17" type="SUMO_DEFAULT_TYPE" depart="270.00" arrival="848.00">
        <route edges="3fi 3si 2o 2fi 2si 4o 4fi 4si 1o 1fi 1si 3o 3fi"/>
    </vehicle>

    <vehicle id="horizontal.45" type="SUMO_DEFAULT_TYPE" depart="570.00" arrival="849.00">
        <route edges="2fi 2si 1o 1fi 1si 2o 2fi"/>
    </vehicle>

    <vehicle id="horizontal.46" type="SUMO_DEFAULT_TYPE" depart="575.00" arrival="850.00">
        <route edges="2fi 2si 1o 1fi 1si 2o 2fi"/>
    </vehicle>

    <vehicle id="always_left.18" type="SUMO_DEFAULT_TYPE" depart="280.00" arrival="850.00">
        <route edges="3fi 3si 2o 2fi 2si 4o 4fi 4si 1o 1fi 1si 3o 3fi"/>
    </vehicle>

    <vehicle id="horizontal.47" type="SUMO_DEFAULT_TYPE" depart="579.00" arrival="852.00">
        <route edges="2fi 2si 1o 1fi 1si 2o 2fi"/>
    </vehicle>

    <vehicle id="always_left.19" type="SUMO_DEFAULT_TYPE" depart="290.00" arrival="852.00">
        <route edges="3fi 3si 2o 2fi 2si 4o 4fi 4si 1o 1fi 1si 3o 3fi"/>
    </vehicle>

    <vehicle id="horizontal.48" type="SUMO_DEFAULT_TYPE" depart="583.00" arrival="853.00">
        <route edges="2fi 2si 1o 1fi 1si 2o 2fi"/>
    </vehicle>

    <vehicle id="always_left.20" type="SUMO_DEFAULT_TYPE" depart="300.00" arrival="853.00">
        <route edges="3fi 3si 2o 2fi 2si 4o 4fi 4si 1o 1fi 1si 3o 3fi"/>
    </vehicle>

    <vehicle id="horizontal.49" type="SUMO_DEFAULT_TYPE" depart="590.00" arrival="855.00">
        <route edges="2fi 2si 1o 1fi 1si 2o 2fi"/>
    </vehicle>

    <vehicle id="always_left.21" type="SUMO_DEFAULT_TYPE" depart="310.00" arrival="855.00">
        <route edges="3fi 3si 2o 2fi 2si 4o 4fi 4si 1o 1fi 1si 3o 3fi"/>
    </vehicle>

    <vehicle id="horizontal.50" type="SUMO_DEFAULT_TYPE" depart="611.00" arrival="857.00">
        <route edges="2fi 2si 1o 1fi 1si 2o 2fi"/>
    </vehicle>

    <vehicle id="always_left.22" type="SUMO_DEFAULT_TYPE" depart="320.00" arrival="857.00">
        <route edges="3fi 3si 2o 2fi 2si 4o 4fi 4si 1o 1fi 1si 3o 3fi"/>
    </vehicle>

    <vehicle id="horizontal.51" type="SUMO_DEFAULT_TYPE" depart="621.00" arrival="858.00">
        <route edges="2fi 2si 1o 1fi 1si 2o 2fi"/>
    </vehicle>

    <vehicle id="horizontal.52" type="SUMO_DEFAULT_TYPE" depart="636.00" arrival="860.00">
        <route edges="2fi 2si 1o 1fi 1si 2o 2fi"/>
    </vehicle>

    <vehicle id="vertical.45" type="SUMO_DEFAULT_TYPE" depart="615.00" arrival="894.00">
        <route edges="3fi 3si 4o 4fi 4si 3o 3fi"/>
    </vehicle>

    <vehicle id="vertical.46" type="SUMO_DEFAULT_TYPE" depart="623.00" arrival="897.00">
        <route edges="3fi 3si 4o 4fi 4si 3o 3fi"/>
    </vehicle>

    <vehicle id="vertical.47" type="SUMO_DEFAULT_TYPE" depart="632.00" arrival="899.00">
        <route edges="3fi 3si 4o 4fi 4si 3o 3fi"/>
    </vehicle>

    <vehicle id="vertical.48" type="SUMO_DEFAULT_TYPE" depart="659.00" arrival="900.00">
        <route edges="3fi 3si 4o 4fi 4si 3o 3fi"/>
    </vehicle>

    <vehicle id="vertical.49" type="SUMO_DEFAULT_TYPE" depart="680.00" arrival="902.00">
        <route edges="3fi 3si 4o 4fi 4si 3o 3fi"/>
    </vehicle>

    <vehicle id="always_right.13" type="SUMO_DEFAULT_TYPE" depart="230.00" arrival="909.00">
        <route edges="1fi 1si 4o 4fi 4si 2o 2fi 2si 3o 3fi 3si 1o 1fi"/>
    </vehicle>

    <vehicle id="always_right.14" type="SUMO_DEFAULT_TYPE" depart="240.00" arrival="910.00">
        <route edges="1fi 1si 4o 4fi 4si 2o 2fi 2si 3o 3fi 3si 1o 1fi"/>
    </vehicle>

    <vehicle id="always_right.15" type="SUMO_DEFAULT_TYPE" depart="250.00" arrival="912.00">
        <route edges="1fi 1si 4o 4fi 4si 2o 2fi 2si 3o 3fi 3si 1o 1fi"/>
    </vehicle>

    <vehicle id="always_right.16" type="SUMO_DEFAULT_TYPE" depart="260.00" arrival="914.00">
        <route edges="1fi 1si 4o 4fi 4si 2o 2fi 2si 3o 3fi 3si 1o 1fi"/>
    </vehicle>

    <vehicle id="always_right.17" type="SUMO_DEFAULT_TYPE" depart="270.00" arrival="917.00">
        <route edges="1fi 1si 4o 4fi 4si 2o 2fi 2si 3o 3fi 3si 1o 1fi"/>
    </vehicle>

    <vehicle id="always_left.23" type="SUMO_DEFAULT_TYPE" depart="344.00" arrival="938.00">
        <route edges="3fi 3si 2o 2fi 2si 4o 4fi 4si 1o 1fi 1si 3o 3fi"/>
    </vehicle>

    <vehicle id="always_left.24" type="SUMO_DEFAULT_TYPE" depart="353.00" arrival="939.00">
        <route edges="3fi 3si 2o 2fi 2si 4o 4fi 4si 1o 1fi 1si 3o 3fi"/>
    </vehicle>

    <vehicle id="always_left.25" type="SUMO_DEFAULT_TYPE" depart="361.00" arrival="941.00">
        <route edges="3fi 3si 2o 2fi 2si 4o 4fi 4si 1o 1fi 1si 3o 3fi"/>
    </vehicle>

    <vehicle id="always_left.26" type="SUMO_DEFAULT_TYPE" depart="370.00" arrival="942.00">
        <route edges="3fi 3si 2o 2fi 2si 4o 4fi 4si 1o 1fi 1si 3o 3fi"/>
    </vehicle>

    <vehicle id="horizontal.53" type="SUMO_DEFAULT_TYPE" depart="659.00" arrival="943.00">
        <route edges="2fi 2si 1o 1fi 1si 2o 2fi"/>
    </vehicle>

    <vehicle id="always_left.27" type="SUMO_DEFAULT_TYPE" depart="378.00" arrival="944.00">
        <route edges="3fi 3si 2o 2fi 2si 4o 4fi 4si 1o 1fi 1si 3o 3fi"/>
    </vehicle>

    <vehicle id="horizontal.54" type="SUMO_DEFAULT_TYPE" depart="663.00" arrival="946.00">
        <route edges="2fi 2si 1o 1fi 1si 2o 2fi"/>
    </vehicle>

    <vehicle id="always_left.28" type="SUMO_DEFAULT_TYPE" depart="386.00" arrival="946.00">
        <route edges="3fi 3si 2o 2fi 2si 4o 4fi 4si 1o 1fi 1si 3o 3fi"/>
    </vehicle>

    <vehicle id="horizontal.55" type="SUMO_DEFAULT_TYPE" depart="667.00" arrival="947.00">
        <route edges="2fi 2si 1o 1fi 1si 2o 2fi"/>
    </vehicle>

    <vehicle id="always_left.29" type="SUMO_DEFAULT_TYPE" depart="394.00" arrival="947.00">
        <route edges="3fi 3si 2o 2fi 2si 4o 4fi 4si 1o 1fi 1si 3o 3fi"/>
    </vehicle>

    <vehicle id="horizontal.56" type="SUMO_DEFAULT_TYPE" depart="671.00" arrival="949.00">
        <route edges="2fi 2si 1o 1fi 1si 2o 2fi"/>
    </vehicle>

    <vehicle id="always_left.30" type="SUMO_DEFAULT_TYPE" depart="403.00" arrival="949.00">
        <route edges="3fi 3si 2o 2fi 2si 4o 4fi 4si 1o 1fi 1si 3o 3fi"/>
    </vehicle>

    <vehicle id="always_left.31" type="SUMO_DEFAULT_TYPE" depart="411.00" arrival="950.00">
        <route edges="3fi 3si 2o 2fi 2si 4o 4fi 4si 1o 1fi 1si 3o 3fi"/>
    </vehicle>

    <vehicle id="horizontal.57" type="SUMO_DEFAULT_TYPE" depart="675.00" arrival="951.00">
        <route edges="2fi 2si 1o 1fi 1si 2o 2fi"/>
    </vehicle>

    <vehicle id="horizontal.58" type="SUMO_DEFAULT_TYPE" depart="680.00" arrival="953.00">
        <route edges="2fi 2si 1o 1fi 1si 2o 2fi"/>
    </vehicle>

    <vehicle id="horizontal.59" type="SUMO_DEFAULT_TYPE" depart="700.00" arrival="956.00">
        <route edges="2fi 2si 1o 1fi 1si 2o 2fi"/>
    </vehicle>

    <vehicle id="horizontal.60" type="SUMO_DEFAULT_TYPE" depart="710.00" arrival="958.00">
        <route edges="2fi 2si 1o 1fi 1si 2o 2fi"/>
    </vehicle>

    <vehicle id="horizontal.61" type="SUMO_DEFAULT_TYPE" depart="724.00" arrival="960.00">
        <route edges="2fi 2si 1o 1fi 1si 2o 2fi"/>
    </vehicle>

    <vehicle id="horizontal.62" type="SUMO_DEFAULT_TYPE" depart="728.00" arrival="961.00">
        <route edges="2fi 2si 1o 1fi 1si 2o 2fi"/>
    </vehicle>

    <vehicle id="vertical.50" type="SUMO_DEFAULT_TYPE" depart="706.00" arrival="981.00">
        <route edges="3fi 3si 4o 4fi 4si 3o 3fi"/>
    </vehicle>

    <vehicle id="vertical.51" type="SUMO_DEFAULT_TYPE" depart="715.00" arrival="983.00">
        <route edges="3fi 3si 4o 4fi 4si 3o 3fi"/>
    </vehicle>

    <vehicle id="vertical.52" type="SUMO_DEFAULT_TYPE" depart="724.00" arrival="984.00">
        <route edges="3fi 3si 4o 4fi 4si 3o 3fi"/>
    </vehicle>

    <vehicle id="vertical.53" type="SUMO_DEFAULT_TYPE" depart="757.00" arrival="986.00">
        <route edges="3fi 3si 4o 4fi 4si 3o 3fi"/>
    </vehicle>

</routes>
