<?xml version="1.0" encoding="UTF-8"?>

<!-- generated on 2024-09-24 11:33:41 by Eclipse SUMO sumo Version v1_20_0+0589-6b92b54fcff
This data file and the accompanying materials
are made available under the terms of the Eclipse Public License v2.0
which accompanies this distribution, and is available at
http://www.eclipse.org/legal/epl-v20.html
This file may also be made available under the following Secondary
Licenses when the conditions for such availability set forth in the Eclipse
Public License 2.0 are satisfied: GNU General Public License, version 2
or later which is available at
https://www.gnu.org/licenses/old-licenses/gpl-2.0-standalone.html
SPDX-License-Identifier: EPL-2.0 OR GPL-2.0-or-later
<configuration xmlns:xsi="http://www.w3.org/2001/XMLSchema-instance" xsi:noNamespaceSchemaLocation="http://sumo.dlr.de/xsd/sumoConfiguration.xsd">

    <input>
        <net-file value="net.net.xml"/>
        <route-files value="input_routes.rou.xml"/>
    </input>

    <output>
        <write-license value="true"/>
        <tripinfo-output value="tripinfos.xml"/>
        <railsignal-block-output value="railsignal_blocks.xml"/>
    </output>

    <processing>
        <default.speeddev value="0"/>
    </processing>

    <report>
        <xml-validation value="never"/>
        <duration-log.disable value="true"/>
        <no-step-log value="true"/>
    </report>

</configuration>
-->

<tripinfos xmlns:xsi="http://www.w3.org/2001/XMLSchema-instance" xsi:noNamespaceSchemaLocation="http://sumo.dlr.de/xsd/tripinfo_file.xsd">
    <tripinfo id="t1" depart="0.00" departLane="-g_0" departPos="50.10" departSpeed="13.89" departDelay="0.00" arrival="47.00" arrivalLane="-a_0" arrivalPos="100.00" arrivalSpeed="13.89" duration="47.00" routeLength="650.32" waitingTime="0.00" waitingCount="0" stopTime="0.00" timeLoss="0.00" rerouteNo="1" devices="tripinfo_t1 routing_t1" vType="train" speedFactor="1.00" vaporized=""/>
    <tripinfo id="t0" depart="0.00" departLane="a_0" departPos="50.10" departSpeed="13.89" departDelay="0.00" arrival="73.00" arrivalLane="g_0" arrivalPos="100.00" arrivalSpeed="13.63" duration="73.00" routeLength="732.15" waitingTime="0.00" waitingCount="0" stopTime="0.00" timeLoss="20.20" rerouteNo="1" devices="tripinfo_t0 routing_t0" vType="train" speedFactor="1.00" vaporized=""/>
    <tripinfo id="t3" depart="200.00" departLane="-g_0" departPos="50.10" departSpeed="13.89" departDelay="0.00" arrival="292.00" arrivalLane="-a_0" arrivalPos="100.00" arrivalSpeed="13.00" duration="92.00" routeLength="732.15" waitingTime="0.00" waitingCount="0" stopTime="1.00" timeLoss="38.02" rerouteNo="1" devices="tripinfo_t3 routing_t3" vType="train" speedFactor="1.00" vaporized=""/>
    <tripinfo id="t2" depart="200.00" departLane="a_0" departPos="50.10" departSpeed="13.89" departDelay="0.00" arrival="344.00" arrivalLane="g_0" arrivalPos="100.00" arrivalSpeed="12.25" duration="144.00" routeLength="650.32" waitingTime="64.00" waitingCount="1" stopTime="1.00" timeLoss="95.75" rerouteNo="1" devices="tripinfo_t2 routing_t2" vType="train" speedFactor="1.00" vaporized=""/>
    <tripinfo id="t4" depart="208.00" departLane="-g_0" departPos="50.10" departSpeed="10.74" departDelay="8.00" arrival="374.00" arrivalLane="-a_0" arrivalPos="100.00" arrivalSpeed="13.00" duration="166.00" routeLength="732.15" waitingTime="43.00" waitingCount="1" stopTime="1.00" timeLoss="112.04" rerouteNo="1" devices="tripinfo_t4 routing_t4" vType="train" speedFactor="1.00" vaporized=""/>
</tripinfos>
