<?xml version="1.0" encoding="UTF-8"?>

<!-- generated on 2022-01-03 14:48:25 by Eclipse SUMO sumo Version v1_11_0+0716-b9da7bd
<configuration xmlns:xsi="http://www.w3.org/2001/XMLSchema-instance" xsi:noNamespaceSchemaLocation="http://sumo.dlr.de/xsd/sumoConfiguration.xsd">

    <input>
        <net-file value="net.net.xml"/>
        <route-files value="input_routes.rou.xml"/>
        <additional-files value="input_additional.add.xml"/>
    </input>

    <output>
        <tripinfo-output value="tripinfos.xml"/>
        <tripinfo-output.write-unfinished value="true"/>
    </output>

    <time>
        <end value="2000"/>
    </time>

    <report>
        <duration-log.disable value="true"/>
        <no-step-log value="true"/>
    </report>

</configuration>
-->

<tripinfos xmlns:xsi="http://www.w3.org/2001/XMLSchema-instance" xsi:noNamespaceSchemaLocation="http://sumo.dlr.de/xsd/tripinfo_file.xsd">
    <personinfo id="p_0" depart="10.00" type="DEFAULT_PEDTYPE">
        <walk depart="10.00" departPos="0.00" arrival="40.00" arrivalPos="34.73" duration="30.00" routeLength="34.73" timeLoss="3.35" maxSpeed="1.30"/>
        <ride waitingTime="40.00" vehicle="rc_0" depart="80.00" arrival="111.00" arrivalPos="33.69" duration="31.00" routeLength="200.90" timeLoss="14.79"/>
    </personinfo>
    <personinfo id="p_1" depart="150.00" type="DEFAULT_PEDTYPE">
        <walk depart="150.00" departPos="0.00" arrival="178.00" arrivalPos="34.73" duration="28.00" routeLength="34.73" timeLoss="3.25" maxSpeed="1.40"/>
        <ride waitingTime="42.00" vehicle="rc_0" depart="220.00" arrival="251.00" arrivalPos="33.69" duration="31.00" routeLength="200.90" timeLoss="15.11"/>
    </personinfo>
    <personinfo id="p_2" depart="290.00" type="DEFAULT_PEDTYPE">
        <walk depart="290.00" departPos="0.00" arrival="315.00" arrivalPos="34.73" duration="25.00" routeLength="34.73" timeLoss="1.90" maxSpeed="1.50"/>
        <ride waitingTime="72.00" vehicle="rc_0" depart="387.00" arrival="419.00" arrivalPos="33.69" duration="32.00" routeLength="200.90" timeLoss="15.86"/>
    </personinfo>
    <personinfo id="p_3" depart="430.00" type="DEFAULT_PEDTYPE">
        <walk depart="430.00" departPos="0.00" arrival="458.00" arrivalPos="34.73" duration="28.00" routeLength="34.73" timeLoss="3.73" maxSpeed="1.43"/>
        <ride waitingTime="44.00" vehicle="rc_0" depart="502.00" arrival="531.00" arrivalPos="33.69" duration="29.00" routeLength="200.90" timeLoss="12.59"/>
    </personinfo>
    <personinfo id="p_4" depart="570.00" type="DEFAULT_PEDTYPE">
        <walk depart="570.00" departPos="0.00" arrival="604.00" arrivalPos="34.73" duration="34.00" routeLength="34.73" timeLoss="3.91" maxSpeed="1.15"/>
        <ride waitingTime="81.00" vehicle="rc_0" depart="685.00" arrival="715.00" arrivalPos="33.69" duration="30.00" routeLength="200.90" timeLoss="13.66"/>
    </personinfo>
    <personinfo id="p_5" depart="710.00" type="DEFAULT_PEDTYPE">
        <walk depart="710.00" departPos="0.00" arrival="737.00" arrivalPos="34.73" duration="27.00" routeLength="34.73" timeLoss="3.09" maxSpeed="1.45"/>
        <ride waitingTime="69.00" vehicle="rc_0" depart="806.00" arrival="838.00" arrivalPos="33.69" duration="32.00" routeLength="200.90" timeLoss="16.10"/>
    </personinfo>
    <personinfo id="p_6" depart="850.00" type="DEFAULT_PEDTYPE">
        <walk depart="850.00" departPos="0.00" arrival="881.00" arrivalPos="34.73" duration="31.00" routeLength="34.73" timeLoss="2.78" maxSpeed="1.23"/>
        <ride waitingTime="43.00" vehicle="rc_0" depart="924.00" arrival="954.00" arrivalPos="33.69" duration="30.00" routeLength="200.90" timeLoss="13.64"/>
    </personinfo>
    <personinfo id="p_7" depart="960.00" type="DEFAULT_PEDTYPE">
        <walk depart="960.00" departPos="0.00" arrival="990.00" arrivalPos="34.73" duration="30.00" routeLength="34.73" timeLoss="3.34" maxSpeed="1.30"/>
        <ride waitingTime="78.00" vehicle="rc_0" depart="1068.00" arrival="1098.00" arrivalPos="33.69" duration="30.00" routeLength="200.90" timeLoss="14.07"/>
    </personinfo>
    <personinfo id="p_8" depart="1100.00" type="DEFAULT_PEDTYPE">
        <walk depart="1100.00" departPos="0.00" arrival="1132.00" arrivalPos="34.73" duration="32.00" routeLength="34.73" timeLoss="2.82" maxSpeed="1.19"/>
        <ride waitingTime="33.00" vehicle="rc_0" depart="1165.00" arrival="1195.00" arrivalPos="33.69" duration="30.00" routeLength="200.90" timeLoss="14.42"/>
    </personinfo>
    <personinfo id="p_9" depart="1240.00" type="DEFAULT_PEDTYPE">
        <walk depart="1240.00" departPos="0.00" arrival="1266.00" arrivalPos="34.73" duration="26.00" routeLength="34.73" timeLoss="3.07" maxSpeed="1.51"/>
        <ride waitingTime="103.00" vehicle="rc_0" depart="1369.00" arrival="1401.00" arrivalPos="33.69" duration="32.00" routeLength="200.90" timeLoss="15.55"/>
    </personinfo>
    <tripinfo id="rc_0" depart="5.00" departLane="gneE8_0" departPos="7.10" departSpeed="0.00" departDelay="0.00" arrival="-1.00" arrivalLane="" arrivalPos="-1.00" arrivalSpeed="-1.00" duration="1995.00" routeLength="10957.19" waitingTime="54.00" waitingCount="20" stopTime="614.00" timeLoss="521.86" rerouteNo="125" devices="tripinfo_rc_0 taxi_rc_0 person_rc_0" vType="ridepooling-car" speedFactor="1.03" vaporized="end">
        <taxi customers="10" occupiedDistance="2009.00" occupiedTime="327.00"/>
    </tripinfo>
</tripinfos>
