<?xml version="1.0" encoding="UTF-8"?>

<!-- generated on 2024-07-29 14:37:26 by Eclipse SUMO sumo Version v1_20_0+1452-9098ed5f0d7
This data file and the accompanying materials
are made available under the terms of the Eclipse Public License v2.0
which accompanies this distribution, and is available at
http://www.eclipse.org/legal/epl-v20.html
This file may also be made available under the following Secondary
Licenses when the conditions for such availability set forth in the Eclipse
Public License 2.0 are satisfied: GNU General Public License, version 2
or later which is available at
https://www.gnu.org/licenses/old-licenses/gpl-2.0-standalone.html
SPDX-License-Identifier: EPL-2.0 OR GPL-2.0-or-later
<sumoConfiguration xmlns:xsi="http://www.w3.org/2001/XMLSchema-instance" xsi:noNamespaceSchemaLocation="http://sumo.dlr.de/xsd/sumoConfiguration.xsd">

    <input>
        <net-file value="net2.net.xml"/>
        <route-files value="input_routes.rou.xml"/>
    </input>

    <output>
        <write-license value="true"/>
        <fcd-output value="fcd.xml"/>
        <vehroute-output value="vehroutes.xml"/>
        <stop-output value="stopinfos.xml"/>
    </output>

    <processing>
        <default.speeddev value="0"/>
    </processing>

    <report>
        <xml-validation value="never"/>
        <duration-log.disable value="true"/>
        <no-step-log value="true"/>
    </report>

</sumoConfiguration>
-->

<fcd-export xmlns:xsi="http://www.w3.org/2001/XMLSchema-instance" xsi:noNamespaceSchemaLocation="http://sumo.dlr.de/xsd/fcd_file.xsd">
    <timestep time="0.00">
        <vehicle id="veh0" x="113.15" y="95.05" angle="90.00" type="DEFAULT_VEHTYPE" speed="25.72" pos="5.10" lane="CE_0" slope="0.00"/>
    </timestep>
    <timestep time="1.00">
        <vehicle id="veh0" x="138.87" y="98.35" angle="90.00" type="DEFAULT_VEHTYPE" speed="25.72" pos="30.82" lane="CE_1" slope="0.00"/>
    </timestep>
    <timestep time="2.00">
        <vehicle id="veh0" x="162.12" y="98.35" angle="90.00" type="DEFAULT_VEHTYPE" speed="23.24" pos="54.07" lane="CE_1" slope="0.00"/>
    </timestep>
    <timestep time="3.00">
        <vehicle id="veh0" x="180.86" y="98.35" angle="90.00" type="DEFAULT_VEHTYPE" speed="18.74" pos="72.81" lane="CE_1" slope="0.00"/>
    </timestep>
    <timestep time="4.00">
        <vehicle id="veh0" x="195.10" y="98.35" angle="90.00" type="DEFAULT_VEHTYPE" speed="14.24" pos="87.05" lane="CE_1" slope="0.00"/>
    </timestep>
    <timestep time="5.00">
        <vehicle id="veh0" x="199.98" y="101.65" angle="2.49" type="DEFAULT_VEHTYPE" speed="9.74" pos="0.02" lane="EC_1" slope="0.00"/>
    </timestep>
    <timestep time="6.00">
        <vehicle id="veh0" x="194.74" y="101.65" angle="270.00" type="DEFAULT_VEHTYPE" speed="5.24" pos="5.26" lane="EC_1" slope="0.00"/>
    </timestep>
    <timestep time="7.00">
        <vehicle id="veh0" x="194.00" y="101.65" angle="270.00" type="DEFAULT_VEHTYPE" speed="0.74" pos="6.00" lane="EC_1" slope="0.00"/>
    </timestep>
    <timestep time="8.00">
        <vehicle id="veh0" x="194.00" y="101.65" angle="270.00" type="DEFAULT_VEHTYPE" speed="0.00" pos="6.00" lane="EC_1" slope="0.00"/>
    </timestep>
    <timestep time="9.00">
        <vehicle id="veh0" x="194.00" y="101.65" angle="270.00" type="DEFAULT_VEHTYPE" speed="0.00" pos="6.00" lane="EC_1" slope="0.00"/>
    </timestep>
    <timestep time="10.00">
        <vehicle id="veh0" x="194.00" y="101.65" angle="270.00" type="DEFAULT_VEHTYPE" speed="0.00" pos="6.00" lane="EC_1" slope="0.00"/>
    </timestep>
    <timestep time="11.00">
        <vehicle id="veh0" x="194.00" y="101.65" angle="270.00" type="DEFAULT_VEHTYPE" speed="0.00" pos="6.00" lane="EC_1" slope="0.00"/>
    </timestep>
    <timestep time="12.00">
        <vehicle id="veh0" x="194.00" y="101.65" angle="270.00" type="DEFAULT_VEHTYPE" speed="0.00" pos="6.00" lane="EC_1" slope="0.00"/>
    </timestep>
    <timestep time="13.00">
        <vehicle id="veh0" x="191.40" y="101.65" angle="270.00" type="DEFAULT_VEHTYPE" speed="2.60" pos="8.60" lane="EC_1" slope="0.00"/>
    </timestep>
    <timestep time="14.00">
        <vehicle id="veh0" x="186.20" y="101.65" angle="270.00" type="DEFAULT_VEHTYPE" speed="5.20" pos="13.80" lane="EC_1" slope="0.00"/>
    </timestep>
    <timestep time="15.00">
        <vehicle id="veh0" x="178.40" y="101.65" angle="270.00" type="DEFAULT_VEHTYPE" speed="7.80" pos="21.60" lane="EC_1" slope="0.00"/>
    </timestep>
    <timestep time="16.00">
        <vehicle id="veh0" x="168.00" y="101.65" angle="270.00" type="DEFAULT_VEHTYPE" speed="10.40" pos="32.00" lane="EC_1" slope="0.00"/>
    </timestep>
    <timestep time="17.00">
        <vehicle id="veh0" x="155.00" y="101.65" angle="270.00" type="DEFAULT_VEHTYPE" speed="13.00" pos="45.00" lane="EC_1" slope="0.00"/>
    </timestep>
    <timestep time="18.00">
        <vehicle id="veh0" x="139.40" y="101.65" angle="270.00" type="DEFAULT_VEHTYPE" speed="15.60" pos="60.60" lane="EC_1" slope="0.00"/>
    </timestep>
    <timestep time="19.00">
        <vehicle id="veh0" x="125.06" y="101.65" angle="270.00" type="DEFAULT_VEHTYPE" speed="14.34" pos="74.94" lane="EC_1" slope="0.00"/>
    </timestep>
    <timestep time="20.00">
        <vehicle id="veh0" x="115.23" y="101.65" angle="270.00" type="DEFAULT_VEHTYPE" speed="9.84" pos="84.77" lane="EC_1" slope="0.00"/>
    </timestep>
    <timestep time="21.00">
        <vehicle id="veh0" x="109.89" y="101.65" angle="270.00" type="DEFAULT_VEHTYPE" speed="5.34" pos="90.11" lane="EC_1" slope="0.00"/>
    </timestep>
    <timestep time="22.00">
        <vehicle id="veh0" x="109.05" y="101.65" angle="270.00" type="DEFAULT_VEHTYPE" speed="0.84" pos="90.95" lane="EC_1" slope="0.00"/>
    </timestep>
    <timestep time="23.00">
        <vehicle id="veh0" x="109.05" y="101.65" angle="270.00" type="DEFAULT_VEHTYPE" speed="0.00" pos="90.95" lane="EC_1" slope="0.00"/>
    </timestep>
    <timestep time="24.00">
        <vehicle id="veh0" x="109.05" y="101.65" angle="270.00" type="DEFAULT_VEHTYPE" speed="0.00" pos="90.95" lane="EC_1" slope="0.00"/>
    </timestep>
    <timestep time="25.00">
        <vehicle id="veh0" x="109.05" y="101.65" angle="270.00" type="DEFAULT_VEHTYPE" speed="0.00" pos="90.95" lane="EC_1" slope="0.00"/>
    </timestep>
    <timestep time="26.00">
        <vehicle id="veh0" x="109.05" y="101.65" angle="270.00" type="DEFAULT_VEHTYPE" speed="0.00" pos="90.95" lane="EC_1" slope="0.00"/>
    </timestep>
    <timestep time="27.00">
        <vehicle id="veh0" x="109.05" y="101.65" angle="270.00" type="DEFAULT_VEHTYPE" speed="0.00" pos="90.95" lane="EC_1" slope="0.00"/>
    </timestep>
    <timestep time="28.00">
        <vehicle id="veh0" x="109.05" y="101.65" angle="270.00" type="DEFAULT_VEHTYPE" speed="0.00" pos="90.95" lane="EC_1" slope="0.00"/>
    </timestep>
    <timestep time="29.00">
        <vehicle id="veh0" x="109.05" y="101.65" angle="270.00" type="DEFAULT_VEHTYPE" speed="0.00" pos="90.95" lane="EC_1" slope="0.00"/>
    </timestep>
    <timestep time="30.00">
        <vehicle id="veh0" x="109.05" y="101.65" angle="270.00" type="DEFAULT_VEHTYPE" speed="0.00" pos="90.95" lane="EC_1" slope="0.00"/>
    </timestep>
    <timestep time="31.00">
        <vehicle id="veh0" x="109.05" y="101.65" angle="270.00" type="DEFAULT_VEHTYPE" speed="0.00" pos="90.95" lane="EC_1" slope="0.00"/>
    </timestep>
    <timestep time="32.00">
        <vehicle id="veh0" x="109.05" y="101.65" angle="270.00" type="DEFAULT_VEHTYPE" speed="0.00" pos="90.95" lane="EC_1" slope="0.00"/>
    </timestep>
    <timestep time="33.00">
        <vehicle id="veh0" x="109.05" y="101.65" angle="270.00" type="DEFAULT_VEHTYPE" speed="0.00" pos="90.95" lane="EC_1" slope="0.00"/>
    </timestep>
    <timestep time="34.00">
        <vehicle id="veh0" x="109.05" y="101.65" angle="270.00" type="DEFAULT_VEHTYPE" speed="0.00" pos="90.95" lane="EC_1" slope="0.00"/>
    </timestep>
    <timestep time="35.00">
        <vehicle id="veh0" x="109.05" y="101.65" angle="270.00" type="DEFAULT_VEHTYPE" speed="0.00" pos="90.95" lane="EC_1" slope="0.00"/>
    </timestep>
    <timestep time="36.00">
        <vehicle id="veh0" x="109.05" y="101.65" angle="270.00" type="DEFAULT_VEHTYPE" speed="0.00" pos="90.95" lane="EC_1" slope="0.00"/>
    </timestep>
    <timestep time="37.00">
        <vehicle id="veh0" x="109.05" y="101.65" angle="270.00" type="DEFAULT_VEHTYPE" speed="0.00" pos="90.95" lane="EC_1" slope="0.00"/>
    </timestep>
    <timestep time="38.00">
        <vehicle id="veh0" x="109.05" y="101.65" angle="270.00" type="DEFAULT_VEHTYPE" speed="0.00" pos="90.95" lane="EC_1" slope="0.00"/>
    </timestep>
    <timestep time="39.00">
        <vehicle id="veh0" x="109.05" y="101.65" angle="270.00" type="DEFAULT_VEHTYPE" speed="0.00" pos="90.95" lane="EC_1" slope="0.00"/>
    </timestep>
    <timestep time="40.00">
        <vehicle id="veh0" x="109.05" y="101.65" angle="270.00" type="DEFAULT_VEHTYPE" speed="0.00" pos="90.95" lane="EC_1" slope="0.00"/>
    </timestep>
    <timestep time="41.00">
        <vehicle id="veh0" x="109.05" y="101.65" angle="270.00" type="DEFAULT_VEHTYPE" speed="0.00" pos="90.95" lane="EC_1" slope="0.00"/>
    </timestep>
    <timestep time="42.00">
        <vehicle id="veh0" x="109.05" y="101.65" angle="270.00" type="DEFAULT_VEHTYPE" speed="0.00" pos="90.95" lane="EC_1" slope="0.00"/>
    </timestep>
    <timestep time="43.00">
        <vehicle id="veh0" x="109.05" y="104.95" angle="270.00" type="DEFAULT_VEHTYPE" speed="0.00" pos="90.95" lane="EC_0" slope="0.00"/>
    </timestep>
    <timestep time="44.00">
        <vehicle id="veh0" x="109.05" y="104.95" angle="270.00" type="DEFAULT_VEHTYPE" speed="0.00" pos="90.95" lane="EC_0" slope="0.00"/>
    </timestep>
    <timestep time="45.00">
        <vehicle id="veh0" x="106.45" y="104.95" angle="270.00" type="DEFAULT_VEHTYPE" speed="2.60" pos="1.60" lane=":C_6_0" slope="0.00"/>
    </timestep>
    <timestep time="46.00">
        <vehicle id="veh0" x="101.25" y="104.95" angle="270.00" type="DEFAULT_VEHTYPE" speed="5.20" pos="6.80" lane=":C_6_0" slope="0.00"/>
    </timestep>
    <timestep time="47.00">
        <vehicle id="veh0" x="93.45" y="104.95" angle="270.00" type="DEFAULT_VEHTYPE" speed="7.80" pos="14.60" lane=":C_6_0" slope="0.00"/>
    </timestep>
    <timestep time="48.00">
        <vehicle id="veh0" x="83.05" y="104.95" angle="270.00" type="DEFAULT_VEHTYPE" speed="10.40" pos="8.90" lane="CW_0" slope="0.00"/>
    </timestep>
    <timestep time="49.00">
        <vehicle id="veh0" x="70.05" y="104.95" angle="270.00" type="DEFAULT_VEHTYPE" speed="13.00" pos="21.90" lane="CW_0" slope="0.00"/>
    </timestep>
    <timestep time="50.00">
        <vehicle id="veh0" x="54.45" y="104.95" angle="270.00" type="DEFAULT_VEHTYPE" speed="15.60" pos="37.50" lane="CW_0" slope="0.00"/>
    </timestep>
    <timestep time="51.00">
        <vehicle id="veh0" x="36.25" y="104.95" angle="270.00" type="DEFAULT_VEHTYPE" speed="18.20" pos="55.70" lane="CW_0" slope="0.00"/>
    </timestep>
    <timestep time="52.00">
        <vehicle id="veh0" x="15.45" y="104.95" angle="270.00" type="DEFAULT_VEHTYPE" speed="20.80" pos="76.50" lane="CW_0" slope="0.00"/>
    </timestep>
    <timestep time="53.00"/>
</fcd-export>
