<?xml version="1.0"?>

<!-- generated on 11/03/08 14:05:54 by SUMO sumo Version dev-SVN-r6273
<configuration>

   <input>
      <net-file>three_split.net.xml</net-file>
      <additional-files>input_routes.rou.xml,input_additional.add.xml</additional-files>
   </input>

   <output>
      <vehroute-output>vehroutes.xml</vehroute-output>
   </output>

   <time>
      <begin>100</begin>
   </time>

   <processing>
      <no-duration-log>true</no-duration-log>
      <no-step-log>true</no-step-log>
   </processing>

</configuration>
-->

<routes>
   <vehicle id="emitter_100_0" depart="100" arrival="261">
      <replaced_route replacedOnEdge="beg"  replacedAtTime="100" edges="beg middle end rend"/>

      <route edges="beg beg2left left left2end end"/>
   </vehicle>

   <vehicle id="emitter_120_1" depart="120" arrival="282">
      <replaced_route replacedOnEdge="beg"  replacedAtTime="120" edges="beg middle end rend"/>

      <route edges="beg beg2right right right2end end"/>
   </vehicle>

   <vehicle id="emitter_140_2" depart="140" arrival="301">
      <replaced_route replacedOnEdge="beg"  replacedAtTime="140" edges="beg middle end rend"/>

      <route edges="beg beg2left left left2end end"/>
   </vehicle>

   <vehicle id="emitter_160_3" depart="160" arrival="322">
      <replaced_route replacedOnEdge="beg"  replacedAtTime="160" edges="beg middle end rend"/>

      <route edges="beg beg2right right right2end end"/>
   </vehicle>

   <vehicle id="emitter_180_4" depart="180" arrival="342">
      <replaced_route replacedOnEdge="beg"  replacedAtTime="180" edges="beg middle end rend"/>

      <route edges="beg beg2right right right2end end"/>
   </vehicle>

</routes>
