<?xml version="1.0"?>

<!-- generated on 03/14/08 14:21:01 by SUMO sumo Version 0.9.7
<configuration>

   <input>
      <net-file>three_split.net.xml</net-file>
      <additional-files>input_routes.rou.xml,input_additional.add.xml</additional-files>
   </input>

   <output>
      <vehroute-output>vehroutes.xml</vehroute-output>
   </output>

   <time>
      <begin>100</begin>
   </time>

   <processing>
      <no-duration-log>true</no-duration-log>
      <no-step-log>true</no-step-log>
   </processing>

</configuration>
-->

<vehicleroutes>
   <vehicle id="emitter_100_0" emittedAt="100" endedAt="262">
      <route replacedOnEdge="beg"  replacedAtTime="100">beg middle end rend</route>

      <route>beg beg2right right right2end end</route>
   </vehicle>

   <vehicle id="emitter_120_1" emittedAt="120" endedAt="282">
      <route replacedOnEdge="beg"  replacedAtTime="120">beg middle end rend</route>

      <route>beg beg2right right right2end end</route>
   </vehicle>

   <vehicle id="emitter_140_2" emittedAt="140" endedAt="301">
      <route replacedOnEdge="beg"  replacedAtTime="140">beg middle end rend</route>

      <route>beg beg2left left left2end end</route>
   </vehicle>

   <vehicle id="emitter_160_3" emittedAt="160" endedAt="322">
      <route replacedOnEdge="beg"  replacedAtTime="160">beg middle end rend</route>

      <route>beg beg2right right right2end end</route>
   </vehicle>

   <vehicle id="emitter_180_4" emittedAt="180" endedAt="342">
      <route replacedOnEdge="beg"  replacedAtTime="180">beg middle end rend</route>

      <route>beg beg2right right right2end end</route>
   </vehicle>

</vehicleroutes>
