<?xml version="1.0" encoding="UTF-8"?>

<!-- generated on Sat Apr 18 23:33:23 2020 by Eclipse SUMO Version v1_5_0+1204-ca73bf8ada
This data file and the accompanying materials
are made available under the terms of the Eclipse Public License v2.0
which accompanies this distribution, and is available at
http://www.eclipse.org/legal/epl-v20.html
SPDX-License-Identifier: EPL-2.0
<configuration xmlns:xsi="http://www.w3.org/2001/XMLSchema-instance" xsi:noNamespaceSchemaLocation="http://sumo.dlr.de/xsd/sumoConfiguration.xsd">

    <input>
        <net-file value="net.net.xml"/>
        <route-files value="input_routes.rou.xml"/>
    </input>

    <output>
        <write-license value="true"/>
        <tripinfo-output value="tripinfos.xml"/>
    </output>

    <processing>
        <lateral-resolution value="0.32"/>
        <default.speeddev value="0"/>
    </processing>

    <report>
        <xml-validation value="never"/>
        <no-step-log value="true"/>
    </report>

</configuration>
-->

<tripinfos xmlns:xsi="http://www.w3.org/2001/XMLSchema-instance" xsi:noNamespaceSchemaLocation="http://sumo.dlr.de/xsd/tripinfo_file.xsd">
    <tripinfo id="veh.0" depart="0.00" departLane="beg_0" departPos="91.40" departPosLat="0.00" departSpeed="0.00" departDelay="0.00" arrival="7.00" arrivalLane="beg_0" arrivalPos="100.00" arrivalPosLat="-2.46" arrivalSpeed="7.81" duration="7.00" routeLength="8.60" waitingTime="4.00" waitingCount="1" stopTime="0.00" timeLoss="5.99" rerouteNo="0" devices="tripinfo_veh.0" vType="t0" speedFactor="1.12" vaporized=""/>
    <tripinfo id="veh.1" depart="1.00" departLane="beg_0" departPos="83.90" departPosLat="0.00" departSpeed="0.00" departDelay="0.90" arrival="8.00" arrivalLane="beg_0" arrivalPos="100.00" arrivalPosLat="2.46" arrivalSpeed="10.41" duration="7.00" routeLength="16.10" waitingTime="3.00" waitingCount="1" stopTime="0.00" timeLoss="4.85" rerouteNo="0" devices="tripinfo_veh.1" vType="t0" speedFactor="0.88" vaporized=""/>
    <tripinfo id="veh.2" depart="1.00" departLane="beg_0" departPos="76.30" departPosLat="0.00" departSpeed="0.00" departDelay="0.80" arrival="9.00" arrivalLane="beg_0" arrivalPos="100.00" arrivalPosLat="3.00" arrivalSpeed="10.41" duration="8.00" routeLength="23.70" waitingTime="4.00" waitingCount="1" stopTime="0.00" timeLoss="6.15" rerouteNo="0" devices="tripinfo_veh.2" vType="t0" speedFactor="1.02" vaporized=""/>
    <tripinfo id="veh.3" depart="1.00" departLane="beg_0" departPos="68.70" departPosLat="0.00" departSpeed="0.00" departDelay="0.70" arrival="13.00" arrivalLane="beg_0" arrivalPos="100.00" arrivalPosLat="-2.46" arrivalSpeed="6.43" duration="12.00" routeLength="31.30" waitingTime="5.00" waitingCount="1" stopTime="0.00" timeLoss="9.95" rerouteNo="0" devices="tripinfo_veh.3" vType="t0" speedFactor="1.17" vaporized=""/>
    <tripinfo id="veh.4" depart="1.00" departLane="beg_0" departPos="61.10" departPosLat="0.00" departSpeed="0.00" departDelay="0.60" arrival="15.00" arrivalLane="beg_0" arrivalPos="100.00" arrivalPosLat="-2.46" arrivalSpeed="9.03" duration="14.00" routeLength="38.90" waitingTime="6.00" waitingCount="1" stopTime="0.00" timeLoss="11.13" rerouteNo="0" devices="tripinfo_veh.4" vType="t0" speedFactor="1.06" vaporized=""/>
    <tripinfo id="veh.5" depart="1.00" departLane="beg_0" departPos="53.50" departPosLat="0.00" departSpeed="0.00" departDelay="0.50" arrival="15.00" arrivalLane="beg_0" arrivalPos="100.00" arrivalPosLat="2.46" arrivalSpeed="9.20" duration="14.00" routeLength="46.50" waitingTime="7.00" waitingCount="1" stopTime="0.00" timeLoss="8.24" rerouteNo="0" devices="tripinfo_veh.5" vType="t0" speedFactor="0.66" vaporized=""/>
    <tripinfo id="veh.6" depart="1.00" departLane="beg_0" departPos="45.90" departPosLat="0.00" departSpeed="0.00" departDelay="0.40" arrival="16.00" arrivalLane="beg_0" arrivalPos="100.00" arrivalPosLat="3.78" arrivalSpeed="11.80" duration="15.00" routeLength="54.10" waitingTime="8.00" waitingCount="1" stopTime="0.00" timeLoss="11.33" rerouteNo="0" devices="tripinfo_veh.6" vType="t0" speedFactor="1.09" vaporized=""/>
    <tripinfo id="veh.9" depart="1.00" departLane="beg_0" departPos="23.10" departPosLat="0.00" departSpeed="0.00" departDelay="0.10" arrival="17.00" arrivalLane="beg_0" arrivalPos="100.00" arrivalPosLat="-2.46" arrivalSpeed="9.92" duration="16.00" routeLength="76.90" waitingTime="3.00" waitingCount="1" stopTime="0.00" timeLoss="7.66" rerouteNo="0" devices="tripinfo_veh.9" vType="t0" speedFactor="0.71" vaporized=""/>
    <tripinfo id="veh.8" depart="1.00" departLane="beg_0" departPos="30.70" departPosLat="0.00" departSpeed="0.00" departDelay="0.20" arrival="18.00" arrivalLane="beg_0" arrivalPos="100.00" arrivalPosLat="3.90" arrivalSpeed="12.16" duration="17.00" routeLength="69.30" waitingTime="8.00" waitingCount="1" stopTime="0.00" timeLoss="10.80" rerouteNo="0" devices="tripinfo_veh.8" vType="t0" speedFactor="0.88" vaporized=""/>
    <tripinfo id="veh.7" depart="1.00" departLane="beg_0" departPos="38.30" departPosLat="0.00" departSpeed="0.00" departDelay="0.30" arrival="21.00" arrivalLane="beg_0" arrivalPos="100.00" arrivalPosLat="2.46" arrivalSpeed="7.81" duration="20.00" routeLength="61.70" waitingTime="9.00" waitingCount="2" stopTime="0.00" timeLoss="13.57" rerouteNo="0" devices="tripinfo_veh.7" vType="t0" speedFactor="0.77" vaporized=""/>
    <tripinfo id="blocker" depart="0.00" departLane="beg_0" departPos="99.00" departPosLat="0.00" departSpeed="0.00" departDelay="0.00" arrival="90.00" arrivalLane="beg_0" arrivalPos="100.00" arrivalPosLat="0.00" arrivalSpeed="0.01" duration="90.00" routeLength="1.00" waitingTime="90.00" waitingCount="1" stopTime="0.00" timeLoss="0.00" rerouteNo="0" devices="tripinfo_blocker" vType="slow" speedFactor="1.00" vaporized=""/>
</tripinfos>
