<?xml version="1.0" encoding="UTF-8"?>

<!-- generated on Thu Apr 16 23:36:28 2020 by Eclipse SUMO Version v1_5_0+1178-2eafbbddc0
This data file and the accompanying materials
are made available under the terms of the Eclipse Public License v2.0
which accompanies this distribution, and is available at
http://www.eclipse.org/legal/epl-v20.html
SPDX-License-Identifier: EPL-2.0
<configuration xmlns:xsi="http://www.w3.org/2001/XMLSchema-instance" xsi:noNamespaceSchemaLocation="http://sumo.dlr.de/xsd/sumoConfiguration.xsd">

    <input>
        <net-file value="net.net.xml"/>
        <route-files value="input_routes.rou.xml"/>
        <additional-files value="input_additional.add.xml"/>
    </input>

    <output>
        <write-license value="true"/>
        <tripinfo-output value="tripinfos.xml"/>
    </output>

    <processing>
        <default.speeddev value="0"/>
        <pedestrian.model value="nonInteracting"/>
    </processing>

    <report>
        <xml-validation value="never"/>
        <duration-log.disable value="true"/>
        <no-step-log value="true"/>
    </report>

</configuration>
-->

<tripinfos xmlns:xsi="http://www.w3.org/2001/XMLSchema-instance" xsi:noNamespaceSchemaLocation="http://sumo.dlr.de/xsd/tripinfo_file.xsd">
    <personinfo id="p0" depart="0.00" type="DEFAULT_PEDTYPE">
        <walk depart="0.00" departPos="0.00" arrival="35.00" arrivalPos="48.40" duration="35.00" routeLength="48.40" timeLoss="0.15" maxSpeed="1.39"/>
        <access stop="B" duration="18.00" routeLength="25.05"/>
        <ride waitingTime="7.00" vehicle="v0" depart="60.00" arrival="147.00" arrivalPos="470.00" duration="87.00" routeLength="400.00" timeLoss="57.20"/>
        <walk depart="147.00" departPos="44.50" arrival="151.00" arrivalPos="50.00" duration="4.00" routeLength="5.50" timeLoss="0.04" maxSpeed="1.39"/>
    </personinfo>
    <tripinfo id="v0" depart="0.00" departLane="a_0" departPos="40.10" departSpeed="0.00" departDelay="0.00" arrival="162.00" arrivalLane="a_0" arrivalPos="500.00" arrivalSpeed="3.75" duration="162.00" routeLength="459.90" waitingTime="0.00" waitingCount="0" stopTime="45.00" timeLoss="83.89" rerouteNo="0" devices="tripinfo_v0 person_v0" vType="train" speedFactor="1.00" vaporized=""/>
</tripinfos>
