<?xml version="1.0"?>

<!-- generated on 07/13/10 10:47:51 by SUMO sumo Version dev-SVN-r8163
<configuration>

    <input>
        <net-file value="net.net.xml"/>
        <route-files value="routes.rou.xml"/>
    </input>

    <output>
        <netstate-dump value="netstate_dump.xml"/>
    </output>

    <report>
        <no-step-log value="true"/>
    </report>

    <traci_server>
        <remote-port value="8804"/>
        <penetration value="1"/>
    </traci_server>

</configuration>
-->

<sumo-netstate>
    <timestep time="0.00">
        <edge id="e_m0">
            <lane id="e_m0_0">
                <vehicle id="veh0" pos="0.00" speed="0.00"/>
            </lane>
            <lane id="e_m0_1"/>
            <lane id="e_m0_2"/>
        </edge>
    </timestep>
    <timestep time="1.00">
        <edge id="e_m0">
            <lane id="e_m0_0">
                <vehicle id="veh0" pos="0.80" speed="0.80"/>
            </lane>
            <lane id="e_m0_1"/>
            <lane id="e_m0_2"/>
        </edge>
    </timestep>
    <timestep time="2.00">
        <edge id="e_m0">
            <lane id="e_m0_0">
                <vehicle id="veh0" pos="2.39" speed="1.59"/>
            </lane>
            <lane id="e_m0_1"/>
            <lane id="e_m0_2"/>
        </edge>
    </timestep>
    <timestep time="3.00">
        <edge id="e_m0">
            <lane id="e_m0_0">
                <vehicle id="veh0" pos="4.76" speed="2.37"/>
            </lane>
            <lane id="e_m0_1"/>
            <lane id="e_m0_2"/>
        </edge>
    </timestep>
    <timestep time="4.00">
        <edge id="e_m0">
            <lane id="e_m0_0">
                <vehicle id="veh0" pos="7.91" speed="3.15"/>
            </lane>
            <lane id="e_m0_1"/>
            <lane id="e_m0_2"/>
        </edge>
    </timestep>
    <timestep time="5.00">
        <edge id="e_m0">
            <lane id="e_m0_0">
                <vehicle id="veh0" pos="11.82" speed="3.91"/>
            </lane>
            <lane id="e_m0_1"/>
            <lane id="e_m0_2"/>
        </edge>
    </timestep>
    <timestep time="6.00">
        <edge id="e_m0">
            <lane id="e_m0_0">
                <vehicle id="veh0" pos="16.48" speed="4.66"/>
            </lane>
            <lane id="e_m0_1"/>
            <lane id="e_m0_2"/>
        </edge>
    </timestep>
    <timestep time="7.00">
        <edge id="e_m0">
            <lane id="e_m0_0">
                <vehicle id="veh0" pos="21.90" speed="5.41"/>
            </lane>
            <lane id="e_m0_1"/>
            <lane id="e_m0_2"/>
        </edge>
    </timestep>
    <timestep time="8.00">
        <edge id="e_m0">
            <lane id="e_m0_0">
                <vehicle id="veh0" pos="28.05" speed="6.15"/>
            </lane>
            <lane id="e_m0_1"/>
            <lane id="e_m0_2"/>
        </edge>
    </timestep>
    <timestep time="9.00">
        <edge id="e_m0">
            <lane id="e_m0_0">
                <vehicle id="veh0" pos="34.92" speed="6.88"/>
            </lane>
            <lane id="e_m0_1"/>
            <lane id="e_m0_2"/>
        </edge>
    </timestep>
    <timestep time="10.00">
        <edge id="e_m0">
            <lane id="e_m0_0">
                <vehicle id="veh0" pos="42.53" speed="7.60"/>
            </lane>
            <lane id="e_m0_1"/>
            <lane id="e_m0_2"/>
        </edge>
    </timestep>
</sumo-netstate>
