<?xml version="1.0" encoding="UTF-8"?>

<!-- generated on 2024-05-08 18:22:34 by Eclipse SUMO sumo Version v1_20_0+0050-4cdba91b56d
This data file and the accompanying materials
are made available under the terms of the Eclipse Public License v2.0
which accompanies this distribution, and is available at
http://www.eclipse.org/legal/epl-v20.html
This file may also be made available under the following Secondary
Licenses when the conditions for such availability set forth in the Eclipse
Public License 2.0 are satisfied: GNU General Public License, version 2
or later which is available at
https://www.gnu.org/licenses/old-licenses/gpl-2.0-standalone.html
SPDX-License-Identifier: EPL-2.0 OR GPL-2.0-or-later
<configuration xmlns:xsi="http://www.w3.org/2001/XMLSchema-instance" xsi:noNamespaceSchemaLocation="http://sumo.dlr.de/xsd/sumoConfiguration.xsd">

    <input>
        <net-file value="net.net.xml"/>
        <additional-files value="input_routes.rou.xml"/>
    </input>

    <output>
        <write-license value="true"/>
        <vehroute-output value="vehroutes.xml"/>
    </output>

    <processing>
        <default.speeddev value="0"/>
    </processing>

    <routing>
        <device.rerouting.output value="weights.xml"/>
    </routing>

    <report>
        <xml-validation value="never"/>
        <no-step-log value="true"/>
    </report>

    <mesoscopic>
        <mesosim value="true"/>
    </mesoscopic>

</configuration>
-->

<weights xmlns:xsi="http://www.w3.org/2001/XMLSchema-instance" xsi:noNamespaceSchemaLocation="http://sumo.dlr.de/xsd/meandata_file.xsd">
    <interval id="device.rerouting" begin="0.00" end="1.00">
        <edge id="beg" traveltime="7.20"/>
        <edge id="detour" traveltime="21.60"/>
        <edge id="end" traveltime="7.20"/>
        <edge id="middle" traveltime="7.20"/>
    </interval>
    <interval id="device.rerouting" begin="1.00" end="2.00">
        <edge id="beg" traveltime="7.20"/>
        <edge id="detour" traveltime="21.60"/>
        <edge id="end" traveltime="7.20"/>
        <edge id="middle" traveltime="7.20"/>
    </interval>
    <interval id="device.rerouting" begin="2.00" end="3.00">
        <edge id="beg" traveltime="7.20"/>
        <edge id="detour" traveltime="21.60"/>
        <edge id="end" traveltime="7.20"/>
        <edge id="middle" traveltime="7.20"/>
    </interval>
    <interval id="device.rerouting" begin="3.00" end="4.00">
        <edge id="beg" traveltime="7.20"/>
        <edge id="detour" traveltime="21.60"/>
        <edge id="end" traveltime="7.20"/>
        <edge id="middle" traveltime="7.20"/>
    </interval>
    <interval id="device.rerouting" begin="4.00" end="5.00">
        <edge id="beg" traveltime="7.20"/>
        <edge id="detour" traveltime="21.60"/>
        <edge id="end" traveltime="7.20"/>
        <edge id="middle" traveltime="7.20"/>
    </interval>
    <interval id="device.rerouting" begin="5.00" end="6.00">
        <edge id="beg" traveltime="7.20"/>
        <edge id="detour" traveltime="21.60"/>
        <edge id="end" traveltime="7.20"/>
        <edge id="middle" traveltime="7.20"/>
    </interval>
    <interval id="device.rerouting" begin="6.00" end="7.00">
        <edge id="beg" traveltime="7.20"/>
        <edge id="detour" traveltime="21.60"/>
        <edge id="end" traveltime="7.20"/>
        <edge id="middle" traveltime="7.20"/>
    </interval>
    <interval id="device.rerouting" begin="7.00" end="8.00">
        <edge id="beg" traveltime="7.20"/>
        <edge id="detour" traveltime="21.60"/>
        <edge id="end" traveltime="7.20"/>
        <edge id="middle" traveltime="7.20"/>
    </interval>
    <interval id="device.rerouting" begin="8.00" end="9.00">
        <edge id="beg" traveltime="7.20"/>
        <edge id="detour" traveltime="21.60"/>
        <edge id="end" traveltime="7.20"/>
        <edge id="middle" traveltime="7.20"/>
    </interval>
    <interval id="device.rerouting" begin="9.00" end="10.00">
        <edge id="beg" traveltime="7.20"/>
        <edge id="detour" traveltime="21.60"/>
        <edge id="end" traveltime="7.20"/>
        <edge id="middle" traveltime="7.20"/>
    </interval>
    <interval id="device.rerouting" begin="10.00" end="11.00">
        <edge id="beg" traveltime="7.20"/>
        <edge id="detour" traveltime="21.60"/>
        <edge id="end" traveltime="7.20"/>
        <edge id="middle" traveltime="7.20"/>
    </interval>
    <interval id="device.rerouting" begin="11.00" end="12.00">
        <edge id="beg" traveltime="7.20"/>
        <edge id="detour" traveltime="21.60"/>
        <edge id="end" traveltime="7.20"/>
        <edge id="middle" traveltime="7.20"/>
    </interval>
    <interval id="device.rerouting" begin="12.00" end="13.00">
        <edge id="beg" traveltime="7.20"/>
        <edge id="detour" traveltime="21.60"/>
        <edge id="end" traveltime="7.20"/>
        <edge id="middle" traveltime="7.20"/>
    </interval>
    <interval id="device.rerouting" begin="13.00" end="14.00">
        <edge id="beg" traveltime="7.20"/>
        <edge id="detour" traveltime="21.60"/>
        <edge id="end" traveltime="7.20"/>
        <edge id="middle" traveltime="7.20"/>
    </interval>
    <interval id="device.rerouting" begin="14.00" end="15.00">
        <edge id="beg" traveltime="7.20"/>
        <edge id="detour" traveltime="21.60"/>
        <edge id="end" traveltime="7.20"/>
        <edge id="middle" traveltime="7.20"/>
    </interval>
    <interval id="device.rerouting" begin="15.00" end="16.00">
        <edge id="beg" traveltime="7.20"/>
        <edge id="detour" traveltime="21.60"/>
        <edge id="end" traveltime="7.20"/>
        <edge id="middle" traveltime="7.20"/>
    </interval>
    <interval id="device.rerouting" begin="16.00" end="17.00">
        <edge id="beg" traveltime="7.20"/>
        <edge id="detour" traveltime="21.60"/>
        <edge id="end" traveltime="7.20"/>
        <edge id="middle" traveltime="7.20"/>
    </interval>
    <interval id="device.rerouting" begin="17.00" end="18.00">
        <edge id="beg" traveltime="7.20"/>
        <edge id="detour" traveltime="21.60"/>
        <edge id="end" traveltime="7.20"/>
        <edge id="middle" traveltime="7.20"/>
    </interval>
    <interval id="device.rerouting" begin="18.00" end="19.00">
        <edge id="beg" traveltime="7.20"/>
        <edge id="detour" traveltime="21.60"/>
        <edge id="end" traveltime="7.20"/>
        <edge id="middle" traveltime="7.20"/>
    </interval>
    <interval id="device.rerouting" begin="19.00" end="20.00">
        <edge id="beg" traveltime="7.20"/>
        <edge id="detour" traveltime="21.60"/>
        <edge id="end" traveltime="7.20"/>
        <edge id="middle" traveltime="7.20"/>
    </interval>
    <interval id="device.rerouting" begin="20.00" end="21.00">
        <edge id="beg" traveltime="7.20"/>
        <edge id="detour" traveltime="21.60"/>
        <edge id="end" traveltime="7.20"/>
        <edge id="middle" traveltime="7.20"/>
    </interval>
    <interval id="device.rerouting" begin="21.00" end="22.00">
        <edge id="beg" traveltime="7.20"/>
        <edge id="detour" traveltime="21.60"/>
        <edge id="end" traveltime="7.20"/>
        <edge id="middle" traveltime="7.20"/>
    </interval>
    <interval id="device.rerouting" begin="22.00" end="23.00">
        <edge id="beg" traveltime="7.20"/>
        <edge id="detour" traveltime="21.60"/>
        <edge id="end" traveltime="7.20"/>
        <edge id="middle" traveltime="7.20"/>
    </interval>
    <interval id="device.rerouting" begin="23.00" end="24.00">
        <edge id="beg" traveltime="7.20"/>
        <edge id="detour" traveltime="21.60"/>
        <edge id="end" traveltime="7.20"/>
        <edge id="middle" traveltime="7.20"/>
    </interval>
</weights>
