<?xml version="1.0" encoding="UTF-8"?>

<!-- generated on Fri Jun  6 13:06:58 2014 by SUMO sumo Version dev-SVN-r16550
<?xml version="1.0" encoding="UTF-8"?>

<configuration xmlns:xsi="http://www.w3.org/2001/XMLSchema-instance" xsi:noNamespaceSchemaLocation="http://sumo-sim.org/xsd/sumoConfiguration.xsd">

    <input>
        <net-file value="three_split.net.xml"/>
        <additional-files value="input_routes.rou.xml,input_additional2.add.xml"/>
    </input>

    <output>
        <tripinfo-output value="tripinfos.xml"/>
    </output>

    <time>
        <begin value="0"/>
    </time>

    <report>
        <xml-validation value="never"/>
        <no-duration-log value="true"/>
        <no-step-log value="true"/>
    </report>

    <mesoscopic>
        <mesosim value="true"/>
    </mesoscopic>

</configuration>
-->

<tripinfos xmlns:xsi="http://www.w3.org/2001/XMLSchema-instance" xsi:noNamespaceSchemaLocation="http://sumo-sim.org/xsd/tripinfo_file.xsd">
    <tripinfo id="0" depart="0.00" departLane="" departPos="0.00" departSpeed="27.80" departDelay="0.00" arrival="90.00" arrivalLane="" arrivalPos="500.00" arrivalSpeed="27.80" duration="90.00" routeLength="2500.00" waitSteps="0" rerouteNo="0" devices="tripinfo_0" vType="DEFAULT_VEHTYPE" vaporized=""/>
    <tripinfo id="1" depart="20.00" departLane="" departPos="0.00" departSpeed="27.80" departDelay="0.00" arrival="110.00" arrivalLane="" arrivalPos="500.00" arrivalSpeed="27.80" duration="90.00" routeLength="2500.00" waitSteps="0" rerouteNo="0" devices="tripinfo_1" vType="DEFAULT_VEHTYPE" vaporized=""/>
    <tripinfo id="2" depart="40.00" departLane="" departPos="0.00" departSpeed="27.80" departDelay="0.00" arrival="130.00" arrivalLane="" arrivalPos="500.00" arrivalSpeed="27.80" duration="90.00" routeLength="2500.00" waitSteps="0" rerouteNo="0" devices="tripinfo_2" vType="DEFAULT_VEHTYPE" vaporized=""/>
    <tripinfo id="5" depart="100.00" departLane="" departPos="0.00" departSpeed="27.80" departDelay="0.00" arrival="190.00" arrivalLane="" arrivalPos="500.00" arrivalSpeed="27.80" duration="90.00" routeLength="2500.00" waitSteps="0" rerouteNo="0" devices="tripinfo_5" vType="DEFAULT_VEHTYPE" vaporized=""/>
    <tripinfo id="6" depart="120.00" departLane="" departPos="0.00" departSpeed="27.80" departDelay="0.00" arrival="210.00" arrivalLane="" arrivalPos="500.00" arrivalSpeed="27.80" duration="90.00" routeLength="2500.00" waitSteps="0" rerouteNo="0" devices="tripinfo_6" vType="DEFAULT_VEHTYPE" vaporized=""/>
    <tripinfo id="7" depart="140.00" departLane="" departPos="0.00" departSpeed="27.80" departDelay="0.00" arrival="230.00" arrivalLane="" arrivalPos="500.00" arrivalSpeed="27.80" duration="90.00" routeLength="2500.00" waitSteps="0" rerouteNo="0" devices="tripinfo_7" vType="DEFAULT_VEHTYPE" vaporized=""/>
    <tripinfo id="8" depart="160.00" departLane="" departPos="0.00" departSpeed="27.80" departDelay="0.00" arrival="250.00" arrivalLane="" arrivalPos="500.00" arrivalSpeed="27.80" duration="90.00" routeLength="2500.00" waitSteps="0" rerouteNo="0" devices="tripinfo_8" vType="DEFAULT_VEHTYPE" vaporized=""/>
    <tripinfo id="9" depart="180.00" departLane="" departPos="0.00" departSpeed="27.80" departDelay="0.00" arrival="270.00" arrivalLane="" arrivalPos="500.00" arrivalSpeed="27.80" duration="90.00" routeLength="2500.00" waitSteps="0" rerouteNo="0" devices="tripinfo_9" vType="DEFAULT_VEHTYPE" vaporized=""/>
</tripinfos>
