<?xml version="1.0" encoding="UTF-8"?>

<!-- generated on 2021-04-27 18:50:48 by Eclipse SUMO sumo Version v1_9_0+0241-6ea4f4b
This data file and the accompanying materials
are made available under the terms of the Eclipse Public License v2.0
which accompanies this distribution, and is available at
http://www.eclipse.org/legal/epl-v20.html
SPDX-License-Identifier: EPL-2.0
<configuration xmlns:xsi="http://www.w3.org/2001/XMLSchema-instance" xsi:noNamespaceSchemaLocation="http://sumo.dlr.de/xsd/sumoConfiguration.xsd">

    <input>
        <net-file value="net.net.xml"/>
        <route-files value="input_routes.rou.xml"/>
        <additional-files value="input_additional.add.xml"/>
    </input>

    <output>
        <write-license value="true"/>
        <tripinfo-output value="tripinfos.xml"/>
        <vehroute-output value="vehroutes.xml"/>
    </output>

    <processing>
        <default.speeddev value="0"/>
        <pedestrian.model value="nonInteracting"/>
    </processing>

    <report>
        <xml-validation value="never"/>
        <xml-validation.routes value="never"/>
        <no-step-log value="true"/>
    </report>

</configuration>
-->

<routes xmlns:xsi="http://www.w3.org/2001/XMLSchema-instance" xsi:noNamespaceSchemaLocation="http://sumo.dlr.de/xsd/routes_file.xsd">
    <vehicle id="v0" depart="triggered" arrival="159.00">
        <route edges="a b c d"/>
        <stop edge="c" endPos="50.00" duration="60.00" parking="1"/>
        <stop edge="d" endPos="32.00" duration="60.00" parking="1"/>
    </vehicle>

    <person id="person0" depart="0.00" departPos="80.00">
        <ride from="a" to="e" busStop="stopE" lines="v0"/>
        <ride from="e" to="e" lines="train"/>
    </person>

</routes>
