<?xml version="1.0" encoding="UTF-8"?>

<!-- generated on 2025-05-07 11:37:16 by Eclipse SUMO sumo Version v1_23_0+0031-6071c93c3d8
This data file and the accompanying materials
are made available under the terms of the Eclipse Public License v2.0
which accompanies this distribution, and is available at
http://www.eclipse.org/legal/epl-v20.html
This file may also be made available under the following Secondary
Licenses when the conditions for such availability set forth in the Eclipse
Public License 2.0 are satisfied: GNU General Public License, version 2
or later which is available at
https://www.gnu.org/licenses/old-licenses/gpl-2.0-standalone.html
SPDX-License-Identifier: EPL-2.0 OR GPL-2.0-or-later
<sumoConfiguration xmlns:xsi="http://www.w3.org/2001/XMLSchema-instance" xsi:noNamespaceSchemaLocation="http://sumo.dlr.de/xsd/sumoConfiguration.xsd">

    <input>
        <net-file value="net.net.xml"/>
        <route-files value="input_routes2.rou.xml"/>
        <additional-files value="input_additional.add.xml,input_additional2.add.xml,input_routes.rou.xml"/>
    </input>

    <output>
        <write-license value="true"/>
        <tripinfo-output value="tripinfos.xml"/>
        <vehroute-output value="vehroutes.xml"/>
        <railsignal-block-output value="railsignal_blocks.xml"/>
    </output>

    <processing>
        <time-to-teleport value="1800"/>
        <time-to-teleport.railsignal-deadlock value="200"/>
        <default.speeddev value="0"/>
    </processing>

    <report>
        <xml-validation value="never"/>
        <no-step-log value="true"/>
    </report>

</sumoConfiguration>
-->

<tripinfos xmlns:xsi="http://www.w3.org/2001/XMLSchema-instance" xsi:noNamespaceSchemaLocation="http://sumo.dlr.de/xsd/tripinfo_file.xsd">
    <tripinfo id="blocker" depart="0.00" departLane="E5_0" departPos="80.00" departSpeed="0.00" departDelay="0.00" arrival="657.00" arrivalLane="E9_0" arrivalPos="100.00" arrivalSpeed="14.50" duration="657.00" routeLength="420.21" waitingTime="0.00" waitingCount="0" stopTime="599.00" timeLoss="48.38" rerouteNo="0" devices="vehroute_blocker tripinfo_blocker" vType="train" speedFactor="1.00" vaporized=""/>
    <tripinfo id="v0" depart="5.00" departLane="E2_0" departPos="50.10" departSpeed="44.44" departDelay="0.00" arrival="743.00" arrivalLane="E9_0" arrivalPos="100.00" arrivalSpeed="14.25" duration="738.00" routeLength="1650.32" waitingTime="580.00" waitingCount="1" stopTime="10.00" timeLoss="690.59" rerouteNo="0" devices="vehroute_v0 tripinfo_v0" vType="train" speedFactor="1.00" vaporized=""/>
</tripinfos>
