<?xml version="1.0" encoding="UTF-8"?>

<!-- generated on 03/05/14 13:15:26 by SUMO sumo Version dev-SVN-r15814
<?xml version="1.0" encoding="UTF-8"?>

<configuration xmlns:xsi="http://www.w3.org/2001/XMLSchema-instance" xsi:noNamespaceSchemaLocation="http://sumo-sim.org/xsd/sumoConfiguration.xsd">

    <input>
        <net-file value="net.net.xml"/>
        <route-files value="input_routes.rou.xml"/>
    </input>

    <output>
        <tripinfo-output value="tripinfos.xml"/>
    </output>

    <time>
        <begin value="0"/>
        <end value="1000"/>
    </time>

    <report>
        <xml-validation value="never"/>
        <no-duration-log value="true"/>
        <no-step-log value="true"/>
    </report>

</configuration>
-->

<tripinfos xmlns:xsi="http://www.w3.org/2001/XMLSchema-instance" xsi:noNamespaceSchemaLocation="http://sumo-sim.org/xsd/tripinfo_file.xsd">
    <tripinfo id="0" depart="0.00" departLane="beg_0" departPos="5.10" departSpeed="0.00" departDelay="0.00" arrival="143.00" arrivalLane="rend_0" arrivalPos="500.00" arrivalSpeed="27.78" duration="143.00" routeLength="2482.50" waitSteps="0" rerouteNo="0" devices="tripinfo_0" vType="DEFAULT_VEHTYPE" vaporized=""/>
    <tripinfo id="1" depart="10.00" departLane="beg_0" departPos="5.10" departSpeed="0.00" departDelay="0.00" arrival="152.00" arrivalLane="rend_0" arrivalPos="500.00" arrivalSpeed="27.54" duration="142.00" routeLength="2482.50" waitSteps="0" rerouteNo="0" devices="tripinfo_1" vType="DEFAULT_VEHTYPE" vaporized=""/>
    <tripinfo id="2" depart="20.00" departLane="beg_0" departPos="5.10" departSpeed="0.00" departDelay="0.00" arrival="163.00" arrivalLane="rend_0" arrivalPos="500.00" arrivalSpeed="26.53" duration="143.00" routeLength="2482.50" waitSteps="0" rerouteNo="0" devices="tripinfo_2" vType="DEFAULT_VEHTYPE" vaporized=""/>
    <tripinfo id="3" depart="30.00" departLane="beg_0" departPos="5.10" departSpeed="0.00" departDelay="0.00" arrival="172.00" arrivalLane="rend_0" arrivalPos="500.00" arrivalSpeed="26.83" duration="142.00" routeLength="2482.50" waitSteps="0" rerouteNo="0" devices="tripinfo_3" vType="DEFAULT_VEHTYPE" vaporized=""/>
    <tripinfo id="4" depart="40.00" departLane="beg_0" departPos="5.10" departSpeed="0.00" departDelay="0.00" arrival="182.00" arrivalLane="rend_0" arrivalPos="500.00" arrivalSpeed="26.84" duration="142.00" routeLength="2482.50" waitSteps="0" rerouteNo="0" devices="tripinfo_4" vType="DEFAULT_VEHTYPE" vaporized=""/>
    <tripinfo id="5" depart="50.00" departLane="beg_0" departPos="5.10" departSpeed="0.00" departDelay="0.00" arrival="192.00" arrivalLane="rend_0" arrivalPos="500.00" arrivalSpeed="26.73" duration="142.00" routeLength="2482.50" waitSteps="0" rerouteNo="0" devices="tripinfo_5" vType="DEFAULT_VEHTYPE" vaporized=""/>
    <tripinfo id="6" depart="60.00" departLane="beg_0" departPos="5.10" departSpeed="0.00" departDelay="0.00" arrival="204.00" arrivalLane="rend_0" arrivalPos="500.00" arrivalSpeed="27.14" duration="144.00" routeLength="2482.50" waitSteps="0" rerouteNo="0" devices="tripinfo_6" vType="DEFAULT_VEHTYPE" vaporized=""/>
    <tripinfo id="7" depart="70.00" departLane="beg_0" departPos="5.10" departSpeed="0.00" departDelay="0.00" arrival="214.00" arrivalLane="rend_0" arrivalPos="500.00" arrivalSpeed="26.73" duration="144.00" routeLength="2482.50" waitSteps="0" rerouteNo="0" devices="tripinfo_7" vType="DEFAULT_VEHTYPE" vaporized=""/>
    <tripinfo id="8" depart="80.00" departLane="beg_0" departPos="5.10" departSpeed="0.00" departDelay="0.00" arrival="223.00" arrivalLane="rend_0" arrivalPos="500.00" arrivalSpeed="26.83" duration="143.00" routeLength="2482.50" waitSteps="0" rerouteNo="0" devices="tripinfo_8" vType="DEFAULT_VEHTYPE" vaporized=""/>
    <tripinfo id="9" depart="90.00" departLane="beg_0" departPos="5.10" departSpeed="0.00" departDelay="0.00" arrival="234.00" arrivalLane="rend_0" arrivalPos="500.00" arrivalSpeed="27.64" duration="144.00" routeLength="2482.50" waitSteps="0" rerouteNo="0" devices="tripinfo_9" vType="DEFAULT_VEHTYPE" vaporized=""/>
</tripinfos>
