<?xml version="1.0"?>

<!-- generated on 10/21/09 17:55:13 by SUMO sumo Version dev-SVN-r7871
<configuration>

    <input>
        <net-file value="net.net.xml"/>
        <route-files value="input_routes.rou.xml"/>
    </input>

    <output>
        <tripinfo-output value="tripinfos.xml"/>
    </output>

    <time>
        <begin value="0"/>
        <end value="1000"/>
    </time>

    <report>
        <no-duration-log value="true"/>
        <no-step-log value="true"/>
    </report>

    <mesoscopic>
        <mesosim value="true"/>
    </mesoscopic>

</configuration>
-->

<tripinfos>
    <tripinfo id="0" depart="0" departLane="" departPos="0.00" departSpeed="0.00" departDelay="0" arrival="106" arrivalLane="" arrivalPos="" arrivalSpeed="" duration="106" routeLength="2487.60" waitSteps="0" rerouteNo="0" devices="" vtype="DEFAULT_VEHTYPE" vaporized=""></tripinfo>
    <tripinfo id="1" depart="10" departLane="" departPos="0.00" departSpeed="0.00" departDelay="0" arrival="116" arrivalLane="" arrivalPos="" arrivalSpeed="" duration="106" routeLength="2487.60" waitSteps="0" rerouteNo="0" devices="" vtype="DEFAULT_VEHTYPE" vaporized=""></tripinfo>
    <tripinfo id="2" depart="20" departLane="" departPos="0.00" departSpeed="0.00" departDelay="0" arrival="126" arrivalLane="" arrivalPos="" arrivalSpeed="" duration="106" routeLength="2487.60" waitSteps="0" rerouteNo="0" devices="" vtype="DEFAULT_VEHTYPE" vaporized=""></tripinfo>
    <tripinfo id="3" depart="30" departLane="" departPos="0.00" departSpeed="0.00" departDelay="0" arrival="136" arrivalLane="" arrivalPos="" arrivalSpeed="" duration="106" routeLength="2487.60" waitSteps="0" rerouteNo="0" devices="" vtype="DEFAULT_VEHTYPE" vaporized=""></tripinfo>
    <tripinfo id="4" depart="40" departLane="" departPos="0.00" departSpeed="0.00" departDelay="0" arrival="146" arrivalLane="" arrivalPos="" arrivalSpeed="" duration="106" routeLength="2487.60" waitSteps="0" rerouteNo="0" devices="" vtype="DEFAULT_VEHTYPE" vaporized=""></tripinfo>
    <tripinfo id="5" depart="50" departLane="" departPos="0.00" departSpeed="0.00" departDelay="0" arrival="156" arrivalLane="" arrivalPos="" arrivalSpeed="" duration="106" routeLength="2487.60" waitSteps="0" rerouteNo="0" devices="" vtype="DEFAULT_VEHTYPE" vaporized=""></tripinfo>
    <tripinfo id="6" depart="60" departLane="" departPos="0.00" departSpeed="0.00" departDelay="0" arrival="166" arrivalLane="" arrivalPos="" arrivalSpeed="" duration="106" routeLength="2487.60" waitSteps="0" rerouteNo="0" devices="" vtype="DEFAULT_VEHTYPE" vaporized=""></tripinfo>
    <tripinfo id="7" depart="70" departLane="" departPos="0.00" departSpeed="0.00" departDelay="0" arrival="176" arrivalLane="" arrivalPos="" arrivalSpeed="" duration="106" routeLength="2487.60" waitSteps="0" rerouteNo="0" devices="" vtype="DEFAULT_VEHTYPE" vaporized=""></tripinfo>
    <tripinfo id="8" depart="80" departLane="" departPos="0.00" departSpeed="0.00" departDelay="0" arrival="186" arrivalLane="" arrivalPos="" arrivalSpeed="" duration="106" routeLength="2487.60" waitSteps="0" rerouteNo="0" devices="" vtype="DEFAULT_VEHTYPE" vaporized=""></tripinfo>
    <tripinfo id="9" depart="90" departLane="" departPos="0.00" departSpeed="0.00" departDelay="0" arrival="196" arrivalLane="" arrivalPos="" arrivalSpeed="" duration="106" routeLength="2487.60" waitSteps="0" rerouteNo="0" devices="" vtype="DEFAULT_VEHTYPE" vaporized=""></tripinfo>
</tripinfos>
