<?xml version="1.0" encoding="UTF-8"?>

<!-- generated on Sun Dec  9 23:21:43 2018 by Eclipse SUMO Version eeef47f
This data file and the accompanying materials
are made available under the terms of the Eclipse Public License v2.0
which accompanies this distribution, and is available at
http://www.eclipse.org/legal/epl-v20.html
SPDX-License-Identifier: EPL-2.0
<configuration xmlns:xsi="http://www.w3.org/2001/XMLSchema-instance" xsi:noNamespaceSchemaLocation="https://sumo.dlr.de/xsd/sumoConfiguration.xsd">

    <input>
        <net-file value="net.net.xml"/>
        <route-files value="input_routes.rou.xml"/>
        <additional-files value="input_additional.add.xml"/>
    </input>

    <output>
        <write-license value="true"/>
        <tripinfo-output value="tripinfos.xml"/>
        <stop-output value="stopinfos.xml"/>
    </output>

    <processing>
        <default.speeddev value="0"/>
    </processing>

    <report>
        <xml-validation value="never"/>
        <duration-log.disable value="true"/>
        <no-step-log value="true"/>
    </report>

</configuration>
-->

<tripinfos xmlns:xsi="http://www.w3.org/2001/XMLSchema-instance" xsi:noNamespaceSchemaLocation="https://sumo.dlr.de/xsd/tripinfo_file.xsd">
    <tripinfo id="flow1.3" depart="15.00" departLane="a_0" departPos="5.10" departSpeed="0.00" departDelay="0.00" arrival="244.00" arrivalLane="a_1" arrivalPos="304.81" arrivalSpeed="13.89" duration="229.00" routeLength="299.71" waitingTime="0.00" waitingCount="0" stopTime="201.00" timeLoss="6.32" rerouteNo="0" devices="tripinfo_flow1.3" vType="DEFAULT_VEHTYPE" speedFactor="1.00" vaporized=""/>
    <tripinfo id="flow1.2" depart="10.00" departLane="a_0" departPos="5.10" departSpeed="0.00" departDelay="0.00" arrival="246.00" arrivalLane="a_1" arrivalPos="304.81" arrivalSpeed="13.89" duration="236.00" routeLength="299.71" waitingTime="6.00" waitingCount="1" stopTime="201.00" timeLoss="12.86" rerouteNo="0" devices="tripinfo_flow1.2" vType="DEFAULT_VEHTYPE" speedFactor="1.00" vaporized=""/>
    <tripinfo id="flow1.4" depart="20.00" departLane="a_0" departPos="5.10" departSpeed="0.00" departDelay="0.00" arrival="249.00" arrivalLane="a_0" arrivalPos="304.81" arrivalSpeed="13.89" duration="229.00" routeLength="299.71" waitingTime="0.00" waitingCount="0" stopTime="201.00" timeLoss="5.56" rerouteNo="0" devices="tripinfo_flow1.4" vType="DEFAULT_VEHTYPE" speedFactor="1.00" vaporized=""/>
    <tripinfo id="flow1.1" depart="5.00" departLane="a_0" departPos="5.10" departSpeed="0.00" departDelay="0.00" arrival="251.00" arrivalLane="a_0" arrivalPos="304.81" arrivalSpeed="13.89" duration="246.00" routeLength="299.71" waitingTime="16.00" waitingCount="2" stopTime="201.00" timeLoss="23.36" rerouteNo="0" devices="tripinfo_flow1.1" vType="DEFAULT_VEHTYPE" speedFactor="1.00" vaporized=""/>
    <tripinfo id="flow1.0" depart="0.00" departLane="a_0" departPos="5.10" departSpeed="0.00" departDelay="0.00" arrival="255.00" arrivalLane="a_1" arrivalPos="304.81" arrivalSpeed="13.89" duration="255.00" routeLength="299.71" waitingTime="24.00" waitingCount="1" stopTime="201.00" timeLoss="31.87" rerouteNo="0" devices="tripinfo_flow1.0" vType="DEFAULT_VEHTYPE" speedFactor="1.00" vaporized=""/>
    <tripinfo id="flow1.6" depart="30.00" departLane="a_0" departPos="5.10" departSpeed="0.00" departDelay="0.00" arrival="435.00" arrivalLane="a_1" arrivalPos="304.81" arrivalSpeed="13.89" duration="405.00" routeLength="299.71" waitingTime="172.00" waitingCount="1" stopTime="201.00" timeLoss="181.44" rerouteNo="0" devices="tripinfo_flow1.6" vType="DEFAULT_VEHTYPE" speedFactor="1.00" vaporized=""/>
    <tripinfo id="flow1.5" depart="25.00" departLane="a_0" departPos="5.10" departSpeed="0.00" departDelay="0.00" arrival="455.00" arrivalLane="a_0" arrivalPos="304.81" arrivalSpeed="13.89" duration="430.00" routeLength="299.71" waitingTime="201.00" waitingCount="1" stopTime="201.00" timeLoss="207.33" rerouteNo="0" devices="tripinfo_flow1.5" vType="DEFAULT_VEHTYPE" speedFactor="1.00" vaporized=""/>
</tripinfos>
