<?xml version="1.0"?>

<!-- generated on 02/15/12 11:30:29 by SUMO sumo Version dev-SVN-r11891
<?xml version="1.0" encoding="UTF-8"?>

<configuration xmlns:xsi="http://www.w3.org/2001/XMLSchema-instance" xsi:noNamespaceSchemaLocation="http://sumo.sf.net/xsd/sumoConfiguration.xsd">

    <input>
        <net-file value="net.net.xml"/>
        <route-files value="input_routes.rou.xml"/>
    </input>

    <output>
        <vehroute-output value="vehroutes.xml"/>
    </output>

    <time>
        <begin value="0"/>
    </time>

    <processing>
        <scale value="0.5"/>
    </processing>

    <report>
        <no-duration-log value="true"/>
        <no-step-log value="true"/>
    </report>

</configuration>
-->

<routes>
    <vehicle id="horizontal01" depart="100.00" arrival="292.00">
        <route edges="2fi 2si 1o 1fi 1si 2o 2fi"/>
    </vehicle>

    <vehicle id="horizontal03" depart="103.00" arrival="295.00">
        <route edges="2fi 2si 1o 1fi 1si 2o 2fi"/>
    </vehicle>

    <vehicle id="horizontal05" depart="106.00" arrival="298.00">
        <route edges="2fi 2si 1o 1fi 1si 2o 2fi"/>
    </vehicle>

    <vehicle id="horizontal07" depart="109.00" arrival="301.00">
        <route edges="2fi 2si 1o 1fi 1si 2o 2fi"/>
    </vehicle>

    <vehicle id="horizontal09" depart="112.00" arrival="304.00">
        <route edges="2fi 2si 1o 1fi 1si 2o 2fi"/>
    </vehicle>

</routes>
