<?xml version="1.0"?>

<!-- generated on 09/18/07 16:54:06 by SUMO sumo Version 0.9.6
<configuration>

   <input>
      <net-file>net.net.xml</net-file>
      <route-files>input_routes.rou.xml</route-files>
   </input>

   <output>
      <vehroute-output>vehroutes.xml</vehroute-output>
   </output>

   <time>
      <begin>0</begin>
   </time>

   <processing>
      <incremental-dua-step>5</incremental-dua-step>
      <no-duration-log>true</no-duration-log>
      <no-step-log>true</no-step-log>
   </processing>

</configuration>
-->

<vehicleroutes>
   <vehicle id="horizontal25" emittedAt="100" endedAt="332">
      <route>2fi 2si 1o 1fi 1si 2o 2fi</route>
   </vehicle>

   <vehicle id="horizontal24" emittedAt="100" endedAt="334">
      <route>2fi 2si 1o 1fi 1si 2o 2fi</route>
   </vehicle>

   <vehicle id="horizontal23" emittedAt="100" endedAt="335">
      <route>2fi 2si 1o 1fi 1si 2o 2fi</route>
   </vehicle>

   <vehicle id="horizontal22" emittedAt="100" endedAt="337">
      <route>2fi 2si 1o 1fi 1si 2o 2fi</route>
   </vehicle>

   <vehicle id="horizontal21" emittedAt="100" endedAt="339">
      <route>2fi 2si 1o 1fi 1si 2o 2fi</route>
   </vehicle>

   <vehicle id="horizontal15" emittedAt="100" endedAt="340">
      <route>2fi 2si 1o 1fi 1si 2o 2fi</route>
   </vehicle>

   <vehicle id="horizontal14" emittedAt="100" endedAt="342">
      <route>2fi 2si 1o 1fi 1si 2o 2fi</route>
   </vehicle>

   <vehicle id="horizontal13" emittedAt="100" endedAt="343">
      <route>2fi 2si 1o 1fi 1si 2o 2fi</route>
   </vehicle>

   <vehicle id="horizontal12" emittedAt="100" endedAt="394">
      <route>2fi 2si 1o 1fi 1si 2o 2fi</route>
   </vehicle>

   <vehicle id="horizontal11" emittedAt="100" endedAt="397">
      <route>2fi 2si 1o 1fi 1si 2o 2fi</route>
   </vehicle>

   <vehicle id="horizontal05" emittedAt="100" endedAt="399">
      <route>2fi 2si 1o 1fi 1si 2o 2fi</route>
   </vehicle>

   <vehicle id="horizontal04" emittedAt="100" endedAt="400">
      <route>2fi 2si 1o 1fi 1si 2o 2fi</route>
   </vehicle>

   <vehicle id="horizontal03" emittedAt="100" endedAt="402">
      <route>2fi 2si 1o 1fi 1si 2o 2fi</route>
   </vehicle>

   <vehicle id="horizontal02" emittedAt="100" endedAt="404">
      <route>2fi 2si 1o 1fi 1si 2o 2fi</route>
   </vehicle>

   <vehicle id="horizontal01" emittedAt="100" endedAt="405">
      <route>2fi 2si 1o 1fi 1si 2o 2fi</route>
   </vehicle>

</vehicleroutes>
