<?xml version="1.0"?>

<!-- generated on 02/06/08 16:39:14 by SUMO sumo Version dev-SVN-r5032
<configuration>

   <input>
      <net-file>net.net.xml</net-file>
      <route-files>input_routes.rou.xml</route-files>
   </input>

   <output>
      <vehroute-output>vehroutes.xml</vehroute-output>
   </output>

   <time>
      <begin>0</begin>
   </time>

   <processing>
      <incremental-dua-step>5</incremental-dua-step>
      <no-duration-log>true</no-duration-log>
      <no-step-log>true</no-step-log>
   </processing>

</configuration>
-->

<vehicleroutes>
   <vehicle id="horizontal05" emittedAt="100" endedAt="332">
      <route>2fi 2si 1o 1fi 1si 2o 2fi</route>
   </vehicle>

   <vehicle id="horizontal04" emittedAt="100" endedAt="334">
      <route>2fi 2si 1o 1fi 1si 2o 2fi</route>
   </vehicle>

   <vehicle id="horizontal03" emittedAt="100" endedAt="336">
      <route>2fi 2si 1o 1fi 1si 2o 2fi</route>
   </vehicle>

   <vehicle id="horizontal02" emittedAt="100" endedAt="339">
      <route>2fi 2si 1o 1fi 1si 2o 2fi</route>
   </vehicle>

   <vehicle id="horizontal01" emittedAt="100" endedAt="340">
      <route>2fi 2si 1o 1fi 1si 2o 2fi</route>
   </vehicle>

</vehicleroutes>
