<?xml version="1.0" encoding="UTF-8"?>

<!-- generated on Tue Sep 11 16:29:07 2018 by Eclipse SUMO Version v1_0_0+0099-3e104b6
This data file and the accompanying materials
are made available under the terms of the Eclipse Public License v2.0
which accompanies this distribution, and is available at
http://www.eclipse.org/legal/epl-v20.html
SPDX-License-Identifier: EPL-2.0
<configuration xmlns:xsi="http://www.w3.org/2001/XMLSchema-instance" xsi:noNamespaceSchemaLocation="http://sumo.dlr.de/xsd/sumoConfiguration.xsd">

    <input>
        <net-file value="motorway.net.xml"/>
        <route-files value="input_routes.rou.xml"/>
        <additional-files value="input_additional.add.xml"/>
    </input>

    <output>
        <write-license value="true"/>
    </output>

    <processing>
        <max-depart-delay value="1"/>
        <default.speeddev value="0"/>
    </processing>

    <report>
        <verbose value="true"/>
        <xml-validation value="never"/>
        <duration-log.statistics value="true"/>
        <no-step-log value="true"/>
    </report>

</configuration>
-->

<meandata xmlns:xsi="http://www.w3.org/2001/XMLSchema-instance" xsi:noNamespaceSchemaLocation="http://sumo.dlr.de/xsd/meandata_file.xsd">
    <interval begin="0.00" end="1107.00" id="laneData">
        <edge id="beg2">
            <lane id="beg2_0" sampledSeconds="17781.54" traveltime="105.92" overlapTraveltime="106.06" density="5.36" occupancy="2.68" waitingTime="1515.00" speed="28.31" departed="199" arrived="223" entered="0" left="0" laneChangedFrom="242" laneChangedTo="266"/>
            <lane id="beg2_1" sampledSeconds="16313.10" traveltime="110.25" overlapTraveltime="110.41" density="4.92" occupancy="2.46" waitingTime="165.00" speed="27.19" departed="117" arrived="93" entered="0" left="0" laneChangedFrom="266" laneChangedTo="242"/>
        </edge>
    </interval>
</meandata>
