<?xml version="1.0" encoding="UTF-8"?>

<!-- generated on Wed Jan 30 09:02:25 2019 by Eclipse SUMO Version v1_0_1+0645-93703db
This data file and the accompanying materials
are made available under the terms of the Eclipse Public License v2.0
which accompanies this distribution, and is available at
http://www.eclipse.org/legal/epl-v20.html
SPDX-License-Identifier: EPL-2.0
<configuration xmlns:xsi="http://www.w3.org/2001/XMLSchema-instance" xsi:noNamespaceSchemaLocation="https://sumo.dlr.de/xsd/sumoConfiguration.xsd">

    <input>
        <net-file value="motorway.net.xml"/>
        <route-files value="input_routes.rou.xml"/>
        <additional-files value="input_additional.add.xml"/>
    </input>

    <output>
        <write-license value="true"/>
    </output>

    <processing>
        <max-depart-delay value="1"/>
        <default.speeddev value="0"/>
    </processing>

    <report>
        <verbose value="true"/>
        <xml-validation value="never"/>
        <duration-log.statistics value="true"/>
        <no-step-log value="true"/>
    </report>

</configuration>
-->

<meandata xmlns:xsi="http://www.w3.org/2001/XMLSchema-instance" xsi:noNamespaceSchemaLocation="https://sumo.dlr.de/xsd/meandata_file.xsd">
    <interval begin="0.00" end="1098.00" id="laneData">
        <edge id="beg2">
            <lane id="beg2_0" sampledSeconds="17197.35" traveltime="103.85" overlapTraveltime="103.99" density="5.23" occupancy="2.61" waitingTime="1389.00" speed="28.87" departed="199" arrived="218" entered="0" left="0" laneChangedFrom="246" laneChangedTo="265"/>
            <lane id="beg2_1" sampledSeconds="16255.60" traveltime="108.19" overlapTraveltime="108.34" density="4.94" occupancy="2.47" waitingTime="131.00" speed="27.71" departed="117" arrived="98" entered="0" left="0" laneChangedFrom="265" laneChangedTo="246"/>
        </edge>
    </interval>
</meandata>
