<?xml version="1.0" encoding="UTF-8"?>

<!-- generated on Wed May 30 16:37:27 2018 by Eclipse SUMO Version 5abbe2f
This data file and the accompanying materials
are made available under the terms of the Eclipse Public License v2.0
which accompanies this distribution, and is available at
http://www.eclipse.org/legal/epl-v20.html
SPDX-License-Identifier: EPL-2.0
<configuration xmlns:xsi="http://www.w3.org/2001/XMLSchema-instance" xsi:noNamespaceSchemaLocation="http://sumo.dlr.de/xsd/sumoConfiguration.xsd">

    <input>
        <net-file value="motorway.net.xml"/>
        <route-files value="input_routes.rou.xml"/>
        <additional-files value="input_additional.add.xml"/>
    </input>

    <output>
        <write-license value="true"/>
    </output>

    <processing>
        <max-depart-delay value="1"/>
    </processing>

    <report>
        <verbose value="true"/>
        <xml-validation value="never"/>
        <duration-log.statistics value="true"/>
        <no-step-log value="true"/>
    </report>

</configuration>
-->

<meandata xmlns:xsi="http://www.w3.org/2001/XMLSchema-instance" xsi:noNamespaceSchemaLocation="http://sumo.dlr.de/xsd/meandata_file.xsd">
    <interval begin="0.00" end="1115.00" id="laneData">
        <edge id="beg2">
            <lane id="beg2_0" sampledSeconds="17899.54" traveltime="150.88" overlapTraveltime="150.96" density="5.36" occupancy="2.68" waitingTime="3104.00" speed="19.89" departed="198" arrived="202" entered="0" left="0" laneChangedFrom="210" laneChangedTo="214"/>
            <lane id="beg2_1" sampledSeconds="16237.87" traveltime="170.36" overlapTraveltime="170.52" density="4.86" occupancy="2.43" waitingTime="1338.00" speed="17.61" departed="88" arrived="84" entered="0" left="0" laneChangedFrom="214" laneChangedTo="210"/>
        </edge>
    </interval>
</meandata>
