<?xml version="1.0"?>

<!-- generated on 04/26/10 10:09:56 by SUMO sumo Version dev-SVN-r8163
<configuration>

    <input>
        <net-file value="three_split.net.xml"/>
        <additional-files value="input_routes.rou.xml,input_additional.add.xml"/>
    </input>

    <output>
        <vehroute-output value="vehroutes.xml"/>
    </output>

    <report>
        <no-duration-log value="true"/>
        <no-step-log value="true"/>
    </report>

</configuration>
-->

<routes>
    <vehicle id="0.0" depart="0.00" arrival="132.00">
        <routeDistribution>
            <route replacedOnEdge="beg" replacedAtTime="0.00" probability="0" edges="beg middle end rend"/>
            <route edges="beg beg2left left left2end"/>
        </routeDistribution>
    </vehicle>

    <vehicle id="0.1" depart="20.00" arrival="152.00">
        <routeDistribution>
            <route replacedOnEdge="beg" replacedAtTime="20.00" probability="0" edges="beg middle end rend"/>
            <route edges="beg beg2left left left2end"/>
        </routeDistribution>
    </vehicle>

    <vehicle id="0.2" depart="40.00" arrival="172.00">
        <routeDistribution>
            <route replacedOnEdge="beg" replacedAtTime="40.00" probability="0" edges="beg middle end rend"/>
            <route edges="beg beg2left left left2end"/>
        </routeDistribution>
    </vehicle>

    <vehicle id="0.3" depart="60.00" arrival="192.00">
        <routeDistribution>
            <route replacedOnEdge="beg" replacedAtTime="60.00" probability="0" edges="beg middle end rend"/>
            <route edges="beg beg2left left left2end"/>
        </routeDistribution>
    </vehicle>

    <vehicle id="0.4" depart="80.00" arrival="212.00">
        <routeDistribution>
            <route replacedOnEdge="beg" replacedAtTime="80.00" probability="0" edges="beg middle end rend"/>
            <route edges="beg beg2left left left2end"/>
        </routeDistribution>
    </vehicle>

    <vehicle id="0.5" depart="100.00" arrival="232.00">
        <routeDistribution>
            <route replacedOnEdge="beg" replacedAtTime="100.00" probability="0" edges="beg middle end rend"/>
            <route edges="beg beg2left left left2end"/>
        </routeDistribution>
    </vehicle>

    <vehicle id="0.6" depart="120.00" arrival="252.00">
        <routeDistribution>
            <route replacedOnEdge="beg" replacedAtTime="120.00" probability="0" edges="beg middle end rend"/>
            <route edges="beg beg2left left left2end"/>
        </routeDistribution>
    </vehicle>

    <vehicle id="0.7" depart="140.00" arrival="272.00">
        <routeDistribution>
            <route replacedOnEdge="beg" replacedAtTime="140.00" probability="0" edges="beg middle end rend"/>
            <route edges="beg beg2left left left2end"/>
        </routeDistribution>
    </vehicle>

    <vehicle id="0.8" depart="160.00" arrival="292.00">
        <routeDistribution>
            <route replacedOnEdge="beg" replacedAtTime="160.00" probability="0" edges="beg middle end rend"/>
            <route edges="beg beg2left left left2end"/>
        </routeDistribution>
    </vehicle>

    <vehicle id="0.9" depart="180.00" arrival="312.00">
        <routeDistribution>
            <route replacedOnEdge="beg" replacedAtTime="180.00" probability="0" edges="beg middle end rend"/>
            <route edges="beg beg2left left left2end"/>
        </routeDistribution>
    </vehicle>

    <vehicle id="0.10" depart="200.00" arrival="332.00">
        <routeDistribution>
            <route replacedOnEdge="beg" replacedAtTime="200.00" probability="0" edges="beg middle end rend"/>
            <route edges="beg beg2left left left2end"/>
        </routeDistribution>
    </vehicle>

</routes>
