<?xml version="1.0"?>

<!-- generated on 03/14/08 13:56:06 by SUMO sumo Version 0.9.7
<configuration>

   <input>
      <net-file>three_split.net.xml</net-file>
      <additional-files>input_routes.rou.xml,input_additional.add.xml</additional-files>
   </input>

   <output>
      <vehroute-output>vehroutes.xml</vehroute-output>
   </output>

   <processing>
      <no-duration-log>true</no-duration-log>
      <no-step-log>true</no-step-log>
   </processing>

</configuration>
-->

<vehicleroutes>
   <vehicle id="0" emittedAt="0" endedAt="132">
      <route replacedOnEdge="beg"  replacedAtTime="0">beg middle end rend</route>

      <route>beg beg2left left left2end</route>
   </vehicle>

   <vehicle id="0_0" emittedAt="20" endedAt="152">
      <route replacedOnEdge="beg"  replacedAtTime="20">beg middle end rend</route>

      <route>beg beg2left left left2end</route>
   </vehicle>

   <vehicle id="0_1" emittedAt="40" endedAt="172">
      <route replacedOnEdge="beg"  replacedAtTime="40">beg middle end rend</route>

      <route>beg beg2left left left2end</route>
   </vehicle>

   <vehicle id="0_2" emittedAt="60" endedAt="192">
      <route replacedOnEdge="beg"  replacedAtTime="60">beg middle end rend</route>

      <route>beg beg2left left left2end</route>
   </vehicle>

   <vehicle id="0_3" emittedAt="80" endedAt="212">
      <route replacedOnEdge="beg"  replacedAtTime="80">beg middle end rend</route>

      <route>beg beg2left left left2end</route>
   </vehicle>

   <vehicle id="0_4" emittedAt="100" endedAt="232">
      <route replacedOnEdge="beg"  replacedAtTime="100">beg middle end rend</route>

      <route>beg beg2left left left2end</route>
   </vehicle>

   <vehicle id="0_5" emittedAt="120" endedAt="252">
      <route replacedOnEdge="beg"  replacedAtTime="120">beg middle end rend</route>

      <route>beg beg2left left left2end</route>
   </vehicle>

   <vehicle id="0_6" emittedAt="140" endedAt="272">
      <route replacedOnEdge="beg"  replacedAtTime="140">beg middle end rend</route>

      <route>beg beg2left left left2end</route>
   </vehicle>

   <vehicle id="0_7" emittedAt="160" endedAt="292">
      <route replacedOnEdge="beg"  replacedAtTime="160">beg middle end rend</route>

      <route>beg beg2left left left2end</route>
   </vehicle>

   <vehicle id="0_8" emittedAt="180" endedAt="312">
      <route replacedOnEdge="beg"  replacedAtTime="180">beg middle end rend</route>

      <route>beg beg2left left left2end</route>
   </vehicle>

   <vehicle id="0_9" emittedAt="200" endedAt="332">
      <route replacedOnEdge="beg"  replacedAtTime="200">beg middle end rend</route>

      <route>beg beg2left left left2end</route>
   </vehicle>

</vehicleroutes>
