<?xml version="1.0" encoding="UTF-8"?>

<!-- generated on 2025-09-25T13:45:31.328148+01:00 by Eclipse SUMO sumo v1_24_0+0988-90d076c371e
This data file and the accompanying materials
are made available under the terms of the Eclipse Public License v2.0
which accompanies this distribution, and is available at
http://www.eclipse.org/legal/epl-v20.html
This file may also be made available under the following Secondary
Licenses when the conditions for such availability set forth in the Eclipse
Public License 2.0 are satisfied: GNU General Public License, version 2
or later which is available at
https://www.gnu.org/licenses/old-licenses/gpl-2.0-standalone.html
SPDX-License-Identifier: EPL-2.0 OR GPL-2.0-or-later
<sumoConfiguration xmlns:xsi="http://www.w3.org/2001/XMLSchema-instance" xsi:noNamespaceSchemaLocation="http://sumo.dlr.de/xsd/sumoConfiguration.xsd">

    <input>
        <net-file value="net.net.xml"/>
        <route-files value="input_routes.rou.xml"/>
        <additional-files value="input_additional.add.xml,input_additional2.add.xml"/>
    </input>

    <output>
        <write-license value="true"/>
    </output>

    <processing>
        <default.speeddev value="0"/>
    </processing>

    <report>
        <xml-validation value="never"/>
        <duration-log.statistics value="true"/>
        <no-step-log value="true"/>
    </report>

</sumoConfiguration>
-->

<detector xmlns:xsi="http://www.w3.org/2001/XMLSchema-instance" xsi:noNamespaceSchemaLocation="http://sumo.dlr.de/xsd/det_e2_file.xsd">
   <interval begin="0.00" end="600.00" id="customDet1" sampledSeconds="54.51" nVehEntered="58" nVehLeft="58" nVehSeen="58" meanSpeed="15.53" meanTimeLoss="0.12" meanOccupancy="3.03" maxOccupancy="46.00" meanMaxJamLengthInVehicles="0.00" meanMaxJamLengthInMeters="0.00" maxJamLengthInVehicles="0" maxJamLengthInMeters="0.00" jamLengthInVehiclesSum="0" jamLengthInMetersSum="0.00" meanHaltingDuration="0.00" maxHaltingDuration="0.00" haltingDurationSum="0.00" meanIntervalHaltingDuration="0.00" maxIntervalHaltingDuration="0.00" intervalHaltingDurationSum="0.00" startedHalts="0.00" meanVehicleNumber="0.19" maxVehicleNumber="1" />
   <interval begin="0.00" end="600.00" id="customDet2" sampledSeconds="50.72" nVehEntered="54" nVehLeft="54" nVehSeen="54" meanSpeed="15.55" meanTimeLoss="0.12" meanOccupancy="2.50" maxOccupancy="46.00" meanMaxJamLengthInVehicles="0.00" meanMaxJamLengthInMeters="0.00" maxJamLengthInVehicles="0" maxJamLengthInMeters="0.00" jamLengthInVehiclesSum="0" jamLengthInMetersSum="0.00" meanHaltingDuration="0.00" maxHaltingDuration="0.00" haltingDurationSum="0.00" meanIntervalHaltingDuration="0.00" maxIntervalHaltingDuration="0.00" intervalHaltingDurationSum="0.00" startedHalts="0.00" meanVehicleNumber="0.17" maxVehicleNumber="1" />
   <interval begin="0.00" end="600.00" id="customDet3" sampledSeconds="708.84" nVehEntered="60" nVehLeft="58" nVehSeen="60" meanSpeed="1.06" meanTimeLoss="11.11" meanOccupancy="39.88" maxOccupancy="69.01" meanMaxJamLengthInVehicles="1.00" meanMaxJamLengthInMeters="4.56" maxJamLengthInVehicles="2" maxJamLengthInMeters="9.38" jamLengthInVehiclesSum="599" jamLengthInMetersSum="2733.62" meanHaltingDuration="75.88" maxHaltingDuration="93.00" haltingDurationSum="607.00" meanIntervalHaltingDuration="75.88" maxIntervalHaltingDuration="93.00" intervalHaltingDurationSum="607.00" startedHalts="10.00" meanVehicleNumber="1.28" maxVehicleNumber="2" />
   <interval begin="0.00" end="600.00" id="customDet4" sampledSeconds="596.22" nVehEntered="20" nVehLeft="18" nVehSeen="20" meanSpeed="0.32" meanTimeLoss="29.28" meanOccupancy="32.44" maxOccupancy="68.09" meanMaxJamLengthInVehicles="0.91" meanMaxJamLengthInMeters="4.09" maxJamLengthInVehicles="2" maxJamLengthInMeters="9.33" jamLengthInVehiclesSum="548" jamLengthInMetersSum="2451.63" meanHaltingDuration="55.80" maxHaltingDuration="89.00" haltingDurationSum="558.00" meanIntervalHaltingDuration="55.80" maxIntervalHaltingDuration="89.00" intervalHaltingDurationSum="558.00" startedHalts="10.00" meanVehicleNumber="1.01" maxVehicleNumber="2" />
   <interval begin="600.00" end="1200.00" id="customDet1" sampledSeconds="49.06" nVehEntered="52" nVehLeft="52" nVehSeen="52" meanSpeed="15.47" meanTimeLoss="0.13" meanOccupancy="2.48" maxOccupancy="46.00" meanMaxJamLengthInVehicles="0.00" meanMaxJamLengthInMeters="0.00" maxJamLengthInVehicles="0" maxJamLengthInMeters="0.00" jamLengthInVehiclesSum="0" jamLengthInMetersSum="0.00" meanHaltingDuration="0.00" maxHaltingDuration="0.00" haltingDurationSum="0.00" meanIntervalHaltingDuration="0.00" maxIntervalHaltingDuration="0.00" intervalHaltingDurationSum="0.00" startedHalts="0.00" meanVehicleNumber="0.17" maxVehicleNumber="1" />
   <interval begin="600.00" end="1200.00" id="customDet2" sampledSeconds="43.86" nVehEntered="47" nVehLeft="47" nVehSeen="47" meanSpeed="15.65" meanTimeLoss="0.12" meanOccupancy="2.49" maxOccupancy="46.00" meanMaxJamLengthInVehicles="0.00" meanMaxJamLengthInMeters="0.00" maxJamLengthInVehicles="0" maxJamLengthInMeters="0.00" jamLengthInVehiclesSum="0" jamLengthInMetersSum="0.00" meanHaltingDuration="0.00" maxHaltingDuration="0.00" haltingDurationSum="0.00" meanIntervalHaltingDuration="0.00" maxIntervalHaltingDuration="0.00" intervalHaltingDurationSum="0.00" startedHalts="0.00" meanVehicleNumber="0.15" maxVehicleNumber="1" />
   <interval begin="600.00" end="1200.00" id="customDet3" sampledSeconds="618.09" nVehEntered="50" nVehLeft="51" nVehSeen="52" meanSpeed="1.08" meanTimeLoss="11.17" meanOccupancy="34.12" maxOccupancy="68.21" meanMaxJamLengthInVehicles="0.86" meanMaxJamLengthInMeters="3.83" maxJamLengthInVehicles="2" maxJamLengthInMeters="9.33" jamLengthInVehiclesSum="516" jamLengthInMetersSum="2295.52" meanHaltingDuration="68.33" maxHaltingDuration="96.00" haltingDurationSum="615.00" meanIntervalHaltingDuration="58.11" maxIntervalHaltingDuration="95.00" intervalHaltingDurationSum="523.00" startedHalts="8.00" meanVehicleNumber="1.10" maxVehicleNumber="2" />
   <interval begin="600.00" end="1200.00" id="customDet4" sampledSeconds="509.01" nVehEntered="19" nVehLeft="20" nVehSeen="21" meanSpeed="0.39" meanTimeLoss="23.71" meanOccupancy="27.54" maxOccupancy="68.11" meanMaxJamLengthInVehicles="0.77" meanMaxJamLengthInMeters="3.46" maxJamLengthInVehicles="2" maxJamLengthInMeters="9.33" jamLengthInVehiclesSum="462" jamLengthInMetersSum="2073.14" meanHaltingDuration="55.10" maxHaltingDuration="90.00" haltingDurationSum="551.00" meanIntervalHaltingDuration="47.00" maxIntervalHaltingDuration="90.00" intervalHaltingDurationSum="470.00" startedHalts="8.00" meanVehicleNumber="0.87" maxVehicleNumber="2" />
   <interval begin="1200.00" end="1800.00" id="customDet1" sampledSeconds="55.21" nVehEntered="58" nVehLeft="58" nVehSeen="58" meanSpeed="15.34" meanTimeLoss="0.14" meanOccupancy="3.11" maxOccupancy="46.00" meanMaxJamLengthInVehicles="0.00" meanMaxJamLengthInMeters="0.00" maxJamLengthInVehicles="0" maxJamLengthInMeters="0.00" jamLengthInVehiclesSum="0" jamLengthInMetersSum="0.00" meanHaltingDuration="0.00" maxHaltingDuration="0.00" haltingDurationSum="0.00" meanIntervalHaltingDuration="0.00" maxIntervalHaltingDuration="0.00" intervalHaltingDurationSum="0.00" startedHalts="0.00" meanVehicleNumber="0.19" maxVehicleNumber="1" />
   <interval begin="1200.00" end="1800.00" id="customDet2" sampledSeconds="47.85" nVehEntered="51" nVehLeft="51" nVehSeen="51" meanSpeed="15.56" meanTimeLoss="0.12" meanOccupancy="2.46" maxOccupancy="46.00" meanMaxJamLengthInVehicles="0.00" meanMaxJamLengthInMeters="0.00" maxJamLengthInVehicles="0" maxJamLengthInMeters="0.00" jamLengthInVehiclesSum="0" jamLengthInMetersSum="0.00" meanHaltingDuration="0.00" maxHaltingDuration="0.00" haltingDurationSum="0.00" meanIntervalHaltingDuration="0.00" maxIntervalHaltingDuration="0.00" intervalHaltingDurationSum="0.00" startedHalts="0.00" meanVehicleNumber="0.17" maxVehicleNumber="1" />
   <interval begin="1200.00" end="1800.00" id="customDet3" sampledSeconds="176.00" nVehEntered="39" nVehLeft="40" nVehSeen="40" meanSpeed="3.06" meanTimeLoss="3.65" meanOccupancy="8.21" maxOccupancy="68.10" meanMaxJamLengthInVehicles="0.19" meanMaxJamLengthInMeters="0.57" maxJamLengthInVehicles="2" maxJamLengthInMeters="9.32" jamLengthInVehiclesSum="116" jamLengthInMetersSum="340.37" meanHaltingDuration="21.20" maxHaltingDuration="63.00" haltingDurationSum="106.00" meanIntervalHaltingDuration="18.20" maxIntervalHaltingDuration="48.00" intervalHaltingDurationSum="91.00" startedHalts="5.00" meanVehicleNumber="0.36" maxVehicleNumber="2" />
   <interval begin="1200.00" end="1800.00" id="customDet4" sampledSeconds="85.71" nVehEntered="7" nVehLeft="8" nVehSeen="8" meanSpeed="0.58" meanTimeLoss="10.37" meanOccupancy="3.54" maxOccupancy="68.09" meanMaxJamLengthInVehicles="0.12" meanMaxJamLengthInMeters="0.35" maxJamLengthInVehicles="2" maxJamLengthInMeters="9.33" jamLengthInVehiclesSum="75" jamLengthInMetersSum="211.73" meanHaltingDuration="27.33" maxHaltingDuration="53.00" haltingDurationSum="82.00" meanIntervalHaltingDuration="25.67" maxIntervalHaltingDuration="48.00" intervalHaltingDurationSum="77.00" startedHalts="2.00" meanVehicleNumber="0.15" maxVehicleNumber="2" />
   <interval begin="1800.00" end="2400.00" id="customDet1" sampledSeconds="54.29" nVehEntered="58" nVehLeft="58" nVehSeen="58" meanSpeed="15.60" meanTimeLoss="0.12" meanOccupancy="2.87" maxOccupancy="46.00" meanMaxJamLengthInVehicles="0.00" meanMaxJamLengthInMeters="0.00" maxJamLengthInVehicles="0" maxJamLengthInMeters="0.00" jamLengthInVehiclesSum="0" jamLengthInMetersSum="0.00" meanHaltingDuration="0.00" maxHaltingDuration="0.00" haltingDurationSum="0.00" meanIntervalHaltingDuration="0.00" maxIntervalHaltingDuration="0.00" intervalHaltingDurationSum="0.00" startedHalts="0.00" meanVehicleNumber="0.19" maxVehicleNumber="1" />
   <interval begin="1800.00" end="2400.00" id="customDet2" sampledSeconds="46.74" nVehEntered="50" nVehLeft="50" nVehSeen="50" meanSpeed="15.62" meanTimeLoss="0.12" meanOccupancy="2.31" maxOccupancy="46.00" meanMaxJamLengthInVehicles="0.00" meanMaxJamLengthInMeters="0.00" maxJamLengthInVehicles="0" maxJamLengthInMeters="0.00" jamLengthInVehiclesSum="0" jamLengthInMetersSum="0.00" meanHaltingDuration="0.00" maxHaltingDuration="0.00" haltingDurationSum="0.00" meanIntervalHaltingDuration="0.00" maxIntervalHaltingDuration="0.00" intervalHaltingDurationSum="0.00" startedHalts="0.00" meanVehicleNumber="0.16" maxVehicleNumber="1" />
   <interval begin="1800.00" end="2400.00" id="customDet3" sampledSeconds="354.72" nVehEntered="56" nVehLeft="55" nVehSeen="56" meanSpeed="2.08" meanTimeLoss="5.60" meanOccupancy="18.70" maxOccupancy="68.09" meanMaxJamLengthInVehicles="0.42" meanMaxJamLengthInMeters="1.69" maxJamLengthInVehicles="2" maxJamLengthInMeters="9.32" jamLengthInVehiclesSum="255" jamLengthInMetersSum="1012.95" meanHaltingDuration="29.33" maxHaltingDuration="68.00" haltingDurationSum="264.00" meanIntervalHaltingDuration="29.33" maxIntervalHaltingDuration="68.00" intervalHaltingDurationSum="264.00" startedHalts="9.00" meanVehicleNumber="0.67" maxVehicleNumber="2" />
   <interval begin="1800.00" end="2400.00" id="customDet4" sampledSeconds="246.41" nVehEntered="17" nVehLeft="16" nVehSeen="17" meanSpeed="0.72" meanTimeLoss="13.91" meanOccupancy="12.62" maxOccupancy="68.09" meanMaxJamLengthInVehicles="0.35" meanMaxJamLengthInMeters="1.42" maxJamLengthInVehicles="2" maxJamLengthInMeters="9.33" jamLengthInVehiclesSum="208" jamLengthInMetersSum="853.35" meanHaltingDuration="30.71" maxHaltingDuration="62.00" haltingDurationSum="215.00" meanIntervalHaltingDuration="30.71" maxIntervalHaltingDuration="62.00" intervalHaltingDurationSum="215.00" startedHalts="7.00" meanVehicleNumber="0.43" maxVehicleNumber="2" />
   <interval begin="2400.00" end="3000.00" id="customDet1" sampledSeconds="48.39" nVehEntered="52" nVehLeft="52" nVehSeen="52" meanSpeed="15.69" meanTimeLoss="0.11" meanOccupancy="2.33" maxOccupancy="46.00" meanMaxJamLengthInVehicles="0.00" meanMaxJamLengthInMeters="0.00" maxJamLengthInVehicles="0" maxJamLengthInMeters="0.00" jamLengthInVehiclesSum="0" jamLengthInMetersSum="0.00" meanHaltingDuration="0.00" maxHaltingDuration="0.00" haltingDurationSum="0.00" meanIntervalHaltingDuration="0.00" maxIntervalHaltingDuration="0.00" intervalHaltingDurationSum="0.00" startedHalts="0.00" meanVehicleNumber="0.17" maxVehicleNumber="1" />
   <interval begin="2400.00" end="3000.00" id="customDet2" sampledSeconds="45.80" nVehEntered="49" nVehLeft="49" nVehSeen="49" meanSpeed="15.62" meanTimeLoss="0.12" meanOccupancy="2.27" maxOccupancy="46.00" meanMaxJamLengthInVehicles="0.00" meanMaxJamLengthInMeters="0.00" maxJamLengthInVehicles="0" maxJamLengthInMeters="0.00" jamLengthInVehiclesSum="0" jamLengthInMetersSum="0.00" meanHaltingDuration="0.00" maxHaltingDuration="0.00" haltingDurationSum="0.00" meanIntervalHaltingDuration="0.00" maxIntervalHaltingDuration="0.00" intervalHaltingDurationSum="0.00" startedHalts="0.00" meanVehicleNumber="0.16" maxVehicleNumber="1" />
   <interval begin="2400.00" end="3000.00" id="customDet3" sampledSeconds="373.53" nVehEntered="54" nVehLeft="55" nVehSeen="55" meanSpeed="1.91" meanTimeLoss="6.07" meanOccupancy="18.57" maxOccupancy="68.09" meanMaxJamLengthInVehicles="0.47" meanMaxJamLengthInMeters="1.68" maxJamLengthInVehicles="2" maxJamLengthInMeters="9.34" jamLengthInVehiclesSum="280" jamLengthInMetersSum="1007.44" meanHaltingDuration="29.33" maxHaltingDuration="60.00" haltingDurationSum="264.00" meanIntervalHaltingDuration="28.67" maxIntervalHaltingDuration="60.00" intervalHaltingDurationSum="258.00" startedHalts="10.00" meanVehicleNumber="0.70" maxVehicleNumber="2" />
   <interval begin="2400.00" end="3000.00" id="customDet4" sampledSeconds="214.80" nVehEntered="16" nVehLeft="17" nVehSeen="17" meanSpeed="0.78" meanTimeLoss="12.09" meanOccupancy="9.87" maxOccupancy="68.09" meanMaxJamLengthInVehicles="0.29" meanMaxJamLengthInMeters="0.95" maxJamLengthInVehicles="2" maxJamLengthInMeters="9.32" jamLengthInVehiclesSum="174" jamLengthInMetersSum="568.15" meanHaltingDuration="26.14" maxHaltingDuration="52.00" haltingDurationSum="183.00" meanIntervalHaltingDuration="25.71" maxIntervalHaltingDuration="49.00" intervalHaltingDurationSum="180.00" startedHalts="6.00" meanVehicleNumber="0.38" maxVehicleNumber="2" />
   <interval begin="3000.00" end="3600.00" id="customDet1" sampledSeconds="53.59" nVehEntered="57" nVehLeft="57" nVehSeen="57" meanSpeed="15.53" meanTimeLoss="0.12" meanOccupancy="2.79" maxOccupancy="46.00" meanMaxJamLengthInVehicles="0.00" meanMaxJamLengthInMeters="0.00" maxJamLengthInVehicles="0" maxJamLengthInMeters="0.00" jamLengthInVehiclesSum="0" jamLengthInMetersSum="0.00" meanHaltingDuration="0.00" maxHaltingDuration="0.00" haltingDurationSum="0.00" meanIntervalHaltingDuration="0.00" maxIntervalHaltingDuration="0.00" intervalHaltingDurationSum="0.00" startedHalts="0.00" meanVehicleNumber="0.19" maxVehicleNumber="1" />
   <interval begin="3000.00" end="3600.00" id="customDet2" sampledSeconds="47.36" nVehEntered="51" nVehLeft="51" nVehSeen="51" meanSpeed="15.72" meanTimeLoss="0.11" meanOccupancy="2.69" maxOccupancy="46.00" meanMaxJamLengthInVehicles="0.00" meanMaxJamLengthInMeters="0.00" maxJamLengthInVehicles="0" maxJamLengthInMeters="0.00" jamLengthInVehiclesSum="0" jamLengthInMetersSum="0.00" meanHaltingDuration="0.00" maxHaltingDuration="0.00" haltingDurationSum="0.00" meanIntervalHaltingDuration="0.00" maxIntervalHaltingDuration="0.00" intervalHaltingDurationSum="0.00" startedHalts="0.00" meanVehicleNumber="0.17" maxVehicleNumber="1" />
   <interval begin="3000.00" end="3600.00" id="customDet3" sampledSeconds="308.56" nVehEntered="51" nVehLeft="51" nVehSeen="51" meanSpeed="2.22" meanTimeLoss="5.30" meanOccupancy="14.84" maxOccupancy="68.09" meanMaxJamLengthInVehicles="0.38" meanMaxJamLengthInMeters="1.21" maxJamLengthInVehicles="2" maxJamLengthInMeters="9.37" jamLengthInVehiclesSum="228" jamLengthInMetersSum="724.79" meanHaltingDuration="33.57" maxHaltingDuration="73.00" haltingDurationSum="235.00" meanIntervalHaltingDuration="33.57" maxIntervalHaltingDuration="73.00" intervalHaltingDurationSum="235.00" startedHalts="7.00" meanVehicleNumber="0.59" maxVehicleNumber="2" />
   <interval begin="3000.00" end="3600.00" id="customDet4" sampledSeconds="125.05" nVehEntered="13" nVehLeft="13" nVehSeen="13" meanSpeed="1.06" meanTimeLoss="9.05" meanOccupancy="5.87" maxOccupancy="68.09" meanMaxJamLengthInVehicles="0.17" meanMaxJamLengthInMeters="0.59" maxJamLengthInVehicles="2" maxJamLengthInMeters="9.33" jamLengthInVehiclesSum="99" jamLengthInMetersSum="354.84" meanHaltingDuration="26.67" maxHaltingDuration="42.00" haltingDurationSum="80.00" meanIntervalHaltingDuration="26.67" maxIntervalHaltingDuration="42.00" intervalHaltingDurationSum="80.00" startedHalts="5.00" meanVehicleNumber="0.22" maxVehicleNumber="2" />
   <interval begin="3600.00" end="4007.00" id="customDet1" sampledSeconds="0.00" nVehEntered="0" nVehLeft="0" nVehSeen="0" meanSpeed="-1.00" meanTimeLoss="-1.00" meanOccupancy="0.00" maxOccupancy="0.00" meanMaxJamLengthInVehicles="0.00" meanMaxJamLengthInMeters="0.00" maxJamLengthInVehicles="0" maxJamLengthInMeters="0.00" jamLengthInVehiclesSum="0" jamLengthInMetersSum="0.00" meanHaltingDuration="0.00" maxHaltingDuration="0.00" haltingDurationSum="0.00" meanIntervalHaltingDuration="0.00" maxIntervalHaltingDuration="0.00" intervalHaltingDurationSum="0.00" startedHalts="0.00" meanVehicleNumber="0.00" maxVehicleNumber="0" />
   <interval begin="3600.00" end="4007.00" id="customDet2" sampledSeconds="0.00" nVehEntered="0" nVehLeft="0" nVehSeen="0" meanSpeed="-1.00" meanTimeLoss="-1.00" meanOccupancy="0.00" maxOccupancy="0.00" meanMaxJamLengthInVehicles="0.00" meanMaxJamLengthInMeters="0.00" maxJamLengthInVehicles="0" maxJamLengthInMeters="0.00" jamLengthInVehiclesSum="0" jamLengthInMetersSum="0.00" meanHaltingDuration="0.00" maxHaltingDuration="0.00" haltingDurationSum="0.00" meanIntervalHaltingDuration="0.00" maxIntervalHaltingDuration="0.00" intervalHaltingDurationSum="0.00" startedHalts="0.00" meanVehicleNumber="0.00" maxVehicleNumber="0" />
   <interval begin="3600.00" end="4007.00" id="customDet3" sampledSeconds="3.59" nVehEntered="3" nVehLeft="3" nVehSeen="3" meanSpeed="11.68" meanTimeLoss="0.42" meanOccupancy="0.35" maxOccupancy="46.00" meanMaxJamLengthInVehicles="0.00" meanMaxJamLengthInMeters="0.00" maxJamLengthInVehicles="0" maxJamLengthInMeters="0.00" jamLengthInVehiclesSum="0" jamLengthInMetersSum="0.00" meanHaltingDuration="0.00" maxHaltingDuration="0.00" haltingDurationSum="0.00" meanIntervalHaltingDuration="0.00" maxIntervalHaltingDuration="0.00" intervalHaltingDurationSum="0.00" startedHalts="0.00" meanVehicleNumber="0.01" maxVehicleNumber="1" />
   <interval begin="3600.00" end="4007.00" id="customDet4" sampledSeconds="0.21" nVehEntered="1" nVehLeft="1" nVehSeen="1" meanSpeed="8.54" meanTimeLoss="0.11" meanOccupancy="0.00" maxOccupancy="0.00" meanMaxJamLengthInVehicles="0.00" meanMaxJamLengthInMeters="0.00" maxJamLengthInVehicles="0" maxJamLengthInMeters="0.00" jamLengthInVehiclesSum="0" jamLengthInMetersSum="0.00" meanHaltingDuration="0.00" maxHaltingDuration="0.00" haltingDurationSum="0.00" meanIntervalHaltingDuration="0.00" maxIntervalHaltingDuration="0.00" intervalHaltingDurationSum="0.00" startedHalts="0.00" meanVehicleNumber="0.00" maxVehicleNumber="1" />
</detector>
