<?xml version="1.0" encoding="UTF-8"?>

<!-- generated on 2022-12-04 10:23:54 by Eclipse SUMO sumo Version v1_15_0+0749-de9f6f8
This data file and the accompanying materials
are made available under the terms of the Eclipse Public License v2.0
which accompanies this distribution, and is available at
http://www.eclipse.org/legal/epl-v20.html
This file may also be made available under the following Secondary
Licenses when the conditions for such availability set forth in the Eclipse
Public License 2.0 are satisfied: GNU General Public License, version 2
or later which is available at
https://www.gnu.org/licenses/old-licenses/gpl-2.0-standalone.html
SPDX-License-Identifier: EPL-2.0 OR GPL-2.0-or-later
<configuration xmlns:xsi="http://www.w3.org/2001/XMLSchema-instance" xsi:noNamespaceSchemaLocation="http://sumo.dlr.de/xsd/sumoConfiguration.xsd">

    <input>
        <net-file value="net.net.xml"/>
        <route-files value="input_routes.rou.xml"/>
        <additional-files value="input_additional.add.xml,input_additional2.add.xml"/>
    </input>

    <output>
        <write-license value="true"/>
    </output>

    <processing>
        <default.speeddev value="0"/>
    </processing>

    <report>
        <xml-validation value="never"/>
        <duration-log.statistics value="true"/>
        <no-step-log value="true"/>
    </report>

</configuration>
-->

<detector xmlns:xsi="http://www.w3.org/2001/XMLSchema-instance" xsi:noNamespaceSchemaLocation="http://sumo.dlr.de/xsd/det_e2_file.xsd">
   <interval begin="0.00" end="600.00" id="customDet1" sampledSeconds="54.51" nVehEntered="58" nVehLeft="58" nVehSeen="58" meanSpeed="15.53" meanTimeLoss="0.12" meanOccupancy="3.03" maxOccupancy="46.00" meanMaxJamLengthInVehicles="0.00" meanMaxJamLengthInMeters="0.00" maxJamLengthInVehicles="0" maxJamLengthInMeters="0.00" jamLengthInVehiclesSum="0" jamLengthInMetersSum="0.00" meanHaltingDuration="0.00" maxHaltingDuration="0.00" haltingDurationSum="0.00" meanIntervalHaltingDuration="0.00" maxIntervalHaltingDuration="0.00" intervalHaltingDurationSum="0.00" startedHalts="0.00" meanVehicleNumber="0.19" maxVehicleNumber="1" />
   <interval begin="0.00" end="600.00" id="customDet2" sampledSeconds="50.72" nVehEntered="54" nVehLeft="54" nVehSeen="54" meanSpeed="15.55" meanTimeLoss="0.12" meanOccupancy="2.50" maxOccupancy="46.00" meanMaxJamLengthInVehicles="0.00" meanMaxJamLengthInMeters="0.00" maxJamLengthInVehicles="0" maxJamLengthInMeters="0.00" jamLengthInVehiclesSum="0" jamLengthInMetersSum="0.00" meanHaltingDuration="0.00" maxHaltingDuration="0.00" haltingDurationSum="0.00" meanIntervalHaltingDuration="0.00" maxIntervalHaltingDuration="0.00" intervalHaltingDurationSum="0.00" startedHalts="0.00" meanVehicleNumber="0.17" maxVehicleNumber="1" />
   <interval begin="0.00" end="600.00" id="customDet3" sampledSeconds="708.84" nVehEntered="60" nVehLeft="58" nVehSeen="60" meanSpeed="1.06" meanTimeLoss="11.11" meanOccupancy="39.88" maxOccupancy="69.01" meanMaxJamLengthInVehicles="1.00" meanMaxJamLengthInMeters="4.56" maxJamLengthInVehicles="2" maxJamLengthInMeters="9.38" jamLengthInVehiclesSum="599" jamLengthInMetersSum="2733.62" meanHaltingDuration="75.88" maxHaltingDuration="93.00" haltingDurationSum="607.00" meanIntervalHaltingDuration="75.88" maxIntervalHaltingDuration="93.00" intervalHaltingDurationSum="607.00" startedHalts="10.00" meanVehicleNumber="1.28" maxVehicleNumber="2" />
   <interval begin="0.00" end="600.00" id="customDet4" sampledSeconds="596.22" nVehEntered="20" nVehLeft="18" nVehSeen="20" meanSpeed="0.32" meanTimeLoss="29.28" meanOccupancy="32.44" maxOccupancy="68.09" meanMaxJamLengthInVehicles="0.91" meanMaxJamLengthInMeters="4.09" maxJamLengthInVehicles="2" maxJamLengthInMeters="9.33" jamLengthInVehiclesSum="548" jamLengthInMetersSum="2451.63" meanHaltingDuration="55.80" maxHaltingDuration="89.00" haltingDurationSum="558.00" meanIntervalHaltingDuration="55.80" maxIntervalHaltingDuration="89.00" intervalHaltingDurationSum="558.00" startedHalts="10.00" meanVehicleNumber="1.01" maxVehicleNumber="2" />
   <interval begin="600.00" end="1200.00" id="customDet1" sampledSeconds="49.09" nVehEntered="52" nVehLeft="52" nVehSeen="52" meanSpeed="15.47" meanTimeLoss="0.13" meanOccupancy="2.48" maxOccupancy="46.00" meanMaxJamLengthInVehicles="0.00" meanMaxJamLengthInMeters="0.00" maxJamLengthInVehicles="0" maxJamLengthInMeters="0.00" jamLengthInVehiclesSum="0" jamLengthInMetersSum="0.00" meanHaltingDuration="0.00" maxHaltingDuration="0.00" haltingDurationSum="0.00" meanIntervalHaltingDuration="0.00" maxIntervalHaltingDuration="0.00" intervalHaltingDurationSum="0.00" startedHalts="0.00" meanVehicleNumber="0.17" maxVehicleNumber="1" />
   <interval begin="600.00" end="1200.00" id="customDet2" sampledSeconds="43.84" nVehEntered="47" nVehLeft="47" nVehSeen="47" meanSpeed="15.65" meanTimeLoss="0.12" meanOccupancy="2.49" maxOccupancy="46.00" meanMaxJamLengthInVehicles="0.00" meanMaxJamLengthInMeters="0.00" maxJamLengthInVehicles="0" maxJamLengthInMeters="0.00" jamLengthInVehiclesSum="0" jamLengthInMetersSum="0.00" meanHaltingDuration="0.00" maxHaltingDuration="0.00" haltingDurationSum="0.00" meanIntervalHaltingDuration="0.00" maxIntervalHaltingDuration="0.00" intervalHaltingDurationSum="0.00" startedHalts="0.00" meanVehicleNumber="0.15" maxVehicleNumber="1" />
   <interval begin="600.00" end="1200.00" id="customDet3" sampledSeconds="618.09" nVehEntered="50" nVehLeft="51" nVehSeen="52" meanSpeed="1.08" meanTimeLoss="11.17" meanOccupancy="34.12" maxOccupancy="68.21" meanMaxJamLengthInVehicles="0.86" meanMaxJamLengthInMeters="3.83" maxJamLengthInVehicles="2" maxJamLengthInMeters="9.33" jamLengthInVehiclesSum="516" jamLengthInMetersSum="2295.52" meanHaltingDuration="68.33" maxHaltingDuration="96.00" haltingDurationSum="615.00" meanIntervalHaltingDuration="58.11" maxIntervalHaltingDuration="95.00" intervalHaltingDurationSum="523.00" startedHalts="8.00" meanVehicleNumber="1.10" maxVehicleNumber="2" />
   <interval begin="600.00" end="1200.00" id="customDet4" sampledSeconds="509.01" nVehEntered="19" nVehLeft="20" nVehSeen="21" meanSpeed="0.39" meanTimeLoss="23.71" meanOccupancy="27.54" maxOccupancy="68.11" meanMaxJamLengthInVehicles="0.77" meanMaxJamLengthInMeters="3.46" maxJamLengthInVehicles="2" maxJamLengthInMeters="9.33" jamLengthInVehiclesSum="462" jamLengthInMetersSum="2073.14" meanHaltingDuration="55.10" maxHaltingDuration="90.00" haltingDurationSum="551.00" meanIntervalHaltingDuration="47.00" maxIntervalHaltingDuration="90.00" intervalHaltingDurationSum="470.00" startedHalts="8.00" meanVehicleNumber="0.87" maxVehicleNumber="2" />
   <interval begin="1200.00" end="1800.00" id="customDet1" sampledSeconds="55.15" nVehEntered="58" nVehLeft="58" nVehSeen="58" meanSpeed="15.35" meanTimeLoss="0.13" meanOccupancy="3.10" maxOccupancy="46.00" meanMaxJamLengthInVehicles="0.00" meanMaxJamLengthInMeters="0.00" maxJamLengthInVehicles="0" maxJamLengthInMeters="0.00" jamLengthInVehiclesSum="0" jamLengthInMetersSum="0.00" meanHaltingDuration="0.00" maxHaltingDuration="0.00" haltingDurationSum="0.00" meanIntervalHaltingDuration="0.00" maxIntervalHaltingDuration="0.00" intervalHaltingDurationSum="0.00" startedHalts="0.00" meanVehicleNumber="0.19" maxVehicleNumber="1" />
   <interval begin="1200.00" end="1800.00" id="customDet2" sampledSeconds="47.72" nVehEntered="51" nVehLeft="51" nVehSeen="51" meanSpeed="15.60" meanTimeLoss="0.12" meanOccupancy="2.44" maxOccupancy="46.00" meanMaxJamLengthInVehicles="0.00" meanMaxJamLengthInMeters="0.00" maxJamLengthInVehicles="0" maxJamLengthInMeters="0.00" jamLengthInVehiclesSum="0" jamLengthInMetersSum="0.00" meanHaltingDuration="0.00" maxHaltingDuration="0.00" haltingDurationSum="0.00" meanIntervalHaltingDuration="0.00" maxIntervalHaltingDuration="0.00" intervalHaltingDurationSum="0.00" startedHalts="0.00" meanVehicleNumber="0.17" maxVehicleNumber="1" />
   <interval begin="1200.00" end="1800.00" id="customDet3" sampledSeconds="176.00" nVehEntered="39" nVehLeft="40" nVehSeen="40" meanSpeed="3.06" meanTimeLoss="3.65" meanOccupancy="8.21" maxOccupancy="68.10" meanMaxJamLengthInVehicles="0.19" meanMaxJamLengthInMeters="0.57" maxJamLengthInVehicles="2" maxJamLengthInMeters="9.32" jamLengthInVehiclesSum="116" jamLengthInMetersSum="340.37" meanHaltingDuration="21.20" maxHaltingDuration="63.00" haltingDurationSum="106.00" meanIntervalHaltingDuration="18.20" maxIntervalHaltingDuration="48.00" intervalHaltingDurationSum="91.00" startedHalts="5.00" meanVehicleNumber="0.36" maxVehicleNumber="2" />
   <interval begin="1200.00" end="1800.00" id="customDet4" sampledSeconds="85.71" nVehEntered="7" nVehLeft="8" nVehSeen="8" meanSpeed="0.58" meanTimeLoss="10.37" meanOccupancy="3.54" maxOccupancy="68.09" meanMaxJamLengthInVehicles="0.12" meanMaxJamLengthInMeters="0.35" maxJamLengthInVehicles="2" maxJamLengthInMeters="9.33" jamLengthInVehiclesSum="75" jamLengthInMetersSum="211.73" meanHaltingDuration="27.33" maxHaltingDuration="53.00" haltingDurationSum="82.00" meanIntervalHaltingDuration="25.67" maxIntervalHaltingDuration="48.00" intervalHaltingDurationSum="77.00" startedHalts="2.00" meanVehicleNumber="0.15" maxVehicleNumber="2" />
   <interval begin="1800.00" end="2400.00" id="customDet1" sampledSeconds="54.40" nVehEntered="58" nVehLeft="58" nVehSeen="58" meanSpeed="15.57" meanTimeLoss="0.12" meanOccupancy="2.88" maxOccupancy="46.00" meanMaxJamLengthInVehicles="0.00" meanMaxJamLengthInMeters="0.00" maxJamLengthInVehicles="0" maxJamLengthInMeters="0.00" jamLengthInVehiclesSum="0" jamLengthInMetersSum="0.00" meanHaltingDuration="0.00" maxHaltingDuration="0.00" haltingDurationSum="0.00" meanIntervalHaltingDuration="0.00" maxIntervalHaltingDuration="0.00" intervalHaltingDurationSum="0.00" startedHalts="0.00" meanVehicleNumber="0.19" maxVehicleNumber="1" />
   <interval begin="1800.00" end="2400.00" id="customDet2" sampledSeconds="46.75" nVehEntered="50" nVehLeft="50" nVehSeen="50" meanSpeed="15.62" meanTimeLoss="0.12" meanOccupancy="2.31" maxOccupancy="46.00" meanMaxJamLengthInVehicles="0.00" meanMaxJamLengthInMeters="0.00" maxJamLengthInVehicles="0" maxJamLengthInMeters="0.00" jamLengthInVehiclesSum="0" jamLengthInMetersSum="0.00" meanHaltingDuration="0.00" maxHaltingDuration="0.00" haltingDurationSum="0.00" meanIntervalHaltingDuration="0.00" maxIntervalHaltingDuration="0.00" intervalHaltingDurationSum="0.00" startedHalts="0.00" meanVehicleNumber="0.16" maxVehicleNumber="1" />
   <interval begin="1800.00" end="2400.00" id="customDet3" sampledSeconds="388.88" nVehEntered="56" nVehLeft="54" nVehSeen="56" meanSpeed="1.87" meanTimeLoss="6.22" meanOccupancy="19.69" maxOccupancy="68.09" meanMaxJamLengthInVehicles="0.48" meanMaxJamLengthInMeters="1.83" maxJamLengthInVehicles="2" maxJamLengthInMeters="9.34" jamLengthInVehiclesSum="289" jamLengthInMetersSum="1098.48" meanHaltingDuration="23.89" maxHaltingDuration="64.00" haltingDurationSum="215.00" meanIntervalHaltingDuration="23.89" maxIntervalHaltingDuration="64.00" intervalHaltingDurationSum="215.00" startedHalts="10.00" meanVehicleNumber="0.73" maxVehicleNumber="2" />
   <interval begin="1800.00" end="2400.00" id="customDet4" sampledSeconds="260.55" nVehEntered="17" nVehLeft="16" nVehSeen="17" meanSpeed="0.68" meanTimeLoss="14.74" meanOccupancy="13.30" maxOccupancy="68.09" meanMaxJamLengthInVehicles="0.38" meanMaxJamLengthInMeters="1.53" maxJamLengthInVehicles="2" maxJamLengthInMeters="9.33" jamLengthInVehiclesSum="225" jamLengthInMetersSum="919.80" meanHaltingDuration="33.14" maxHaltingDuration="69.00" haltingDurationSum="232.00" meanIntervalHaltingDuration="33.14" maxIntervalHaltingDuration="69.00" intervalHaltingDurationSum="232.00" startedHalts="7.00" meanVehicleNumber="0.46" maxVehicleNumber="2" />
   <interval begin="2400.00" end="3000.00" id="customDet1" sampledSeconds="48.29" nVehEntered="52" nVehLeft="52" nVehSeen="52" meanSpeed="15.72" meanTimeLoss="0.11" meanOccupancy="2.32" maxOccupancy="46.00" meanMaxJamLengthInVehicles="0.00" meanMaxJamLengthInMeters="0.00" maxJamLengthInVehicles="0" maxJamLengthInMeters="0.00" jamLengthInVehiclesSum="0" jamLengthInMetersSum="0.00" meanHaltingDuration="0.00" maxHaltingDuration="0.00" haltingDurationSum="0.00" meanIntervalHaltingDuration="0.00" maxIntervalHaltingDuration="0.00" intervalHaltingDurationSum="0.00" startedHalts="0.00" meanVehicleNumber="0.17" maxVehicleNumber="1" />
   <interval begin="2400.00" end="3000.00" id="customDet2" sampledSeconds="45.76" nVehEntered="49" nVehLeft="49" nVehSeen="49" meanSpeed="15.63" meanTimeLoss="0.12" meanOccupancy="2.25" maxOccupancy="46.00" meanMaxJamLengthInVehicles="0.00" meanMaxJamLengthInMeters="0.00" maxJamLengthInVehicles="0" maxJamLengthInMeters="0.00" jamLengthInVehiclesSum="0" jamLengthInMetersSum="0.00" meanHaltingDuration="0.00" maxHaltingDuration="0.00" haltingDurationSum="0.00" meanIntervalHaltingDuration="0.00" maxIntervalHaltingDuration="0.00" intervalHaltingDurationSum="0.00" startedHalts="0.00" meanVehicleNumber="0.16" maxVehicleNumber="1" />
   <interval begin="2400.00" end="3000.00" id="customDet3" sampledSeconds="408.94" nVehEntered="55" nVehLeft="57" nVehSeen="57" meanSpeed="1.85" meanTimeLoss="6.43" meanOccupancy="21.04" maxOccupancy="68.10" meanMaxJamLengthInVehicles="0.51" meanMaxJamLengthInMeters="1.98" maxJamLengthInVehicles="2" maxJamLengthInMeters="9.32" jamLengthInVehiclesSum="305" jamLengthInMetersSum="1186.59" meanHaltingDuration="29.91" maxHaltingDuration="71.00" haltingDurationSum="329.00" meanIntervalHaltingDuration="28.55" maxIntervalHaltingDuration="71.00" intervalHaltingDurationSum="314.00" startedHalts="10.00" meanVehicleNumber="0.77" maxVehicleNumber="2" />
   <interval begin="2400.00" end="3000.00" id="customDet4" sampledSeconds="298.97" nVehEntered="13" nVehLeft="14" nVehSeen="14" meanSpeed="0.45" meanTimeLoss="20.82" meanOccupancy="14.42" maxOccupancy="68.09" meanMaxJamLengthInVehicles="0.43" meanMaxJamLengthInMeters="1.60" maxJamLengthInVehicles="2" maxJamLengthInMeters="9.54" jamLengthInVehiclesSum="261" jamLengthInMetersSum="958.45" meanHaltingDuration="27.33" maxHaltingDuration="59.00" haltingDurationSum="246.00" meanIntervalHaltingDuration="26.55" maxIntervalHaltingDuration="59.00" intervalHaltingDurationSum="239.00" startedHalts="9.00" meanVehicleNumber="0.51" maxVehicleNumber="2" />
   <interval begin="3000.00" end="3600.00" id="customDet1" sampledSeconds="53.45" nVehEntered="57" nVehLeft="57" nVehSeen="57" meanSpeed="15.57" meanTimeLoss="0.12" meanOccupancy="2.76" maxOccupancy="46.00" meanMaxJamLengthInVehicles="0.00" meanMaxJamLengthInMeters="0.00" maxJamLengthInVehicles="0" maxJamLengthInMeters="0.00" jamLengthInVehiclesSum="0" jamLengthInMetersSum="0.00" meanHaltingDuration="0.00" maxHaltingDuration="0.00" haltingDurationSum="0.00" meanIntervalHaltingDuration="0.00" maxIntervalHaltingDuration="0.00" intervalHaltingDurationSum="0.00" startedHalts="0.00" meanVehicleNumber="0.19" maxVehicleNumber="1" />
   <interval begin="3000.00" end="3600.00" id="customDet2" sampledSeconds="47.29" nVehEntered="51" nVehLeft="51" nVehSeen="51" meanSpeed="15.75" meanTimeLoss="0.11" meanOccupancy="2.67" maxOccupancy="46.00" meanMaxJamLengthInVehicles="0.00" meanMaxJamLengthInMeters="0.00" maxJamLengthInVehicles="0" maxJamLengthInMeters="0.00" jamLengthInVehiclesSum="0" jamLengthInMetersSum="0.00" meanHaltingDuration="0.00" maxHaltingDuration="0.00" haltingDurationSum="0.00" meanIntervalHaltingDuration="0.00" maxIntervalHaltingDuration="0.00" intervalHaltingDurationSum="0.00" startedHalts="0.00" meanVehicleNumber="0.16" maxVehicleNumber="1" />
   <interval begin="3000.00" end="3600.00" id="customDet3" sampledSeconds="439.43" nVehEntered="51" nVehLeft="51" nVehSeen="51" meanSpeed="1.52" meanTimeLoss="7.88" meanOccupancy="22.64" maxOccupancy="68.10" meanMaxJamLengthInVehicles="0.58" meanMaxJamLengthInMeters="2.37" maxJamLengthInVehicles="2" maxJamLengthInMeters="9.41" jamLengthInVehiclesSum="350" jamLengthInMetersSum="1422.48" meanHaltingDuration="36.00" maxHaltingDuration="85.00" haltingDurationSum="360.00" meanIntervalHaltingDuration="36.00" maxIntervalHaltingDuration="85.00" intervalHaltingDurationSum="360.00" startedHalts="10.00" meanVehicleNumber="0.80" maxVehicleNumber="2" />
   <interval begin="3000.00" end="3600.00" id="customDet4" sampledSeconds="333.64" nVehEntered="17" nVehLeft="17" nVehSeen="17" meanSpeed="0.45" meanTimeLoss="19.14" meanOccupancy="16.97" maxOccupancy="68.10" meanMaxJamLengthInVehicles="0.50" meanMaxJamLengthInMeters="2.03" maxJamLengthInVehicles="2" maxJamLengthInMeters="9.35" jamLengthInVehiclesSum="301" jamLengthInMetersSum="1215.27" meanHaltingDuration="51.17" maxHaltingDuration="80.00" haltingDurationSum="307.00" meanIntervalHaltingDuration="51.17" maxIntervalHaltingDuration="80.00" intervalHaltingDurationSum="307.00" startedHalts="6.00" meanVehicleNumber="0.57" maxVehicleNumber="2" />
   <interval begin="3600.00" end="3887.00" id="customDet1" sampledSeconds="0.00" nVehEntered="0" nVehLeft="0" nVehSeen="0" meanSpeed="-1.00" meanTimeLoss="-1.00" meanOccupancy="0.00" maxOccupancy="0.00" meanMaxJamLengthInVehicles="0.00" meanMaxJamLengthInMeters="0.00" maxJamLengthInVehicles="0" maxJamLengthInMeters="0.00" jamLengthInVehiclesSum="0" jamLengthInMetersSum="0.00" meanHaltingDuration="0.00" maxHaltingDuration="0.00" haltingDurationSum="0.00" meanIntervalHaltingDuration="0.00" maxIntervalHaltingDuration="0.00" intervalHaltingDurationSum="0.00" startedHalts="0.00" meanVehicleNumber="0.00" maxVehicleNumber="0" />
   <interval begin="3600.00" end="3887.00" id="customDet2" sampledSeconds="0.00" nVehEntered="0" nVehLeft="0" nVehSeen="0" meanSpeed="-1.00" meanTimeLoss="-1.00" meanOccupancy="0.00" maxOccupancy="0.00" meanMaxJamLengthInVehicles="0.00" meanMaxJamLengthInMeters="0.00" maxJamLengthInVehicles="0" maxJamLengthInMeters="0.00" jamLengthInVehiclesSum="0" jamLengthInMetersSum="0.00" meanHaltingDuration="0.00" maxHaltingDuration="0.00" haltingDurationSum="0.00" meanIntervalHaltingDuration="0.00" maxIntervalHaltingDuration="0.00" intervalHaltingDurationSum="0.00" startedHalts="0.00" meanVehicleNumber="0.00" maxVehicleNumber="0" />
   <interval begin="3600.00" end="3887.00" id="customDet3" sampledSeconds="40.18" nVehEntered="3" nVehLeft="3" nVehSeen="3" meanSpeed="0.47" meanTimeLoss="13.04" meanOccupancy="3.27" maxOccupancy="46.00" meanMaxJamLengthInVehicles="0.13" meanMaxJamLengthInMeters="0.27" maxJamLengthInVehicles="1" maxJamLengthInMeters="2.22" jamLengthInVehiclesSum="37" jamLengthInMetersSum="78.82" meanHaltingDuration="38.00" maxHaltingDuration="38.00" haltingDurationSum="38.00" meanIntervalHaltingDuration="38.00" maxIntervalHaltingDuration="38.00" intervalHaltingDurationSum="38.00" startedHalts="1.00" meanVehicleNumber="0.15" maxVehicleNumber="2" />
   <interval begin="3600.00" end="3887.00" id="customDet4" sampledSeconds="36.61" nVehEntered="2" nVehLeft="2" nVehSeen="2" meanSpeed="0.68" meanTimeLoss="17.61" meanOccupancy="2.72" maxOccupancy="46.00" meanMaxJamLengthInVehicles="0.11" meanMaxJamLengthInMeters="0.23" maxJamLengthInVehicles="1" maxJamLengthInMeters="2.19" jamLengthInVehiclesSum="32" jamLengthInMetersSum="66.90" meanHaltingDuration="33.00" maxHaltingDuration="33.00" haltingDurationSum="33.00" meanIntervalHaltingDuration="33.00" maxIntervalHaltingDuration="33.00" intervalHaltingDurationSum="33.00" startedHalts="1.00" meanVehicleNumber="0.13" maxVehicleNumber="1" />
</detector>
