<?xml version="1.0" encoding="UTF-8"?>

<!-- generated on 10/11/18 21:00:07 by Eclipse SUMO Version v1_0_1+0209-42a0b935e0
This data file and the accompanying materials
are made available under the terms of the Eclipse Public License v2.0
which accompanies this distribution, and is available at
http://www.eclipse.org/legal/epl-v20.html
SPDX-License-Identifier: EPL-2.0
<configuration xmlns:xsi="http://www.w3.org/2001/XMLSchema-instance" xsi:noNamespaceSchemaLocation="http://sumo.dlr.de/xsd/sumoConfiguration.xsd">

    <input>
        <net-file value="three_split.net.xml"/>
        <additional-files value="input_trips.trips.xml"/>
    </input>

    <output>
        <write-license value="true"/>
        <vehroute-output value="vehroutes.xml"/>
        <vehroute-output.cost value="true"/>
    </output>

    <time>
        <begin value="0"/>
    </time>

    <processing>
        <default.speeddev value="0"/>
        <pedestrian.model value="nonInteracting"/>
    </processing>

    <report>
        <xml-validation value="never"/>
        <duration-log.disable value="true"/>
        <no-step-log value="true"/>
    </report>

    <mesoscopic>
        <mesosim value="true"/>
    </mesoscopic>

</configuration>
-->

<routes xmlns:xsi="http://www.w3.org/2001/XMLSchema-instance" xsi:noNamespaceSchemaLocation="http://sumo.dlr.de/xsd/routes_file.xsd">
    <vehicle id="0" depart="0.00" arrival="90.00">
        <routeDistribution>
            <route cost="0.00" savings="0.00" replacedOnEdge="" reason="device.rerouting" replacedAtTime="0.00" probability="0" edges="beg rend"/>
            <route cost="89.93" savings="0.00" edges="beg middle end rend"/>
        </routeDistribution>
    </vehicle>

    <vehicle id="1" depart="20.00" arrival="110.00">
        <routeDistribution>
            <route cost="0.00" savings="0.00" replacedOnEdge="" reason="device.rerouting" replacedAtTime="20.00" probability="0" edges="beg rend"/>
            <route cost="89.93" savings="0.00" edges="beg middle end rend"/>
        </routeDistribution>
    </vehicle>

    <vehicle id="2" depart="40.00" arrival="130.00">
        <routeDistribution>
            <route cost="0.00" savings="0.00" replacedOnEdge="" reason="device.rerouting" replacedAtTime="40.00" probability="0" edges="beg rend"/>
            <route cost="89.93" savings="0.00" edges="beg middle end rend"/>
        </routeDistribution>
    </vehicle>

    <vehicle id="3" depart="60.00" arrival="150.00">
        <routeDistribution>
            <route cost="0.00" savings="0.00" replacedOnEdge="" reason="device.rerouting" replacedAtTime="60.00" probability="0" edges="beg rend"/>
            <route cost="89.93" savings="0.00" edges="beg middle end rend"/>
        </routeDistribution>
    </vehicle>

    <vehicle id="4" depart="80.00" arrival="170.00">
        <routeDistribution>
            <route cost="0.00" savings="0.00" replacedOnEdge="" reason="device.rerouting" replacedAtTime="80.00" probability="0" edges="beg rend"/>
            <route cost="89.93" savings="0.00" edges="beg middle end rend"/>
        </routeDistribution>
    </vehicle>

    <vehicle id="5" depart="100.00" arrival="190.00">
        <routeDistribution>
            <route cost="0.00" savings="0.00" replacedOnEdge="" reason="device.rerouting" replacedAtTime="100.00" probability="0" edges="beg rend"/>
            <route cost="89.93" savings="0.00" edges="beg middle end rend"/>
        </routeDistribution>
    </vehicle>

    <vehicle id="6" depart="120.00" arrival="210.00">
        <routeDistribution>
            <route cost="0.00" savings="0.00" replacedOnEdge="" reason="device.rerouting" replacedAtTime="120.00" probability="0" edges="beg rend"/>
            <route cost="89.93" savings="0.00" edges="beg middle end rend"/>
        </routeDistribution>
    </vehicle>

    <vehicle id="7" depart="140.00" arrival="230.00">
        <routeDistribution>
            <route cost="0.00" savings="0.00" replacedOnEdge="" reason="device.rerouting" replacedAtTime="140.00" probability="0" edges="beg rend"/>
            <route cost="89.93" savings="0.00" edges="beg middle end rend"/>
        </routeDistribution>
    </vehicle>

    <vehicle id="8" depart="160.00" arrival="250.00">
        <routeDistribution>
            <route cost="0.00" savings="0.00" replacedOnEdge="" reason="device.rerouting" replacedAtTime="160.00" probability="0" edges="beg rend"/>
            <route cost="89.93" savings="0.00" edges="beg middle end rend"/>
        </routeDistribution>
    </vehicle>

    <vehicle id="9" depart="180.00" arrival="270.00">
        <routeDistribution>
            <route cost="0.00" savings="0.00" replacedOnEdge="" reason="device.rerouting" replacedAtTime="180.00" probability="0" edges="beg rend"/>
            <route cost="89.93" savings="0.00" edges="beg middle end rend"/>
        </routeDistribution>
    </vehicle>

</routes>
