<?xml version="1.0" encoding="UTF-8"?>

<!-- generated on 2022-03-29 17:13:06 by Eclipse SUMO sumo Version v1_12_0+1758-e5bb0cd0206
<configuration xmlns:xsi="http://www.w3.org/2001/XMLSchema-instance" xsi:noNamespaceSchemaLocation="http://sumo.dlr.de/xsd/sumoConfiguration.xsd">

    <input>
        <net-file value="input_net.net.xml"/>
        <route-files value="input_routes.rou.xml"/>
    </input>

    <output>
        <vehroute-output value="vehroutes.xml"/>
        <vehroute-output.exit-times value="true"/>
        <save-state.times value="100"/>
        <save-state.files value="state.xml"/>
    </output>

    <processing>
        <pedestrian.model value="nonInteracting"/>
    </processing>

    <report>
        <duration-log.disable value="true"/>
        <no-step-log value="true"/>
    </report>

    <mesoscopic>
        <mesosim value="true"/>
    </mesoscopic>

</configuration>
-->

<routes xmlns:xsi="http://www.w3.org/2001/XMLSchema-instance" xsi:noNamespaceSchemaLocation="http://sumo.dlr.de/xsd/routes_file.xsd">
    <vehicle id="0" depart="0.00" departPos="0.00" departSpeed="10.00" speedFactor="1.0600" arrival="160.00">
        <route edges="4/1to3/1 3/1to2/1 2/1to1/1 1/1to0/1" exitTimes="40.00 80.00 120.00 160.00"/>
    </vehicle>

    <vehicle id="1" depart="5.00" departPos="0.00" departSpeed="10.00" speedFactor="1.0600" arrival="175.00">
        <route edges="4/1to3/1 3/1to2/1 2/1to1/1 1/1to0/1" exitTimes="45.00 95.00 135.00 175.00"/>
        <stop lane="3/1to2/1_0" duration="10.00" started="75.00" ended="95.00"/>
    </vehicle>

    <vehicle id="2" depart="49.00" arrival="209.00">
        <route edges="4/1to3/1 3/1to2/1 2/1to1/1 1/1to0/1" exitTimes="89.00 129.00 169.00 209.00"/>
    </vehicle>

</routes>
