<?xml version="1.0" encoding="UTF-8"?>

<!-- generated on Wed Jan  3 09:20:42 2018 by SUMO Version v0_32_0+0043-24523c2
<?xml version="1.0" encoding="UTF-8"?>

<configuration xmlns:xsi="http://www.w3.org/2001/XMLSchema-instance" xsi:noNamespaceSchemaLocation="http://sumo.dlr.de/xsd/sumoConfiguration.xsd">

    <input>
        <net-file value="net.net.xml"/>
        <route-files value="routes.rou.xml"/>
    </input>

    <output>
        <netstate-dump value="netstate_dump.xml"/>
        <tripinfo-output value="tripinfos.xml"/>
        <tripinfo-output.write-unfinished value="true"/>
    </output>

    <report>
        <xml-validation value="never"/>
        <no-step-log value="true"/>
    </report>

    <traci_server>
        <remote-port value="51915"/>
    </traci_server>

</configuration>
-->

<tripinfos xmlns:xsi="http://www.w3.org/2001/XMLSchema-instance" xsi:noNamespaceSchemaLocation="http://sumo.dlr.de/xsd/tripinfo_file.xsd">
    <tripinfo id="veh0" depart="0.00" departLane="e_m0_0" departPos="0.00" departSpeed="0.00" departDelay="0.00" arrival="-1.00" arrivalLane="" arrivalPos="-1.00" arrivalSpeed="-1.00" duration="17.00" routeLength="108.80" waitingTime="0.00" stopTime="0.00" timeLoss="14.19" rerouteNo="0" devices="tripinfo_veh0" vType="DEFAULT_VEHTYPE" speedFactor="1.00" vaporized="0"/>
    <tripinfo id="veh1" depart="10.00" departLane="e_m0_0" departPos="4.00" departSpeed="8.00" departDelay="0.00" arrival="-1.00" arrivalLane="" arrivalPos="-1.00" arrivalSpeed="-1.00" duration="7.00" routeLength="64.80" waitingTime="0.00" stopTime="0.00" timeLoss="4.92" rerouteNo="0" devices="tripinfo_veh1" vType="second" speedFactor="1.00" vaporized="0"/>
</tripinfos>
