<?xml version="1.0" encoding="UTF-8"?>

<!-- generated on Thu Jan 31 13:23:16 2019 by Eclipse SUMO Version v1_1_0+0435-678c69824b
This data file and the accompanying materials
are made available under the terms of the Eclipse Public License v2.0
which accompanies this distribution, and is available at
http://www.eclipse.org/legal/epl-v20.html
SPDX-License-Identifier: EPL-2.0
<configuration xmlns:xsi="http://www.w3.org/2001/XMLSchema-instance" xsi:noNamespaceSchemaLocation="https://sumo.dlr.de/xsd/sumoConfiguration.xsd">

    <input>
        <net-file value="net.net.xml"/>
        <route-files value="input_routes.rou.xml"/>
        <additional-files value="input_additional.add.xml"/>
    </input>

    <output>
        <write-license value="true"/>
        <tripinfo-output value="tripinfos.xml"/>
    </output>

    <processing>
        <default.speeddev value="0"/>
    </processing>

    <report>
        <xml-validation value="never"/>
        <duration-log.disable value="true"/>
        <no-step-log value="true"/>
    </report>

</configuration>
-->

<tripinfos xmlns:xsi="http://www.w3.org/2001/XMLSchema-instance" xsi:noNamespaceSchemaLocation="https://sumo.dlr.de/xsd/tripinfo_file.xsd">
    <tripinfo id="v.0" depart="0.00" departLane="a_0" departPos="12.10" departSpeed="0.00" departDelay="0.00" arrival="95.00" arrivalLane="c_0" arrivalPos="234.85" arrivalSpeed="13.89" duration="95.00" routeLength="835.56" waitingTime="0.00" waitingCount="0" stopTime="22.00" timeLoss="12.28" rerouteNo="0" devices="tripinfo_v.0" vType="bus" speedFactor="1.00" vaporized=""/>
    <tripinfo id="v.1" depart="4.00" departLane="a_0" departPos="5.10" departSpeed="0.00" departDelay="3.00" arrival="99.00" arrivalLane="c_0" arrivalPos="234.85" arrivalSpeed="13.89" duration="95.00" routeLength="842.56" waitingTime="0.00" waitingCount="0" stopTime="25.00" timeLoss="9.09" rerouteNo="0" devices="tripinfo_v.1" vType="default" speedFactor="1.00" vaporized=""/>
    <tripinfo id="v.2" depart="6.00" departLane="a_0" departPos="5.10" departSpeed="0.00" departDelay="4.00" arrival="104.00" arrivalLane="c_0" arrivalPos="234.85" arrivalSpeed="13.89" duration="98.00" routeLength="842.56" waitingTime="0.00" waitingCount="0" stopTime="27.00" timeLoss="10.09" rerouteNo="0" devices="tripinfo_v.2" vType="default" speedFactor="1.00" vaporized=""/>
    <tripinfo id="v.3" depart="10.00" departLane="a_0" departPos="12.10" departSpeed="0.00" departDelay="7.00" arrival="123.00" arrivalLane="c_0" arrivalPos="234.85" arrivalSpeed="13.89" duration="113.00" routeLength="835.56" waitingTime="14.00" waitingCount="1" stopTime="22.00" timeLoss="30.28" rerouteNo="0" devices="tripinfo_v.3" vType="bus" speedFactor="1.00" vaporized=""/>
    <tripinfo id="v.4" depart="14.00" departLane="a_0" departPos="5.10" departSpeed="0.00" departDelay="10.00" arrival="127.00" arrivalLane="c_0" arrivalPos="234.85" arrivalSpeed="13.89" duration="113.00" routeLength="842.56" waitingTime="14.00" waitingCount="1" stopTime="24.00" timeLoss="28.09" rerouteNo="0" devices="tripinfo_v.4" vType="default" speedFactor="1.00" vaporized=""/>
    <tripinfo id="v.5" depart="17.00" departLane="a_0" departPos="12.10" departSpeed="0.00" departDelay="12.00" arrival="137.00" arrivalLane="c_0" arrivalPos="234.85" arrivalSpeed="13.89" duration="120.00" routeLength="835.56" waitingTime="12.00" waitingCount="2" stopTime="25.00" timeLoss="34.28" rerouteNo="0" devices="tripinfo_v.5" vType="bus" speedFactor="1.00" vaporized=""/>
    <tripinfo id="v.6" depart="21.00" departLane="a_0" departPos="5.10" departSpeed="0.00" departDelay="15.00" arrival="148.00" arrivalLane="c_0" arrivalPos="234.85" arrivalSpeed="13.89" duration="127.00" routeLength="842.56" waitingTime="23.00" waitingCount="3" stopTime="22.00" timeLoss="44.09" rerouteNo="0" devices="tripinfo_v.6" vType="default" speedFactor="1.00" vaporized=""/>
    <tripinfo id="v.7" depart="24.00" departLane="a_0" departPos="12.10" departSpeed="0.00" departDelay="17.00" arrival="158.00" arrivalLane="c_0" arrivalPos="234.85" arrivalSpeed="13.89" duration="134.00" routeLength="835.56" waitingTime="21.00" waitingCount="4" stopTime="23.00" timeLoss="50.28" rerouteNo="0" devices="tripinfo_v.7" vType="bus" speedFactor="1.00" vaporized=""/>
    <tripinfo id="v.8" depart="29.00" departLane="a_0" departPos="12.10" departSpeed="0.00" departDelay="21.00" arrival="166.00" arrivalLane="c_0" arrivalPos="234.85" arrivalSpeed="13.89" duration="137.00" routeLength="835.56" waitingTime="20.00" waitingCount="5" stopTime="23.00" timeLoss="53.28" rerouteNo="0" devices="tripinfo_v.8" vType="bus" speedFactor="1.00" vaporized=""/>
    <tripinfo id="v.9" depart="33.00" departLane="a_0" departPos="5.10" departSpeed="0.00" departDelay="24.00" arrival="175.00" arrivalLane="c_0" arrivalPos="234.85" arrivalSpeed="13.89" duration="142.00" routeLength="842.56" waitingTime="28.00" waitingCount="6" stopTime="22.00" timeLoss="59.09" rerouteNo="0" devices="tripinfo_v.9" vType="default" speedFactor="1.00" vaporized=""/>
    <tripinfo id="v.10" depart="36.00" departLane="a_0" departPos="12.10" departSpeed="0.00" departDelay="26.00" arrival="186.00" arrivalLane="c_0" arrivalPos="234.85" arrivalSpeed="13.89" duration="150.00" routeLength="835.56" waitingTime="27.00" waitingCount="7" stopTime="22.00" timeLoss="67.28" rerouteNo="0" devices="tripinfo_v.10" vType="bus" speedFactor="1.00" vaporized=""/>
    <tripinfo id="v.11" depart="40.00" departLane="a_0" departPos="5.10" departSpeed="0.00" departDelay="29.00" arrival="191.00" arrivalLane="c_0" arrivalPos="234.85" arrivalSpeed="13.89" duration="151.00" routeLength="842.56" waitingTime="29.00" waitingCount="8" stopTime="22.00" timeLoss="68.09" rerouteNo="0" devices="tripinfo_v.11" vType="default" speedFactor="1.00" vaporized=""/>
    <tripinfo id="v.12" depart="42.00" departLane="a_0" departPos="5.10" departSpeed="0.00" departDelay="30.00" arrival="202.00" arrivalLane="c_0" arrivalPos="234.85" arrivalSpeed="13.89" duration="160.00" routeLength="842.56" waitingTime="35.00" waitingCount="8" stopTime="22.00" timeLoss="77.09" rerouteNo="0" devices="tripinfo_v.12" vType="default" speedFactor="1.00" vaporized=""/>
    <tripinfo id="v.13" depart="46.00" departLane="a_0" departPos="12.10" departSpeed="0.00" departDelay="33.00" arrival="214.00" arrivalLane="c_0" arrivalPos="234.85" arrivalSpeed="13.89" duration="168.00" routeLength="835.56" waitingTime="38.00" waitingCount="9" stopTime="22.00" timeLoss="85.28" rerouteNo="0" devices="tripinfo_v.13" vType="bus" speedFactor="1.00" vaporized=""/>
    <tripinfo id="v.14" depart="50.00" departLane="a_0" departPos="5.10" departSpeed="0.00" departDelay="36.00" arrival="218.00" arrivalLane="c_0" arrivalPos="234.85" arrivalSpeed="13.89" duration="168.00" routeLength="842.56" waitingTime="40.00" waitingCount="10" stopTime="22.00" timeLoss="85.09" rerouteNo="0" devices="tripinfo_v.14" vType="default" speedFactor="1.00" vaporized=""/>
    <tripinfo id="v.15" depart="52.00" departLane="a_0" departPos="5.10" departSpeed="0.00" departDelay="37.00" arrival="229.00" arrivalLane="c_0" arrivalPos="234.85" arrivalSpeed="13.89" duration="177.00" routeLength="842.56" waitingTime="47.00" waitingCount="11" stopTime="22.00" timeLoss="94.09" rerouteNo="0" devices="tripinfo_v.15" vType="default" speedFactor="1.00" vaporized=""/>
    <tripinfo id="v.16" depart="56.00" departLane="a_0" departPos="12.10" departSpeed="0.00" departDelay="40.00" arrival="242.00" arrivalLane="c_0" arrivalPos="234.85" arrivalSpeed="13.89" duration="186.00" routeLength="835.56" waitingTime="48.00" waitingCount="11" stopTime="22.00" timeLoss="103.28" rerouteNo="0" devices="tripinfo_v.16" vType="bus" speedFactor="1.00" vaporized=""/>
    <tripinfo id="v.17" depart="60.00" departLane="a_0" departPos="5.10" departSpeed="0.00" departDelay="43.00" arrival="246.00" arrivalLane="c_0" arrivalPos="234.85" arrivalSpeed="13.89" duration="186.00" routeLength="842.56" waitingTime="48.00" waitingCount="11" stopTime="24.00" timeLoss="101.09" rerouteNo="0" devices="tripinfo_v.17" vType="default" speedFactor="1.00" vaporized=""/>
    <tripinfo id="v.18" depart="63.00" departLane="a_0" departPos="12.10" departSpeed="0.00" departDelay="45.00" arrival="260.00" arrivalLane="c_0" arrivalPos="234.85" arrivalSpeed="13.89" duration="197.00" routeLength="835.56" waitingTime="56.00" waitingCount="12" stopTime="22.00" timeLoss="114.28" rerouteNo="0" devices="tripinfo_v.18" vType="bus" speedFactor="1.00" vaporized=""/>
    <tripinfo id="v.19" depart="67.00" departLane="a_0" departPos="5.10" departSpeed="0.00" departDelay="48.00" arrival="267.00" arrivalLane="c_0" arrivalPos="234.85" arrivalSpeed="13.89" duration="200.00" routeLength="842.56" waitingTime="60.00" waitingCount="13" stopTime="22.00" timeLoss="117.09" rerouteNo="0" devices="tripinfo_v.19" vType="default" speedFactor="1.00" vaporized=""/>
</tripinfos>
