<?xml version="1.0" encoding="UTF-8"?>

<!-- generated on Wed Jan  3 09:21:14 2018 by SUMO Version v0_32_0+0043-24523c2
<?xml version="1.0" encoding="UTF-8"?>

<configuration xmlns:xsi="http://www.w3.org/2001/XMLSchema-instance" xsi:noNamespaceSchemaLocation="http://sumo.dlr.de/xsd/sumoConfiguration.xsd">

    <input>
        <net-file value="net.net.xml"/>
        <route-files value="input_routes.rou.xml"/>
        <additional-files value="input_additional.add.xml"/>
    </input>

    <output>
        <tripinfo-output value="tripinfos.xml"/>
    </output>

    <report>
        <xml-validation value="never"/>
        <duration-log.disable value="true"/>
        <no-step-log value="true"/>
    </report>

</configuration>
-->

<tripinfos xmlns:xsi="http://www.w3.org/2001/XMLSchema-instance" xsi:noNamespaceSchemaLocation="http://sumo.dlr.de/xsd/tripinfo_file.xsd">
    <tripinfo id="v.0" depart="0.00" departLane="a_0" departPos="5.10" departSpeed="0.00" departDelay="0.00" arrival="89.00" arrivalLane="c_0" arrivalPos="234.85" arrivalSpeed="13.89" duration="89.00" routeLength="842.56" waitingTime="0.00" stopTime="22.00" timeLoss="6.09" rerouteNo="0" devices="tripinfo_v.0" vType="DEFAULT_VEHTYPE" speedFactor="1.00" vaporized=""/>
    <tripinfo id="v.1" depart="2.00" departLane="a_0" departPos="5.10" departSpeed="0.00" departDelay="1.00" arrival="92.00" arrivalLane="c_0" arrivalPos="234.85" arrivalSpeed="13.89" duration="90.00" routeLength="842.56" waitingTime="0.00" stopTime="22.00" timeLoss="7.09" rerouteNo="0" devices="tripinfo_v.1" vType="DEFAULT_VEHTYPE" speedFactor="1.00" vaporized=""/>
    <tripinfo id="v.2" depart="5.00" departLane="a_0" departPos="5.10" departSpeed="0.00" departDelay="3.00" arrival="97.00" arrivalLane="c_0" arrivalPos="234.85" arrivalSpeed="13.89" duration="92.00" routeLength="842.56" waitingTime="0.00" stopTime="24.00" timeLoss="7.09" rerouteNo="0" devices="tripinfo_v.2" vType="DEFAULT_VEHTYPE" speedFactor="1.00" vaporized=""/>
    <tripinfo id="v.4" depart="10.00" departLane="a_0" departPos="5.10" departSpeed="0.00" departDelay="6.00" arrival="118.00" arrivalLane="c_0" arrivalPos="234.85" arrivalSpeed="13.89" duration="108.00" routeLength="842.56" waitingTime="14.00" stopTime="22.00" timeLoss="25.09" rerouteNo="0" devices="tripinfo_v.4" vType="DEFAULT_VEHTYPE" speedFactor="1.00" vaporized=""/>
    <tripinfo id="v.5" depart="12.00" departLane="a_0" departPos="5.10" departSpeed="0.00" departDelay="7.00" arrival="123.00" arrivalLane="c_0" arrivalPos="234.85" arrivalSpeed="13.89" duration="111.00" routeLength="842.56" waitingTime="13.00" stopTime="22.00" timeLoss="28.09" rerouteNo="0" devices="tripinfo_v.5" vType="DEFAULT_VEHTYPE" speedFactor="1.00" vaporized=""/>
    <tripinfo id="v.6" depart="15.00" departLane="a_0" departPos="5.10" departSpeed="0.00" departDelay="9.00" arrival="144.00" arrivalLane="c_0" arrivalPos="234.85" arrivalSpeed="13.89" duration="129.00" routeLength="842.56" waitingTime="28.00" stopTime="22.00" timeLoss="46.09" rerouteNo="0" devices="tripinfo_v.6" vType="DEFAULT_VEHTYPE" speedFactor="1.00" vaporized=""/>
    <tripinfo id="v.7" depart="17.00" departLane="a_0" departPos="5.10" departSpeed="0.00" departDelay="10.00" arrival="149.00" arrivalLane="c_0" arrivalPos="234.85" arrivalSpeed="13.89" duration="132.00" routeLength="842.56" waitingTime="27.00" stopTime="22.00" timeLoss="49.09" rerouteNo="0" devices="tripinfo_v.7" vType="DEFAULT_VEHTYPE" speedFactor="1.00" vaporized=""/>
    <tripinfo id="v.8" depart="20.00" departLane="a_0" departPos="5.10" departSpeed="0.00" departDelay="12.00" arrival="170.00" arrivalLane="c_0" arrivalPos="234.85" arrivalSpeed="13.89" duration="150.00" routeLength="842.56" waitingTime="42.00" stopTime="22.00" timeLoss="67.09" rerouteNo="0" devices="tripinfo_v.8" vType="DEFAULT_VEHTYPE" speedFactor="1.00" vaporized=""/>
    <tripinfo id="v.9" depart="22.00" departLane="a_0" departPos="5.10" departSpeed="0.00" departDelay="13.00" arrival="175.00" arrivalLane="c_0" arrivalPos="234.85" arrivalSpeed="13.89" duration="153.00" routeLength="842.56" waitingTime="41.00" stopTime="22.00" timeLoss="70.09" rerouteNo="0" devices="tripinfo_v.9" vType="DEFAULT_VEHTYPE" speedFactor="1.00" vaporized=""/>
    <tripinfo id="v.10" depart="25.00" departLane="a_0" departPos="5.10" departSpeed="0.00" departDelay="15.00" arrival="196.00" arrivalLane="c_0" arrivalPos="234.85" arrivalSpeed="13.89" duration="171.00" routeLength="842.56" waitingTime="56.00" stopTime="22.00" timeLoss="88.09" rerouteNo="0" devices="tripinfo_v.10" vType="DEFAULT_VEHTYPE" speedFactor="1.00" vaporized=""/>
    <tripinfo id="v.11" depart="27.00" departLane="a_0" departPos="5.10" departSpeed="0.00" departDelay="16.00" arrival="201.00" arrivalLane="c_0" arrivalPos="234.85" arrivalSpeed="13.89" duration="174.00" routeLength="842.56" waitingTime="55.00" stopTime="22.00" timeLoss="91.09" rerouteNo="0" devices="tripinfo_v.11" vType="DEFAULT_VEHTYPE" speedFactor="1.00" vaporized=""/>
    <tripinfo id="v.12" depart="30.00" departLane="a_0" departPos="5.10" departSpeed="0.00" departDelay="18.00" arrival="222.00" arrivalLane="c_0" arrivalPos="234.85" arrivalSpeed="13.89" duration="192.00" routeLength="842.56" waitingTime="70.00" stopTime="22.00" timeLoss="109.09" rerouteNo="0" devices="tripinfo_v.12" vType="DEFAULT_VEHTYPE" speedFactor="1.00" vaporized=""/>
    <tripinfo id="v.13" depart="32.00" departLane="a_0" departPos="5.10" departSpeed="0.00" departDelay="19.00" arrival="227.00" arrivalLane="c_0" arrivalPos="234.85" arrivalSpeed="13.89" duration="195.00" routeLength="842.56" waitingTime="69.00" stopTime="22.00" timeLoss="112.09" rerouteNo="0" devices="tripinfo_v.13" vType="DEFAULT_VEHTYPE" speedFactor="1.00" vaporized=""/>
    <tripinfo id="v.14" depart="35.00" departLane="a_0" departPos="5.10" departSpeed="0.00" departDelay="21.00" arrival="248.00" arrivalLane="c_0" arrivalPos="234.85" arrivalSpeed="13.89" duration="213.00" routeLength="842.56" waitingTime="84.00" stopTime="22.00" timeLoss="130.09" rerouteNo="0" devices="tripinfo_v.14" vType="DEFAULT_VEHTYPE" speedFactor="1.00" vaporized=""/>
    <tripinfo id="v.15" depart="37.00" departLane="a_0" departPos="5.10" departSpeed="0.00" departDelay="22.00" arrival="253.00" arrivalLane="c_0" arrivalPos="234.85" arrivalSpeed="13.89" duration="216.00" routeLength="842.56" waitingTime="83.00" stopTime="22.00" timeLoss="133.09" rerouteNo="0" devices="tripinfo_v.15" vType="DEFAULT_VEHTYPE" speedFactor="1.00" vaporized=""/>
    <tripinfo id="v.16" depart="40.00" departLane="a_0" departPos="5.10" departSpeed="0.00" departDelay="24.00" arrival="274.00" arrivalLane="c_0" arrivalPos="234.85" arrivalSpeed="13.89" duration="234.00" routeLength="842.56" waitingTime="98.00" stopTime="22.00" timeLoss="151.09" rerouteNo="0" devices="tripinfo_v.16" vType="DEFAULT_VEHTYPE" speedFactor="1.00" vaporized=""/>
    <tripinfo id="v.17" depart="42.00" departLane="a_0" departPos="5.10" departSpeed="0.00" departDelay="25.00" arrival="279.00" arrivalLane="c_0" arrivalPos="234.85" arrivalSpeed="13.89" duration="237.00" routeLength="842.56" waitingTime="97.00" stopTime="22.00" timeLoss="154.09" rerouteNo="0" devices="tripinfo_v.17" vType="DEFAULT_VEHTYPE" speedFactor="1.00" vaporized=""/>
    <tripinfo id="v.3" depart="7.00" departLane="a_0" departPos="5.10" departSpeed="0.00" departDelay="4.00" arrival="284.00" arrivalLane="c_0" arrivalPos="234.85" arrivalSpeed="13.89" duration="277.00" routeLength="842.56" waitingTime="15.00" stopTime="194.00" timeLoss="22.07" rerouteNo="0" devices="tripinfo_v.3" vType="DEFAULT_VEHTYPE" speedFactor="1.00" vaporized=""/>
    <tripinfo id="v.18" depart="45.00" departLane="a_0" departPos="5.10" departSpeed="0.00" departDelay="27.00" arrival="300.00" arrivalLane="c_0" arrivalPos="234.85" arrivalSpeed="13.89" duration="255.00" routeLength="842.56" waitingTime="112.00" stopTime="22.00" timeLoss="172.09" rerouteNo="0" devices="tripinfo_v.18" vType="DEFAULT_VEHTYPE" speedFactor="1.00" vaporized=""/>
    <tripinfo id="v.19" depart="47.00" departLane="a_0" departPos="5.10" departSpeed="0.00" departDelay="28.00" arrival="305.00" arrivalLane="c_0" arrivalPos="234.85" arrivalSpeed="13.89" duration="258.00" routeLength="842.56" waitingTime="112.00" stopTime="22.00" timeLoss="175.09" rerouteNo="0" devices="tripinfo_v.19" vType="DEFAULT_VEHTYPE" speedFactor="1.00" vaporized=""/>
</tripinfos>
