<?xml version="1.0" encoding="UTF-8"?>

<!-- generated on Wed Dec 21 09:24:18 2016 by SUMO Version dev-SVN-r22342
<?xml version="1.0" encoding="UTF-8"?>

<configuration xmlns:xsi="http://www.w3.org/2001/XMLSchema-instance" xsi:noNamespaceSchemaLocation="http://sumo.dlr.de/xsd/sumoConfiguration.xsd">

    <input>
        <net-file value="net.net.xml"/>
        <additional-files value="input_routes.rou.xml,input_additional.add.xml,input_additional2.add.xml"/>
    </input>

    <report>
        <xml-validation value="never"/>
        <duration-log.disable value="true"/>
        <no-step-log value="true"/>
    </report>

    <mesoscopic>
        <mesosim value="true"/>
    </mesoscopic>

</configuration>
-->

<detector xmlns:xsi="http://www.w3.org/2001/XMLSchema-instance" xsi:noNamespaceSchemaLocation="http://sumo.dlr.de/xsd/det_e1meso_file.xsd">
    <interval begin="0.00" end="100.00" id="1/1to1/0" sampledSeconds="0.00" departed="0" arrived="0" entered="0" left="0"/>
    <interval begin="100.00" end="161.00" id="1/1to1/0" sampledSeconds="10.00" density="1.64" occupancy="0.49" waitingTime="0.00" speed="10.00" departed="0" arrived="1" entered="1" left="0"/>
</detector>
