<?xml version="1.0"?>

<!-- generated on 04/30/09 09:14:53 by SUMO sumo Version dev-SVN-r7092
<configuration>

   <input>
      <net-file>net.net.xml</net-file>
      <additional-files>input_routes.rou.xml,input_additional.add.xml,input_additional2.add.xml</additional-files>
   </input>

   <time>
      <begin>0</begin>
      <end>100</end>
   </time>

   <processing>
      <no-duration-log>true</no-duration-log>
      <no-step-log>true</no-step-log>
   </processing>

</configuration>
-->

<detector>
   <interval begin="0" end="100" id="3/1to2/1" nSamples="41" meanSpeed="10.00" meanOccupancy="2.00" maxOccupancy="10.00" meanMaxJamLengthInVehicles="0.00" meanMaxJamLengthInMeters="0.00" maxJamLengthInVehicles="0" maxJamLengthInMeters="0.00" jamLengthInVehiclesSum="0" jamLengthInMetersSum="0.00" meanHaltingDuration="0.00" maxHaltingDuration="0" haltingDurationSum="0" meanIntervalHaltingDuration="0.00" maxIntervalHaltingDuration="0" intervalHaltingDurationSum="0" startedHalts="0.00" meanVehicleNumber="0.41" maxVehicleNumber="2" />
   <interval begin="0" end="100" id="4/1to3/1" nSamples="43" meanSpeed="10.00" meanOccupancy="2.00" maxOccupancy="10.00" meanMaxJamLengthInVehicles="0.00" meanMaxJamLengthInMeters="0.00" maxJamLengthInVehicles="0" maxJamLengthInMeters="0.00" jamLengthInVehiclesSum="0" jamLengthInMetersSum="0.00" meanHaltingDuration="0.00" maxHaltingDuration="0" haltingDurationSum="0" meanIntervalHaltingDuration="0.00" maxIntervalHaltingDuration="0" intervalHaltingDurationSum="0" startedHalts="0.00" meanVehicleNumber="0.43" maxVehicleNumber="2" />
   <interval begin="100" end="101" id="3/1to2/1" nSamples="0" meanSpeed="-1.00" meanOccupancy="0.00" maxOccupancy="0.00" meanMaxJamLengthInVehicles="0.00" meanMaxJamLengthInMeters="0.00" maxJamLengthInVehicles="0" maxJamLengthInMeters="0.00" jamLengthInVehiclesSum="0" jamLengthInMetersSum="0.00" meanHaltingDuration="0.00" maxHaltingDuration="0" haltingDurationSum="0" meanIntervalHaltingDuration="0.00" maxIntervalHaltingDuration="0" intervalHaltingDurationSum="0" startedHalts="0.00" meanVehicleNumber="0.00" maxVehicleNumber="0" />
   <interval begin="100" end="101" id="4/1to3/1" nSamples="0" meanSpeed="-1.00" meanOccupancy="0.00" maxOccupancy="0.00" meanMaxJamLengthInVehicles="0.00" meanMaxJamLengthInMeters="0.00" maxJamLengthInVehicles="0" maxJamLengthInMeters="0.00" jamLengthInVehiclesSum="0" jamLengthInMetersSum="0.00" meanHaltingDuration="0.00" maxHaltingDuration="0" haltingDurationSum="0" meanIntervalHaltingDuration="0.00" maxIntervalHaltingDuration="0" intervalHaltingDurationSum="0" startedHalts="0.00" meanVehicleNumber="0.00" maxVehicleNumber="0" />
</detector>
