<?xml version="1.0" encoding="UTF-8"?>

<!-- generated on Tue Mar 14 17:04:10 2017 by SUMO Version dev-SVN-r23388
<?xml version="1.0" encoding="UTF-8"?>

<configuration xmlns:xsi="http://www.w3.org/2001/XMLSchema-instance" xsi:noNamespaceSchemaLocation="http://sumo.dlr.de/xsd/sumoConfiguration.xsd">

    <input>
        <net-file value="net.net.xml"/>
        <route-files value="input_routes.rou.xml"/>
        <load-state value="input_state.xml"/>
    </input>

    <output>
        <tripinfo-output value="tripinfos.xml"/>
    </output>

    <time>
        <begin value="26"/>
    </time>

    <report>
        <verbose value="true"/>
        <xml-validation value="never"/>
        <duration-log.disable value="true"/>
        <no-step-log value="true"/>
    </report>

</configuration>
-->

<tripinfos xmlns:xsi="http://www.w3.org/2001/XMLSchema-instance" xsi:noNamespaceSchemaLocation="http://sumo.dlr.de/xsd/tripinfo_file.xsd">
    <tripinfo id="v0" depart="0.00" departLane="" departPos="-1.00" departSpeed="-1.00" departDelay="0.00" arrival="26.00" arrivalLane="end_0" arrivalPos="100.00" arrivalSpeed="13.89" duration="26.00" routeLength="308.00" waitSteps="0" timeLoss="0.00" rerouteNo="0" devices="tripinfo_v0" vType="type0" speedFactor="1.00" vaporized=""/>
</tripinfos>
