<?xml version="1.0" encoding="UTF-8"?>

<!-- generated on 2026-01-10T23:36:24.845672+01:00 by Eclipse SUMO sumo v1_25_0+0897-9d402d589e3
<sumoConfiguration xmlns:xsi="http://www.w3.org/2001/XMLSchema-instance" xsi:noNamespaceSchemaLocation="http://sumo.dlr.de/xsd/sumoConfiguration.xsd">

    <input>
        <net-file value="input_net.net.xml"/>
    </input>

    <output>
        <vehroute-output value="vehroutes.xml"/>
        <stop-output value="stopinfos.xml"/>
    </output>

    <report>
        <no-step-log value="true"/>
    </report>

    <traci_server>
        <remote-port value="43595"/>
    </traci_server>

</sumoConfiguration>
-->

<stops xmlns:xsi="http://www.w3.org/2001/XMLSchema-instance" xsi:noNamespaceSchemaLocation="http://sumo.dlr.de/xsd/stopinfo_file.xsd">
    <stopinfo id="0" type="DEFAULT_VEHTYPE" lane="1fi_0" pos="59.99" parking="0" started="11.00" ended="411.00" initialPersons="0" loadedPersons="0" unloadedPersons="0" initialContainers="0" loadedContainers="0" unloadedContainers="0" blockedDuration="0.00"/>
    <stopinfo id="1" type="DEFAULT_VEHTYPE" lane="1fi_0" pos="52.48" parking="0" started="14.00" ended="414.00" initialPersons="0" loadedPersons="0" unloadedPersons="0" initialContainers="0" loadedContainers="0" unloadedContainers="0" blockedDuration="0.00"/>
    <stopinfo id="2" type="DEFAULT_VEHTYPE" lane="1fi_0" pos="44.98" parking="0" started="16.00" ended="416.00" initialPersons="0" loadedPersons="0" unloadedPersons="0" initialContainers="0" loadedContainers="0" unloadedContainers="0" blockedDuration="0.00"/>
</stops>
