<?xml version="1.0" encoding="UTF-8"?>

<!-- generated on 2024-11-29 09:03:41 by Eclipse SUMO sumo Version v1_21_0+1050-ce97be6b70b
This data file and the accompanying materials
are made available under the terms of the Eclipse Public License v2.0
which accompanies this distribution, and is available at
http://www.eclipse.org/legal/epl-v20.html
This file may also be made available under the following Secondary
Licenses when the conditions for such availability set forth in the Eclipse
Public License 2.0 are satisfied: GNU General Public License, version 2
or later which is available at
https://www.gnu.org/licenses/old-licenses/gpl-2.0-standalone.html
SPDX-License-Identifier: EPL-2.0 OR GPL-2.0-or-later
<sumoConfiguration xmlns:xsi="http://www.w3.org/2001/XMLSchema-instance" xsi:noNamespaceSchemaLocation="http://sumo.dlr.de/xsd/sumoConfiguration.xsd">

    <input>
        <net-file value="net.net.xml"/>
        <route-files value="input_routes.rou.xml"/>
        <additional-files value="input_additional.add.xml"/>
    </input>

    <output>
        <write-license value="true"/>
        <edgedata-output value="aggregated.xml"/>
    </output>

    <processing>
        <default.speeddev value="0"/>
    </processing>

    <report>
        <xml-validation value="never"/>
        <no-step-log value="true"/>
    </report>

</sumoConfiguration>
-->

<meandata xmlns:xsi="http://www.w3.org/2001/XMLSchema-instance" xsi:noNamespaceSchemaLocation="http://sumo.dlr.de/xsd/meandata_file.xsd">
    <interval begin="0.00" end="7371.00" id="DEFAULT_EDGEDATA">
        <edge id="E0" sampledSeconds="115312.71" traveltime="2744.34" overlapTraveltime="2760.69" density="78.22" laneDensity="39.11" occupancy="19.24" waitingTime="110503.70" timeLoss="114618.39" speed="0.07" speedRelative="0.01" departed="0" arrived="39" entered="128" left="89" laneChangedFrom="11" laneChangedTo="13" teleported="11"/>
        <edge id="E1" sampledSeconds="35512.27" traveltime="660.47" overlapTraveltime="717.94" density="48.18" laneDensity="24.09" occupancy="11.62" waitingTime="33298.37" timeLoss="35138.35" speed="0.15" speedRelative="0.01" departed="50" arrived="0" entered="0" left="50" laneChangedFrom="19" laneChangedTo="19" teleported="6"/>
    </interval>
</meandata>
