<?xml version="1.0" encoding="UTF-8"?>

<!-- generated on 2022-11-08 23:25:42 by Eclipse SUMO sumo Version v1_15_0+0056-02dd159
This data file and the accompanying materials
are made available under the terms of the Eclipse Public License v2.0
which accompanies this distribution, and is available at
http://www.eclipse.org/legal/epl-v20.html
This file may also be made available under the following Secondary
Licenses when the conditions for such availability set forth in the Eclipse
Public License 2.0 are satisfied: GNU General Public License, version 2
or later which is available at
https://www.gnu.org/licenses/old-licenses/gpl-2.0-standalone.html
SPDX-License-Identifier: EPL-2.0 OR GPL-2.0-or-later
<configuration xmlns:xsi="http://www.w3.org/2001/XMLSchema-instance" xsi:noNamespaceSchemaLocation="http://sumo.dlr.de/xsd/sumoConfiguration.xsd">

    <input>
        <net-file value="net.net.xml"/>
        <route-files value="input_routes.rou.xml"/>
    </input>

    <output>
        <write-license value="true"/>
        <fcd-output value="fcd.xml"/>
        <tripinfo-output value="tripinfos.xml"/>
    </output>

    <processing>
        <default.speeddev value="0"/>
        <pedestrian.model value="striping"/>
        <pedestrian.striping.dawdling value="0"/>
    </processing>

    <report>
        <xml-validation value="never"/>
        <no-step-log value="true"/>
    </report>

</configuration>
-->

<tripinfos xmlns:xsi="http://www.w3.org/2001/XMLSchema-instance" xsi:noNamespaceSchemaLocation="http://sumo.dlr.de/xsd/tripinfo_file.xsd">
    <personinfo id="pEW" depart="20.00" type="ped" speedFactor="1.00">
        <walk depart="20.00" departPos="0.00" arrival="27.00" arrivalPos="95.24" duration="7.00" routeLength="6.21" timeLoss="0.79" maxSpeed="1.00"/>
    </personinfo>
    <personinfo id="pEN" depart="25.00" type="ped" speedFactor="1.00">
        <walk depart="25.00" departPos="0.00" arrival="31.00" arrivalPos="98.54" duration="6.00" routeLength="5.04" timeLoss="0.96" maxSpeed="1.00"/>
    </personinfo>
    <personinfo id="pWN" depart="0.00" type="ped" speedFactor="1.00">
        <walk depart="0.00" departPos="0.00" arrival="101.00" arrivalPos="98.54" duration="101.00" routeLength="100.29" timeLoss="0.71" maxSpeed="1.00"/>
    </personinfo>
    <personinfo id="pNW" depart="10.00" type="ped" speedFactor="1.00">
        <walk depart="10.00" departPos="0.00" arrival="114.00" arrivalPos="95.24" duration="104.00" routeLength="103.59" timeLoss="0.41" maxSpeed="1.00"/>
    </personinfo>
    <personinfo id="pWE" depart="5.00" type="ped" speedFactor="1.00">
        <walk depart="5.00" departPos="0.00" arrival="205.00" arrivalPos="98.54" duration="200.00" routeLength="199.99" timeLoss="0.01" maxSpeed="1.00"/>
    </personinfo>
    <personinfo id="pNE" depart="15.00" type="ped" speedFactor="1.00">
        <walk depart="15.00" departPos="0.00" arrival="218.00" arrivalPos="98.54" duration="203.00" routeLength="202.12" timeLoss="0.88" maxSpeed="1.00"/>
    </personinfo>
</tripinfos>
