<?xml version="1.0"?>

<!-- generated on 09/07/10 14:13:10 by SUMO sumo Version dev-SVN-r9058
<configuration>

    <input>
        <net-file value="three_split.net.xml"/>
        <route-files value="input_routes.rou.xml"/>
    </input>

    <output>
        <tripinfo-output value="tripinfos.xml"/>
    </output>

    <time>
        <end value="1000"/>
    </time>

    <report>
        <no-duration-log value="true"/>
        <no-step-log value="true"/>
    </report>

</configuration>
-->

<tripinfos>
    <tripinfo id="p" depart="0.00" departLane="beg_0" departPos="0.00" departSpeed="0.00" departDelay="0.00" arrival="201.00" arrivalLane="end_0" arrivalPos="2.30" arrivalSpeed="5.83" duration="201.00" routeLength="2481.65" waitSteps="15" rerouteNo="0" devices="" vtype="DEFAULT_VEHTYPE" vaporized=""/>
    <personinfo id="p1" depart="25.00">
        <stop arrival="25.00"/>
        <ride depart="26.00" arrival="201.00"/>
    </personinfo>
</tripinfos>
