<?xml version="1.0" encoding="UTF-8"?>

<!-- generated on 2022-08-28 19:21:31 by Eclipse SUMO sumo Version v1_14_1+0598-02ca306
This data file and the accompanying materials
are made available under the terms of the Eclipse Public License v2.0
which accompanies this distribution, and is available at
http://www.eclipse.org/legal/epl-v20.html
This file may also be made available under the following Secondary
Licenses when the conditions for such availability set forth in the Eclipse
Public License 2.0 are satisfied: GNU General Public License, version 2
or later which is available at
https://www.gnu.org/licenses/old-licenses/gpl-2.0-standalone.html
SPDX-License-Identifier: EPL-2.0 OR GPL-2.0-or-later
<configuration xmlns:xsi="http://www.w3.org/2001/XMLSchema-instance" xsi:noNamespaceSchemaLocation="http://sumo.dlr.de/xsd/sumoConfiguration.xsd">

    <input>
        <net-file value="net.net.xml"/>
        <route-files value="input_routes.rou.xml"/>
        <additional-files value="input_additional.add.xml"/>
    </input>

    <output>
        <write-license value="true"/>
        <tripinfo-output value="tripinfos.xml"/>
    </output>

    <processing>
        <default.speeddev value="0"/>
        <pedestrian.model value="nonInteracting"/>
    </processing>

    <report>
        <xml-validation value="never"/>
        <duration-log.statistics value="true"/>
        <no-step-log value="true"/>
    </report>

</configuration>
-->

<tripinfos xmlns:xsi="http://www.w3.org/2001/XMLSchema-instance" xsi:noNamespaceSchemaLocation="http://sumo.dlr.de/xsd/tripinfo_file.xsd">
    <personinfo id="p4" depart="5.00" type="p4" speedFactor="1.00">
        <walk depart="5.00" departPos="0.00" arrival="71.00" arrivalPos="19.99" duration="66.00" routeLength="79.99" timeLoss="3.47" maxSpeed="1.28"/>
    </personinfo>
    <personinfo id="p10" depart="12.00" type="p10" speedFactor="1.00">
        <walk depart="12.00" departPos="0.00" arrival="73.00" arrivalPos="19.99" duration="61.00" routeLength="79.99" timeLoss="3.24" maxSpeed="1.38"/>
    </personinfo>
    <personinfo id="p7" depart="8.00" type="p7" speedFactor="1.00">
        <walk depart="8.00" departPos="0.00" arrival="73.00" arrivalPos="19.99" duration="65.00" routeLength="79.99" timeLoss="3.20" maxSpeed="1.29"/>
    </personinfo>
    <personinfo id="p3" depart="4.00" type="p3" speedFactor="1.00">
        <walk depart="4.00" departPos="0.00" arrival="74.00" arrivalPos="19.99" duration="70.00" routeLength="79.99" timeLoss="3.07" maxSpeed="1.20"/>
    </personinfo>
    <personinfo id="p2" depart="2.00" type="p2" speedFactor="1.00">
        <walk depart="2.00" departPos="0.00" arrival="77.00" arrivalPos="19.99" duration="75.00" routeLength="79.99" timeLoss="3.39" maxSpeed="1.12"/>
    </personinfo>
    <personinfo id="p15" depart="17.00" type="p15" speedFactor="1.00">
        <walk depart="17.00" departPos="0.00" arrival="80.00" arrivalPos="19.99" duration="63.00" routeLength="79.99" timeLoss="3.38" maxSpeed="1.34"/>
    </personinfo>
    <personinfo id="p13" depart="15.00" type="p13" speedFactor="1.00">
        <walk depart="15.00" departPos="0.00" arrival="82.00" arrivalPos="19.99" duration="67.00" routeLength="79.99" timeLoss="3.83" maxSpeed="1.27"/>
    </personinfo>
    <personinfo id="p6" depart="7.00" type="p6" speedFactor="1.00">
        <walk depart="7.00" departPos="0.00" arrival="82.00" arrivalPos="19.99" duration="75.00" routeLength="79.99" timeLoss="3.79" maxSpeed="1.12"/>
    </personinfo>
    <personinfo id="p17" depart="19.00" type="p17" speedFactor="1.00">
        <walk depart="19.00" departPos="0.00" arrival="84.00" arrivalPos="19.99" duration="65.00" routeLength="79.99" timeLoss="3.73" maxSpeed="1.31"/>
    </personinfo>
    <personinfo id="p21" depart="24.00" type="p21" speedFactor="1.00">
        <walk depart="24.00" departPos="0.00" arrival="84.00" arrivalPos="19.99" duration="60.00" routeLength="79.99" timeLoss="3.58" maxSpeed="1.42"/>
    </personinfo>
    <personinfo id="p5" depart="6.00" type="p5" speedFactor="1.00">
        <walk depart="6.00" departPos="0.00" arrival="86.00" arrivalPos="19.99" duration="80.00" routeLength="79.99" timeLoss="3.50" maxSpeed="1.05"/>
    </personinfo>
    <personinfo id="p18" depart="20.00" type="p18" speedFactor="1.00">
        <walk depart="20.00" departPos="0.00" arrival="87.00" arrivalPos="19.99" duration="67.00" routeLength="79.99" timeLoss="3.17" maxSpeed="1.25"/>
    </personinfo>
    <personinfo id="p1" depart="1.00" type="p1" speedFactor="1.00">
        <walk depart="1.00" departPos="0.00" arrival="90.00" arrivalPos="19.99" duration="89.00" routeLength="79.99" timeLoss="3.83" maxSpeed="0.94"/>
    </personinfo>
    <personinfo id="p28" depart="32.00" type="p28" speedFactor="1.00">
        <walk depart="32.00" departPos="0.00" arrival="92.00" arrivalPos="19.99" duration="60.00" routeLength="79.99" timeLoss="3.97" maxSpeed="1.43"/>
    </personinfo>
    <personinfo id="p22" depart="25.00" type="p22" speedFactor="1.00">
        <walk depart="25.00" departPos="0.00" arrival="92.00" arrivalPos="19.99" duration="67.00" routeLength="79.99" timeLoss="3.37" maxSpeed="1.26"/>
    </personinfo>
    <personinfo id="p29" depart="34.00" type="p29" speedFactor="1.00">
        <walk depart="34.00" departPos="0.00" arrival="96.00" arrivalPos="19.99" duration="62.00" routeLength="79.99" timeLoss="3.88" maxSpeed="1.38"/>
    </personinfo>
    <personinfo id="p14" depart="16.00" type="p14" speedFactor="1.00">
        <walk depart="16.00" departPos="0.00" arrival="96.00" arrivalPos="19.99" duration="80.00" routeLength="79.99" timeLoss="3.49" maxSpeed="1.05"/>
    </personinfo>
    <personinfo id="p16" depart="18.00" type="p16" speedFactor="1.00">
        <walk depart="18.00" departPos="0.00" arrival="96.00" arrivalPos="19.99" duration="78.00" routeLength="79.99" timeLoss="3.03" maxSpeed="1.07"/>
    </personinfo>
    <personinfo id="p30" depart="35.00" type="p30" speedFactor="1.00">
        <walk depart="35.00" departPos="0.00" arrival="102.00" arrivalPos="19.99" duration="67.00" routeLength="79.99" timeLoss="3.42" maxSpeed="1.26"/>
    </personinfo>
    <personinfo id="p9" depart="11.00" type="p9" speedFactor="1.00">
        <walk depart="11.00" departPos="0.00" arrival="103.00" arrivalPos="19.99" duration="92.00" routeLength="79.99" timeLoss="3.59" maxSpeed="0.90"/>
    </personinfo>
    <personinfo id="p27" depart="31.00" type="p27" speedFactor="1.00">
        <walk depart="31.00" departPos="0.00" arrival="105.00" arrivalPos="19.99" duration="74.00" routeLength="79.99" timeLoss="3.97" maxSpeed="1.14"/>
    </personinfo>
    <personinfo id="p8" depart="9.00" type="p8" speedFactor="1.00">
        <walk depart="9.00" departPos="0.00" arrival="106.00" arrivalPos="19.99" duration="97.00" routeLength="79.99" timeLoss="3.34" maxSpeed="0.85"/>
    </personinfo>
    <personinfo id="p24" depart="27.00" type="p24" speedFactor="1.00">
        <walk depart="27.00" departPos="0.00" arrival="108.00" arrivalPos="19.99" duration="81.00" routeLength="79.99" timeLoss="3.46" maxSpeed="1.03"/>
    </personinfo>
    <personinfo id="p0" depart="0.00" type="p0" speedFactor="1.00">
        <walk depart="0.00" departPos="0.00" arrival="112.00" arrivalPos="19.99" duration="112.00" routeLength="79.99" timeLoss="3.04" maxSpeed="0.73"/>
    </personinfo>
    <personinfo id="p34" depart="40.00" type="p34" speedFactor="1.00">
        <walk depart="40.00" departPos="0.00" arrival="114.00" arrivalPos="19.99" duration="74.00" routeLength="79.99" timeLoss="3.79" maxSpeed="1.14"/>
    </personinfo>
    <personinfo id="p33" depart="39.00" type="p33" speedFactor="1.00">
        <walk depart="39.00" departPos="0.00" arrival="115.00" arrivalPos="19.99" duration="76.00" routeLength="79.99" timeLoss="4.00" maxSpeed="1.11"/>
    </personinfo>
    <personinfo id="p38" depart="45.00" type="p38" speedFactor="1.00">
        <walk depart="45.00" departPos="0.00" arrival="115.00" arrivalPos="19.99" duration="70.00" routeLength="79.99" timeLoss="3.06" maxSpeed="1.20"/>
    </personinfo>
    <personinfo id="p19" depart="21.00" type="p19" speedFactor="1.00">
        <walk depart="21.00" departPos="0.00" arrival="116.00" arrivalPos="19.99" duration="95.00" routeLength="79.99" timeLoss="3.27" maxSpeed="0.87"/>
    </personinfo>
    <personinfo id="p20" depart="23.00" type="p20" speedFactor="1.00">
        <walk depart="23.00" departPos="0.00" arrival="117.00" arrivalPos="19.99" duration="94.00" routeLength="79.99" timeLoss="3.31" maxSpeed="0.88"/>
    </personinfo>
    <personinfo id="p12" depart="14.00" type="p12" speedFactor="1.00">
        <walk depart="14.00" departPos="0.00" arrival="122.00" arrivalPos="19.99" duration="108.00" routeLength="79.99" timeLoss="3.67" maxSpeed="0.77"/>
    </personinfo>
    <personinfo id="p11" depart="13.00" type="p11" speedFactor="1.00">
        <walk depart="13.00" departPos="0.00" arrival="122.00" arrivalPos="19.99" duration="109.00" routeLength="79.99" timeLoss="3.38" maxSpeed="0.76"/>
    </personinfo>
    <personinfo id="p31" depart="36.00" type="p31" speedFactor="1.00">
        <walk depart="36.00" departPos="0.00" arrival="123.00" arrivalPos="19.99" duration="87.00" routeLength="79.99" timeLoss="3.31" maxSpeed="0.96"/>
    </personinfo>
    <personinfo id="p36" depart="42.00" type="p36" speedFactor="1.00">
        <walk depart="42.00" departPos="0.00" arrival="124.00" arrivalPos="19.99" duration="82.00" routeLength="79.99" timeLoss="3.93" maxSpeed="1.02"/>
    </personinfo>
    <personinfo id="p46" depart="57.00" type="p46" speedFactor="1.00">
        <walk depart="57.00" departPos="0.00" arrival="124.00" arrivalPos="19.99" duration="67.00" routeLength="79.99" timeLoss="3.65" maxSpeed="1.26"/>
    </personinfo>
    <personinfo id="p52" depart="66.00" type="p52" speedFactor="1.00">
        <walk depart="66.00" departPos="0.00" arrival="125.00" arrivalPos="19.99" duration="59.00" routeLength="79.99" timeLoss="3.37" maxSpeed="1.44"/>
    </personinfo>
    <personinfo id="p43" depart="53.00" type="p43" speedFactor="1.00">
        <walk depart="53.00" departPos="0.00" arrival="125.00" arrivalPos="19.99" duration="72.00" routeLength="79.99" timeLoss="3.15" maxSpeed="1.16"/>
    </personinfo>
    <personinfo id="p45" depart="56.00" type="p45" speedFactor="1.00">
        <walk depart="56.00" departPos="0.00" arrival="126.00" arrivalPos="19.99" duration="70.00" routeLength="79.99" timeLoss="3.44" maxSpeed="1.20"/>
    </personinfo>
    <personinfo id="p26" depart="29.00" type="p26" speedFactor="1.00">
        <walk depart="29.00" departPos="0.00" arrival="126.00" arrivalPos="19.99" duration="97.00" routeLength="79.99" timeLoss="3.38" maxSpeed="0.85"/>
    </personinfo>
    <personinfo id="p41" depart="50.00" type="p41" speedFactor="1.00">
        <walk depart="50.00" departPos="0.00" arrival="127.00" arrivalPos="19.99" duration="77.00" routeLength="79.99" timeLoss="3.01" maxSpeed="1.08"/>
    </personinfo>
    <personinfo id="p47" depart="58.00" type="p47" speedFactor="1.00">
        <walk depart="58.00" departPos="0.00" arrival="130.00" arrivalPos="19.99" duration="72.00" routeLength="79.99" timeLoss="3.75" maxSpeed="1.17"/>
    </personinfo>
    <personinfo id="p35" depart="41.00" type="p35" speedFactor="1.00">
        <walk depart="41.00" departPos="0.00" arrival="131.00" arrivalPos="19.99" duration="90.00" routeLength="79.99" timeLoss="3.30" maxSpeed="0.92"/>
    </personinfo>
    <personinfo id="p56" depart="71.00" type="p56" speedFactor="1.00">
        <walk depart="71.00" departPos="0.00" arrival="132.00" arrivalPos="19.99" duration="61.00" routeLength="79.99" timeLoss="3.38" maxSpeed="1.39"/>
    </personinfo>
    <personinfo id="p44" depart="54.00" type="p44" speedFactor="1.00">
        <walk depart="54.00" departPos="0.00" arrival="132.00" arrivalPos="19.99" duration="78.00" routeLength="79.99" timeLoss="3.33" maxSpeed="1.07"/>
    </personinfo>
    <personinfo id="p48" depart="59.00" type="p48" speedFactor="1.00">
        <walk depart="59.00" departPos="0.00" arrival="133.00" arrivalPos="19.99" duration="74.00" routeLength="79.99" timeLoss="3.88" maxSpeed="1.14"/>
    </personinfo>
    <personinfo id="p32" depart="38.00" type="p32" speedFactor="1.00">
        <walk depart="38.00" departPos="0.00" arrival="133.00" arrivalPos="19.99" duration="95.00" routeLength="79.99" timeLoss="3.32" maxSpeed="0.87"/>
    </personinfo>
    <personinfo id="p51" depart="64.00" type="p51" speedFactor="1.00">
        <walk depart="64.00" departPos="0.00" arrival="133.00" arrivalPos="19.99" duration="69.00" routeLength="79.99" timeLoss="3.14" maxSpeed="1.21"/>
    </personinfo>
    <personinfo id="p40" depart="48.00" type="p40" speedFactor="1.00">
        <walk depart="48.00" departPos="0.00" arrival="134.00" arrivalPos="19.99" duration="86.00" routeLength="79.99" timeLoss="3.55" maxSpeed="0.97"/>
    </personinfo>
    <personinfo id="p37" depart="44.00" type="p37" speedFactor="1.00">
        <walk depart="44.00" departPos="0.00" arrival="138.00" arrivalPos="19.99" duration="94.00" routeLength="79.99" timeLoss="3.08" maxSpeed="0.88"/>
    </personinfo>
    <personinfo id="p25" depart="28.00" type="p25" speedFactor="1.00">
        <walk depart="28.00" departPos="0.00" arrival="140.00" arrivalPos="19.99" duration="112.00" routeLength="79.99" timeLoss="3.65" maxSpeed="0.74"/>
    </personinfo>
    <personinfo id="p55" depart="69.00" type="p55" speedFactor="1.00">
        <walk depart="69.00" departPos="0.00" arrival="140.00" arrivalPos="19.99" duration="71.00" routeLength="79.99" timeLoss="3.34" maxSpeed="1.18"/>
    </personinfo>
    <personinfo id="p49" depart="60.00" type="p49" speedFactor="1.00">
        <walk depart="60.00" departPos="0.00" arrival="142.00" arrivalPos="19.99" duration="82.00" routeLength="79.99" timeLoss="4.00" maxSpeed="1.03"/>
    </personinfo>
    <personinfo id="p57" depart="74.00" type="p57" speedFactor="1.00">
        <walk depart="74.00" departPos="0.00" arrival="142.00" arrivalPos="19.99" duration="68.00" routeLength="79.99" timeLoss="3.92" maxSpeed="1.25"/>
    </personinfo>
    <personinfo id="p23" depart="26.00" type="p23" speedFactor="1.00">
        <walk depart="26.00" departPos="0.00" arrival="142.00" arrivalPos="19.99" duration="116.00" routeLength="79.99" timeLoss="3.34" maxSpeed="0.71"/>
    </personinfo>
    <personinfo id="p58" depart="76.00" type="p58" speedFactor="1.00">
        <walk depart="76.00" departPos="0.00" arrival="145.00" arrivalPos="19.99" duration="69.00" routeLength="79.99" timeLoss="3.97" maxSpeed="1.23"/>
    </personinfo>
    <personinfo id="p53" depart="67.00" type="p53" speedFactor="1.00">
        <walk depart="67.00" departPos="0.00" arrival="146.00" arrivalPos="19.99" duration="79.00" routeLength="79.99" timeLoss="3.34" maxSpeed="1.06"/>
    </personinfo>
    <personinfo id="p63" depart="84.00" type="p63" speedFactor="1.00">
        <walk depart="84.00" departPos="0.00" arrival="147.00" arrivalPos="19.99" duration="63.00" routeLength="79.99" timeLoss="3.40" maxSpeed="1.34"/>
    </personinfo>
    <personinfo id="p59" depart="78.00" type="p59" speedFactor="1.00">
        <walk depart="78.00" departPos="0.00" arrival="149.00" arrivalPos="19.99" duration="71.00" routeLength="79.99" timeLoss="3.67" maxSpeed="1.19"/>
    </personinfo>
    <personinfo id="p64" depart="87.00" type="p64" speedFactor="1.00">
        <walk depart="87.00" departPos="0.00" arrival="149.00" arrivalPos="19.99" duration="62.00" routeLength="79.99" timeLoss="3.60" maxSpeed="1.37"/>
    </personinfo>
    <personinfo id="p66" depart="90.00" type="p66" speedFactor="1.00">
        <walk depart="90.00" departPos="0.00" arrival="149.00" arrivalPos="19.99" duration="59.00" routeLength="79.99" timeLoss="3.51" maxSpeed="1.44"/>
    </personinfo>
    <personinfo id="p42" depart="51.00" type="p42" speedFactor="1.00">
        <walk depart="51.00" departPos="0.00" arrival="150.00" arrivalPos="19.99" duration="99.00" routeLength="79.99" timeLoss="3.12" maxSpeed="0.83"/>
    </personinfo>
    <personinfo id="p60" depart="79.00" type="p60" speedFactor="1.00">
        <walk depart="79.00" departPos="0.00" arrival="152.00" arrivalPos="19.99" duration="73.00" routeLength="79.99" timeLoss="3.95" maxSpeed="1.16"/>
    </personinfo>
    <personinfo id="p39" depart="46.00" type="p39" speedFactor="1.00">
        <walk depart="46.00" departPos="0.00" arrival="152.00" arrivalPos="19.99" duration="106.00" routeLength="79.99" timeLoss="3.41" maxSpeed="0.78"/>
    </personinfo>
    <personinfo id="p68" depart="92.00" type="p68" speedFactor="1.00">
        <walk depart="92.00" departPos="0.00" arrival="153.00" arrivalPos="19.99" duration="61.00" routeLength="79.99" timeLoss="3.70" maxSpeed="1.40"/>
    </personinfo>
    <personinfo id="p69" depart="96.00" type="p69" speedFactor="1.00">
        <walk depart="96.00" departPos="0.00" arrival="160.00" arrivalPos="19.99" duration="64.00" routeLength="79.99" timeLoss="3.72" maxSpeed="1.33"/>
    </personinfo>
    <personinfo id="p74" depart="101.00" type="p74" speedFactor="1.00">
        <walk depart="101.00" departPos="0.00" arrival="161.00" arrivalPos="19.99" duration="60.00" routeLength="79.99" timeLoss="3.36" maxSpeed="1.41"/>
    </personinfo>
    <personinfo id="p67" depart="91.00" type="p67" speedFactor="1.00">
        <walk depart="91.00" departPos="0.00" arrival="162.00" arrivalPos="19.99" duration="71.00" routeLength="79.99" timeLoss="3.05" maxSpeed="1.18"/>
    </personinfo>
    <personinfo id="p75" depart="102.00" type="p75" speedFactor="1.00">
        <walk depart="102.00" departPos="0.00" arrival="163.00" arrivalPos="19.99" duration="61.00" routeLength="79.99" timeLoss="3.78" maxSpeed="1.40"/>
    </personinfo>
    <personinfo id="p77" depart="104.00" type="p77" speedFactor="1.00">
        <walk depart="104.00" departPos="0.00" arrival="165.00" arrivalPos="19.99" duration="61.00" routeLength="79.99" timeLoss="3.45" maxSpeed="1.39"/>
    </personinfo>
    <personinfo id="p50" depart="62.00" type="p50" speedFactor="1.00">
        <walk depart="62.00" departPos="0.00" arrival="171.00" arrivalPos="19.99" duration="109.00" routeLength="79.99" timeLoss="3.91" maxSpeed="0.76"/>
    </personinfo>
    <personinfo id="p70" depart="97.00" type="p70" speedFactor="1.00">
        <walk depart="97.00" departPos="0.00" arrival="173.00" arrivalPos="19.99" duration="76.00" routeLength="79.99" timeLoss="3.98" maxSpeed="1.11"/>
    </personinfo>
    <personinfo id="p73" depart="100.00" type="p73" speedFactor="1.00">
        <walk depart="100.00" departPos="0.00" arrival="173.00" arrivalPos="19.99" duration="73.00" routeLength="79.99" timeLoss="3.27" maxSpeed="1.15"/>
    </personinfo>
    <personinfo id="p54" depart="68.00" type="p54" speedFactor="1.00">
        <walk depart="68.00" departPos="0.00" arrival="178.00" arrivalPos="19.99" duration="110.00" routeLength="79.99" timeLoss="3.64" maxSpeed="0.75"/>
    </personinfo>
    <personinfo id="p72" depart="99.00" type="p72" speedFactor="1.00">
        <walk depart="99.00" departPos="0.00" arrival="178.00" arrivalPos="19.99" duration="79.00" routeLength="79.99" timeLoss="3.25" maxSpeed="1.06"/>
    </personinfo>
    <personinfo id="p61" depart="80.00" type="p61" speedFactor="1.00">
        <walk depart="80.00" departPos="0.00" arrival="179.00" arrivalPos="19.99" duration="99.00" routeLength="79.99" timeLoss="3.68" maxSpeed="0.84"/>
    </personinfo>
    <personinfo id="p65" depart="88.00" type="p65" speedFactor="1.00">
        <walk depart="88.00" departPos="0.00" arrival="181.00" arrivalPos="19.99" duration="93.00" routeLength="79.99" timeLoss="3.35" maxSpeed="0.89"/>
    </personinfo>
    <personinfo id="p62" depart="83.00" type="p62" speedFactor="1.00">
        <walk depart="83.00" departPos="0.00" arrival="182.00" arrivalPos="19.99" duration="99.00" routeLength="79.99" timeLoss="3.34" maxSpeed="0.84"/>
    </personinfo>
    <personinfo id="p91" depart="125.00" type="p91" speedFactor="1.00">
        <walk depart="125.00" departPos="0.00" arrival="184.00" arrivalPos="19.99" duration="59.00" routeLength="79.99" timeLoss="3.57" maxSpeed="1.44"/>
    </personinfo>
    <personinfo id="p90" depart="123.00" type="p90" speedFactor="1.00">
        <walk depart="123.00" departPos="0.00" arrival="185.00" arrivalPos="19.99" duration="62.00" routeLength="79.99" timeLoss="3.38" maxSpeed="1.36"/>
    </personinfo>
    <personinfo id="p84" depart="116.00" type="p84" speedFactor="1.00">
        <walk depart="116.00" departPos="0.00" arrival="189.00" arrivalPos="19.99" duration="73.00" routeLength="79.99" timeLoss="3.90" maxSpeed="1.16"/>
    </personinfo>
    <personinfo id="p82" depart="113.00" type="p82" speedFactor="1.00">
        <walk depart="113.00" departPos="0.00" arrival="189.00" arrivalPos="19.99" duration="76.00" routeLength="79.99" timeLoss="3.30" maxSpeed="1.10"/>
    </personinfo>
    <personinfo id="p80" depart="109.00" type="p80" speedFactor="1.00">
        <walk depart="109.00" departPos="0.00" arrival="191.00" arrivalPos="19.99" duration="82.00" routeLength="79.99" timeLoss="3.19" maxSpeed="1.01"/>
    </personinfo>
    <personinfo id="p88" depart="121.00" type="p88" speedFactor="1.00">
        <walk depart="121.00" departPos="0.00" arrival="191.00" arrivalPos="19.99" duration="70.00" routeLength="79.99" timeLoss="3.07" maxSpeed="1.20"/>
    </personinfo>
    <personinfo id="p76" depart="103.00" type="p76" speedFactor="1.00">
        <walk depart="103.00" departPos="0.00" arrival="192.00" arrivalPos="19.99" duration="89.00" routeLength="79.99" timeLoss="3.09" maxSpeed="0.93"/>
    </personinfo>
    <personinfo id="p81" depart="110.00" type="p81" speedFactor="1.00">
        <walk depart="110.00" departPos="0.00" arrival="194.00" arrivalPos="19.99" duration="84.00" routeLength="79.99" timeLoss="3.92" maxSpeed="1.00"/>
    </personinfo>
    <personinfo id="p93" depart="127.00" type="p93" speedFactor="1.00">
        <walk depart="127.00" departPos="0.00" arrival="194.00" arrivalPos="19.99" duration="67.00" routeLength="79.99" timeLoss="3.39" maxSpeed="1.26"/>
    </personinfo>
    <personinfo id="p96" depart="131.00" type="p96" speedFactor="1.00">
        <walk depart="131.00" departPos="0.00" arrival="196.00" arrivalPos="19.99" duration="65.00" routeLength="79.99" timeLoss="3.67" maxSpeed="1.30"/>
    </personinfo>
    <personinfo id="p78" depart="105.00" type="p78" speedFactor="1.00">
        <walk depart="105.00" departPos="0.00" arrival="197.00" arrivalPos="19.99" duration="92.00" routeLength="79.99" timeLoss="3.26" maxSpeed="0.90"/>
    </personinfo>
    <personinfo id="p104" depart="139.00" type="p104" speedFactor="1.00">
        <walk depart="139.00" departPos="0.00" arrival="198.00" arrivalPos="19.99" duration="59.00" routeLength="79.99" timeLoss="3.42" maxSpeed="1.44"/>
    </personinfo>
    <personinfo id="p71" depart="98.00" type="p71" speedFactor="1.00">
        <walk depart="98.00" departPos="0.00" arrival="201.00" arrivalPos="19.99" duration="103.00" routeLength="79.99" timeLoss="3.99" maxSpeed="0.81"/>
    </personinfo>
    <personinfo id="p102" depart="137.00" type="p102" speedFactor="1.00">
        <walk depart="137.00" departPos="0.00" arrival="202.00" arrivalPos="19.99" duration="65.00" routeLength="79.99" timeLoss="3.24" maxSpeed="1.30"/>
    </personinfo>
    <personinfo id="p95" depart="130.00" type="p95" speedFactor="1.00">
        <walk depart="130.00" departPos="0.00" arrival="204.00" arrivalPos="19.99" duration="74.00" routeLength="79.99" timeLoss="3.72" maxSpeed="1.14"/>
    </personinfo>
    <personinfo id="p97" depart="132.00" type="p97" speedFactor="1.00">
        <walk depart="132.00" departPos="0.00" arrival="204.00" arrivalPos="19.99" duration="72.00" routeLength="79.99" timeLoss="3.46" maxSpeed="1.17"/>
    </personinfo>
    <personinfo id="p103" depart="138.00" type="p103" speedFactor="1.00">
        <walk depart="138.00" departPos="0.00" arrival="206.00" arrivalPos="19.99" duration="68.00" routeLength="79.99" timeLoss="3.96" maxSpeed="1.25"/>
    </personinfo>
    <personinfo id="p79" depart="106.00" type="p79" speedFactor="1.00">
        <walk depart="106.00" departPos="0.00" arrival="206.00" arrivalPos="19.99" duration="100.00" routeLength="79.99" timeLoss="3.02" maxSpeed="0.82"/>
    </personinfo>
    <personinfo id="p87" depart="120.00" type="p87" speedFactor="1.00">
        <walk depart="120.00" departPos="0.00" arrival="207.00" arrivalPos="19.99" duration="87.00" routeLength="79.99" timeLoss="3.88" maxSpeed="0.96"/>
    </personinfo>
    <personinfo id="p112" depart="149.00" type="p112" speedFactor="1.00">
        <walk depart="149.00" departPos="0.00" arrival="207.00" arrivalPos="19.99" duration="58.00" routeLength="79.99" timeLoss="3.83" maxSpeed="1.48"/>
    </personinfo>
    <personinfo id="p109" depart="146.00" type="p109" speedFactor="1.00">
        <walk depart="146.00" departPos="0.00" arrival="209.00" arrivalPos="19.99" duration="63.00" routeLength="79.99" timeLoss="3.65" maxSpeed="1.35"/>
    </personinfo>
    <personinfo id="p83" depart="115.00" type="p83" speedFactor="1.00">
        <walk depart="115.00" departPos="0.00" arrival="209.00" arrivalPos="19.99" duration="94.00" routeLength="79.99" timeLoss="3.01" maxSpeed="0.88"/>
    </personinfo>
    <personinfo id="p100" depart="135.00" type="p100" speedFactor="1.00">
        <walk depart="135.00" departPos="0.00" arrival="211.00" arrivalPos="19.99" duration="76.00" routeLength="79.99" timeLoss="3.64" maxSpeed="1.11"/>
    </personinfo>
    <personinfo id="p86" depart="118.00" type="p86" speedFactor="1.00">
        <walk depart="118.00" departPos="0.00" arrival="212.00" arrivalPos="19.99" duration="94.00" routeLength="79.99" timeLoss="3.80" maxSpeed="0.89"/>
    </personinfo>
    <personinfo id="p113" depart="150.00" type="p113" speedFactor="1.00">
        <walk depart="150.00" departPos="0.00" arrival="214.00" arrivalPos="19.99" duration="64.00" routeLength="79.99" timeLoss="3.91" maxSpeed="1.33"/>
    </personinfo>
    <personinfo id="p99" depart="134.00" type="p99" speedFactor="1.00">
        <walk depart="134.00" departPos="0.00" arrival="214.00" arrivalPos="19.99" duration="80.00" routeLength="79.99" timeLoss="3.21" maxSpeed="1.04"/>
    </personinfo>
    <personinfo id="p119" depart="156.00" type="p119" speedFactor="1.00">
        <walk depart="156.00" departPos="0.00" arrival="215.00" arrivalPos="19.99" duration="59.00" routeLength="79.99" timeLoss="3.09" maxSpeed="1.43"/>
    </personinfo>
    <personinfo id="p118" depart="155.00" type="p118" speedFactor="1.00">
        <walk depart="155.00" departPos="0.00" arrival="217.00" arrivalPos="19.99" duration="62.00" routeLength="79.99" timeLoss="3.15" maxSpeed="1.36"/>
    </personinfo>
    <personinfo id="p89" depart="122.00" type="p89" speedFactor="1.00">
        <walk depart="122.00" departPos="0.00" arrival="218.00" arrivalPos="19.99" duration="96.00" routeLength="79.99" timeLoss="3.25" maxSpeed="0.86"/>
    </personinfo>
    <personinfo id="p114" depart="151.00" type="p114" speedFactor="1.00">
        <walk depart="151.00" departPos="0.00" arrival="218.00" arrivalPos="19.99" duration="67.00" routeLength="79.99" timeLoss="3.11" maxSpeed="1.25"/>
    </personinfo>
    <personinfo id="p117" depart="154.00" type="p117" speedFactor="1.00">
        <walk depart="154.00" departPos="0.00" arrival="219.00" arrivalPos="19.99" duration="65.00" routeLength="79.99" timeLoss="3.76" maxSpeed="1.31"/>
    </personinfo>
    <personinfo id="p115" depart="152.00" type="p115" speedFactor="1.00">
        <walk depart="152.00" departPos="0.00" arrival="219.00" arrivalPos="19.99" duration="67.00" routeLength="79.99" timeLoss="3.50" maxSpeed="1.26"/>
    </personinfo>
    <personinfo id="p94" depart="128.00" type="p94" speedFactor="1.00">
        <walk depart="128.00" departPos="0.00" arrival="222.00" arrivalPos="19.99" duration="94.00" routeLength="79.99" timeLoss="3.87" maxSpeed="0.89"/>
    </personinfo>
    <personinfo id="p107" depart="144.00" type="p107" speedFactor="1.00">
        <walk depart="144.00" departPos="0.00" arrival="224.00" arrivalPos="19.99" duration="80.00" routeLength="79.99" timeLoss="3.67" maxSpeed="1.05"/>
    </personinfo>
    <personinfo id="p120" depart="158.00" type="p120" speedFactor="1.00">
        <walk depart="158.00" departPos="0.00" arrival="225.00" arrivalPos="19.99" duration="67.00" routeLength="79.99" timeLoss="3.85" maxSpeed="1.27"/>
    </personinfo>
    <personinfo id="p92" depart="126.00" type="p92" speedFactor="1.00">
        <walk depart="126.00" departPos="0.00" arrival="225.00" arrivalPos="19.99" duration="99.00" routeLength="79.99" timeLoss="3.77" maxSpeed="0.84"/>
    </personinfo>
    <personinfo id="p85" depart="117.00" type="p85" speedFactor="1.00">
        <walk depart="117.00" departPos="0.00" arrival="226.00" arrivalPos="19.99" duration="109.00" routeLength="79.99" timeLoss="3.20" maxSpeed="0.76"/>
    </personinfo>
    <personinfo id="p98" depart="133.00" type="p98" speedFactor="1.00">
        <walk depart="133.00" departPos="0.00" arrival="227.00" arrivalPos="19.99" duration="94.00" routeLength="79.99" timeLoss="3.34" maxSpeed="0.88"/>
    </personinfo>
    <personinfo id="p105" depart="141.00" type="p105" speedFactor="1.00">
        <walk depart="141.00" departPos="0.00" arrival="231.00" arrivalPos="19.99" duration="90.00" routeLength="79.99" timeLoss="3.24" maxSpeed="0.92"/>
    </personinfo>
    <personinfo id="p124" depart="168.00" type="p124" speedFactor="1.00">
        <walk depart="168.00" departPos="0.00" arrival="232.00" arrivalPos="19.99" duration="64.00" routeLength="79.99" timeLoss="3.46" maxSpeed="1.32"/>
    </personinfo>
    <personinfo id="p106" depart="142.00" type="p106" speedFactor="1.00">
        <walk depart="142.00" departPos="0.00" arrival="242.00" arrivalPos="19.99" duration="100.00" routeLength="79.99" timeLoss="3.64" maxSpeed="0.83"/>
    </personinfo>