<?xml version="1.0" encoding="UTF-8"?>

<!-- generated on Fri Dec 13 16:34:39 2013 by SUMO sumo Version dev-SVN-r15322
<?xml version="1.0" encoding="UTF-8"?>

<configuration xmlns:xsi="http://www.w3.org/2001/XMLSchema-instance" xsi:noNamespaceSchemaLocation="http://sumo-sim.org/xsd/sumoConfiguration.xsd">

    <input>
        <net-file value="input_net.net.xml"/>
        <load-state value="state_50.00.sbx"/>
    </input>

    <output>
        <vehroute-output value="vehroutes.xml"/>
    </output>

    <time>
        <begin value="10"/>
    </time>

    <report>
        <no-duration-log value="true"/>
        <no-step-log value="true"/>
    </report>

</configuration>
-->

<routes xmlns:xsi="http://www.w3.org/2001/XMLSchema-instance" xsi:noNamespaceSchemaLocation="http://sumo-sim.org/xsd/routes_file.xsd">
    <vehicle id="0" depart="0.00" arrival="130.00">
        <route edges="4/1to3/1 3/1to2/1 2/1to1/1 1/1to0/1"/>
    </vehicle>

    <vehicle id="1" depart="5.00" arrival="216.00">
        <route edges="4/1to3/1 3/1to2/1 2/1to1/1 1/1to0/1"/>
    </vehicle>

</routes>
