<?xml version="1.0" encoding="UTF-8"?>

<!-- generated on 2024-05-31 17:13:18 by Eclipse SUMO sumo Version v1_20_0+0319-5a9f5015b64
This data file and the accompanying materials
are made available under the terms of the Eclipse Public License v2.0
which accompanies this distribution, and is available at
http://www.eclipse.org/legal/epl-v20.html
This file may also be made available under the following Secondary
Licenses when the conditions for such availability set forth in the Eclipse
Public License 2.0 are satisfied: GNU General Public License, version 2
or later which is available at
https://www.gnu.org/licenses/old-licenses/gpl-2.0-standalone.html
SPDX-License-Identifier: EPL-2.0 OR GPL-2.0-or-later
<configuration xmlns:xsi="http://www.w3.org/2001/XMLSchema-instance" xsi:noNamespaceSchemaLocation="http://sumo.dlr.de/xsd/sumoConfiguration.xsd">

    <input>
        <net-file value="net.net.xml"/>
        <route-files value="input_routes.rou.xml"/>
        <additional-files value="input_additional.add.xml"/>
    </input>

    <output>
        <write-license value="true"/>
    </output>

    <processing>
        <collision.check-junctions value="true"/>
        <default.speeddev value="0"/>
    </processing>

    <report>
        <xml-validation value="never"/>
        <duration-log.statistics value="true"/>
        <no-step-log value="true"/>
    </report>

</configuration>
-->

<meandata xmlns:xsi="http://www.w3.org/2001/XMLSchema-instance" xsi:noNamespaceSchemaLocation="http://sumo.dlr.de/xsd/meandata_file.xsd">
    <interval begin="0.00" end="1365.00" id="cars">
        <edge id=":C_1" sampledSeconds="287.32" traveltime="2.39" overlapTraveltime="2.84" density="10.12" laneDensity="5.06" occupancy="2.00" waitingTime="0.00" timeLoss="99.72" speed="9.07" speedRelative="0.65" departed="0" arrived="0" entered="101" left="101" laneChangedFrom="0" laneChangedTo="0"/>
        <edge id=":C_9" sampledSeconds="150.07" traveltime="2.30" overlapTraveltime="2.73" density="5.29" laneDensity="5.29" occupancy="2.08" waitingTime="0.00" timeLoss="47.91" speed="9.46" speedRelative="0.68" departed="0" arrived="0" entered="55" left="55" laneChangedFrom="0" laneChangedTo="0"/>
        <edge id=":C_11" sampledSeconds="43.64" traveltime="2.30" overlapTraveltime="2.73" density="1.54" laneDensity="1.54" occupancy="0.60" waitingTime="0.00" timeLoss="13.92" speed="9.46" speedRelative="0.68" departed="0" arrived="0" entered="16" left="16" laneChangedFrom="0" laneChangedTo="0"/>
        <edge id=":C_12" sampledSeconds="505.60" traveltime="10.00" overlapTraveltime="10.99" density="53.22" laneDensity="53.22" occupancy="24.12" waitingTime="378.00" timeLoss="466.00" speed="1.09" speedRelative="0.08" departed="0" arrived="0" entered="46" left="46" laneChangedFrom="0" laneChangedTo="0"/>
        <edge id=":C_20" sampledSeconds="110.26" traveltime="1.89" overlapTraveltime="2.40" density="6.51" laneDensity="6.51" occupancy="2.18" waitingTime="0.00" timeLoss="52.64" speed="7.26" speedRelative="0.52" departed="0" arrived="0" entered="46" left="46" laneChangedFrom="0" laneChangedTo="0"/>
        <edge id="CN" sampledSeconds="502.74" traveltime="6.75" overlapTraveltime="7.12" density="4.11" laneDensity="2.06" occupancy="0.97" waitingTime="0.00" timeLoss="21.60" speed="13.29" speedRelative="0.96" departed="0" arrived="71" entered="71" left="0" laneChangedFrom="0" laneChangedTo="0"/>
        <edge id="CS" sampledSeconds="729.87" traveltime="6.94" overlapTraveltime="7.30" density="5.97" laneDensity="2.98" occupancy="1.42" waitingTime="0.00" timeLoss="49.19" speed="12.95" speedRelative="0.93" departed="0" arrived="101" entered="101" left="0" laneChangedFrom="0" laneChangedTo="0"/>
        <edge id="CW" sampledSeconds="323.91" traveltime="6.75" overlapTraveltime="7.11" density="2.65" laneDensity="1.32" occupancy="0.62" waitingTime="0.00" timeLoss="13.63" speed="13.31" speedRelative="0.96" departed="0" arrived="46" entered="46" left="0" laneChangedFrom="0" laneChangedTo="0"/>
        <edge id="NC" sampledSeconds="2631.56" traveltime="26.89" overlapTraveltime="27.54" density="21.52" laneDensity="10.76" occupancy="5.31" waitingTime="1426.00" timeLoss="1980.76" speed="3.44" speedRelative="0.25" departed="101" arrived="0" entered="0" left="101" laneChangedFrom="29" laneChangedTo="29"/>
        <edge id="SC" sampledSeconds="15012.53" traveltime="135.16" overlapTraveltime="135.62" density="122.75" laneDensity="61.37" occupancy="30.59" waitingTime="12549.00" timeLoss="14258.64" speed="0.70" speedRelative="0.05" departed="117" arrived="0" entered="0" left="117" laneChangedFrom="78" laneChangedTo="78"/>
    </interval>
    <interval begin="0.00" end="1365.00" id="scooters">
        <edge id=":C_1" sampledSeconds="311.70" traveltime="2.92" overlapTraveltime="3.15" density="10.98" laneDensity="5.49" occupancy="1.03" waitingTime="0.00" timeLoss="148.48" speed="7.27" speedRelative="0.52" departed="0" arrived="0" entered="99" left="99" laneChangedFrom="0" laneChangedTo="0"/>
        <edge id=":C_9" sampledSeconds="321.32" traveltime="5.72" overlapTraveltime="5.95" density="11.32" laneDensity="11.32" occupancy="2.03" waitingTime="145.00" timeLoss="232.29" speed="3.85" speedRelative="0.28" departed="0" arrived="0" entered="54" left="54" laneChangedFrom="0" laneChangedTo="0"/>
        <edge id=":C_10" sampledSeconds="1381.07" traveltime="35.64" overlapTraveltime="36.34" density="56.21" laneDensity="56.21" occupancy="11.63" waitingTime="1166.00" timeLoss="1326.08" speed="0.55" speedRelative="0.04" departed="0" arrived="0" entered="38" left="38" laneChangedFrom="0" laneChangedTo="0"/>
        <edge id=":C_11" sampledSeconds="61.18" traveltime="3.16" overlapTraveltime="3.40" density="2.16" laneDensity="2.16" occupancy="0.40" waitingTime="0.00" timeLoss="31.51" speed="6.74" speedRelative="0.49" departed="0" arrived="0" entered="18" left="18" laneChangedFrom="0" laneChangedTo="0"/>
        <edge id=":C_19" sampledSeconds="158.40" traveltime="3.88" overlapTraveltime="4.17" density="6.03" laneDensity="6.03" occupancy="1.11" waitingTime="0.00" timeLoss="99.99" speed="5.12" speedRelative="0.37" departed="0" arrived="0" entered="38" left="38" laneChangedFrom="0" laneChangedTo="0"/>
        <edge id="CN" sampledSeconds="531.05" traveltime="7.23" overlapTraveltime="7.38" density="4.34" laneDensity="2.17" occupancy="0.44" waitingTime="0.00" timeLoss="56.31" speed="12.42" speedRelative="0.89" departed="0" arrived="72" entered="72" left="0" laneChangedFrom="0" laneChangedTo="0"/>
        <edge id="CS" sampledSeconds="731.54" traveltime="7.24" overlapTraveltime="7.39" density="5.98" laneDensity="2.99" occupancy="0.61" waitingTime="0.00" timeLoss="78.25" speed="12.40" speedRelative="0.89" departed="0" arrived="99" entered="99" left="0" laneChangedFrom="0" laneChangedTo="0"/>
        <edge id="CW" sampledSeconds="305.28" traveltime="7.91" overlapTraveltime="8.07" density="2.50" laneDensity="1.25" occupancy="0.26" waitingTime="0.00" timeLoss="55.58" speed="11.36" speedRelative="0.82" departed="0" arrived="38" entered="38" left="0" laneChangedFrom="0" laneChangedTo="0"/>
        <edge id="NC" sampledSeconds="2945.61" traveltime="30.07" overlapTraveltime="30.48" density="24.08" laneDensity="12.04" occupancy="2.51" waitingTime="1402.00" timeLoss="2307.70" speed="3.01" speedRelative="0.22" departed="99" arrived="0" entered="0" left="99" laneChangedFrom="39" laneChangedTo="39"/>
        <edge id="SC" sampledSeconds="9143.82" traveltime="83.85" overlapTraveltime="85.17" density="74.76" laneDensity="37.38" occupancy="7.77" waitingTime="6759.00" timeLoss="8435.03" speed="1.08" speedRelative="0.08" departed="110" arrived="0" entered="0" left="110" laneChangedFrom="40" laneChangedTo="40"/>
    </interval>
</meandata>
