<?xml version="1.0" encoding="UTF-8"?>

<!-- generated on 2021-11-23 12:57:37 by Eclipse SUMO sumo Version v1_11_0+0012-279bcfd
This data file and the accompanying materials
are made available under the terms of the Eclipse Public License v2.0
which accompanies this distribution, and is available at
http://www.eclipse.org/legal/epl-v20.html
SPDX-License-Identifier: EPL-2.0
<configuration xmlns:xsi="http://www.w3.org/2001/XMLSchema-instance" xsi:noNamespaceSchemaLocation="http://sumo.dlr.de/xsd/sumoConfiguration.xsd">

    <input>
        <net-file value="net.net.xml"/>
        <route-files value="input_routes.rou.xml"/>
        <additional-files value="input_additional.add.xml"/>
    </input>

    <output>
        <write-license value="true"/>
    </output>

    <processing>
        <collision.check-junctions value="true"/>
        <default.speeddev value="0"/>
        <pedestrian.model value="nonInteracting"/>
    </processing>

    <report>
        <verbose value="true"/>
        <xml-validation value="never"/>
        <xml-validation.routes value="never"/>
        <duration-log.statistics value="true"/>
        <no-step-log value="true"/>
    </report>

    <mesoscopic>
        <mesosim value="true"/>
        <meso-junction-control value="true"/>
    </mesoscopic>

</configuration>
-->

<meandata xmlns:xsi="http://www.w3.org/2001/XMLSchema-instance" xsi:noNamespaceSchemaLocation="http://sumo.dlr.de/xsd/meandata_file.xsd">
    <interval begin="0.00" end="1520.00" id="cars">
        <edge id="CN" sampledSeconds="458.03" traveltime="6.45" overlapTraveltime="6.81" density="3.36" laneDensity="1.68" occupancy="0.84" waitingTime="0.00" timeLoss="0.03" speed="13.89" speedRelative="1.00" departed="0" arrived="71" entered="71" left="0" laneChangedFrom="0" laneChangedTo="0"/>
        <edge id="CS" sampledSeconds="651.58" traveltime="6.45" overlapTraveltime="6.81" density="4.78" laneDensity="2.39" occupancy="1.20" waitingTime="0.00" timeLoss="0.06" speed="13.89" speedRelative="1.00" departed="0" arrived="101" entered="101" left="0" laneChangedFrom="0" laneChangedTo="0"/>
        <edge id="CW" sampledSeconds="283.85" traveltime="6.45" overlapTraveltime="6.81" density="2.08" laneDensity="1.04" occupancy="0.52" waitingTime="0.00" timeLoss="0.02" speed="13.89" speedRelative="1.00" departed="0" arrived="44" entered="44" left="0" laneChangedFrom="0" laneChangedTo="0"/>
        <edge id="NC" sampledSeconds="2012.82" traveltime="19.93" overlapTraveltime="21.04" density="14.78" laneDensity="7.39" occupancy="3.69" waitingTime="0.00" timeLoss="1361.30" speed="4.50" speedRelative="0.32" departed="101" arrived="0" entered="0" left="101" laneChangedFrom="0" laneChangedTo="0"/>
        <edge id="SC" sampledSeconds="24625.81" traveltime="210.48" overlapTraveltime="222.22" density="180.82" laneDensity="90.41" occupancy="45.20" waitingTime="9398.26" timeLoss="23871.08" speed="0.43" speedRelative="0.03" departed="117" arrived="0" entered="0" left="117" laneChangedFrom="0" laneChangedTo="0" teleported="2"/>
    </interval>
    <interval begin="0.00" end="1520.00" id="scooters">
        <edge id="CN" sampledSeconds="464.49" traveltime="6.45" overlapTraveltime="6.60" density="3.41" laneDensity="1.71" occupancy="0.36" waitingTime="0.00" timeLoss="0.04" speed="13.89" speedRelative="1.00" departed="0" arrived="72" entered="72" left="0" laneChangedFrom="0" laneChangedTo="0"/>
        <edge id="CS" sampledSeconds="638.69" traveltime="6.45" overlapTraveltime="6.60" density="4.69" laneDensity="2.34" occupancy="0.49" waitingTime="0.00" timeLoss="0.07" speed="13.89" speedRelative="1.00" departed="0" arrived="99" entered="99" left="0" laneChangedFrom="0" laneChangedTo="0"/>
        <edge id="CW" sampledSeconds="245.14" traveltime="6.45" overlapTraveltime="6.60" density="1.80" laneDensity="0.90" occupancy="0.19" waitingTime="0.00" timeLoss="0.02" speed="13.89" speedRelative="1.00" departed="0" arrived="38" entered="38" left="0" laneChangedFrom="0" laneChangedTo="0"/>
        <edge id="NC" sampledSeconds="2001.14" traveltime="20.21" overlapTraveltime="20.69" density="14.69" laneDensity="7.35" occupancy="1.54" waitingTime="0.00" timeLoss="1362.52" speed="4.43" speedRelative="0.32" departed="99" arrived="0" entered="0" left="99" laneChangedFrom="0" laneChangedTo="0"/>
        <edge id="SC" sampledSeconds="21137.25" traveltime="192.16" overlapTraveltime="196.66" density="155.20" laneDensity="77.60" occupancy="16.30" waitingTime="6478.72" timeLoss="20427.67" speed="0.47" speedRelative="0.03" departed="110" arrived="0" entered="0" left="110" laneChangedFrom="0" laneChangedTo="0"/>
    </interval>
</meandata>
