<?xml version="1.0" encoding="UTF-8"?>

<!-- generated on 2022-12-04 16:29:33 by Eclipse SUMO sumo Version v1_15_0+0751-db72905
This data file and the accompanying materials
are made available under the terms of the Eclipse Public License v2.0
which accompanies this distribution, and is available at
http://www.eclipse.org/legal/epl-v20.html
This file may also be made available under the following Secondary
Licenses when the conditions for such availability set forth in the Eclipse
Public License 2.0 are satisfied: GNU General Public License, version 2
or later which is available at
https://www.gnu.org/licenses/old-licenses/gpl-2.0-standalone.html
SPDX-License-Identifier: EPL-2.0 OR GPL-2.0-or-later
<configuration xmlns:xsi="http://www.w3.org/2001/XMLSchema-instance" xsi:noNamespaceSchemaLocation="http://sumo.dlr.de/xsd/sumoConfiguration.xsd">

    <input>
        <net-file value="net.net.xml"/>
        <route-files value="input_routes.rou.xml"/>
        <additional-files value="input_additional.add.xml"/>
    </input>

    <output>
        <write-license value="true"/>
    </output>

    <processing>
        <collision.check-junctions value="true"/>
        <default.speeddev value="0"/>
    </processing>

    <report>
        <xml-validation value="never"/>
        <duration-log.statistics value="true"/>
        <no-step-log value="true"/>
    </report>

</configuration>
-->

<meandata xmlns:xsi="http://www.w3.org/2001/XMLSchema-instance" xsi:noNamespaceSchemaLocation="http://sumo.dlr.de/xsd/meandata_file.xsd">
    <interval begin="0.00" end="1279.00" id="cars">
        <edge id=":C_1" sampledSeconds="287.32" traveltime="2.39" overlapTraveltime="2.84" density="10.80" laneDensity="5.40" occupancy="2.14" waitingTime="0.00" timeLoss="99.72" speed="9.07" speedRelative="0.65" departed="0" arrived="0" entered="101" left="101" laneChangedFrom="0" laneChangedTo="0"/>
        <edge id=":C_9" sampledSeconds="181.18" traveltime="2.70" overlapTraveltime="3.12" density="6.81" laneDensity="6.81" occupancy="2.62" waitingTime="23.00" timeLoss="73.45" speed="8.26" speedRelative="0.59" departed="0" arrived="0" entered="58" left="58" laneChangedFrom="0" laneChangedTo="0"/>
        <edge id=":C_11" sampledSeconds="33.99" traveltime="2.19" overlapTraveltime="2.61" density="1.28" laneDensity="1.28" occupancy="0.51" waitingTime="0.00" timeLoss="9.85" speed="9.87" speedRelative="0.71" departed="0" arrived="0" entered="13" left="13" laneChangedFrom="0" laneChangedTo="0"/>
        <edge id=":C_12" sampledSeconds="508.35" traveltime="10.06" overlapTraveltime="11.05" density="57.11" laneDensity="57.11" occupancy="25.89" waitingTime="380.00" timeLoss="468.74" speed="1.08" speedRelative="0.08" departed="0" arrived="0" entered="46" left="46" laneChangedFrom="0" laneChangedTo="0"/>
        <edge id=":C_20" sampledSeconds="110.62" traveltime="1.90" overlapTraveltime="2.40" density="6.98" laneDensity="6.98" occupancy="2.34" waitingTime="0.00" timeLoss="53.00" speed="7.24" speedRelative="0.52" departed="0" arrived="0" entered="46" left="46" laneChangedFrom="0" laneChangedTo="0"/>
        <edge id="CN" sampledSeconds="499.75" traveltime="6.72" overlapTraveltime="7.08" density="4.36" laneDensity="2.18" occupancy="1.03" waitingTime="0.00" timeLoss="18.98" speed="13.36" speedRelative="0.96" departed="0" arrived="71" entered="71" left="0" laneChangedFrom="0" laneChangedTo="0"/>
        <edge id="CS" sampledSeconds="752.76" traveltime="7.15" overlapTraveltime="7.54" density="6.57" laneDensity="3.28" occupancy="1.56" waitingTime="0.00" timeLoss="72.65" speed="12.55" speedRelative="0.90" departed="0" arrived="101" entered="101" left="0" laneChangedFrom="1" laneChangedTo="1"/>
        <edge id="CW" sampledSeconds="324.02" traveltime="6.75" overlapTraveltime="7.11" density="2.83" laneDensity="1.41" occupancy="0.67" waitingTime="0.00" timeLoss="13.78" speed="13.30" speedRelative="0.96" departed="0" arrived="46" entered="46" left="0" laneChangedFrom="0" laneChangedTo="0"/>
        <edge id="NC" sampledSeconds="2631.56" traveltime="26.89" overlapTraveltime="27.54" density="22.96" laneDensity="11.48" occupancy="5.67" waitingTime="1426.00" timeLoss="1980.76" speed="3.44" speedRelative="0.25" departed="101" arrived="0" entered="0" left="101" laneChangedFrom="29" laneChangedTo="29"/>
        <edge id="SC" sampledSeconds="13870.89" traveltime="124.59" overlapTraveltime="125.31" density="121.04" laneDensity="60.52" occupancy="30.13" waitingTime="11710.00" timeLoss="13117.01" speed="0.75" speedRelative="0.05" departed="117" arrived="0" entered="0" left="117" laneChangedFrom="73" laneChangedTo="73"/>
    </interval>
    <interval begin="0.00" end="1279.00" id="scooters">
        <edge id=":C_1" sampledSeconds="311.70" traveltime="2.92" overlapTraveltime="3.15" density="11.72" laneDensity="5.86" occupancy="1.10" waitingTime="0.00" timeLoss="148.48" speed="7.27" speedRelative="0.52" departed="0" arrived="0" entered="99" left="99" laneChangedFrom="0" laneChangedTo="0"/>
        <edge id=":C_9" sampledSeconds="346.58" traveltime="5.19" overlapTraveltime="5.42" density="13.03" laneDensity="13.03" occupancy="2.38" waitingTime="137.00" timeLoss="241.07" speed="4.23" speedRelative="0.30" departed="0" arrived="0" entered="64" left="64" laneChangedFrom="0" laneChangedTo="0"/>
        <edge id=":C_10" sampledSeconds="1341.96" traveltime="34.66" overlapTraveltime="35.31" density="58.29" laneDensity="58.29" occupancy="12.06" waitingTime="1124.00" timeLoss="1286.97" speed="0.57" speedRelative="0.04" departed="0" arrived="0" entered="38" left="38" laneChangedFrom="0" laneChangedTo="0"/>
        <edge id=":C_11" sampledSeconds="26.27" traveltime="3.05" overlapTraveltime="3.28" density="0.99" laneDensity="0.99" occupancy="0.19" waitingTime="0.00" timeLoss="13.08" speed="6.97" speedRelative="0.50" departed="0" arrived="0" entered="8" left="8" laneChangedFrom="0" laneChangedTo="0"/>
        <edge id=":C_19" sampledSeconds="153.62" traveltime="3.76" overlapTraveltime="4.04" density="6.24" laneDensity="6.24" occupancy="1.16" waitingTime="0.00" timeLoss="95.21" speed="5.28" speedRelative="0.38" departed="0" arrived="0" entered="38" left="38" laneChangedFrom="0" laneChangedTo="0"/>
        <edge id="CN" sampledSeconds="532.07" traveltime="7.25" overlapTraveltime="7.40" density="4.64" laneDensity="2.32" occupancy="0.48" waitingTime="0.00" timeLoss="57.44" speed="12.39" speedRelative="0.89" departed="0" arrived="72" entered="72" left="0" laneChangedFrom="0" laneChangedTo="0"/>
        <edge id="CS" sampledSeconds="739.90" traveltime="7.32" overlapTraveltime="7.48" density="6.46" laneDensity="3.23" occupancy="0.66" waitingTime="0.00" timeLoss="86.88" speed="12.26" speedRelative="0.88" departed="0" arrived="99" entered="99" left="0" laneChangedFrom="0" laneChangedTo="0"/>
        <edge id="CW" sampledSeconds="303.92" traveltime="7.87" overlapTraveltime="8.03" density="2.65" laneDensity="1.33" occupancy="0.27" waitingTime="0.00" timeLoss="54.11" speed="11.42" speedRelative="0.82" departed="0" arrived="38" entered="38" left="0" laneChangedFrom="0" laneChangedTo="0"/>
        <edge id="NC" sampledSeconds="2945.61" traveltime="30.07" overlapTraveltime="30.48" density="25.70" laneDensity="12.85" occupancy="2.68" waitingTime="1402.00" timeLoss="2307.70" speed="3.01" speedRelative="0.22" departed="99" arrived="0" entered="0" left="99" laneChangedFrom="39" laneChangedTo="39"/>
        <edge id="SC" sampledSeconds="8100.12" traveltime="74.27" overlapTraveltime="75.45" density="70.68" laneDensity="35.34" occupancy="7.35" waitingTime="5983.00" timeLoss="7391.33" speed="1.22" speedRelative="0.09" departed="110" arrived="0" entered="0" left="110" laneChangedFrom="20" laneChangedTo="20"/>
    </interval>
</meandata>
