<?xml version="1.0" encoding="UTF-8"?>

<!-- generated on 2023-10-13 16:08:31 by Eclipse SUMO sumo Version v1_18_0+2071-a9e2bd2bef5
This data file and the accompanying materials
are made available under the terms of the Eclipse Public License v2.0
which accompanies this distribution, and is available at
http://www.eclipse.org/legal/epl-v20.html
This file may also be made available under the following Secondary
Licenses when the conditions for such availability set forth in the Eclipse
Public License 2.0 are satisfied: GNU General Public License, version 2
or later which is available at
https://www.gnu.org/licenses/old-licenses/gpl-2.0-standalone.html
SPDX-License-Identifier: EPL-2.0 OR GPL-2.0-or-later
<configuration xmlns:xsi="http://www.w3.org/2001/XMLSchema-instance" xsi:noNamespaceSchemaLocation="http://sumo.dlr.de/xsd/sumoConfiguration.xsd">

    <input>
        <net-file value="net.net.xml"/>
        <route-files value="input_routes.rou.xml"/>
    </input>

    <output>
        <write-license value="true"/>
        <fcd-output value="fcd.xml"/>
        <tripinfo-output value="tripinfos.xml"/>
    </output>

    <processing>
        <default.speeddev value="0"/>
        <pedestrian.model value="jupedsim"/>
    </processing>

    <report>
        <xml-validation value="never"/>
        <no-step-log value="true"/>
    </report>

</configuration>
-->

<fcd-export xmlns:xsi="http://www.w3.org/2001/XMLSchema-instance" xsi:noNamespaceSchemaLocation="http://sumo.dlr.de/xsd/fcd_file.xsd">
    <timestep time="0.00">
        <person id="p_0" x="1596.52" y="1889.30" angle="25.11" speed="0.00" pos="0.00" edge="533" slope="0.00"/>
    </timestep>
    <timestep time="1.00">
        <person id="p_0" x="1597.12" y="1890.55" angle="25.49" speed="1.39" pos="1.39" edge="533" slope="0.00"/>
    </timestep>
    <timestep time="2.00">
        <person id="p_0" x="1597.72" y="1891.81" angle="25.49" speed="1.39" pos="2.78" edge="533" slope="0.00"/>
    </timestep>
    <timestep time="3.00">
        <person id="p_0" x="1598.31" y="1893.06" angle="25.49" speed="1.39" pos="4.17" edge="533" slope="0.00"/>
    </timestep>
    <timestep time="4.00">
        <person id="p_0" x="1598.91" y="1894.31" angle="25.49" speed="1.39" pos="5.56" edge="533" slope="0.00"/>
    </timestep>
    <timestep time="5.00">
        <person id="p_0" x="1599.51" y="1895.57" angle="25.49" speed="1.39" pos="6.94" edge="533" slope="0.00"/>
    </timestep>
    <timestep time="6.00">
        <person id="p_0" x="1600.11" y="1896.82" angle="25.49" speed="1.39" pos="8.33" edge="533" slope="0.00"/>
    </timestep>
    <timestep time="7.00">
        <person id="p_0" x="1600.70" y="1898.08" angle="25.49" speed="1.39" pos="9.72" edge="533" slope="0.00"/>
    </timestep>
    <timestep time="8.00">
        <person id="p_0" x="1601.30" y="1899.33" angle="25.49" speed="1.39" pos="11.11" edge="533" slope="0.00"/>
    </timestep>
    <timestep time="9.00">
        <person id="p_0" x="1601.90" y="1900.58" angle="25.49" speed="1.39" pos="12.50" edge="533" slope="0.00"/>
    </timestep>
    <timestep time="10.00">
        <person id="p_0" x="1602.50" y="1901.84" angle="25.49" speed="1.39" pos="13.89" edge="533" slope="0.00"/>
    </timestep>
    <timestep time="11.00">
        <person id="p_0" x="1603.10" y="1903.09" angle="25.49" speed="1.39" pos="15.28" edge="533" slope="0.00"/>
    </timestep>
    <timestep time="12.00">
        <person id="p_0" x="1603.69" y="1904.34" angle="25.49" speed="1.39" pos="16.67" edge="533" slope="0.00"/>
    </timestep>
    <timestep time="13.00">
        <person id="p_0" x="1604.29" y="1905.60" angle="25.49" speed="1.39" pos="18.05" edge="533" slope="0.00"/>
    </timestep>
    <timestep time="14.00">
        <person id="p_0" x="1604.89" y="1906.85" angle="25.49" speed="1.39" pos="19.44" edge="533" slope="0.00"/>
    </timestep>
    <timestep time="15.00">
        <person id="p_0" x="1605.49" y="1908.11" angle="25.49" speed="1.39" pos="20.83" edge="533" slope="0.00"/>
    </timestep>
    <timestep time="16.00">
        <person id="p_0" x="1606.08" y="1909.36" angle="25.49" speed="1.39" pos="22.22" edge="533" slope="0.00"/>
    </timestep>
    <timestep time="17.00">
        <person id="p_0" x="1606.68" y="1910.61" angle="25.49" speed="1.39" pos="23.61" edge="533" slope="0.00"/>
    </timestep>
    <timestep time="18.00">
        <person id="p_0" x="1607.28" y="1911.87" angle="25.49" speed="1.39" pos="25.00" edge="533" slope="0.00"/>
    </timestep>
    <timestep time="19.00">
        <person id="p_0" x="1607.88" y="1913.12" angle="25.49" speed="1.39" pos="26.39" edge="533" slope="0.00"/>
    </timestep>
    <timestep time="20.00">
        <person id="p_0" x="1608.47" y="1914.37" angle="25.49" speed="1.39" pos="27.78" edge="533" slope="0.00"/>
    </timestep>
    <timestep time="21.00">
        <person id="p_0" x="1609.07" y="1915.63" angle="25.49" speed="1.39" pos="29.17" edge="533" slope="0.00"/>
    </timestep>
    <timestep time="22.00">
        <person id="p_0" x="1609.67" y="1916.88" angle="25.49" speed="1.39" pos="30.55" edge="533" slope="0.00"/>
    </timestep>
    <timestep time="23.00">
        <person id="p_0" x="1610.27" y="1918.13" angle="25.49" speed="1.39" pos="31.94" edge="533" slope="0.00"/>
    </timestep>
    <timestep time="24.00">
        <person id="p_0" x="1610.87" y="1919.39" angle="25.49" speed="1.39" pos="33.33" edge="533" slope="0.00"/>
    </timestep>
    <timestep time="25.00">
        <person id="p_0" x="1611.46" y="1920.64" angle="25.49" speed="1.39" pos="34.72" edge="533" slope="0.00"/>
    </timestep>
    <timestep time="26.00">
        <person id="p_0" x="1612.06" y="1921.90" angle="25.49" speed="1.39" pos="36.11" edge="533" slope="0.00"/>
    </timestep>
    <timestep time="27.00">
        <person id="p_0" x="1612.66" y="1923.15" angle="25.49" speed="1.39" pos="37.50" edge="533" slope="0.00"/>
    </timestep>
    <timestep time="28.00">
        <person id="p_0" x="1613.26" y="1924.40" angle="25.49" speed="1.39" pos="38.89" edge="533" slope="0.00"/>
    </timestep>
    <timestep time="29.00">
        <person id="p_0" x="1613.85" y="1925.66" angle="25.49" speed="1.39" pos="40.28" edge="533" slope="0.00"/>
    </timestep>
    <timestep time="30.00">
        <person id="p_0" x="1614.45" y="1926.91" angle="25.49" speed="1.39" pos="41.66" edge="533" slope="0.00"/>
    </timestep>
    <timestep time="31.00">
        <person id="p_0" x="1615.05" y="1928.16" angle="25.49" speed="1.39" pos="43.05" edge="533" slope="0.00"/>
    </timestep>
    <timestep time="32.00">
        <person id="p_0" x="1615.65" y="1929.42" angle="25.49" speed="1.39" pos="44.44" edge="533" slope="0.00"/>
    </timestep>
    <timestep time="33.00">
        <person id="p_0" x="1616.25" y="1930.67" angle="25.49" speed="1.39" pos="45.83" edge="533" slope="0.00"/>
    </timestep>
    <timestep time="34.00">
        <person id="p_0" x="1616.84" y="1931.93" angle="25.49" speed="1.39" pos="47.22" edge="533" slope="0.00"/>
    </timestep>
    <timestep time="35.00">
        <person id="p_0" x="1617.44" y="1933.18" angle="25.49" speed="1.39" pos="48.61" edge="533" slope="0.00"/>
    </timestep>
    <timestep time="36.00">
        <person id="p_0" x="1618.04" y="1934.43" angle="25.49" speed="1.39" pos="50.00" edge="533" slope="0.00"/>
    </timestep>
    <timestep time="37.00">
        <person id="p_0" x="1618.64" y="1935.69" angle="25.49" speed="1.39" pos="51.39" edge="533" slope="0.00"/>
    </timestep>
    <timestep time="38.00">
        <person id="p_0" x="1619.23" y="1936.94" angle="25.49" speed="1.39" pos="52.78" edge="533" slope="0.00"/>
    </timestep>
    <timestep time="39.00">
        <person id="p_0" x="1619.83" y="1938.19" angle="25.49" speed="1.39" pos="54.16" edge="533" slope="0.00"/>
    </timestep>
    <timestep time="40.00">
        <person id="p_0" x="1620.43" y="1939.45" angle="25.49" speed="1.39" pos="55.55" edge="533" slope="0.00"/>
    </timestep>
    <timestep time="41.00">
        <person id="p_0" x="1621.03" y="1940.70" angle="25.49" speed="1.39" pos="56.94" edge="533" slope="0.00"/>
    </timestep>
    <timestep time="42.00">
        <person id="p_0" x="1621.63" y="1941.95" angle="25.49" speed="1.39" pos="58.33" edge="533" slope="0.00"/>
    </timestep>
    <timestep time="43.00">
        <person id="p_0" x="1622.22" y="1943.21" angle="25.49" speed="1.39" pos="59.72" edge="533" slope="0.00"/>
    </timestep>
    <timestep time="44.00">
        <person id="p_0" x="1622.82" y="1944.46" angle="25.49" speed="1.39" pos="61.11" edge="533" slope="0.00"/>
    </timestep>
    <timestep time="45.00">
        <person id="p_0" x="1623.42" y="1945.72" angle="25.49" speed="1.39" pos="62.50" edge="533" slope="0.00"/>
    </timestep>
    <timestep time="46.00">
        <person id="p_0" x="1624.02" y="1946.97" angle="25.49" speed="1.39" pos="63.89" edge="533" slope="0.00"/>
    </timestep>
    <timestep time="47.00">
        <person id="p_0" x="1624.61" y="1948.22" angle="25.49" speed="1.39" pos="65.27" edge="533" slope="0.00"/>
    </timestep>
    <timestep time="48.00">
        <person id="p_0" x="1625.21" y="1949.48" angle="25.49" speed="1.39" pos="66.66" edge="533" slope="0.00"/>
    </timestep>
    <timestep time="49.00">
        <person id="p_0" x="1625.81" y="1950.73" angle="25.49" speed="1.39" pos="68.05" edge="533" slope="0.00"/>
    </timestep>
    <timestep time="50.00">
        <person id="p_0" x="1626.41" y="1951.98" angle="25.49" speed="1.39" pos="69.44" edge="533" slope="0.00"/>
    </timestep>
    <timestep time="51.00">
        <person id="p_0" x="1627.01" y="1953.24" angle="25.49" speed="1.39" pos="70.83" edge="533" slope="0.00"/>
    </timestep>
    <timestep time="52.00">
        <person id="p_0" x="1627.60" y="1954.49" angle="25.49" speed="1.39" pos="72.22" edge="533" slope="0.00"/>
    </timestep>
    <timestep time="53.00">
        <person id="p_0" x="1628.20" y="1955.75" angle="25.48" speed="1.39" pos="73.61" edge="533" slope="0.00"/>
    </timestep>
    <timestep time="54.00">
        <person id="p_0" x="1628.80" y="1957.00" angle="25.48" speed="1.39" pos="75.00" edge="533" slope="0.00"/>
    </timestep>
    <timestep time="55.00">
        <person id="p_0" x="1629.40" y="1958.25" angle="25.47" speed="1.39" pos="76.39" edge="533" slope="0.00"/>
    </timestep>
    <timestep time="56.00">
        <person id="p_0" x="1629.99" y="1959.51" angle="25.46" speed="1.39" pos="77.77" edge="533" slope="0.00"/>
    </timestep>
    <timestep time="57.00">
        <person id="p_0" x="1630.59" y="1960.76" angle="25.44" speed="1.39" pos="79.16" edge="533" slope="0.00"/>
    </timestep>
    <timestep time="58.00">
        <person id="p_0" x="1631.19" y="1962.02" angle="25.42" speed="1.39" pos="80.55" edge="533" slope="0.00"/>
    </timestep>
    <timestep time="59.00">
        <person id="p_0" x="1631.78" y="1963.27" angle="25.39" speed="1.39" pos="81.94" edge="533" slope="0.00"/>
    </timestep>
    <timestep time="60.00">
        <person id="p_0" x="1632.38" y="1964.52" angle="25.35" speed="1.39" pos="83.33" edge="533" slope="0.00"/>
    </timestep>
    <timestep time="61.00">
        <person id="p_0" x="1632.97" y="1965.78" angle="25.31" speed="1.39" pos="84.72" edge="533" slope="0.00"/>
    </timestep>
    <timestep time="62.00">
        <person id="p_0" x="1633.56" y="1967.04" angle="25.27" speed="1.39" pos="86.11" edge="533" slope="0.00"/>
    </timestep>
    <timestep time="63.00">
        <person id="p_0" x="1634.16" y="1968.29" angle="25.23" speed="1.39" pos="87.50" edge="533" slope="0.00"/>
    </timestep>
    <timestep time="64.00">
        <person id="p_0" x="1634.75" y="1969.55" angle="25.20" speed="1.39" pos="88.88" edge="533" slope="0.00"/>
    </timestep>
    <timestep time="65.00">
        <person id="p_0" x="1635.34" y="1970.81" angle="25.18" speed="1.39" pos="90.27" edge="533" slope="0.00"/>
    </timestep>
    <timestep time="66.00">
        <person id="p_0" x="1635.93" y="1972.06" angle="25.17" speed="1.39" pos="91.66" edge="533" slope="0.00"/>
    </timestep>
    <timestep time="67.00">
        <person id="p_0" x="1636.52" y="1973.32" angle="25.16" speed="1.39" pos="93.05" edge="533" slope="0.00"/>
    </timestep>
    <timestep time="68.00">
        <person id="p_0" x="1637.11" y="1974.58" angle="25.16" speed="1.39" pos="94.44" edge="533" slope="0.00"/>
    </timestep>
    <timestep time="69.00">
        <person id="p_0" x="1637.70" y="1975.83" angle="25.16" speed="1.39" pos="95.83" edge="533" slope="0.00"/>
    </timestep>
    <timestep time="70.00">
        <person id="p_0" x="1638.29" y="1977.09" angle="25.16" speed="1.39" pos="97.22" edge="533" slope="0.00"/>
    </timestep>
    <timestep time="71.00">
        <person id="p_0" x="1638.88" y="1978.35" angle="25.16" speed="1.39" pos="98.61" edge="533" slope="0.00"/>
    </timestep>
    <timestep time="72.00">
        <person id="p_0" x="1639.47" y="1979.60" angle="25.16" speed="1.39" pos="100.00" edge="533" slope="0.00"/>
    </timestep>
    <timestep time="73.00">
        <person id="p_0" x="1640.06" y="1980.86" angle="25.17" speed="1.39" pos="101.38" edge="533" slope="0.00"/>
    </timestep>
    <timestep time="74.00">
        <person id="p_0" x="1640.65" y="1982.12" angle="25.17" speed="1.39" pos="102.77" edge="533" slope="0.00"/>
    </timestep>
    <timestep time="75.00">
        <person id="p_0" x="1641.25" y="1983.38" angle="25.18" speed="1.39" pos="104.16" edge="533" slope="0.00"/>
    </timestep>
    <timestep time="76.00">
        <person id="p_0" x="1641.84" y="1984.63" angle="25.18" speed="1.39" pos="105.55" edge="533" slope="0.00"/>
    </timestep>
    <timestep time="77.00">
        <person id="p_0" x="1642.43" y="1985.89" angle="25.19" speed="1.39" pos="106.94" edge="533" slope="0.00"/>
    </timestep>
    <timestep time="78.00">
        <person id="p_0" x="1643.02" y="1987.15" angle="25.20" speed="1.39" pos="108.33" edge="533" slope="0.00"/>
    </timestep>
    <timestep time="79.00">
        <person id="p_0" x="1643.61" y="1988.40" angle="25.22" speed="1.39" pos="109.72" edge="533" slope="0.00"/>
    </timestep>
    <timestep time="80.00">
        <person id="p_0" x="1644.20" y="1989.66" angle="25.24" speed="1.39" pos="111.11" edge="533" slope="0.00"/>
    </timestep>
    <timestep time="81.00">
        <person id="p_0" x="1644.79" y="1990.92" angle="25.26" speed="1.39" pos="112.50" edge="533" slope="0.00"/>
    </timestep>
    <timestep time="82.00">
        <person id="p_0" x="1645.39" y="1992.17" angle="25.30" speed="1.39" pos="113.88" edge="533" slope="0.00"/>
    </timestep>
    <timestep time="83.00">
        <person id="p_0" x="1645.98" y="1993.43" angle="25.37" speed="1.39" pos="115.27" edge="533" slope="0.00"/>
    </timestep>
    <timestep time="84.00">
        <person id="p_0" x="1646.58" y="1994.68" angle="25.51" speed="1.39" pos="116.66" edge="533" slope="0.00"/>
    </timestep>
    <timestep time="85.00">
        <person id="p_0" x="1647.18" y="1995.93" angle="25.96" speed="1.39" pos="118.05" edge="533" slope="0.00"/>
    </timestep>
    <timestep time="86.00">
        <person id="p_0" x="1647.81" y="1997.17" angle="45.69" speed="1.38" pos="1.38" edge="533" slope="0.00"/>
    </timestep>
    <timestep time="87.00">
        <person id="p_0" x="1648.87" y="1998.05" angle="50.35" speed="1.39" pos="0.89" edge="533" slope="0.00"/>
    </timestep>
    <timestep time="88.00">
        <person id="p_0" x="1649.93" y="1998.96" angle="57.96" speed="1.39" pos="0.44" edge="533" slope="0.00"/>
    </timestep>
    <timestep time="89.00">
        <person id="p_0" x="1651.24" y="1999.39" angle="72.91" speed="1.39" pos="1.34" edge="1388" slope="0.00"/>
    </timestep>
    <timestep time="90.00">
        <person id="p_0" x="1652.57" y="1999.80" angle="73.12" speed="1.39" pos="2.73" edge="1388" slope="0.00"/>
    </timestep>
    <timestep time="91.00">
        <person id="p_0" x="1653.90" y="2000.20" angle="73.20" speed="1.39" pos="4.12" edge="1388" slope="0.00"/>
    </timestep>
    <timestep time="92.00">
        <person id="p_0" x="1655.23" y="2000.60" angle="73.23" speed="1.39" pos="5.51" edge="1388" slope="0.00"/>
    </timestep>
    <timestep time="93.00">
        <person id="p_0" x="1656.56" y="2001.00" angle="73.25" speed="1.39" pos="6.89" edge="1388" slope="0.00"/>
    </timestep>
    <timestep time="94.00">
        <person id="p_0" x="1657.89" y="2001.40" angle="73.25" speed="1.39" pos="8.28" edge="1388" slope="0.00"/>
    </timestep>
    <timestep time="95.00">
        <person id="p_0" x="1659.22" y="2001.80" angle="73.26" speed="1.39" pos="9.67" edge="1388" slope="0.00"/>
    </timestep>
    <timestep time="96.00">
        <person id="p_0" x="1660.55" y="2002.20" angle="73.26" speed="1.39" pos="11.06" edge="1388" slope="0.00"/>
    </timestep>
    <timestep time="97.00">
        <person id="p_0" x="1661.88" y="2002.60" angle="73.26" speed="1.39" pos="12.45" edge="1388" slope="0.00"/>
    </timestep>
    <timestep time="98.00">
        <person id="p_0" x="1663.21" y="2003.00" angle="73.26" speed="1.39" pos="13.84" edge="1388" slope="0.00"/>
    </timestep>
    <timestep time="99.00">
        <person id="p_0" x="1664.54" y="2003.40" angle="73.26" speed="1.39" pos="15.23" edge="1388" slope="0.00"/>
    </timestep>
    <timestep time="100.00">
        <person id="p_0" x="1665.87" y="2003.80" angle="73.26" speed="1.39" pos="16.62" edge="1388" slope="0.00"/>
    </timestep>
    <timestep time="101.00">
        <person id="p_0" x="1667.20" y="2004.20" angle="73.26" speed="1.39" pos="18.01" edge="1388" slope="0.00"/>
    </timestep>
    <timestep time="102.00">
        <person id="p_0" x="1668.53" y="2004.60" angle="73.26" speed="1.39" pos="19.39" edge="1388" slope="0.00"/>
    </timestep>
    <timestep time="103.00">
        <person id="p_0" x="1669.86" y="2005.00" angle="73.26" speed="1.39" pos="20.78" edge="1388" slope="0.00"/>
    </timestep>
    <timestep time="104.00">
        <person id="p_0" x="1671.19" y="2005.40" angle="73.26" speed="1.39" pos="22.17" edge="1388" slope="0.00"/>
    </timestep>
    <timestep time="105.00">
        <person id="p_0" x="1672.52" y="2005.80" angle="73.26" speed="1.39" pos="23.56" edge="1388" slope="0.00"/>
    </timestep>
    <timestep time="106.00">
        <person id="p_0" x="1673.85" y="2006.20" angle="73.26" speed="1.39" pos="24.95" edge="1388" slope="0.00"/>
    </timestep>
    <timestep time="107.00">
        <person id="p_0" x="1675.18" y="2006.60" angle="73.26" speed="1.39" pos="26.34" edge="1388" slope="0.00"/>
    </timestep>
    <timestep time="108.00">
        <person id="p_0" x="1676.51" y="2007.00" angle="73.26" speed="1.39" pos="27.73" edge="1388" slope="0.00"/>
    </timestep>
    <timestep time="109.00">
        <person id="p_0" x="1677.84" y="2007.40" angle="73.26" speed="1.39" pos="29.12" edge="1388" slope="0.00"/>
    </timestep>
    <timestep time="110.00">
        <person id="p_0" x="1679.17" y="2007.80" angle="73.26" speed="1.39" pos="30.51" edge="1388" slope="0.00"/>
    </timestep>
    <timestep time="111.00">
        <person id="p_0" x="1680.50" y="2008.20" angle="73.26" speed="1.39" pos="31.89" edge="1388" slope="0.00"/>
    </timestep>
    <timestep time="112.00">
        <person id="p_0" x="1681.83" y="2008.60" angle="73.26" speed="1.39" pos="33.28" edge="1388" slope="0.00"/>
    </timestep>
    <timestep time="113.00">
        <person id="p_0" x="1683.16" y="2009.00" angle="73.26" speed="1.39" pos="34.67" edge="1388" slope="0.00"/>
    </timestep>
    <timestep time="114.00">
        <person id="p_0" x="1684.49" y="2009.40" angle="73.26" speed="1.39" pos="36.06" edge="1388" slope="0.00"/>
    </timestep>
    <timestep time="115.00">
        <person id="p_0" x="1685.82" y="2009.80" angle="73.26" speed="1.39" pos="37.45" edge="1388" slope="0.00"/>
    </timestep>
    <timestep time="116.00">
        <person id="p_0" x="1687.15" y="2010.20" angle="73.26" speed="1.39" pos="38.84" edge="1388" slope="0.00"/>
    </timestep>
    <timestep time="117.00">
        <person id="p_0" x="1688.48" y="2010.60" angle="73.26" speed="1.39" pos="40.23" edge="1388" slope="0.00"/>
    </timestep>
    <timestep time="118.00">
        <person id="p_0" x="1689.81" y="2011.00" angle="73.26" speed="1.39" pos="41.62" edge="1388" slope="0.00"/>
    </timestep>
    <timestep time="119.00">
        <person id="p_0" x="1691.14" y="2011.40" angle="73.26" speed="1.39" pos="43.01" edge="1388" slope="0.00"/>
    </timestep>
    <timestep time="120.00">
        <person id="p_0" x="1692.47" y="2011.80" angle="73.26" speed="1.39" pos="44.39" edge="1388" slope="0.00"/>
    </timestep>
    <timestep time="121.00">
        <person id="p_0" x="1693.80" y="2012.20" angle="73.26" speed="1.39" pos="45.78" edge="1388" slope="0.00"/>
    </timestep>
    <timestep time="122.00">
        <person id="p_0" x="1695.13" y="2012.60" angle="73.26" speed="1.39" pos="47.17" edge="1388" slope="0.00"/>
    </timestep>
    <timestep time="123.00">
        <person id="p_0" x="1696.46" y="2013.00" angle="73.26" speed="1.39" pos="48.56" edge="1388" slope="0.00"/>
    </timestep>
    <timestep time="124.00">
        <person id="p_0" x="1697.79" y="2013.40" angle="73.26" speed="1.39" pos="49.95" edge="1388" slope="0.00"/>
    </timestep>
    <timestep time="125.00">
        <person id="p_0" x="1699.12" y="2013.80" angle="73.26" speed="1.39" pos="51.34" edge="1388" slope="0.00"/>
    </timestep>
    <timestep time="126.00">
        <person id="p_0" x="1700.45" y="2014.20" angle="73.26" speed="1.39" pos="52.73" edge="1388" slope="0.00"/>
    </timestep>
    <timestep time="127.00">
        <person id="p_0" x="1701.78" y="2014.60" angle="73.26" speed="1.39" pos="54.12" edge="1388" slope="0.00"/>
    </timestep>
    <timestep time="128.00">
        <person id="p_0" x="1703.11" y="2015.00" angle="73.26" speed="1.39" pos="55.50" edge="1388" slope="0.00"/>
    </timestep>
    <timestep time="129.00">
        <person id="p_0" x="1704.44" y="2015.40" angle="73.26" speed="1.39" pos="56.89" edge="1388" slope="0.00"/>
    </timestep>
    <timestep time="130.00">
        <person id="p_0" x="1705.77" y="2015.80" angle="73.26" speed="1.39" pos="58.28" edge="1388" slope="0.00"/>
    </timestep>
    <timestep time="131.00">
        <person id="p_0" x="1707.10" y="2016.20" angle="73.26" speed="1.39" pos="59.67" edge="1388" slope="0.00"/>
    </timestep>
    <timestep time="132.00">
        <person id="p_0" x="1708.43" y="2016.60" angle="73.26" speed="1.39" pos="61.06" edge="1388" slope="0.00"/>
    </timestep>
    <timestep time="133.00">
        <person id="p_0" x="1709.76" y="2017.00" angle="73.26" speed="1.39" pos="62.45" edge="1388" slope="0.00"/>
    </timestep>
    <timestep time="134.00">
        <person id="p_0" x="1711.09" y="2017.40" angle="73.26" speed="1.39" pos="63.84" edge="1388" slope="0.00"/>
    </timestep>
    <timestep time="135.00">
        <person id="p_0" x="1712.42" y="2017.80" angle="73.26" speed="1.39" pos="65.23" edge="1388" slope="0.00"/>
    </timestep>
    <timestep time="136.00">
        <person id="p_0" x="1713.75" y="2018.20" angle="73.26" speed="1.39" pos="66.62" edge="1388" slope="0.00"/>
    </timestep>
    <timestep time="137.00">
        <person id="p_0" x="1715.08" y="2018.60" angle="73.26" speed="1.39" pos="68.00" edge="1388" slope="0.00"/>
    </timestep>
    <timestep time="138.00">
        <person id="p_0" x="1716.41" y="2019.00" angle="73.26" speed="1.39" pos="69.39" edge="1388" slope="0.00"/>
    </timestep>
    <timestep time="139.00">
        <person id="p_0" x="1717.74" y="2019.40" angle="73.26" speed="1.39" pos="70.78" edge="1388" slope="0.00"/>
    </timestep>
    <timestep time="140.00">
        <person id="p_0" x="1719.07" y="2019.80" angle="73.26" speed="1.39" pos="72.17" edge="1388" slope="0.00"/>
    </timestep>
    <timestep time="141.00">
        <person id="p_0" x="1720.40" y="2020.20" angle="73.26" speed="1.39" pos="73.56" edge="1388" slope="0.00"/>
    </timestep>
    <timestep time="142.00">
        <person id="p_0" x="1721.73" y="2020.60" angle="73.26" speed="1.39" pos="74.95" edge="1388" slope="0.00"/>
    </timestep>
    <timestep time="143.00">
        <person id="p_0" x="1723.06" y="2021.00" angle="73.26" speed="1.39" pos="76.34" edge="1388" slope="0.00"/>
    </timestep>
    <timestep time="144.00">
        <person id="p_0" x="1724.39" y="2021.40" angle="73.26" speed="1.39" pos="77.73" edge="1388" slope="0.00"/>
    </timestep>
    <timestep time="145.00">
        <person id="p_0" x="1725.72" y="2021.80" angle="73.26" speed="1.39" pos="79.12" edge="1388" slope="0.00"/>
    </timestep>
    <timestep time="146.00">
        <person id="p_0" x="1727.05" y="2022.20" angle="73.26" speed="1.39" pos="80.50" edge="1388" slope="0.00"/>
    </timestep>
    <timestep time="147.00">
        <person id="p_0" x="1728.38" y="2022.60" angle="73.26" speed="1.39" pos="81.89" edge="1388" slope="0.00"/>
    </timestep>
    <timestep time="148.00">
        <person id="p_0" x="1729.71" y="2023.00" angle="73.26" speed="1.39" pos="83.28" edge="1388" slope="0.00"/>
    </timestep>
    <timestep time="149.00">
        <person id="p_0" x="1731.04" y="2023.40" angle="73.26" speed="1.39" pos="84.67" edge="1388" slope="0.00"/>
    </timestep>
    <timestep time="150.00">
        <person id="p_0" x="1732.37" y="2023.80" angle="73.26" speed="1.39" pos="86.06" edge="1388" slope="0.00"/>
    </timestep>
    <timestep time="151.00">
        <person id="p_0" x="1733.70" y="2024.20" angle="73.26" speed="1.39" pos="87.45" edge="1388" slope="0.00"/>
    </timestep>
    <timestep time="152.00">
        <person id="p_0" x="1735.03" y="2024.60" angle="73.26" speed="1.39" pos="88.84" edge="1388" slope="0.00"/>
    </timestep>
    <timestep time="153.00">
        <person id="p_0" x="1736.36" y="2025.00" angle="73.26" speed="1.39" pos="90.23" edge="1388" slope="0.00"/>
    </timestep>
    <timestep time="154.00">
        <person id="p_0" x="1737.69" y="2025.40" angle="73.26" speed="1.39" pos="91.61" edge="1388" slope="0.00"/>
    </timestep>
    <timestep time="155.00">
        <person id="p_0" x="1739.02" y="2025.80" angle="73.26" speed="1.39" pos="93.00" edge="1388" slope="0.00"/>
    </timestep>
    <timestep time="156.00">
        <person id="p_0" x="1740.35" y="2026.20" angle="73.26" speed="1.39" pos="94.39" edge="1388" slope="0.00"/>
    </timestep>
    <timestep time="157.00">
        <person id="p_0" x="1741.68" y="2026.60" angle="73.26" speed="1.39" pos="95.78" edge="1388" slope="0.00"/>
    </timestep>
    <timestep time="158.00">
        <person id="p_0" x="1743.02" y="2027.00" angle="73.26" speed="1.39" pos="97.17" edge="1388" slope="0.00"/>
    </timestep>
    <timestep time="159.00">
        <person id="p_0" x="1744.35" y="2027.40" angle="73.26" speed="1.39" pos="98.56" edge="1388" slope="0.00"/>
    </timestep>
    <timestep time="160.00">
        <person id="p_0" x="1745.68" y="2027.80" angle="73.26" speed="1.39" pos="99.95" edge="1388" slope="0.00"/>
    </timestep>
    <timestep time="161.00">
        <person id="p_0" x="1747.01" y="2028.20" angle="73.26" speed="1.39" pos="101.34" edge="1388" slope="0.00"/>
    </timestep>
    <timestep time="162.00">
        <person id="p_0" x="1748.34" y="2028.60" angle="73.26" speed="1.39" pos="102.73" edge="1388" slope="0.00"/>
    </timestep>
    <timestep time="163.00">
        <person id="p_0" x="1749.67" y="2029.00" angle="73.26" speed="1.39" pos="104.11" edge="1388" slope="0.00"/>
    </timestep>
    <timestep time="164.00">
        <person id="p_0" x="1751.00" y="2029.40" angle="73.26" speed="1.39" pos="105.50" edge="1388" slope="0.00"/>
    </timestep>
    <timestep time="165.00">
        <person id="p_0" x="1752.33" y="2029.80" angle="73.26" speed="1.39" pos="106.89" edge="1388" slope="0.00"/>
    </timestep>
    <timestep time="166.00">
        <person id="p_0" x="1753.66" y="2030.20" angle="73.26" speed="1.39" pos="108.28" edge="1388" slope="0.00"/>
    </timestep>
    <timestep time="167.00">
        <person id="p_0" x="1754.99" y="2030.60" angle="73.26" speed="1.39" pos="109.67" edge="1388" slope="0.00"/>
    </timestep>
    <timestep time="168.00">
        <person id="p_0" x="1756.32" y="2031.00" angle="73.26" speed="1.39" pos="111.06" edge="1388" slope="0.00"/>
    </timestep>
    <timestep time="169.00">
        <person id="p_0" x="1757.65" y="2031.40" angle="73.27" speed="1.39" pos="112.45" edge="1388" slope="0.00"/>
    </timestep>
    <timestep time="170.00">
        <person id="p_0" x="1758.98" y="2031.80" angle="73.27" speed="1.39" pos="113.84" edge="1388" slope="0.00"/>
    </timestep>
    <timestep time="171.00">
        <person id="p_0" x="1760.31" y="2032.20" angle="73.27" speed="1.39" pos="115.23" edge="1388" slope="0.00"/>
    </timestep>
    <timestep time="172.00">
        <person id="p_0" x="1761.64" y="2032.60" angle="73.28" speed="1.39" pos="116.61" edge="1388" slope="0.00"/>
    </timestep>
    <timestep time="173.00">
        <person id="p_0" x="1762.97" y="2033.00" angle="73.30" speed="1.39" pos="118.00" edge="1388" slope="0.00"/>
    </timestep>
    <timestep time="174.00">
        <person id="p_0" x="1764.30" y="2033.39" angle="73.32" speed="1.39" pos="119.39" edge="1388" slope="0.00"/>
    </timestep>
    <timestep time="175.00">
        <person id="p_0" x="1765.63" y="2033.79" angle="73.37" speed="1.39" pos="120.78" edge="1388" slope="0.00"/>
    </timestep>
    <timestep time="176.00">
        <person id="p_0" x="1766.96" y="2034.19" angle="73.43" speed="1.39" pos="122.17" edge="1388" slope="0.00"/>
    </timestep>
    <timestep time="177.00">
        <person id="p_0" x="1768.29" y="2034.58" angle="73.50" speed="1.39" pos="123.56" edge="1388" slope="0.00"/>
    </timestep>
    <timestep time="178.00">
        <person id="p_0" x="1769.62" y="2034.98" angle="73.58" speed="1.39" pos="124.95" edge="1388" slope="0.00"/>
    </timestep>
    <timestep time="179.00">