<?xml version="1.0" encoding="UTF-8"?>

<!-- generated on 2023-08-10 16:20:45 by Eclipse SUMO sumo Version v1_17_0+2283-0f8f20d25f6
This data file and the accompanying materials
are made available under the terms of the Eclipse Public License v2.0
which accompanies this distribution, and is available at
http://www.eclipse.org/legal/epl-v20.html
This file may also be made available under the following Secondary
Licenses when the conditions for such availability set forth in the Eclipse
Public License 2.0 are satisfied: GNU General Public License, version 2
or later which is available at
https://www.gnu.org/licenses/old-licenses/gpl-2.0-standalone.html
SPDX-License-Identifier: EPL-2.0 OR GPL-2.0-or-later
<configuration xmlns:xsi="http://www.w3.org/2001/XMLSchema-instance" xsi:noNamespaceSchemaLocation="http://sumo.dlr.de/xsd/sumoConfiguration.xsd">

    <input>
        <net-file value="net.net.xml"/>
        <route-files value="input_routes.rou.xml"/>
    </input>

    <output>
        <write-license value="true"/>
        <fcd-output value="fcd.xml"/>
        <tripinfo-output value="tripinfos.xml"/>
    </output>

    <processing>
        <default.speeddev value="0"/>
        <pedestrian.model value="jupedsim"/>
    </processing>

    <report>
        <xml-validation value="never"/>
        <no-step-log value="true"/>
    </report>

</configuration>
-->

<fcd-export xmlns:xsi="http://www.w3.org/2001/XMLSchema-instance" xsi:noNamespaceSchemaLocation="http://sumo.dlr.de/xsd/fcd_file.xsd">
    <timestep time="0.00">
        <person id="p_0" x="1596.52" y="1889.30" angle="25.11" speed="0.00" pos="0.00" edge="533" slope="0.00"/>
    </timestep>
    <timestep time="1.00">
        <person id="p_0" x="1597.11" y="1890.54" angle="25.49" speed="1.37" pos="1.37" edge="533" slope="0.00"/>
    </timestep>
    <timestep time="2.00">
        <person id="p_0" x="1597.71" y="1891.79" angle="25.49" speed="1.39" pos="2.76" edge="533" slope="0.00"/>
    </timestep>
    <timestep time="3.00">
        <person id="p_0" x="1598.31" y="1893.05" angle="25.49" speed="1.39" pos="4.15" edge="533" slope="0.00"/>
    </timestep>
    <timestep time="4.00">
        <person id="p_0" x="1598.91" y="1894.30" angle="25.49" speed="1.39" pos="5.54" edge="533" slope="0.00"/>
    </timestep>
    <timestep time="5.00">
        <person id="p_0" x="1599.50" y="1895.56" angle="25.49" speed="1.39" pos="6.93" edge="533" slope="0.00"/>
    </timestep>
    <timestep time="6.00">
        <person id="p_0" x="1600.10" y="1896.81" angle="25.49" speed="1.39" pos="8.32" edge="533" slope="0.00"/>
    </timestep>
    <timestep time="7.00">
        <person id="p_0" x="1600.70" y="1898.06" angle="25.49" speed="1.39" pos="9.71" edge="533" slope="0.00"/>
    </timestep>
    <timestep time="8.00">
        <person id="p_0" x="1601.30" y="1899.32" angle="25.49" speed="1.39" pos="11.10" edge="533" slope="0.00"/>
    </timestep>
    <timestep time="9.00">
        <person id="p_0" x="1601.89" y="1900.57" angle="25.49" speed="1.39" pos="12.49" edge="533" slope="0.00"/>
    </timestep>
    <timestep time="10.00">
        <person id="p_0" x="1602.49" y="1901.82" angle="25.49" speed="1.39" pos="13.87" edge="533" slope="0.00"/>
    </timestep>
    <timestep time="11.00">
        <person id="p_0" x="1603.09" y="1903.08" angle="25.49" speed="1.39" pos="15.26" edge="533" slope="0.00"/>
    </timestep>
    <timestep time="12.00">
        <person id="p_0" x="1603.69" y="1904.33" angle="25.49" speed="1.39" pos="16.65" edge="533" slope="0.00"/>
    </timestep>
    <timestep time="13.00">
        <person id="p_0" x="1604.29" y="1905.59" angle="25.49" speed="1.39" pos="18.04" edge="533" slope="0.00"/>
    </timestep>
    <timestep time="14.00">
        <person id="p_0" x="1604.88" y="1906.84" angle="25.49" speed="1.39" pos="19.43" edge="533" slope="0.00"/>
    </timestep>
    <timestep time="15.00">
        <person id="p_0" x="1605.48" y="1908.09" angle="25.49" speed="1.39" pos="20.82" edge="533" slope="0.00"/>
    </timestep>
    <timestep time="16.00">
        <person id="p_0" x="1606.08" y="1909.35" angle="25.49" speed="1.39" pos="22.21" edge="533" slope="0.00"/>
    </timestep>
    <timestep time="17.00">
        <person id="p_0" x="1606.68" y="1910.60" angle="25.49" speed="1.39" pos="23.60" edge="533" slope="0.00"/>
    </timestep>
    <timestep time="18.00">
        <person id="p_0" x="1607.27" y="1911.85" angle="25.49" speed="1.39" pos="24.98" edge="533" slope="0.00"/>
    </timestep>
    <timestep time="19.00">
        <person id="p_0" x="1607.87" y="1913.11" angle="25.49" speed="1.39" pos="26.37" edge="533" slope="0.00"/>
    </timestep>
    <timestep time="20.00">
        <person id="p_0" x="1608.47" y="1914.36" angle="25.49" speed="1.39" pos="27.76" edge="533" slope="0.00"/>
    </timestep>
    <timestep time="21.00">
        <person id="p_0" x="1609.07" y="1915.61" angle="25.49" speed="1.39" pos="29.15" edge="533" slope="0.00"/>
    </timestep>
    <timestep time="22.00">
        <person id="p_0" x="1609.67" y="1916.87" angle="25.49" speed="1.39" pos="30.54" edge="533" slope="0.00"/>
    </timestep>
    <timestep time="23.00">
        <person id="p_0" x="1610.26" y="1918.12" angle="25.49" speed="1.39" pos="31.93" edge="533" slope="0.00"/>
    </timestep>
    <timestep time="24.00">
        <person id="p_0" x="1610.86" y="1919.38" angle="25.49" speed="1.39" pos="33.32" edge="533" slope="0.00"/>
    </timestep>
    <timestep time="25.00">
        <person id="p_0" x="1611.46" y="1920.63" angle="25.49" speed="1.39" pos="34.71" edge="533" slope="0.00"/>
    </timestep>
    <timestep time="26.00">
        <person id="p_0" x="1612.06" y="1921.88" angle="25.49" speed="1.39" pos="36.10" edge="533" slope="0.00"/>
    </timestep>
    <timestep time="27.00">
        <person id="p_0" x="1612.65" y="1923.14" angle="25.49" speed="1.39" pos="37.48" edge="533" slope="0.00"/>
    </timestep>
    <timestep time="28.00">
        <person id="p_0" x="1613.25" y="1924.39" angle="25.49" speed="1.39" pos="38.87" edge="533" slope="0.00"/>
    </timestep>
    <timestep time="29.00">
        <person id="p_0" x="1613.85" y="1925.64" angle="25.49" speed="1.39" pos="40.26" edge="533" slope="0.00"/>
    </timestep>
    <timestep time="30.00">
        <person id="p_0" x="1614.45" y="1926.90" angle="25.49" speed="1.39" pos="41.65" edge="533" slope="0.00"/>
    </timestep>
    <timestep time="31.00">
        <person id="p_0" x="1615.05" y="1928.15" angle="25.49" speed="1.39" pos="43.04" edge="533" slope="0.00"/>
    </timestep>
    <timestep time="32.00">
        <person id="p_0" x="1615.64" y="1929.40" angle="25.49" speed="1.39" pos="44.43" edge="533" slope="0.00"/>
    </timestep>
    <timestep time="33.00">
        <person id="p_0" x="1616.24" y="1930.66" angle="25.49" speed="1.39" pos="45.82" edge="533" slope="0.00"/>
    </timestep>
    <timestep time="34.00">
        <person id="p_0" x="1616.84" y="1931.91" angle="25.49" speed="1.39" pos="47.21" edge="533" slope="0.00"/>
    </timestep>
    <timestep time="35.00">
        <person id="p_0" x="1617.44" y="1933.17" angle="25.49" speed="1.39" pos="48.59" edge="533" slope="0.00"/>
    </timestep>
    <timestep time="36.00">
        <person id="p_0" x="1618.03" y="1934.42" angle="25.49" speed="1.39" pos="49.98" edge="533" slope="0.00"/>
    </timestep>
    <timestep time="37.00">
        <person id="p_0" x="1618.63" y="1935.67" angle="25.49" speed="1.39" pos="51.37" edge="533" slope="0.00"/>
    </timestep>
    <timestep time="38.00">
        <person id="p_0" x="1619.23" y="1936.93" angle="25.49" speed="1.39" pos="52.76" edge="533" slope="0.00"/>
    </timestep>
    <timestep time="39.00">
        <person id="p_0" x="1619.83" y="1938.18" angle="25.49" speed="1.39" pos="54.15" edge="533" slope="0.00"/>
    </timestep>
    <timestep time="40.00">
        <person id="p_0" x="1620.43" y="1939.43" angle="25.49" speed="1.39" pos="55.54" edge="533" slope="0.00"/>
    </timestep>
    <timestep time="41.00">
        <person id="p_0" x="1621.02" y="1940.69" angle="25.49" speed="1.39" pos="56.93" edge="533" slope="0.00"/>
    </timestep>
    <timestep time="42.00">
        <person id="p_0" x="1621.62" y="1941.94" angle="25.49" speed="1.39" pos="58.32" edge="533" slope="0.00"/>
    </timestep>
    <timestep time="43.00">
        <person id="p_0" x="1622.22" y="1943.20" angle="25.49" speed="1.39" pos="59.71" edge="533" slope="0.00"/>
    </timestep>
    <timestep time="44.00">
        <person id="p_0" x="1622.82" y="1944.45" angle="25.49" speed="1.39" pos="61.09" edge="533" slope="0.00"/>
    </timestep>
    <timestep time="45.00">
        <person id="p_0" x="1623.41" y="1945.70" angle="25.49" speed="1.39" pos="62.48" edge="533" slope="0.00"/>
    </timestep>
    <timestep time="46.00">
        <person id="p_0" x="1624.01" y="1946.96" angle="25.49" speed="1.39" pos="63.87" edge="533" slope="0.00"/>
    </timestep>
    <timestep time="47.00">
        <person id="p_0" x="1624.61" y="1948.21" angle="25.49" speed="1.39" pos="65.26" edge="533" slope="0.00"/>
    </timestep>
    <timestep time="48.00">
        <person id="p_0" x="1625.21" y="1949.46" angle="25.49" speed="1.39" pos="66.65" edge="533" slope="0.00"/>
    </timestep>
    <timestep time="49.00">
        <person id="p_0" x="1625.80" y="1950.72" angle="25.49" speed="1.39" pos="68.04" edge="533" slope="0.00"/>
    </timestep>
    <timestep time="50.00">
        <person id="p_0" x="1626.40" y="1951.97" angle="25.49" speed="1.39" pos="69.43" edge="533" slope="0.00"/>
    </timestep>
    <timestep time="51.00">
        <person id="p_0" x="1627.00" y="1953.22" angle="25.49" speed="1.39" pos="70.82" edge="533" slope="0.00"/>
    </timestep>
    <timestep time="52.00">
        <person id="p_0" x="1627.60" y="1954.48" angle="25.49" speed="1.39" pos="72.20" edge="533" slope="0.00"/>
    </timestep>
    <timestep time="53.00">
        <person id="p_0" x="1628.20" y="1955.73" angle="25.48" speed="1.39" pos="73.59" edge="533" slope="0.00"/>
    </timestep>
    <timestep time="54.00">
        <person id="p_0" x="1628.79" y="1956.99" angle="25.48" speed="1.39" pos="74.98" edge="533" slope="0.00"/>
    </timestep>
    <timestep time="55.00">
        <person id="p_0" x="1629.39" y="1958.24" angle="25.47" speed="1.39" pos="76.37" edge="533" slope="0.00"/>
    </timestep>
    <timestep time="56.00">
        <person id="p_0" x="1629.99" y="1959.49" angle="25.46" speed="1.39" pos="77.76" edge="533" slope="0.00"/>
    </timestep>
    <timestep time="57.00">
        <person id="p_0" x="1630.58" y="1960.75" angle="25.44" speed="1.39" pos="79.15" edge="533" slope="0.00"/>
    </timestep>
    <timestep time="58.00">
        <person id="p_0" x="1631.18" y="1962.00" angle="25.42" speed="1.39" pos="80.54" edge="533" slope="0.00"/>
    </timestep>
    <timestep time="59.00">
        <person id="p_0" x="1631.78" y="1963.26" angle="25.38" speed="1.39" pos="81.93" edge="533" slope="0.00"/>
    </timestep>
    <timestep time="60.00">
        <person id="p_0" x="1632.37" y="1964.51" angle="25.35" speed="1.39" pos="83.32" edge="533" slope="0.00"/>
    </timestep>
    <timestep time="61.00">
        <person id="p_0" x="1632.97" y="1965.77" angle="25.30" speed="1.39" pos="84.70" edge="533" slope="0.00"/>
    </timestep>
    <timestep time="62.00">
        <person id="p_0" x="1633.56" y="1967.02" angle="25.26" speed="1.39" pos="86.09" edge="533" slope="0.00"/>
    </timestep>
    <timestep time="63.00">
        <person id="p_0" x="1634.15" y="1968.28" angle="25.23" speed="1.39" pos="87.48" edge="533" slope="0.00"/>
    </timestep>
    <timestep time="64.00">
        <person id="p_0" x="1634.74" y="1969.54" angle="25.20" speed="1.39" pos="88.87" edge="533" slope="0.00"/>
    </timestep>
    <timestep time="65.00">
        <person id="p_0" x="1635.33" y="1970.79" angle="25.18" speed="1.39" pos="90.26" edge="533" slope="0.00"/>
    </timestep>
    <timestep time="66.00">
        <person id="p_0" x="1635.92" y="1972.05" angle="25.17" speed="1.39" pos="91.65" edge="533" slope="0.00"/>
    </timestep>
    <timestep time="67.00">
        <person id="p_0" x="1636.52" y="1973.31" angle="25.16" speed="1.39" pos="93.04" edge="533" slope="0.00"/>
    </timestep>
    <timestep time="68.00">
        <person id="p_0" x="1637.11" y="1974.56" angle="25.16" speed="1.39" pos="94.43" edge="533" slope="0.00"/>
    </timestep>
    <timestep time="69.00">
        <person id="p_0" x="1637.70" y="1975.82" angle="25.16" speed="1.39" pos="95.82" edge="533" slope="0.00"/>
    </timestep>
    <timestep time="70.00">
        <person id="p_0" x="1638.29" y="1977.08" angle="25.16" speed="1.39" pos="97.20" edge="533" slope="0.00"/>
    </timestep>
    <timestep time="71.00">
        <person id="p_0" x="1638.88" y="1978.34" angle="25.16" speed="1.39" pos="98.59" edge="533" slope="0.00"/>
    </timestep>
    <timestep time="72.00">
        <person id="p_0" x="1639.47" y="1979.59" angle="25.16" speed="1.39" pos="99.98" edge="533" slope="0.00"/>
    </timestep>
    <timestep time="73.00">
        <person id="p_0" x="1640.06" y="1980.85" angle="25.17" speed="1.39" pos="101.37" edge="533" slope="0.00"/>
    </timestep>
    <timestep time="74.00">
        <person id="p_0" x="1640.65" y="1982.11" angle="25.17" speed="1.39" pos="102.76" edge="533" slope="0.00"/>
    </timestep>
    <timestep time="75.00">
        <person id="p_0" x="1641.24" y="1983.36" angle="25.18" speed="1.39" pos="104.15" edge="533" slope="0.00"/>
    </timestep>
    <timestep time="76.00">
        <person id="p_0" x="1641.83" y="1984.62" angle="25.18" speed="1.39" pos="105.54" edge="533" slope="0.00"/>
    </timestep>
    <timestep time="77.00">
        <person id="p_0" x="1642.42" y="1985.88" angle="25.19" speed="1.39" pos="106.93" edge="533" slope="0.00"/>
    </timestep>
    <timestep time="78.00">
        <person id="p_0" x="1643.01" y="1987.13" angle="25.20" speed="1.39" pos="108.31" edge="533" slope="0.00"/>
    </timestep>
    <timestep time="79.00">
        <person id="p_0" x="1643.60" y="1988.39" angle="25.22" speed="1.39" pos="109.70" edge="533" slope="0.00"/>
    </timestep>
    <timestep time="80.00">
        <person id="p_0" x="1644.20" y="1989.65" angle="25.24" speed="1.39" pos="111.09" edge="533" slope="0.00"/>
    </timestep>
    <timestep time="81.00">
        <person id="p_0" x="1644.79" y="1990.90" angle="25.27" speed="1.39" pos="112.48" edge="533" slope="0.00"/>
    </timestep>
    <timestep time="82.00">
        <person id="p_0" x="1645.38" y="1992.16" angle="25.31" speed="1.39" pos="113.87" edge="533" slope="0.00"/>
    </timestep>
    <timestep time="83.00">
        <person id="p_0" x="1645.98" y="1993.41" angle="25.38" speed="1.39" pos="115.26" edge="533" slope="0.00"/>
    </timestep>
    <timestep time="84.00">
        <person id="p_0" x="1646.57" y="1994.67" angle="25.54" speed="1.39" pos="116.65" edge="533" slope="0.00"/>
    </timestep>
    <timestep time="85.00">
        <person id="p_0" x="1647.18" y="1995.92" angle="26.15" speed="1.39" pos="118.04" edge="533" slope="0.00"/>
    </timestep>
    <timestep time="86.00">
        <person id="p_0" x="1647.88" y="1997.10" angle="49.65" speed="1.37" pos="1.35" edge="533" slope="0.00"/>
    </timestep>
    <timestep time="87.00">
        <person id="p_0" x="1648.94" y="1998.00" angle="49.99" speed="1.39" pos="0.89" edge="533" slope="0.00"/>
    </timestep>
    <timestep time="88.00">
        <person id="p_0" x="1650.00" y="1998.89" angle="44.44" speed="1.39" pos="0.46" edge="533" slope="0.00"/>
    </timestep>
    <timestep time="89.00">
        <person id="p_0" x="1651.28" y="1999.39" angle="72.72" speed="1.38" pos="1.38" edge="1388" slope="0.00"/>
    </timestep>
    <timestep time="90.00">
        <person id="p_0" x="1652.61" y="1999.80" angle="73.07" speed="1.39" pos="2.76" edge="1388" slope="0.00"/>
    </timestep>
    <timestep time="91.00">
        <person id="p_0" x="1653.94" y="2000.20" angle="73.18" speed="1.39" pos="4.15" edge="1388" slope="0.00"/>
    </timestep>
    <timestep time="92.00">
        <person id="p_0" x="1655.27" y="2000.60" angle="73.22" speed="1.39" pos="5.54" edge="1388" slope="0.00"/>
    </timestep>
    <timestep time="93.00">
        <person id="p_0" x="1656.60" y="2001.01" angle="73.24" speed="1.39" pos="6.93" edge="1388" slope="0.00"/>
    </timestep>
    <timestep time="94.00">
        <person id="p_0" x="1657.93" y="2001.41" angle="73.25" speed="1.39" pos="8.32" edge="1388" slope="0.00"/>
    </timestep>
    <timestep time="95.00">
        <person id="p_0" x="1659.26" y="2001.81" angle="73.26" speed="1.39" pos="9.71" edge="1388" slope="0.00"/>
    </timestep>
    <timestep time="96.00">
        <person id="p_0" x="1660.59" y="2002.21" angle="73.26" speed="1.39" pos="11.10" edge="1388" slope="0.00"/>
    </timestep>
    <timestep time="97.00">
        <person id="p_0" x="1661.92" y="2002.61" angle="73.26" speed="1.39" pos="12.49" edge="1388" slope="0.00"/>
    </timestep>
    <timestep time="98.00">
        <person id="p_0" x="1663.25" y="2003.01" angle="73.26" speed="1.39" pos="13.88" edge="1388" slope="0.00"/>
    </timestep>
    <timestep time="99.00">
        <person id="p_0" x="1664.58" y="2003.41" angle="73.26" speed="1.39" pos="15.26" edge="1388" slope="0.00"/>
    </timestep>
    <timestep time="100.00">
        <person id="p_0" x="1665.91" y="2003.81" angle="73.26" speed="1.39" pos="16.65" edge="1388" slope="0.00"/>
    </timestep>
    <timestep time="101.00">
        <person id="p_0" x="1667.24" y="2004.21" angle="73.26" speed="1.39" pos="18.04" edge="1388" slope="0.00"/>
    </timestep>
    <timestep time="102.00">
        <person id="p_0" x="1668.57" y="2004.61" angle="73.26" speed="1.39" pos="19.43" edge="1388" slope="0.00"/>
    </timestep>
    <timestep time="103.00">
        <person id="p_0" x="1669.90" y="2005.01" angle="73.26" speed="1.39" pos="20.82" edge="1388" slope="0.00"/>
    </timestep>
    <timestep time="104.00">
        <person id="p_0" x="1671.23" y="2005.41" angle="73.26" speed="1.39" pos="22.21" edge="1388" slope="0.00"/>
    </timestep>
    <timestep time="105.00">
        <person id="p_0" x="1672.56" y="2005.81" angle="73.26" speed="1.39" pos="23.60" edge="1388" slope="0.00"/>
    </timestep>
    <timestep time="106.00">
        <person id="p_0" x="1673.89" y="2006.21" angle="73.26" speed="1.39" pos="24.99" edge="1388" slope="0.00"/>
    </timestep>
    <timestep time="107.00">
        <person id="p_0" x="1675.22" y="2006.61" angle="73.26" speed="1.39" pos="26.38" edge="1388" slope="0.00"/>
    </timestep>
    <timestep time="108.00">
        <person id="p_0" x="1676.55" y="2007.01" angle="73.26" speed="1.39" pos="27.76" edge="1388" slope="0.00"/>
    </timestep>
    <timestep time="109.00">
        <person id="p_0" x="1677.88" y="2007.41" angle="73.26" speed="1.39" pos="29.15" edge="1388" slope="0.00"/>
    </timestep>
    <timestep time="110.00">
        <person id="p_0" x="1679.21" y="2007.81" angle="73.26" speed="1.39" pos="30.54" edge="1388" slope="0.00"/>
    </timestep>
    <timestep time="111.00">
        <person id="p_0" x="1680.54" y="2008.21" angle="73.26" speed="1.39" pos="31.93" edge="1388" slope="0.00"/>
    </timestep>
    <timestep time="112.00">
        <person id="p_0" x="1681.87" y="2008.61" angle="73.26" speed="1.39" pos="33.32" edge="1388" slope="0.00"/>
    </timestep>
    <timestep time="113.00">
        <person id="p_0" x="1683.20" y="2009.01" angle="73.26" speed="1.39" pos="34.71" edge="1388" slope="0.00"/>
    </timestep>
    <timestep time="114.00">
        <person id="p_0" x="1684.53" y="2009.41" angle="73.26" speed="1.39" pos="36.10" edge="1388" slope="0.00"/>
    </timestep>
    <timestep time="115.00">
        <person id="p_0" x="1685.86" y="2009.81" angle="73.26" speed="1.39" pos="37.49" edge="1388" slope="0.00"/>
    </timestep>
    <timestep time="116.00">
        <person id="p_0" x="1687.19" y="2010.21" angle="73.26" speed="1.39" pos="38.87" edge="1388" slope="0.00"/>
    </timestep>
    <timestep time="117.00">
        <person id="p_0" x="1688.52" y="2010.61" angle="73.26" speed="1.39" pos="40.26" edge="1388" slope="0.00"/>
    </timestep>
    <timestep time="118.00">
        <person id="p_0" x="1689.85" y="2011.01" angle="73.26" speed="1.39" pos="41.65" edge="1388" slope="0.00"/>
    </timestep>
    <timestep time="119.00">
        <person id="p_0" x="1691.18" y="2011.41" angle="73.26" speed="1.39" pos="43.04" edge="1388" slope="0.00"/>
    </timestep>
    <timestep time="120.00">
        <person id="p_0" x="1692.51" y="2011.81" angle="73.26" speed="1.39" pos="44.43" edge="1388" slope="0.00"/>
    </timestep>
    <timestep time="121.00">
        <person id="p_0" x="1693.84" y="2012.21" angle="73.26" speed="1.39" pos="45.82" edge="1388" slope="0.00"/>
    </timestep>
    <timestep time="122.00">
        <person id="p_0" x="1695.17" y="2012.61" angle="73.26" speed="1.39" pos="47.21" edge="1388" slope="0.00"/>
    </timestep>
    <timestep time="123.00">
        <person id="p_0" x="1696.50" y="2013.01" angle="73.26" speed="1.39" pos="48.60" edge="1388" slope="0.00"/>
    </timestep>
    <timestep time="124.00">
        <person id="p_0" x="1697.83" y="2013.41" angle="73.26" speed="1.39" pos="49.99" edge="1388" slope="0.00"/>
    </timestep>
    <timestep time="125.00">
        <person id="p_0" x="1699.16" y="2013.81" angle="73.26" speed="1.39" pos="51.37" edge="1388" slope="0.00"/>
    </timestep>
    <timestep time="126.00">
        <person id="p_0" x="1700.49" y="2014.21" angle="73.26" speed="1.39" pos="52.76" edge="1388" slope="0.00"/>
    </timestep>
    <timestep time="127.00">
        <person id="p_0" x="1701.82" y="2014.61" angle="73.26" speed="1.39" pos="54.15" edge="1388" slope="0.00"/>
    </timestep>
    <timestep time="128.00">
        <person id="p_0" x="1703.15" y="2015.01" angle="73.26" speed="1.39" pos="55.54" edge="1388" slope="0.00"/>
    </timestep>
    <timestep time="129.00">
        <person id="p_0" x="1704.48" y="2015.41" angle="73.26" speed="1.39" pos="56.93" edge="1388" slope="0.00"/>
    </timestep>
    <timestep time="130.00">
        <person id="p_0" x="1705.81" y="2015.81" angle="73.26" speed="1.39" pos="58.32" edge="1388" slope="0.00"/>
    </timestep>
    <timestep time="131.00">
        <person id="p_0" x="1707.14" y="2016.21" angle="73.26" speed="1.39" pos="59.71" edge="1388" slope="0.00"/>
    </timestep>
    <timestep time="132.00">
        <person id="p_0" x="1708.47" y="2016.61" angle="73.26" speed="1.39" pos="61.10" edge="1388" slope="0.00"/>
    </timestep>
    <timestep time="133.00">
        <person id="p_0" x="1709.80" y="2017.01" angle="73.26" speed="1.39" pos="62.49" edge="1388" slope="0.00"/>
    </timestep>
    <timestep time="134.00">
        <person id="p_0" x="1711.13" y="2017.41" angle="73.26" speed="1.39" pos="63.87" edge="1388" slope="0.00"/>
    </timestep>
    <timestep time="135.00">
        <person id="p_0" x="1712.46" y="2017.81" angle="73.26" speed="1.39" pos="65.26" edge="1388" slope="0.00"/>
    </timestep>
    <timestep time="136.00">
        <person id="p_0" x="1713.79" y="2018.21" angle="73.26" speed="1.39" pos="66.65" edge="1388" slope="0.00"/>
    </timestep>
    <timestep time="137.00">
        <person id="p_0" x="1715.12" y="2018.61" angle="73.26" speed="1.39" pos="68.04" edge="1388" slope="0.00"/>
    </timestep>
    <timestep time="138.00">
        <person id="p_0" x="1716.45" y="2019.01" angle="73.26" speed="1.39" pos="69.43" edge="1388" slope="0.00"/>
    </timestep>
    <timestep time="139.00">
        <person id="p_0" x="1717.78" y="2019.41" angle="73.26" speed="1.39" pos="70.82" edge="1388" slope="0.00"/>
    </timestep>
    <timestep time="140.00">
        <person id="p_0" x="1719.11" y="2019.81" angle="73.26" speed="1.39" pos="72.21" edge="1388" slope="0.00"/>
    </timestep>
    <timestep time="141.00">
        <person id="p_0" x="1720.44" y="2020.21" angle="73.26" speed="1.39" pos="73.60" edge="1388" slope="0.00"/>
    </timestep>
    <timestep time="142.00">
        <person id="p_0" x="1721.77" y="2020.61" angle="73.26" speed="1.39" pos="74.98" edge="1388" slope="0.00"/>
    </timestep>
    <timestep time="143.00">
        <person id="p_0" x="1723.10" y="2021.01" angle="73.26" speed="1.39" pos="76.37" edge="1388" slope="0.00"/>
    </timestep>
    <timestep time="144.00">
        <person id="p_0" x="1724.43" y="2021.41" angle="73.26" speed="1.39" pos="77.76" edge="1388" slope="0.00"/>
    </timestep>
    <timestep time="145.00">
        <person id="p_0" x="1725.76" y="2021.81" angle="73.26" speed="1.39" pos="79.15" edge="1388" slope="0.00"/>
    </timestep>
    <timestep time="146.00">
        <person id="p_0" x="1727.09" y="2022.21" angle="73.26" speed="1.39" pos="80.54" edge="1388" slope="0.00"/>
    </timestep>
    <timestep time="147.00">
        <person id="p_0" x="1728.42" y="2022.61" angle="73.26" speed="1.39" pos="81.93" edge="1388" slope="0.00"/>
    </timestep>
    <timestep time="148.00">
        <person id="p_0" x="1729.75" y="2023.01" angle="73.26" speed="1.39" pos="83.32" edge="1388" slope="0.00"/>
    </timestep>
    <timestep time="149.00">
        <person id="p_0" x="1731.08" y="2023.41" angle="73.26" speed="1.39" pos="84.71" edge="1388" slope="0.00"/>
    </timestep>
    <timestep time="150.00">
        <person id="p_0" x="1732.41" y="2023.81" angle="73.26" speed="1.39" pos="86.10" edge="1388" slope="0.00"/>
    </timestep>
    <timestep time="151.00">
        <person id="p_0" x="1733.74" y="2024.21" angle="73.26" speed="1.39" pos="87.48" edge="1388" slope="0.00"/>
    </timestep>
    <timestep time="152.00">
        <person id="p_0" x="1735.07" y="2024.61" angle="73.26" speed="1.39" pos="88.87" edge="1388" slope="0.00"/>
    </timestep>
    <timestep time="153.00">
        <person id="p_0" x="1736.40" y="2025.01" angle="73.26" speed="1.39" pos="90.26" edge="1388" slope="0.00"/>
    </timestep>
    <timestep time="154.00">
        <person id="p_0" x="1737.73" y="2025.41" angle="73.26" speed="1.39" pos="91.65" edge="1388" slope="0.00"/>
    </timestep>
    <timestep time="155.00">
        <person id="p_0" x="1739.06" y="2025.81" angle="73.26" speed="1.39" pos="93.04" edge="1388" slope="0.00"/>
    </timestep>
    <timestep time="156.00">
        <person id="p_0" x="1740.39" y="2026.21" angle="73.26" speed="1.39" pos="94.43" edge="1388" slope="0.00"/>
    </timestep>
    <timestep time="157.00">
        <person id="p_0" x="1741.72" y="2026.61" angle="73.26" speed="1.39" pos="95.82" edge="1388" slope="0.00"/>
    </timestep>
    <timestep time="158.00">
        <person id="p_0" x="1743.05" y="2027.01" angle="73.26" speed="1.39" pos="97.21" edge="1388" slope="0.00"/>
    </timestep>
    <timestep time="159.00">
        <person id="p_0" x="1744.38" y="2027.41" angle="73.26" speed="1.39" pos="98.60" edge="1388" slope="0.00"/>
    </timestep>
    <timestep time="160.00">
        <person id="p_0" x="1745.71" y="2027.81" angle="73.26" speed="1.39" pos="99.98" edge="1388" slope="0.00"/>
    </timestep>
    <timestep time="161.00">
        <person id="p_0" x="1747.04" y="2028.21" angle="73.26" speed="1.39" pos="101.37" edge="1388" slope="0.00"/>
    </timestep>
    <timestep time="162.00">
        <person id="p_0" x="1748.37" y="2028.61" angle="73.26" speed="1.39" pos="102.76" edge="1388" slope="0.00"/>
    </timestep>
    <timestep time="163.00">
        <person id="p_0" x="1749.70" y="2029.01" angle="73.26" speed="1.39" pos="104.15" edge="1388" slope="0.00"/>
    </timestep>
    <timestep time="164.00">
        <person id="p_0" x="1751.03" y="2029.41" angle="73.26" speed="1.39" pos="105.54" edge="1388" slope="0.00"/>
    </timestep>
    <timestep time="165.00">
        <person id="p_0" x="1752.36" y="2029.81" angle="73.26" speed="1.39" pos="106.93" edge="1388" slope="0.00"/>
    </timestep>
    <timestep time="166.00">
        <person id="p_0" x="1753.69" y="2030.21" angle="73.26" speed="1.39" pos="108.32" edge="1388" slope="0.00"/>
    </timestep>
    <timestep time="167.00">
        <person id="p_0" x="1755.02" y="2030.61" angle="73.26" speed="1.39" pos="109.71" edge="1388" slope="0.00"/>
    </timestep>
    <timestep time="168.00">
        <person id="p_0" x="1756.35" y="2031.01" angle="73.26" speed="1.39" pos="111.10" edge="1388" slope="0.00"/>
    </timestep>
    <timestep time="169.00">
        <person id="p_0" x="1757.68" y="2031.41" angle="73.26" speed="1.39" pos="112.48" edge="1388" slope="0.00"/>
    </timestep>
    <timestep time="170.00">
        <person id="p_0" x="1759.01" y="2031.81" angle="73.27" speed="1.39" pos="113.87" edge="1388" slope="0.00"/>
    </timestep>
    <timestep time="171.00">
        <person id="p_0" x="1760.34" y="2032.21" angle="73.27" speed="1.39" pos="115.26" edge="1388" slope="0.00"/>
    </timestep>
    <timestep time="172.00">
        <person id="p_0" x="1761.67" y="2032.61" angle="73.28" speed="1.39" pos="116.65" edge="1388" slope="0.00"/>
    </timestep>
    <timestep time="173.00">
        <person id="p_0" x="1763.00" y="2033.01" angle="73.29" speed="1.39" pos="118.04" edge="1388" slope="0.00"/>
    </timestep>
    <timestep time="174.00">
        <person id="p_0" x="1764.33" y="2033.40" angle="73.32" speed="1.39" pos="119.43" edge="1388" slope="0.00"/>
    </timestep>
    <timestep time="175.00">
        <person id="p_0" x="1765.66" y="2033.80" angle="73.36" speed="1.39" pos="120.82" edge="1388" slope="0.00"/>
    </timestep>
    <timestep time="176.00">
        <person id="p_0" x="1766.99" y="2034.20" angle="73.42" speed="1.39" pos="122.21" edge="1388" slope="0.00"/>
    </timestep>
    <timestep time="177.00">
        <person id="p_0" x="1768.32" y="2034.59" angle="73.50" speed="1.39" pos="123.59" edge="1388" slope="0.00"/>
    </timestep>
    <timestep time="178.00">
        <person id="p_0" x="1769.66" y="2034.99" angle="73.58" speed="1.39" pos="124.98" edge="1388" slope="0.00"/>
    </timestep>
    <timestep time="179.00">