<?xml version="1.0" encoding="UTF-8"?>

<!-- generated on Mon Sep 21 08:24:23 2020 by Eclipse SUMO sumo Version v1_7_0+0151-194128b1a6
This data file and the accompanying materials
are made available under the terms of the Eclipse Public License v2.0
which accompanies this distribution, and is available at
http://www.eclipse.org/legal/epl-v20.html
SPDX-License-Identifier: EPL-2.0
<configuration xmlns:xsi="http://www.w3.org/2001/XMLSchema-instance" xsi:noNamespaceSchemaLocation="http://sumo.dlr.de/xsd/sumoConfiguration.xsd">

    <input>
        <net-file value="net.net.xml"/>
        <route-files value="input_routes.rou.xml"/>
    </input>

    <output>
        <write-license value="true"/>
        <tripinfo-output value="tripinfos.xml"/>
    </output>

    <processing>
        <default.speeddev value="0"/>
    </processing>

    <report>
        <xml-validation value="never"/>
        <xml-validation.routes value="never"/>
        <duration-log.disable value="true"/>
        <no-step-log value="true"/>
    </report>

</configuration>
-->

<tripinfos xmlns:xsi="http://www.w3.org/2001/XMLSchema-instance" xsi:noNamespaceSchemaLocation="http://sumo.dlr.de/xsd/tripinfo_file.xsd">
    <tripinfo id="overtaking" depart="4.00" departLane="beg_0" departPos="1000.00" departSpeed="25.01" departDelay="0.00" arrival="85.00" arrivalLane="beg_0" arrivalPos="3003.20" arrivalSpeed="25.01" duration="81.00" routeLength="2003.20" waitingTime="0.00" waitingCount="0" stopTime="0.00" timeLoss="0.00" rerouteNo="0" devices="tripinfo_overtaking" vType="fast" speedFactor="1.50" vaporized=""/>
    <tripinfo id="slow_middle" depart="0.00" departLane="beg_1" departPos="1000.00" departSpeed="16.67" departDelay="0.00" arrival="121.00" arrivalLane="beg_1" arrivalPos="3003.20" arrivalSpeed="16.67" duration="121.00" routeLength="2003.20" waitingTime="0.00" waitingCount="0" stopTime="0.00" timeLoss="0.00" rerouteNo="0" devices="tripinfo_slow_middle" vType="slow" speedFactor="1.00" vaporized=""/>
</tripinfos>
