<?xml version="1.0" encoding="UTF-8"?>

<!-- generated on 2024-07-30 15:12:26 by Eclipse SUMO sumo Version v1_20_0+1470-484cb2a283b
<sumoConfiguration xmlns:xsi="http://www.w3.org/2001/XMLSchema-instance" xsi:noNamespaceSchemaLocation="http://sumo.dlr.de/xsd/sumoConfiguration.xsd">

    <input>
        <net-file value="input_net4.net.xml"/>
        <route-files value="input_routes.rou.xml"/>
        <additional-files value="input_additional4.add.xml"/>
    </input>

    <output>
        <vehroute-output value="vehroutes.xml"/>
    </output>

    <report>
        <no-step-log value="true"/>
    </report>

    <traci_server>
        <remote-port value="53667"/>
    </traci_server>

</sumoConfiguration>
-->

<routes xmlns:xsi="http://www.w3.org/2001/XMLSchema-instance" xsi:noNamespaceSchemaLocation="http://sumo.dlr.de/xsd/routes_file.xsd">
    <vehicle id="ego" depart="0.00" arrival="277.00">
        <routeDistribution>
            <route replacedOnEdge="A0A1" reason="traci:insertStop" replacedAtTime="5.00" probability="0" edges="A0A1 A1B1 B1B2 B2B1 B1C1 C1D1 D1D2 D2D3"/>
            <route edges="A0A1 A1B1 B1C1 C1D1 D1D2 D2D3"/>
        </routeDistribution>
        <stop busStop="busStop_A1B1" duration="60.00"/>
        <stop busStop="busStop_B1C1" duration="30.00"/>
        <stop busStop="busStop_B1C1" duration="60.00"/>
        <stop busStop="busStop_C1D1" duration="60.00"/>
    </vehicle>

</routes>
