<?xml version="1.0"?>

<!-- generated on 07/22/10 09:21:39 by SUMO sumo Version dev-SVN-r8163
<configuration>

    <input>
        <net-file value="three_split.net.xml"/>
        <additional-files value="input_routes.rou.xml,input_additional.add.xml"/>
    </input>

    <output>
        <tripinfo-output value="tripinfos.xml"/>
        <vehroute-output value="vehroutes.xml"/>
    </output>

    <report>
        <no-duration-log value="true"/>
        <no-step-log value="true"/>
    </report>

</configuration>
-->

<routes>
    <vehicle id="emitter_0.00_0" depart="0.00" arrival="74.00">
        <route edges="beg middle end rend"/>
    </vehicle>

    <vehicle id="emitter_1.00_1" depart="2.00" arrival="76.00">
        <route edges="beg middle end rend"/>
    </vehicle>

    <vehicle id="emitter_2.00_2" depart="5.00" arrival="79.00">
        <route edges="beg middle end rend"/>
    </vehicle>

    <vehicle id="emitter_3.00_3" depart="7.00" arrival="81.00">
        <route edges="beg middle end rend"/>
    </vehicle>

    <vehicle id="emitter_4.00_4" depart="10.00" arrival="84.00">
        <route edges="beg middle end rend"/>
    </vehicle>

    <vehicle id="emitter_5.00_5" depart="12.00" arrival="86.00">
        <route edges="beg middle end rend"/>
    </vehicle>

    <vehicle id="emitter_6.00_6" depart="15.00" arrival="89.00">
        <route edges="beg middle end rend"/>
    </vehicle>

    <vehicle id="emitter_7.00_7" depart="17.00" arrival="91.00">
        <route edges="beg middle end rend"/>
    </vehicle>

    <vehicle id="emitter_8.00_8" depart="20.00" arrival="94.00">
        <route edges="beg middle end rend"/>
    </vehicle>

    <vehicle id="emitter_9.00_9" depart="22.00" arrival="96.00">
        <route edges="beg middle end rend"/>
    </vehicle>

</routes>
