<?xml version="1.0"?>

<!-- generated on 07/21/10 12:30:34 by SUMO sumo Version dev-SVN-r8163
<configuration>

    <input>
        <net-file value="three_split.net.xml"/>
        <additional-files value="input_routes.rou.xml,input_additional.add.xml"/>
    </input>

    <output>
        <tripinfo-output value="tripinfos.xml"/>
        <vehroute-output value="vehroutes.xml"/>
    </output>

    <report>
        <no-duration-log value="true"/>
        <no-step-log value="true"/>
    </report>

</configuration>
-->

<routes>
    <vehicle id="emitter_0.00_0" depart="0.00" arrival="74.00">
        <route edges="beg middle end rend"/>
    </vehicle>

    <vehicle id="emitter_1.00_1" depart="7.00" arrival="81.00">
        <route edges="beg middle end rend"/>
    </vehicle>

    <vehicle id="emitter_2.00_2" depart="14.00" arrival="88.00">
        <route edges="beg middle end rend"/>
    </vehicle>

    <vehicle id="emitter_3.00_3" depart="21.00" arrival="95.00">
        <route edges="beg middle end rend"/>
    </vehicle>

    <vehicle id="emitter_4.00_4" depart="28.00" arrival="102.00">
        <route edges="beg middle end rend"/>
    </vehicle>

    <vehicle id="emitter_5.00_5" depart="35.00" arrival="109.00">
        <route edges="beg middle end rend"/>
    </vehicle>

    <vehicle id="emitter_6.00_6" depart="42.00" arrival="116.00">
        <route edges="beg middle end rend"/>
    </vehicle>

    <vehicle id="emitter_7.00_7" depart="49.00" arrival="123.00">
        <route edges="beg middle end rend"/>
    </vehicle>

    <vehicle id="emitter_8.00_8" depart="56.00" arrival="130.00">
        <route edges="beg middle end rend"/>
    </vehicle>

    <vehicle id="emitter_9.00_9" depart="63.00" arrival="137.00">
        <route edges="beg middle end rend"/>
    </vehicle>

</routes>
