<?xml version="1.0"?>

<!-- generated on 01/16/08 08:47:27 by SUMO sumo Version 0.9.7
<configuration>

   <input>
      <net-file>three_split.net.xml</net-file>
      <additional-files>input_routes.rou.xml,input_additional.add.xml</additional-files>
   </input>

   <output>
      <tripinfo-output>tripinfos.xml</tripinfo-output>
      <vehroute-output>vehroutes.xml</vehroute-output>
   </output>

   <processing>
      <no-duration-log>true</no-duration-log>
      <no-step-log>true</no-step-log>
   </processing>

</configuration>
-->

<vehicleroutes>
   <vehicle id="emitter_0_0" emittedAt="0" endedAt="76">
      <route>beg middle end rend</route>
   </vehicle>

   <vehicle id="emitter_1_1" emittedAt="3" endedAt="79">
      <route>beg middle end rend</route>
   </vehicle>

   <vehicle id="emitter_2_2" emittedAt="6" endedAt="83">
      <route>beg middle end rend</route>
   </vehicle>

   <vehicle id="emitter_3_3" emittedAt="9" endedAt="85">
      <route>beg middle end rend</route>
   </vehicle>

   <vehicle id="emitter_4_4" emittedAt="12" endedAt="89">
      <route>beg middle end rend</route>
   </vehicle>

   <vehicle id="emitter_5_5" emittedAt="15" endedAt="91">
      <route>beg middle end rend</route>
   </vehicle>

   <vehicle id="emitter_6_6" emittedAt="18" endedAt="95">
      <route>beg middle end rend</route>
   </vehicle>

   <vehicle id="emitter_7_7" emittedAt="21" endedAt="98">
      <route>beg middle end rend</route>
   </vehicle>

   <vehicle id="emitter_8_8" emittedAt="24" endedAt="101">
      <route>beg middle end rend</route>
   </vehicle>

   <vehicle id="emitter_9_9" emittedAt="27" endedAt="104">
      <route>beg middle end rend</route>
   </vehicle>

</vehicleroutes>
