<?xml version="1.0"?>

<!-- generated on 04/18/08 08:44:34 by SUMO sumo Version 0.9.7
<configuration>

   <input>
      <net-file>three_split.net.xml</net-file>
      <additional-files>input_routes.rou.xml,input_additional.add.xml</additional-files>
   </input>

   <output>
      <tripinfo-output>tripinfos.xml</tripinfo-output>
      <vehroute-output>vehroutes.xml</vehroute-output>
   </output>

   <processing>
      <no-duration-log>true</no-duration-log>
      <no-step-log>true</no-step-log>
   </processing>

</configuration>
-->

<routes>
   <vehicle id="emitter_0_0" depart="0" arrival="76">
      <route>beg middle end rend</route>
   </vehicle>

   <vehicle id="emitter_1_1" depart="2" arrival="79">
      <route>beg middle end rend</route>
   </vehicle>

   <vehicle id="emitter_2_2" depart="4" arrival="81">
      <route>beg middle end rend</route>
   </vehicle>

   <vehicle id="emitter_3_3" depart="7" arrival="83">
      <route>beg middle end rend</route>
   </vehicle>

   <vehicle id="emitter_4_4" depart="9" arrival="87">
      <route>beg middle end rend</route>
   </vehicle>

   <vehicle id="emitter_5_5" depart="12" arrival="90">
      <route>beg middle end rend</route>
   </vehicle>

   <vehicle id="emitter_6_6" depart="16" arrival="93">
      <route>beg middle end rend</route>
   </vehicle>

   <vehicle id="emitter_7_7" depart="18" arrival="95">
      <route>beg middle end rend</route>
   </vehicle>

   <vehicle id="emitter_8_8" depart="21" arrival="97">
      <route>beg middle end rend</route>
   </vehicle>

   <vehicle id="emitter_9_9" depart="23" arrival="99">
      <route>beg middle end rend</route>
   </vehicle>

</routes>
