<?xml version="1.0" encoding="UTF-8"?>

<!-- generated on Wed Feb 19 22:17:19 2020 by Eclipse SUMO Version v1_5_0+0174-0b4d252505
This data file and the accompanying materials
are made available under the terms of the Eclipse Public License v2.0
which accompanies this distribution, and is available at
http://www.eclipse.org/legal/epl-v20.html
SPDX-License-Identifier: EPL-2.0
<configuration xmlns:xsi="http://www.w3.org/2001/XMLSchema-instance" xsi:noNamespaceSchemaLocation="http://sumo.dlr.de/xsd/sumoConfiguration.xsd">

    <input>
        <net-file value="net.net.xml"/>
        <route-files value="input_routes.rou.xml"/>
    </input>

    <output>
        <write-license value="true"/>
        <tripinfo-output value="tripinfos.xml"/>
    </output>

    <processing>
        <default.speeddev value="0"/>
        <pedestrian.model value="nonInteracting"/>
    </processing>

    <report>
        <xml-validation value="never"/>
        <duration-log.disable value="true"/>
        <no-step-log value="true"/>
    </report>

    <mesoscopic>
        <mesosim value="true"/>
    </mesoscopic>

</configuration>
-->

<tripinfos xmlns:xsi="http://www.w3.org/2001/XMLSchema-instance" xsi:noNamespaceSchemaLocation="http://sumo.dlr.de/xsd/tripinfo_file.xsd">
    <tripinfo id="v0" depart="15.00" departLane="" departPos="0.00" departSpeed="13.89" departDelay="0.00" arrival="118.00" arrivalLane="" arrivalPos="198.50" arrivalSpeed="13.89" duration="103.00" routeLength="592.00" waitingTime="0.00" waitingCount="0" stopTime="60.00" timeLoss="60.00" rerouteNo="0" devices="tripinfo_v0 routing_v0 person_v0" vType="DEFAULT_VEHTYPE" speedFactor="1.00" vaporized=""/>
    <personinfo id="p0" depart="15.00" type="DEFAULT_PEDTYPE">
        <ride waitingTime="0.00" vehicle="v0" depart="15.00" arrival="104.00" arrivalPos="97.50" duration="89.00" routeLength="295.00"/>
        <walk depart="104.00" departPos="97.50" arrival="209.00" arrivalPos="46.65" duration="105.00" routeLength="144.15" timeLoss="1.21" maxSpeed="1.39"/>
    </personinfo>
    <personinfo id="p1" depart="15.00" type="DEFAULT_PEDTYPE">
        <ride waitingTime="0.00" vehicle="v0" depart="15.00" arrival="104.00" arrivalPos="97.50" duration="89.00" routeLength="295.00"/>
        <walk depart="104.00" departPos="97.50" arrival="209.00" arrivalPos="46.65" duration="105.00" routeLength="144.15" timeLoss="1.21" maxSpeed="1.39"/>
    </personinfo>
</tripinfos>
