<?xml version="1.0" encoding="UTF-8"?>

<!-- generated on 2024-04-11 10:27:04 by Eclipse SUMO sumo Version v1_19_0+1774-c2740415b91
This data file and the accompanying materials
are made available under the terms of the Eclipse Public License v2.0
which accompanies this distribution, and is available at
http://www.eclipse.org/legal/epl-v20.html
This file may also be made available under the following Secondary
Licenses when the conditions for such availability set forth in the Eclipse
Public License 2.0 are satisfied: GNU General Public License, version 2
or later which is available at
https://www.gnu.org/licenses/old-licenses/gpl-2.0-standalone.html
SPDX-License-Identifier: EPL-2.0 OR GPL-2.0-or-later
<configuration xmlns:xsi="http://www.w3.org/2001/XMLSchema-instance" xsi:noNamespaceSchemaLocation="http://sumo.dlr.de/xsd/sumoConfiguration.xsd">

    <input>
        <net-file value="net.net.xml"/>
        <route-files value="input_routes.rou.xml"/>
        <additional-files value="input_additional.add.xml,input_additional2.add.xml,input_additional3.add.xml"/>
    </input>

    <output>
        <write-license value="true"/>
        <vehroute-output value="vehroutes.xml"/>
        <vehroute-output.exit-times value="true"/>
        <vehroute-output.cost value="true"/>
        <vehroute-output.route-length value="true"/>
        <vehroute-output.write-unfinished value="true"/>
        <stop-output value="stopinfos.xml"/>
        <stop-output.write-unfinished value="true"/>
    </output>

    <time>
        <end value="1000"/>
    </time>

    <processing>
        <default.speeddev value="0"/>
    </processing>

    <report>
        <xml-validation value="never"/>
        <duration-log.disable value="true"/>
        <no-step-log value="true"/>
    </report>

    <gui_only>
        <gui-settings-file value="settings.xml"/>
    </gui_only>

</configuration>
-->

<stops xmlns:xsi="http://www.w3.org/2001/XMLSchema-instance" xsi:noNamespaceSchemaLocation="http://sumo.dlr.de/xsd/stopinfo_file.xsd">
    <stopinfo id="ego.0" type="car" lane="A2A3_0" pos="55.00" parking="1" started="19.00" ended="-1" parkingArea="parkA2A3" initialPersons="0" loadedPersons="0" unloadedPersons="0" initialContainers="0" loadedContainers="0" unloadedContainers="0"/>
    <stopinfo id="ego.1" type="car" lane="C2C3_0" pos="55.00" parking="1" started="114.00" ended="-1" parkingArea="parkC2C3" initialPersons="0" loadedPersons="0" unloadedPersons="0" initialContainers="0" loadedContainers="0" unloadedContainers="0"/>
    <stopinfo id="ego.2" type="car" lane="A0A1_0" pos="55.00" parking="1" started="90.00" ended="-1" parkingArea="parkA0A1" initialPersons="0" loadedPersons="0" unloadedPersons="0" initialContainers="0" loadedContainers="0" unloadedContainers="0"/>
    <stopinfo id="ego.3" type="car" lane="A1A2_0" pos="55.00" parking="1" started="121.00" ended="-1" parkingArea="parkA1A2" initialPersons="0" loadedPersons="0" unloadedPersons="0" initialContainers="0" loadedContainers="0" unloadedContainers="0"/>
    <stopinfo id="ego.4" type="car" lane="B1B2_0" pos="55.00" parking="1" started="93.00" ended="-1" parkingArea="parkB1B2" initialPersons="0" loadedPersons="0" unloadedPersons="0" initialContainers="0" loadedContainers="0" unloadedContainers="0"/>
    <stopinfo id="ego.6" type="car" lane="B2B3_0" pos="55.00" parking="1" started="205.00" ended="-1" parkingArea="parkB2B3" initialPersons="0" loadedPersons="0" unloadedPersons="0" initialContainers="0" loadedContainers="0" unloadedContainers="0"/>
    <stopinfo id="ego.10" type="car" lane="B0B1_0" pos="55.00" parking="1" started="280.00" ended="-1" parkingArea="parkB0B1" initialPersons="0" loadedPersons="0" unloadedPersons="0" initialContainers="0" loadedContainers="0" unloadedContainers="0"/>
    <stopinfo id="ego.12" type="car" lane="C0C1_0" pos="55.00" parking="1" started="192.00" ended="-1" parkingArea="parkC0C1" initialPersons="0" loadedPersons="0" unloadedPersons="0" initialContainers="0" loadedContainers="0" unloadedContainers="0"/>
    <stopinfo id="ego.24" type="car" lane="C1C2_0" pos="55.00" parking="1" started="304.00" ended="-1" parkingArea="parkC1C2" initialPersons="0" loadedPersons="0" unloadedPersons="0" initialContainers="0" loadedContainers="0" unloadedContainers="0"/>
    <stopinfo id="ego.40" type="car" lane="D1D2_0" pos="55.00" parking="1" started="655.00" ended="-1" parkingArea="parkD1D2" initialPersons="0" loadedPersons="0" unloadedPersons="0" initialContainers="0" loadedContainers="0" unloadedContainers="0"/>
    <stopinfo id="ego.44" type="car" lane="D2D3_0" pos="55.00" parking="1" started="531.00" ended="-1" parkingArea="parkD2D3" initialPersons="0" loadedPersons="0" unloadedPersons="0" initialContainers="0" loadedContainers="0" unloadedContainers="0"/>
    <stopinfo id="ego.61" type="car" lane="D0D1_0" pos="55.00" parking="1" started="616.00" ended="-1" parkingArea="parkD0D1" initialPersons="0" loadedPersons="0" unloadedPersons="0" initialContainers="0" loadedContainers="0" unloadedContainers="0"/>
</stops>
