<?xml version="1.0"?>

<!-- generated on Fri Nov  9 12:25:05 2012 by SUMO sumo Version dev-SVN-r12945
<?xml version="1.0" encoding="UTF-8"?>

<configuration xmlns:xsi="http://www.w3.org/2001/XMLSchema-instance" xsi:noNamespaceSchemaLocation="http://sumo.sf.net/xsd/sumoConfiguration.xsd">

    <input>
        <net-file value="three_split.net.xml"/>
        <route-files value="input_routes.rou.xml"/>
    </input>

    <output>
        <tripinfo-output value="tripinfos.xml"/>
    </output>

    <time>
        <end value="1000"/>
    </time>

    <report>
        <no-duration-log value="true"/>
        <no-step-log value="true"/>
    </report>

</configuration>
-->

<tripinfos>
    <personinfo id="p1" depart="20.00">
        <stop arrival="20.00"/>
        <ride depart="40.00" arrival="237.00"/>
    </personinfo>
    <tripinfo id="bus.0" depart="0.00" departLane="beg_0" departPos="0.00" departSpeed="0.00" departDelay="0.00" arrival="237.00" arrivalLane="end_0" arrivalPos="496.12" arrivalSpeed="27.32" duration="237.00" routeLength="2975.47" waitSteps="30" rerouteNo="0" devices="tripinfo_bus.0 person_bus.0" vType="DEFAULT_VEHTYPE" vaporized="">
    </tripinfo>
    <tripinfo id="bus.1" depart="120.00" departLane="beg_0" departPos="0.00" departSpeed="0.00" departDelay="0.00" arrival="358.00" arrivalLane="end_0" arrivalPos="508.52" arrivalSpeed="24.80" duration="238.00" routeLength="2987.87" waitSteps="30" rerouteNo="0" devices="tripinfo_bus.1" vType="DEFAULT_VEHTYPE" vaporized=""/>
    <tripinfo id="bus.2" depart="240.00" departLane="beg_0" departPos="0.00" departSpeed="0.00" departDelay="0.00" arrival="478.00" arrivalLane="end_0" arrivalPos="512.17" arrivalSpeed="24.90" duration="238.00" routeLength="2991.52" waitSteps="30" rerouteNo="0" devices="tripinfo_bus.2" vType="DEFAULT_VEHTYPE" vaporized=""/>
    <tripinfo id="bus.3" depart="360.00" departLane="beg_0" departPos="0.00" departSpeed="0.00" departDelay="0.00" arrival="598.00" arrivalLane="end_0" arrivalPos="503.31" arrivalSpeed="25.38" duration="238.00" routeLength="2982.66" waitSteps="30" rerouteNo="0" devices="tripinfo_bus.3" vType="DEFAULT_VEHTYPE" vaporized=""/>
    <tripinfo id="bus.4" depart="480.00" departLane="beg_0" departPos="0.00" departSpeed="0.00" departDelay="0.00" arrival="719.00" arrivalLane="end_0" arrivalPos="511.54" arrivalSpeed="24.77" duration="239.00" routeLength="2990.89" waitSteps="30" rerouteNo="0" devices="tripinfo_bus.4" vType="DEFAULT_VEHTYPE" vaporized=""/>
    <tripinfo id="bus.5" depart="600.00" departLane="beg_0" departPos="0.00" departSpeed="0.00" departDelay="0.00" arrival="837.00" arrivalLane="end_0" arrivalPos="513.25" arrivalSpeed="24.65" duration="237.00" routeLength="2992.60" waitSteps="30" rerouteNo="0" devices="tripinfo_bus.5" vType="DEFAULT_VEHTYPE" vaporized=""/>
    <tripinfo id="bus.6" depart="720.00" departLane="beg_0" departPos="0.00" departSpeed="0.00" departDelay="0.00" arrival="958.00" arrivalLane="end_0" arrivalPos="504.70" arrivalSpeed="24.91" duration="238.00" routeLength="2984.05" waitSteps="30" rerouteNo="0" devices="tripinfo_bus.6" vType="DEFAULT_VEHTYPE" vaporized=""/>
</tripinfos>
