<?xml version="1.0" encoding="UTF-8"?>

<!-- generated on Thu Jun 29 12:53:44 2017 by SUMO Version dev-SVN-r24963
<?xml version="1.0" encoding="UTF-8"?>

<configuration xmlns:xsi="http://www.w3.org/2001/XMLSchema-instance" xsi:noNamespaceSchemaLocation="http://sumo.dlr.de/xsd/sumoConfiguration.xsd">

    <input>
        <net-file value="net.net.xml"/>
        <route-files value="input_routes.rou.xml"/>
    </input>

    <output>
        <fcd-output value="fcd.xml"/>
    </output>

    <time>
        <step-length value="0.5"/>
    </time>

    <processing>
        <pedestrian.model value="striping"/>
        <pedestrian.striping.dawdling value="0"/>
    </processing>

    <report>
        <xml-validation value="never"/>
        <no-step-log value="true"/>
    </report>

</configuration>
-->

<fcd-export xmlns:xsi="http://www.w3.org/2001/XMLSchema-instance" xsi:noNamespaceSchemaLocation="http://sumo.dlr.de/xsd/fcd_file.xsd">
    <timestep time="0.00">
        <person id="person" x="0.00" y="-5.62" angle="90.00" speed="0.00" pos="0.00" edge="e1" slope="0.00"/>
    </timestep>
    <timestep time="0.50">
        <person id="person" x="0.69" y="-5.62" angle="90.00" speed="1.39" pos="0.69" edge="e1" slope="0.00"/>
    </timestep>
    <timestep time="1.00">
        <person id="person" x="1.39" y="-5.62" angle="90.00" speed="1.39" pos="1.39" edge="e1" slope="0.00"/>
    </timestep>
    <timestep time="1.50">
        <person id="person" x="2.08" y="-5.62" angle="90.00" speed="1.39" pos="2.08" edge="e1" slope="0.00"/>
    </timestep>
    <timestep time="2.00">
        <person id="person" x="2.78" y="-5.62" angle="90.00" speed="1.39" pos="2.78" edge="e1" slope="0.00"/>
    </timestep>
    <timestep time="2.50">
        <person id="person" x="3.47" y="-5.62" angle="90.00" speed="1.39" pos="3.47" edge="e1" slope="0.00"/>
    </timestep>
    <timestep time="3.00">
        <person id="person" x="4.17" y="-5.62" angle="90.00" speed="1.39" pos="4.17" edge="e1" slope="0.00"/>
    </timestep>
    <timestep time="3.50">
        <person id="person" x="4.86" y="-5.62" angle="90.00" speed="1.39" pos="4.86" edge="e1" slope="0.00"/>
    </timestep>
    <timestep time="4.00">
        <person id="person" x="5.56" y="-5.62" angle="90.00" speed="1.39" pos="5.56" edge="e1" slope="0.00"/>
    </timestep>
    <timestep time="4.50">
        <person id="person" x="6.25" y="-5.62" angle="90.00" speed="1.39" pos="6.25" edge="e1" slope="0.00"/>
    </timestep>
    <timestep time="5.00">
        <person id="person" x="6.94" y="-5.62" angle="90.00" speed="1.39" pos="6.94" edge="e1" slope="0.00"/>
    </timestep>
    <timestep time="5.50">
        <person id="person" x="7.64" y="-5.62" angle="90.00" speed="1.39" pos="7.64" edge="e1" slope="0.00"/>
    </timestep>
    <timestep time="6.00">
        <person id="person" x="8.33" y="-5.62" angle="90.00" speed="1.39" pos="8.33" edge="e1" slope="0.00"/>
    </timestep>
    <timestep time="6.50">
        <person id="person" x="9.03" y="-5.62" angle="90.00" speed="1.39" pos="9.03" edge="e1" slope="0.00"/>
    </timestep>
    <timestep time="7.00">
        <person id="person" x="9.72" y="-5.62" angle="90.00" speed="1.39" pos="9.72" edge="e1" slope="0.00"/>
    </timestep>
    <timestep time="7.50">
        <person id="person" x="10.42" y="-5.62" angle="90.00" speed="1.39" pos="10.42" edge="e1" slope="0.00"/>
    </timestep>
    <timestep time="8.00">
        <person id="person" x="11.11" y="-5.62" angle="90.00" speed="1.39" pos="11.11" edge="e1" slope="0.00"/>
    </timestep>
    <timestep time="8.50">
        <person id="person" x="11.81" y="-5.62" angle="90.00" speed="1.39" pos="11.81" edge="e1" slope="0.00"/>
    </timestep>
    <timestep time="9.00">
        <person id="person" x="12.50" y="-5.62" angle="90.00" speed="1.39" pos="12.50" edge="e1" slope="0.00"/>
    </timestep>
    <timestep time="9.50">
        <person id="person" x="13.19" y="-5.62" angle="90.00" speed="1.39" pos="13.19" edge="e1" slope="0.00"/>
    </timestep>
    <timestep time="10.00">
        <person id="person" x="13.89" y="-5.62" angle="90.00" speed="1.39" pos="13.89" edge="e1" slope="0.00"/>
    </timestep>
    <timestep time="10.50">
        <person id="person" x="14.58" y="-5.62" angle="90.00" speed="1.39" pos="14.58" edge="e1" slope="0.00"/>
    </timestep>
    <timestep time="11.00">
        <person id="person" x="15.28" y="-5.62" angle="90.00" speed="1.39" pos="15.28" edge="e1" slope="0.00"/>
    </timestep>
    <timestep time="11.50">
        <person id="person" x="15.97" y="-5.62" angle="90.00" speed="1.39" pos="15.97" edge="e1" slope="0.00"/>
    </timestep>
    <timestep time="12.00">
        <person id="person" x="16.67" y="-5.62" angle="90.00" speed="1.39" pos="16.67" edge="e1" slope="0.00"/>
    </timestep>
    <timestep time="12.50">
        <person id="person" x="17.36" y="-5.62" angle="90.00" speed="1.39" pos="17.36" edge="e1" slope="0.00"/>
    </timestep>
    <timestep time="13.00">
        <person id="person" x="18.06" y="-5.62" angle="90.00" speed="1.39" pos="18.06" edge="e1" slope="0.00"/>
    </timestep>
    <timestep time="13.50">
        <person id="person" x="18.75" y="-5.62" angle="90.00" speed="1.39" pos="18.75" edge="e1" slope="0.00"/>
    </timestep>
    <timestep time="14.00">
        <person id="person" x="19.44" y="-5.62" angle="90.00" speed="1.39" pos="19.44" edge="e1" slope="0.00"/>
    </timestep>
    <timestep time="14.50">
        <person id="person" x="20.14" y="-5.62" angle="90.00" speed="1.39" pos="20.14" edge="e1" slope="0.00"/>
    </timestep>
    <timestep time="15.00">
        <vehicle id="car.0" x="5.10" y="-4.95" angle="90.00" type="car" speed="0.00" pos="5.10" lane="e1_0" slope="0.00"/>
        <person id="person" x="20.83" y="-5.62" angle="90.00" speed="1.39" pos="20.83" edge="e1" slope="0.00"/>
    </timestep>
    <timestep time="15.50">
        <vehicle id="car.0" x="5.75" y="-4.95" angle="90.00" type="car" speed="1.30" pos="5.75" lane="e1_0" slope="0.00"/>
        <person id="person" x="21.53" y="-5.62" angle="90.00" speed="1.39" pos="21.53" edge="e1" slope="0.00"/>
    </timestep>
    <timestep time="16.00">
        <vehicle id="car.0" x="7.05" y="-4.95" angle="90.00" type="car" speed="2.60" pos="7.05" lane="e1_0" slope="0.00"/>
        <person id="person" x="22.22" y="-5.62" angle="90.00" speed="1.39" pos="22.22" edge="e1" slope="0.00"/>
    </timestep>
    <timestep time="16.50">
        <vehicle id="car.0" x="9.00" y="-4.95" angle="90.00" type="car" speed="3.90" pos="9.00" lane="e1_0" slope="0.00"/>
        <person id="person" x="22.92" y="-5.62" angle="90.00" speed="1.39" pos="22.92" edge="e1" slope="0.00"/>
    </timestep>
    <timestep time="17.00">
        <vehicle id="car.0" x="11.60" y="-4.95" angle="90.00" type="car" speed="5.20" pos="11.60" lane="e1_0" slope="0.00"/>
        <person id="person" x="23.61" y="-5.62" angle="90.00" speed="1.39" pos="23.61" edge="e1" slope="0.00"/>
    </timestep>
    <timestep time="17.50">
        <vehicle id="car.0" x="14.85" y="-4.95" angle="90.00" type="car" speed="6.50" pos="14.85" lane="e1_0" slope="0.00"/>
        <person id="person" x="24.31" y="-5.62" angle="90.00" speed="1.39" pos="24.31" edge="e1" slope="0.00"/>
    </timestep>
    <timestep time="18.00">
        <vehicle id="car.0" x="17.55" y="-4.95" angle="90.00" type="car" speed="5.40" pos="17.55" lane="e1_0" slope="0.00"/>
        <person id="person" x="25.00" y="-5.62" angle="90.00" speed="1.39" pos="25.00" edge="e1" slope="0.00"/>
    </timestep>
    <timestep time="18.50">
        <vehicle id="car.0" x="19.74" y="-1.65" angle="90.00" type="car" speed="4.37" pos="19.74" lane="e1_1" slope="0.00"/>
        <person id="person" x="25.69" y="-5.62" angle="90.00" speed="1.39" pos="25.69" edge="e1" slope="0.00"/>
    </timestep>
    <timestep time="19.00">
        <vehicle id="car.0" x="22.57" y="-1.65" angle="90.00" type="car" speed="5.67" pos="22.57" lane="e1_1" slope="0.00"/>
        <person id="person" x="26.39" y="-5.62" angle="90.00" speed="1.39" pos="26.39" edge="e1" slope="0.00"/>
    </timestep>
    <timestep time="19.50">
        <vehicle id="car.0" x="26.05" y="-1.65" angle="90.00" type="car" speed="6.97" pos="26.05" lane="e1_1" slope="0.00"/>
        <person id="person" x="27.08" y="-5.62" angle="90.00" speed="1.39" pos="27.08" edge="e1" slope="0.00"/>
    </timestep>
    <timestep time="20.00">
        <vehicle id="car.0" x="30.19" y="-1.65" angle="90.00" type="car" speed="8.27" pos="30.19" lane="e1_1" slope="0.00"/>
        <vehicle id="car.1" x="5.10" y="-4.95" angle="90.00" type="car" speed="0.00" pos="5.10" lane="e1_0" slope="0.00"/>
        <person id="person" x="27.78" y="-5.62" angle="90.00" speed="1.39" pos="27.78" edge="e1" slope="0.00"/>
    </timestep>
    <timestep time="20.50">
        <vehicle id="car.0" x="34.97" y="-1.65" angle="90.00" type="car" speed="9.57" pos="34.97" lane="e1_1" slope="0.00"/>
        <vehicle id="car.1" x="5.75" y="-4.95" angle="90.00" type="car" speed="1.30" pos="5.75" lane="e1_0" slope="0.00"/>
        <person id="person" x="28.47" y="-5.62" angle="90.00" speed="1.39" pos="28.47" edge="e1" slope="0.00"/>
    </timestep>
    <timestep time="21.00">
        <vehicle id="car.0" x="40.40" y="-1.65" angle="90.00" type="car" speed="10.87" pos="40.40" lane="e1_1" slope="0.00"/>
        <vehicle id="car.1" x="7.05" y="-4.95" angle="90.00" type="car" speed="2.60" pos="7.05" lane="e1_0" slope="0.00"/>
        <person id="person" x="29.17" y="-5.62" angle="90.00" speed="1.39" pos="29.17" edge="e1" slope="0.00"/>
    </timestep>
    <timestep time="21.50">
        <vehicle id="car.0" x="46.49" y="-1.65" angle="90.00" type="car" speed="12.17" pos="46.49" lane="e1_1" slope="0.00"/>
        <vehicle id="car.1" x="9.00" y="-4.95" angle="90.00" type="car" speed="3.90" pos="9.00" lane="e1_0" slope="0.00"/>
        <person id="person" x="29.86" y="-5.62" angle="90.00" speed="1.39" pos="29.86" edge="e1" slope="0.00"/>
    </timestep>
    <timestep time="22.00">
        <vehicle id="car.0" x="53.12" y="-1.65" angle="90.00" type="car" speed="13.47" pos="3.12" lane="e2_1" slope="0.00"/>
        <vehicle id="car.1" x="11.60" y="-4.95" angle="90.00" type="car" speed="5.20" pos="11.60" lane="e1_0" slope="0.00"/>
        <person id="person" x="30.56" y="-5.62" angle="90.00" speed="1.39" pos="30.56" edge="e1" slope="0.00"/>
    </timestep>
    <timestep time="22.50">
        <vehicle id="car.0" x="60.07" y="-1.65" angle="90.00" type="car" speed="13.89" pos="10.07" lane="e2_1" slope="0.00"/>
        <vehicle id="car.1" x="14.85" y="-4.95" angle="90.00" type="car" speed="6.50" pos="14.85" lane="e1_0" slope="0.00"/>
        <person id="person" x="31.25" y="-5.62" angle="90.00" speed="1.39" pos="31.25" edge="e1" slope="0.00"/>
    </timestep>
    <timestep time="23.00">
        <vehicle id="car.0" x="67.01" y="-1.65" angle="90.00" type="car" speed="13.89" pos="17.01" lane="e2_1" slope="0.00"/>
        <vehicle id="car.1" x="18.75" y="-4.95" angle="90.00" type="car" speed="7.80" pos="18.75" lane="e1_0" slope="0.00"/>
        <person id="person" x="31.94" y="-5.62" angle="90.00" speed="1.39" pos="31.94" edge="e1" slope="0.00"/>
    </timestep>
    <timestep time="23.50">
        <vehicle id="car.0" x="73.96" y="-1.65" angle="90.00" type="car" speed="13.89" pos="23.96" lane="e2_1" slope="0.00"/>
        <vehicle id="car.1" x="22.33" y="-4.95" angle="90.00" type="car" speed="7.17" pos="22.33" lane="e1_0" slope="0.00"/>
        <person id="person" x="32.64" y="-5.62" angle="90.00" speed="1.39" pos="32.64" edge="e1" slope="0.00"/>
    </timestep>
    <timestep time="24.00">
        <vehicle id="car.0" x="80.90" y="-1.65" angle="90.00" type="car" speed="13.89" pos="30.90" lane="e2_1" slope="0.00"/>
        <vehicle id="car.1" x="25.25" y="-4.95" angle="90.00" type="car" speed="5.83" pos="25.25" lane="e1_0" slope="0.00"/>
        <person id="person" x="33.33" y="-5.62" angle="90.00" speed="1.39" pos="33.33" edge="e1" slope="0.00"/>
    </timestep>
    <timestep time="24.50">
        <vehicle id="car.0" x="87.85" y="-1.65" angle="90.00" type="car" speed="13.89" pos="37.85" lane="e2_1" slope="0.00"/>
        <vehicle id="car.1" x="27.61" y="-1.65" angle="90.00" type="car" speed="4.72" pos="27.61" lane="e1_1" slope="0.00"/>
        <person id="person" x="34.03" y="-5.62" angle="90.00" speed="1.39" pos="34.03" edge="e1" slope="0.00"/>
    </timestep>
    <timestep time="25.00">
        <vehicle id="car.0" x="94.79" y="-1.65" angle="90.00" type="car" speed="13.89" pos="44.79" lane="e2_1" slope="0.00"/>
        <vehicle id="car.1" x="30.62" y="-1.65" angle="90.00" type="car" speed="6.02" pos="30.62" lane="e1_1" slope="0.00"/>
        <vehicle id="car.2" x="5.10" y="-4.95" angle="90.00" type="car" speed="0.00" pos="5.10" lane="e1_0" slope="0.00"/>
        <person id="person" x="34.72" y="-5.62" angle="90.00" speed="1.39" pos="34.72" edge="e1" slope="0.00"/>
    </timestep>
    <timestep time="25.50">
        <vehicle id="car.1" x="34.28" y="-1.65" angle="90.00" type="car" speed="7.32" pos="34.28" lane="e1_1" slope="0.00"/>
        <vehicle id="car.2" x="5.75" y="-4.95" angle="90.00" type="car" speed="1.30" pos="5.75" lane="e1_0" slope="0.00"/>
        <person id="person" x="35.42" y="-5.62" angle="90.00" speed="1.39" pos="35.42" edge="e1" slope="0.00"/>
    </timestep>
    <timestep time="26.00">
        <vehicle id="car.1" x="38.59" y="-1.65" angle="90.00" type="car" speed="8.62" pos="38.59" lane="e1_1" slope="0.00"/>
        <vehicle id="car.2" x="7.05" y="-4.95" angle="90.00" type="car" speed="2.60" pos="7.05" lane="e1_0" slope="0.00"/>
        <person id="person" x="36.11" y="-5.62" angle="90.00" speed="1.39" pos="36.11" edge="e1" slope="0.00"/>
    </timestep>
    <timestep time="26.50">
        <vehicle id="car.1" x="43.55" y="-1.65" angle="90.00" type="car" speed="9.92" pos="43.55" lane="e1_1" slope="0.00"/>
        <vehicle id="car.2" x="9.00" y="-4.95" angle="90.00" type="car" speed="3.90" pos="9.00" lane="e1_0" slope="0.00"/>
        <person id="person" x="36.81" y="-5.62" angle="90.00" speed="1.39" pos="36.81" edge="e1" slope="0.00"/>
    </timestep>
    <timestep time="27.00">
        <vehicle id="car.1" x="49.16" y="-1.65" angle="90.00" type="car" speed="11.22" pos="49.16" lane="e1_1" slope="0.00"/>
        <vehicle id="car.2" x="11.60" y="-4.95" angle="90.00" type="car" speed="5.20" pos="11.60" lane="e1_0" slope="0.00"/>
        <person id="person" x="37.50" y="-5.62" angle="90.00" speed="1.39" pos="37.50" edge="e1" slope="0.00"/>
    </timestep>
    <timestep time="27.50">
        <vehicle id="car.1" x="55.32" y="-1.65" angle="90.00" type="car" speed="12.52" pos="5.32" lane="e2_1" slope="0.00"/>
        <vehicle id="car.2" x="14.85" y="-4.95" angle="90.00" type="car" speed="6.50" pos="14.85" lane="e1_0" slope="0.00"/>
        <person id="person" x="38.19" y="-5.62" angle="90.00" speed="1.39" pos="38.19" edge="e1" slope="0.00"/>
    </timestep>
    <timestep time="28.00">
        <vehicle id="car.1" x="62.22" y="-1.65" angle="90.00" type="car" speed="13.82" pos="12.22" lane="e2_1" slope="0.00"/>
        <vehicle id="car.2" x="18.75" y="-4.95" angle="90.00" type="car" speed="7.80" pos="18.75" lane="e1_0" slope="0.00"/>
        <person id="person" x="38.89" y="-5.62" angle="90.00" speed="1.39" pos="38.89" edge="e1" slope="0.00"/>
    </timestep>
    <timestep time="28.50">
        <vehicle id="car.1" x="69.17" y="-1.65" angle="90.00" type="car" speed="13.89" pos="19.17" lane="e2_1" slope="0.00"/>
        <vehicle id="car.2" x="23.30" y="-4.95" angle="90.00" type="car" speed="9.10" pos="23.30" lane="e1_0" slope="0.00"/>
        <person id="person" x="39.58" y="-5.62" angle="90.00" speed="1.39" pos="39.58" edge="e1" slope="0.00"/>
    </timestep>
    <timestep time="29.00">
        <vehicle id="car.1" x="76.11" y="-1.65" angle="90.00" type="car" speed="13.89" pos="26.11" lane="e2_1" slope="0.00"/>
        <vehicle id="car.2" x="27.50" y="-4.95" angle="90.00" type="car" speed="8.40" pos="27.50" lane="e1_0" slope="0.00"/>
        <person id="person" x="40.28" y="-5.62" angle="90.00" speed="1.39" pos="40.28" edge="e1" slope="0.00"/>
    </timestep>
    <timestep time="29.50">
        <vehicle id="car.1" x="83.06" y="-1.65" angle="90.00" type="car" speed="13.89" pos="33.06" lane="e2_1" slope="0.00"/>
        <vehicle id="car.2" x="31.00" y="-4.95" angle="90.00" type="car" speed="7.00" pos="31.00" lane="e1_0" slope="0.00"/>
        <person id="person" x="40.97" y="-5.62" angle="90.00" speed="1.39" pos="40.97" edge="e1" slope="0.00"/>
    </timestep>
    <timestep time="30.00">
        <vehicle id="car.1" x="90.00" y="-1.65" angle="90.00" type="car" speed="13.89" pos="40.00" lane="e2_1" slope="0.00"/>
        <vehicle id="car.2" x="33.83" y="-4.95" angle="90.00" type="car" speed="5.66" pos="33.83" lane="e1_0" slope="0.00"/>
        <vehicle id="car.3" x="5.10" y="-4.95" angle="90.00" type="car" speed="0.00" pos="5.10" lane="e1_0" slope="0.00"/>
        <person id="person" x="41.67" y="-5.62" angle="90.00" speed="1.39" pos="41.67" edge="e1" slope="0.00"/>
    </timestep>
    <timestep time="30.50">
        <vehicle id="car.1" x="96.95" y="-1.65" angle="90.00" type="car" speed="13.89" pos="46.95" lane="e2_1" slope="0.00"/>
        <vehicle id="car.2" x="36.13" y="-1.65" angle="90.00" type="car" speed="4.59" pos="36.13" lane="e1_1" slope="0.00"/>
        <vehicle id="car.3" x="5.75" y="-4.95" angle="90.00" type="car" speed="1.30" pos="5.75" lane="e1_0" slope="0.00"/>
        <person id="person" x="42.36" y="-5.62" angle="90.00" speed="1.39" pos="42.36" edge="e1" slope="0.00"/>
    </timestep>
    <timestep time="31.00">
        <vehicle id="car.2" x="39.08" y="-1.65" angle="90.00" type="car" speed="5.89" pos="39.08" lane="e1_1" slope="0.00"/>
        <vehicle id="car.3" x="7.05" y="-4.95" angle="90.00" type="car" speed="2.60" pos="7.05" lane="e1_0" slope="0.00"/>
        <person id="person" x="43.06" y="-5.62" angle="90.00" speed="1.39" pos="43.06" edge="e1" slope="0.00"/>
    </timestep>
    <timestep time="31.50">
        <vehicle id="car.2" x="42.67" y="-1.65" angle="90.00" type="car" speed="7.19" pos="42.67" lane="e1_1" slope="0.00"/>
        <vehicle id="car.3" x="9.00" y="-4.95" angle="90.00" type="car" speed="3.90" pos="9.00" lane="e1_0" slope="0.00"/>
        <person id="person" x="43.75" y="-5.62" angle="90.00" speed="1.39" pos="43.75" edge="e1" slope="0.00"/>
    </timestep>
    <timestep time="32.00">
        <vehicle id="car.2" x="46.92" y="-1.65" angle="90.00" type="car" speed="8.49" pos="46.92" lane="e1_1" slope="0.00"/>
        <vehicle id="car.3" x="11.60" y="-4.95" angle="90.00" type="car" speed="5.20" pos="11.60" lane="e1_0" slope="0.00"/>
        <person id="person" x="44.44" y="-5.62" angle="90.00" speed="1.39" pos="44.44" edge="e1" slope="0.00"/>
    </timestep>
    <timestep time="32.50">
        <vehicle id="car.2" x="51.72" y="-1.65" angle="90.00" type="car" speed="9.79" pos="1.72" lane="e2_1" slope="0.00"/>
        <vehicle id="car.3" x="14.85" y="-4.95" angle="90.00" type="car" speed="6.50" pos="14.85" lane="e1_0" slope="0.00"/>
        <person id="person" x="45.14" y="-5.62" angle="90.00" speed="1.39" pos="45.14" edge="e1" slope="0.00"/>
    </timestep>
    <timestep time="33.00">
        <vehicle id="car.2" x="57.26" y="-1.65" angle="90.00" type="car" speed="11.09" pos="7.26" lane="e2_1" slope="0.00"/>
        <vehicle id="car.3" x="18.75" y="-4.95" angle="90.00" type="car" speed="7.80" pos="18.75" lane="e1_0" slope="0.00"/>
        <person id="person" x="45.83" y="-5.62" angle="90.00" speed="1.39" pos="45.83" edge="e1" slope="0.00"/>
    </timestep>
    <timestep time="33.50">
        <vehicle id="car.2" x="63.46" y="-1.65" angle="90.00" type="car" speed="12.39" pos="13.46" lane="e2_1" slope="0.00"/>
        <vehicle id="car.3" x="23.30" y="-4.95" angle="90.00" type="car" speed="9.10" pos="23.30" lane="e1_0" slope="0.00"/>
        <person id="person" x="46.53" y="-5.62" angle="90.00" speed="1.39" pos="46.53" edge="e1" slope="0.00"/>
    </timestep>
    <timestep time="34.00">
        <vehicle id="car.2" x="70.31" y="-1.65" angle="90.00" type="car" speed="13.69" pos="20.31" lane="e2_1" slope="0.00"/>
        <vehicle id="car.3" x="28.50" y="-4.95" angle="90.00" type="car" speed="10.40" pos="28.50" lane="e1_0" slope="0.00"/>
        <person id="person" x="47.22" y="-5.62" angle="90.00" speed="1.39" pos="47.22" edge="e1" slope="0.00"/>
    </timestep>
    <timestep time="34.50">
        <vehicle id="car.2" x="77.25" y="-1.65" angle="90.00" type="car" speed="13.89" pos="27.25" lane="e2_1" slope="0.00"/>
        <vehicle id="car.3" x="33.16" y="-4.95" angle="90.00" type="car" speed="9.32" pos="33.16" lane="e1_0" slope="0.00"/>
        <person id="person" x="47.92" y="-5.62" angle="90.00" speed="1.39" pos="47.92" edge="e1" slope="0.00"/>
    </timestep>
    <timestep time="35.00">
        <vehicle id="car.2" x="84.20" y="-1.65" angle="90.00" type="car" speed="13.89" pos="34.20" lane="e2_1" slope="0.00"/>
        <vehicle id="car.3" x="37.06" y="-4.95" angle="90.00" type="car" speed="7.79" pos="37.06" lane="e1_0" slope="0.00"/>
        <vehicle id="car.4" x="5.10" y="-4.95" angle="90.00" type="car" speed="0.00" pos="5.10" lane="e1_0" slope="0.00"/>
        <person id="person" x="48.61" y="-5.62" angle="90.00" speed="1.39" pos="48.61" edge="e1" slope="0.00"/>
    </timestep>
    <timestep time="35.50">
        <vehicle id="car.2" x="91.14" y="-1.65" angle="90.00" type="car" speed="13.89" pos="41.14" lane="e2_1" slope="0.00"/>
        <vehicle id="car.3" x="40.28" y="-4.95" angle="90.00" type="car" speed="6.45" pos="40.28" lane="e1_0" slope="0.00"/>
        <vehicle id="car.4" x="5.75" y="-4.95" angle="90.00" type="car" speed="1.30" pos="5.75" lane="e1_0" slope="0.00"/>
        <person id="person" x="49.31" y="-5.62" angle="90.00" speed="1.39" pos="49.31" edge="e1" slope="0.00"/>
    </timestep>
    <timestep time="36.00">
        <vehicle id="car.2" x="98.09" y="-1.65" angle="90.00" type="car" speed="13.89" pos="48.09" lane="e2_1" slope="0.00"/>
        <vehicle id="car.3" x="42.88" y="-4.95" angle="90.00" type="car" speed="5.19" pos="42.88" lane="e1_0" slope="0.00"/>
        <vehicle id="car.4" x="7.05" y="-4.95" angle="90.00" type="car" speed="2.60" pos="7.05" lane="e1_0" slope="0.00"/>
        <person id="person" x="50.00" y="-5.62" angle="90.00" speed="1.39" pos="50.00" edge="e1" slope="0.00"/>
    </timestep>
    <timestep time="36.50">
        <vehicle id="car.3" x="44.99" y="-1.65" angle="90.00" type="car" speed="4.22" pos="44.99" lane="e1_1" slope="0.00"/>
        <vehicle id="car.4" x="9.00" y="-4.95" angle="90.00" type="car" speed="3.90" pos="9.00" lane="e1_0" slope="0.00"/>
        <person id="person" x="50.69" y="-5.62" angle="90.00" speed="1.39" pos="0.69" edge="e2" slope="0.00"/>
    </timestep>
    <timestep time="37.00">
        <vehicle id="car.3" x="47.74" y="-1.65" angle="90.00" type="car" speed="5.52" pos="47.74" lane="e1_1" slope="0.00"/>
        <vehicle id="car.4" x="11.60" y="-4.95" angle="90.00" type="car" speed="5.20" pos="11.60" lane="e1_0" slope="0.00"/>
        <person id="person" x="51.39" y="-5.62" angle="90.00" speed="1.39" pos="1.39" edge="e2" slope="0.00"/>
    </timestep>
    <timestep time="37.50">
        <vehicle id="car.3" x="51.05" y="-1.65" angle="90.00" type="car" speed="6.82" pos="1.05" lane="e2_1" slope="0.00"/>
        <vehicle id="car.4" x="14.85" y="-4.95" angle="90.00" type="car" speed="6.50" pos="14.85" lane="e1_0" slope="0.00"/>
        <person id="person" x="52.08" y="-5.62" angle="90.00" speed="1.39" pos="2.08" edge="e2" slope="0.00"/>
    </timestep>
    <timestep time="38.00">
        <vehicle id="car.3" x="55.11" y="-1.65" angle="90.00" type="car" speed="8.12" pos="5.11" lane="e2_1" slope="0.00"/>
        <vehicle id="car.4" x="18.75" y="-4.95" angle="90.00" type="car" speed="7.80" pos="18.75" lane="e1_0" slope="0.00"/>
        <person id="person" x="52.78" y="-5.62" angle="90.00" speed="1.39" pos="2.78" edge="e2" slope="0.00"/>
    </timestep>
    <timestep time="38.50">
        <vehicle id="car.3" x="59.82" y="-1.65" angle="90.00" type="car" speed="9.42" pos="9.82" lane="e2_1" slope="0.00"/>
        <vehicle id="car.4" x="23.30" y="-4.95" angle="90.00" type="car" speed="9.10" pos="23.30" lane="e1_0" slope="0.00"/>
        <person id="person" x="53.47" y="-5.62" angle="90.00" speed="1.39" pos="3.47" edge="e2" slope="0.00"/>
    </timestep>
    <timestep time="39.00">
        <vehicle id="car.3" x="65.18" y="-1.65" angle="90.00" type="car" speed="10.72" pos="15.18" lane="e2_1" slope="0.00"/>
        <vehicle id="car.4" x="28.50" y="-4.95" angle="90.00" type="car" speed="10.40" pos="28.50" lane="e1_0" slope="0.00"/>
        <person id="person" x="54.17" y="-5.62" angle="90.00" speed="1.39" pos="4.17" edge="e2" slope="0.00"/>
    </timestep>
    <timestep time="39.50">
        <vehicle id="car.3" x="71.19" y="-1.65" angle="90.00" type="car" speed="12.02" pos="21.19" lane="e2_1" slope="0.00"/>
        <vehicle id="car.4" x="34.30" y="-4.95" angle="90.00" type="car" speed="11.61" pos="34.30" lane="e1_0" slope="0.00"/>
        <person id="person" x="54.86" y="-5.62" angle="90.00" speed="1.39" pos="4.86" edge="e2" slope="0.00"/>
    </timestep>
    <timestep time="40.00">
        <vehicle id="car.3" x="77.85" y="-1.65" angle="90.00" type="car" speed="13.32" pos="27.85" lane="e2_1" slope="0.00"/>
        <vehicle id="car.4" x="39.28" y="-4.95" angle="90.00" type="car" speed="9.96" pos="39.28" lane="e1_0" slope="0.00"/>
        <vehicle id="car.5" x="5.10" y="-4.95" angle="90.00" type="car" speed="0.00" pos="5.10" lane="e1_0" slope="0.00"/>
        <person id="person" x="55.56" y="-5.62" angle="90.00" speed="1.39" pos="5.56" edge="e2" slope="0.00"/>
    </timestep>
    <timestep time="40.50">
        <vehicle id="car.3" x="84.79" y="-1.65" angle="90.00" type="car" speed="13.89" pos="34.79" lane="e2_1" slope="0.00"/>
        <vehicle id="car.4" x="43.50" y="-4.95" angle="90.00" type="car" speed="8.44" pos="43.50" lane="e1_0" slope="0.00"/>
        <vehicle id="car.5" x="5.75" y="-4.95" angle="90.00" type="car" speed="1.30" pos="5.75" lane="e1_0" slope="0.00"/>
        <person id="person" x="56.25" y="-5.62" angle="90.00" speed="1.39" pos="6.25" edge="e2" slope="0.00"/>
    </timestep>
    <timestep time="41.00">
        <vehicle id="car.3" x="91.74" y="-1.65" angle="90.00" type="car" speed="13.89" pos="41.74" lane="e2_1" slope="0.00"/>
        <vehicle id="car.4" x="47.02" y="-4.95" angle="90.00" type="car" speed="7.03" pos="47.02" lane="e1_0" slope="0.00"/>
        <vehicle id="car.5" x="7.05" y="-4.95" angle="90.00" type="car" speed="2.60" pos="7.05" lane="e1_0" slope="0.00"/>
        <person id="person" x="56.94" y="-5.62" angle="90.00" speed="1.39" pos="6.94" edge="e2" slope="0.00"/>
    </timestep>
    <timestep time="41.50">
        <vehicle id="car.3" x="98.68" y="-1.65" angle="90.00" type="car" speed="13.89" pos="48.68" lane="e2_1" slope="0.00"/>
        <vehicle id="car.4" x="49.86" y="-4.95" angle="90.00" type="car" speed="5.69" pos="49.86" lane="e1_0" slope="0.00"/>
        <vehicle id="car.5" x="9.00" y="-4.95" angle="90.00" type="car" speed="3.90" pos="9.00" lane="e1_0" slope="0.00"/>
        <person id="person" x="57.64" y="-5.62" angle="90.00" speed="1.39" pos="7.64" edge="e2" slope="0.00"/>
    </timestep>
    <timestep time="42.00">
        <vehicle id="car.4" x="52.07" y="-4.95" angle="90.00" type="car" speed="4.61" pos="2.07" lane="e2_0" slope="0.00"/>
        <vehicle id="car.5" x="11.60" y="-4.95" angle="90.00" type="car" speed="5.20" pos="11.60" lane="e1_0" slope="0.00"/>
        <person id="person" x="58.33" y="-5.62" angle="90.00" speed="1.39" pos="8.33" edge="e2" slope="0.00"/>
    </timestep>
    <timestep time="42.50">
        <vehicle id="car.4" x="53.86" y="-4.95" angle="90.00" type="car" speed="3.58" pos="3.86" lane="e2_0" slope="0.00"/>
        <vehicle id="car.5" x="14.85" y="-4.95" angle="90.00" type="car" speed="6.50" pos="14.85" lane="e1_0" slope="0.00"/>
        <person id="person" x="59.03" y="-5.62" angle="90.00" speed="1.39" pos="9.03" edge="e2" slope="0.00"/>
    </timestep>
    <timestep time="43.00">
        <vehicle id="car.4" x="55.28" y="-4.95" angle="90.00" type="car" speed="2.85" pos="5.28" lane="e2_0" slope="0.00"/>
        <vehicle id="car.5" x="18.75" y="-4.95" angle="90.00" type="car" speed="7.80" pos="18.75" lane="e1_0" slope="0.00"/>
        <person id="person" x="59.72" y="-5.62" angle="90.00" speed="1.39" pos="9.72" edge="e2" slope="0.00"/>
    </timestep>
    <timestep time="43.50">
        <vehicle id="car.4" x="56.46" y="-1.65" angle="90.00" type="car" speed="2.36" pos="6.46" lane="e2_1" slope="0.00"/>
        <vehicle id="car.5" x="23.30" y="-4.95" angle="90.00" type="car" speed="9.10" pos="23.30" lane="e1_0" slope="0.00"/>
        <person id="person" x="60.42" y="-5.62" angle="90.00" speed="1.39" pos="10.42" edge="e2" slope="0.00"/>
    </timestep>
    <timestep time="44.00">
        <vehicle id="car.4" x="58.29" y="-1.65" angle="90.00" type="car" speed="3.66" pos="8.29" lane="e2_1" slope="0.00"/>
        <vehicle id="car.5" x="28.50" y="-4.95" angle="90.00" type="car" speed="10.40" pos="28.50" lane="e1_0" slope="0.00"/>
        <person id="person" x="61.11" y="-5.62" angle="90.00" speed="1.39" pos="11.11" edge="e2" slope="0.00"/>
    </timestep>
    <timestep time="44.50">
        <vehicle id="car.4" x="60.78" y="-1.65" angle="90.00" type="car" speed="4.96" pos="10.78" lane="e2_1" slope="0.00"/>
        <vehicle id="car.5" x="34.35" y="-4.95" angle="90.00" type="car" speed="11.70" pos="34.35" lane="e1_0" slope="0.00"/>
        <person id="person" x="61.81" y="-5.62" angle="90.00" speed="1.39" pos="11.81" edge="e2" slope="0.00"/>
    </timestep>
    <timestep time="45.00">