<?xml version="1.0" encoding="UTF-8"?>

<!-- generated on Mon Jun  4 22:30:58 2018 by Eclipse SUMO Version e0ee7cd
<configuration xmlns:xsi="http://www.w3.org/2001/XMLSchema-instance" xsi:noNamespaceSchemaLocation="http://sumo.dlr.de/xsd/sumoConfiguration.xsd">

    <input>
        <net-file value="input_net.net.xml"/>
        <route-files value="input_routes.rou.xml"/>
        <additional-files value="input_additional.add.xml"/>
    </input>

    <output>
        <fcd-output value="fcd.xml"/>
    </output>

    <report>
        <no-step-log value="true"/>
    </report>

    <traci_server>
        <remote-port value="55565"/>
    </traci_server>

</configuration>
-->

<fcd-export xmlns:xsi="http://www.w3.org/2001/XMLSchema-instance" xsi:noNamespaceSchemaLocation="http://sumo.dlr.de/xsd/fcd_file.xsd">
    <timestep time="0.00">
        <vehicle id="ToC_veh" x="2881.61" y="2439.45" angle="342.00" type="automated" speed="0.00" pos="974.39" lane="1/1to2/1_0" slope="0.00"/>
        <vehicle id="follower" x="2883.96" y="2432.22" angle="342.00" type="automated" speed="0.00" pos="966.79" lane="1/1to2/1_0" slope="0.00"/>
        <vehicle id="leader" x="2879.26" y="2446.67" angle="342.00" type="automated" speed="0.00" pos="981.99" lane="1/1to2/1_0" slope="0.00"/>
    </timestep>
    <timestep time="1.00">
        <vehicle id="ToC_veh" x="2881.58" y="2439.54" angle="342.00" type="automated" speed="0.10" pos="974.49" lane="1/1to2/1_0" slope="0.00"/>
        <vehicle id="follower" x="2883.93" y="2432.31" angle="342.00" type="automated" speed="0.10" pos="966.89" lane="1/1to2/1_0" slope="0.00"/>
        <vehicle id="leader" x="2877.10" y="2449.47" angle="330.28" type="automated" speed="2.60" pos="0.43" lane="2/1to3/1_0" slope="0.00"/>
    </timestep>
    <timestep time="2.00">
        <vehicle id="ToC_veh" x="2880.78" y="2442.01" angle="342.00" type="automated" speed="2.60" pos="977.09" lane="1/1to2/1_0" slope="0.00"/>
        <vehicle id="follower" x="2883.90" y="2432.41" angle="342.00" type="automated" speed="0.10" pos="966.99" lane="1/1to2/1_0" slope="0.00"/>
        <vehicle id="leader" x="2872.90" y="2452.53" angle="306.00" type="automated" speed="5.20" pos="5.63" lane="2/1to3/1_0" slope="0.00"/>
    </timestep>
    <timestep time="3.00">
        <vehicle id="ToC_veh" x="2879.13" y="2447.05" angle="341.93" type="automated" speed="5.20" pos="0.20" lane=":2/1_0_0" slope="0.00"/>
        <vehicle id="follower" x="2883.09" y="2434.88" angle="342.00" type="automated" speed="2.60" pos="969.59" lane="1/1to2/1_0" slope="0.00"/>
        <vehicle id="leader" x="2866.59" y="2457.11" angle="306.00" type="automated" speed="7.80" pos="13.43" lane="2/1to3/1_0" slope="0.00"/>
    </timestep>
    <timestep time="4.00">
        <vehicle id="ToC_veh" x="2872.65" y="2452.70" angle="306.00" type="automated" speed="7.80" pos="5.93" lane="2/1to3/1_0" slope="0.00"/>
        <vehicle id="follower" x="2881.49" y="2439.83" angle="342.00" type="automated" speed="5.20" pos="974.79" lane="1/1to2/1_0" slope="0.00"/>
        <vehicle id="leader" x="2858.17" y="2463.23" angle="306.00" type="automated" speed="10.40" pos="23.83" lane="2/1to3/1_0" slope="0.00"/>
    </timestep>
    <timestep time="5.00">
        <vehicle id="ToC_veh" x="2864.24" y="2458.82" angle="306.00" type="automated" speed="10.40" pos="16.33" lane="2/1to3/1_0" slope="0.00"/>
        <vehicle id="follower" x="2878.98" y="2447.48" angle="341.82" type="automated" speed="7.80" pos="0.50" lane=":2/1_0_0" slope="0.00"/>
        <vehicle id="leader" x="2847.65" y="2470.87" angle="306.00" type="automated" speed="13.00" pos="36.83" lane="2/1to3/1_0" slope="0.00"/>
    </timestep>
    <timestep time="6.00">
        <vehicle id="ToC_veh" x="2853.72" y="2466.46" angle="306.00" type="automated" speed="13.00" pos="29.33" lane="2/1to3/1_0" slope="0.00"/>
        <vehicle id="follower" x="2870.31" y="2454.41" angle="306.00" type="automated" speed="10.40" pos="8.83" lane="2/1to3/1_0" slope="0.00"/>
        <vehicle id="leader" x="2835.03" y="2480.04" angle="306.00" type="automated" speed="15.60" pos="52.43" lane="2/1to3/1_0" slope="0.00"/>
    </timestep>
    <timestep time="7.00">
        <vehicle id="ToC_veh" x="2841.10" y="2475.63" angle="306.00" type="automated" speed="15.60" pos="44.93" lane="2/1to3/1_0" slope="0.00"/>
        <vehicle id="follower" x="2859.79" y="2462.05" angle="306.00" type="automated" speed="13.00" pos="21.83" lane="2/1to3/1_0" slope="0.00"/>
        <vehicle id="leader" x="2820.31" y="2490.73" angle="306.00" type="automated" speed="18.20" pos="70.63" lane="2/1to3/1_0" slope="0.00"/>
    </timestep>
    <timestep time="8.00">
        <vehicle id="ToC_veh" x="2826.38" y="2486.33" angle="306.00" type="automated" speed="18.20" pos="63.13" lane="2/1to3/1_0" slope="0.00"/>
        <vehicle id="follower" x="2847.17" y="2471.22" angle="306.00" type="automated" speed="15.60" pos="37.43" lane="2/1to3/1_0" slope="0.00"/>
        <vehicle id="leader" x="2804.45" y="2502.26" angle="306.00" type="automated" speed="19.60" pos="90.23" lane="2/1to3/1_0" slope="0.00"/>
    </timestep>
    <timestep time="9.00">
        <vehicle id="ToC_veh" x="2810.52" y="2497.85" angle="306.00" type="automated" speed="19.60" pos="82.73" lane="2/1to3/1_0" slope="0.00"/>
        <vehicle id="follower" x="2832.45" y="2481.92" angle="306.00" type="automated" speed="18.20" pos="55.63" lane="2/1to3/1_0" slope="0.00"/>
        <vehicle id="leader" x="2788.60" y="2513.78" angle="306.00" type="automated" speed="19.60" pos="109.83" lane="2/1to3/1_0" slope="0.00"/>
    </timestep>
    <timestep time="10.00">
        <vehicle id="ToC_veh" x="2794.66" y="2509.37" angle="306.00" type="automated" speed="19.60" pos="102.33" lane="2/1to3/1_0" slope="0.00"/>
        <vehicle id="follower" x="2816.59" y="2493.44" angle="306.00" type="automated" speed="19.60" pos="75.23" lane="2/1to3/1_0" slope="0.00"/>
        <vehicle id="leader" x="2775.01" y="2523.65" angle="306.00" type="automated" speed="16.79" pos="126.62" lane="2/1to3/1_0" slope="0.00"/>
    </timestep>
    <timestep time="11.00">
        <vehicle id="ToC_veh" x="2779.14" y="2516.57" angle="306.00" type="automated" speed="16.79" pos="119.12" lane="2/1to3/1_1" slope="0.00"/>
        <vehicle id="follower" x="2800.73" y="2504.96" angle="306.00" type="automated" speed="19.60" pos="94.83" lane="2/1to3/1_0" slope="0.00"/>
        <vehicle id="leader" x="2765.07" y="2530.87" angle="306.00" type="automated" speed="12.29" pos="138.91" lane="2/1to3/1_0" slope="0.00"/>
    </timestep>
    <timestep time="12.00">
        <vehicle id="ToC_veh" x="2763.45" y="2527.97" angle="306.00" type="automated" speed="19.39" pos="138.51" lane="2/1to3/1_1" slope="0.00"/>
        <vehicle id="follower" x="2787.15" y="2514.83" angle="306.00" type="automated" speed="16.79" pos="111.62" lane="2/1to3/1_0" slope="0.00"/>
        <vehicle id="leader" x="2758.76" y="2535.45" angle="306.00" type="automated" speed="7.79" pos="146.71" lane="2/1to3/1_0" slope="0.00"/>
    </timestep>
    <timestep time="13.00">
        <vehicle id="ToC_veh" x="2747.59" y="2539.49" angle="306.00" type="automated" speed="19.60" pos="158.11" lane="2/1to3/1_1" slope="0.00"/>
        <vehicle id="follower" x="2775.44" y="2523.33" angle="306.00" type="automated" speed="14.47" pos="126.09" lane="2/1to3/1_0" slope="0.00"/>
        <vehicle id="leader" x="2756.10" y="2537.39" angle="306.00" type="automated" speed="3.29" pos="150.00" lane="2/1to3/1_0" slope="0.00"/>
    </timestep>
    <timestep time="14.00">
        <vehicle id="ToC_veh" x="2734.57" y="2548.95" angle="306.00" type="automated" speed="16.10" pos="174.21" lane="2/1to3/1_1" slope="0.00"/>
        <vehicle id="follower" x="2767.38" y="2529.19" angle="306.00" type="automated" speed="9.97" pos="136.06" lane="2/1to3/1_0" slope="0.00"/>
        <vehicle id="leader" x="2756.10" y="2537.39" angle="306.00" type="automated" speed="0.00" pos="150.00" lane="2/1to3/1_0" slope="0.00"/>
    </timestep>
    <timestep time="15.00">
        <vehicle id="ToC_veh" x="2724.38" y="2556.35" angle="306.00" type="automated" speed="12.60" pos="186.81" lane="2/1to3/1_1" slope="0.00"/>
        <vehicle id="follower" x="2762.95" y="2532.41" angle="306.00" type="automated" speed="5.47" pos="141.53" lane="2/1to3/1_0" slope="0.00"/>
        <vehicle id="leader" x="2756.10" y="2537.39" angle="306.00" type="automated" speed="0.00" pos="150.00" lane="2/1to3/1_0" slope="0.00"/>
    </timestep>
    <timestep time="16.00">
        <vehicle id="ToC_veh" x="2717.01" y="2561.70" angle="306.00" type="automated" speed="9.10" pos="195.91" lane="2/1to3/1_1" slope="0.00"/>
        <vehicle id="follower" x="2762.17" y="2532.98" angle="306.00" type="automated" speed="0.97" pos="142.50" lane="2/1to3/1_0" slope="0.00"/>
        <vehicle id="leader" x="2756.10" y="2537.39" angle="306.00" type="automated" speed="0.00" pos="150.00" lane="2/1to3/1_0" slope="0.00"/>
    </timestep>
    <timestep time="17.00">
        <vehicle id="ToC_veh" x="2712.48" y="2565.00" angle="306.00" type="automated" speed="5.60" pos="201.51" lane="2/1to3/1_1" slope="0.00"/>
        <vehicle id="follower" x="2762.17" y="2532.98" angle="306.00" type="automated" speed="0.00" pos="142.50" lane="2/1to3/1_0" slope="0.00"/>
        <vehicle id="leader" x="2756.10" y="2537.39" angle="306.00" type="automated" speed="0.00" pos="150.00" lane="2/1to3/1_0" slope="0.00"/>
    </timestep>
    <timestep time="18.00">
        <vehicle id="ToC_veh" x="2710.78" y="2566.23" angle="306.00" type="automated" speed="2.10" pos="203.61" lane="2/1to3/1_1" slope="0.00"/>
        <vehicle id="follower" x="2762.17" y="2532.98" angle="306.00" type="automated" speed="0.00" pos="142.50" lane="2/1to3/1_0" slope="0.00"/>
        <vehicle id="leader" x="2756.10" y="2537.39" angle="306.00" type="automated" speed="0.00" pos="150.00" lane="2/1to3/1_0" slope="0.00"/>
    </timestep>
    <timestep time="19.00">
        <vehicle id="ToC_veh" x="2710.78" y="2566.23" angle="306.00" type="automated" speed="0.00" pos="203.61" lane="2/1to3/1_1" slope="0.00"/>
        <vehicle id="follower" x="2762.17" y="2532.98" angle="306.00" type="automated" speed="0.00" pos="142.50" lane="2/1to3/1_0" slope="0.00"/>
        <vehicle id="leader" x="2756.10" y="2537.39" angle="306.00" type="automated" speed="0.00" pos="150.00" lane="2/1to3/1_0" slope="0.00"/>
    </timestep>
    <timestep time="20.00">
        <vehicle id="ToC_veh" x="2710.78" y="2566.23" angle="306.00" type="automated" speed="0.00" pos="203.61" lane="2/1to3/1_1" slope="0.00"/>
        <vehicle id="follower" x="2762.17" y="2532.98" angle="306.00" type="automated" speed="0.00" pos="142.50" lane="2/1to3/1_0" slope="0.00"/>
        <vehicle id="leader" x="2756.10" y="2537.39" angle="306.00" type="automated" speed="0.00" pos="150.00" lane="2/1to3/1_0" slope="0.00"/>
    </timestep>
    <timestep time="21.00">
        <vehicle id="ToC_veh" x="2710.78" y="2566.23" angle="306.00" type="automated" speed="0.00" pos="203.61" lane="2/1to3/1_1" slope="0.00"/>
        <vehicle id="follower" x="2762.17" y="2532.98" angle="306.00" type="automated" speed="0.00" pos="142.50" lane="2/1to3/1_0" slope="0.00"/>
        <vehicle id="leader" x="2756.10" y="2537.39" angle="306.00" type="automated" speed="0.00" pos="150.00" lane="2/1to3/1_0" slope="0.00"/>
    </timestep>
    <timestep time="22.00">
        <vehicle id="ToC_veh" x="2710.78" y="2566.23" angle="306.00" type="automated" speed="0.00" pos="203.61" lane="2/1to3/1_1" slope="0.00"/>
        <vehicle id="follower" x="2762.17" y="2532.98" angle="306.00" type="automated" speed="0.00" pos="142.50" lane="2/1to3/1_0" slope="0.00"/>
        <vehicle id="leader" x="2756.10" y="2537.39" angle="306.00" type="automated" speed="0.00" pos="150.00" lane="2/1to3/1_0" slope="0.00"/>
    </timestep>
    <timestep time="23.00">
        <vehicle id="ToC_veh" x="2710.78" y="2566.23" angle="306.00" type="automated" speed="0.00" pos="203.61" lane="2/1to3/1_1" slope="0.00"/>
        <vehicle id="follower" x="2762.17" y="2532.98" angle="306.00" type="automated" speed="0.00" pos="142.50" lane="2/1to3/1_0" slope="0.00"/>
        <vehicle id="leader" x="2756.10" y="2537.39" angle="306.00" type="automated" speed="0.00" pos="150.00" lane="2/1to3/1_0" slope="0.00"/>
    </timestep>
    <timestep time="24.00">
        <vehicle id="ToC_veh" x="2710.78" y="2566.23" angle="306.00" type="automated" speed="0.00" pos="203.61" lane="2/1to3/1_1" slope="0.00"/>
        <vehicle id="follower" x="2762.17" y="2532.98" angle="306.00" type="automated" speed="0.00" pos="142.50" lane="2/1to3/1_0" slope="0.00"/>
        <vehicle id="leader" x="2756.10" y="2537.39" angle="306.00" type="automated" speed="0.00" pos="150.00" lane="2/1to3/1_0" slope="0.00"/>
    </timestep>
    <timestep time="25.00">
        <vehicle id="ToC_veh" x="2710.78" y="2566.23" angle="306.00" type="automated" speed="0.00" pos="203.61" lane="2/1to3/1_1" slope="0.00"/>
        <vehicle id="follower" x="2762.17" y="2532.98" angle="306.00" type="automated" speed="0.00" pos="142.50" lane="2/1to3/1_0" slope="0.00"/>
        <vehicle id="leader" x="2754.00" y="2538.91" angle="306.00" type="automated" speed="2.60" pos="152.60" lane="2/1to3/1_0" slope="0.00"/>
    </timestep>
    <timestep time="26.00">
        <vehicle id="ToC_veh" x="2710.78" y="2566.23" angle="306.00" type="automated" speed="0.00" pos="203.61" lane="2/1to3/1_1" slope="0.00"/>
        <vehicle id="follower" x="2760.06" y="2534.51" angle="306.00" type="automated" speed="2.60" pos="145.10" lane="2/1to3/1_0" slope="0.00"/>
        <vehicle id="leader" x="2749.79" y="2541.97" angle="306.00" type="automated" speed="5.20" pos="157.80" lane="2/1to3/1_0" slope="0.00"/>
    </timestep>
    <timestep time="27.00">
        <vehicle id="ToC_veh" x="2710.78" y="2566.23" angle="306.00" type="automated" speed="0.00" pos="203.61" lane="2/1to3/1_1" slope="0.00"/>
        <vehicle id="follower" x="2755.86" y="2537.56" angle="306.00" type="automated" speed="5.20" pos="150.30" lane="2/1to3/1_0" slope="0.00"/>
        <vehicle id="leader" x="2743.48" y="2546.56" angle="306.00" type="automated" speed="7.80" pos="165.60" lane="2/1to3/1_0" slope="0.00"/>
    </timestep>
    <timestep time="28.00">
        <vehicle id="ToC_veh" x="2710.78" y="2566.23" angle="306.00" type="automated" speed="0.00" pos="203.61" lane="2/1to3/1_1" slope="0.00"/>
        <vehicle id="follower" x="2749.55" y="2542.15" angle="306.00" type="automated" speed="7.80" pos="158.10" lane="2/1to3/1_0" slope="0.00"/>
        <vehicle id="leader" x="2735.06" y="2552.67" angle="306.00" type="automated" speed="10.40" pos="176.00" lane="2/1to3/1_0" slope="0.00"/>
    </timestep>
    <timestep time="29.00">
        <vehicle id="ToC_veh" x="2710.78" y="2566.23" angle="306.00" type="automated" speed="0.00" pos="203.61" lane="2/1to3/1_1" slope="0.00"/>
        <vehicle id="follower" x="2741.13" y="2548.26" angle="306.00" type="automated" speed="10.40" pos="168.50" lane="2/1to3/1_0" slope="0.00"/>
        <vehicle id="leader" x="2724.55" y="2560.31" angle="306.00" type="automated" speed="13.00" pos="189.00" lane="2/1to3/1_0" slope="0.00"/>
    </timestep>
    <timestep time="30.00">
        <vehicle id="ToC_veh" x="2710.78" y="2566.23" angle="306.00" type="automated" speed="0.00" pos="203.61" lane="2/1to3/1_1" slope="0.00"/>
        <vehicle id="follower" x="2730.62" y="2555.90" angle="306.00" type="automated" speed="13.00" pos="181.50" lane="2/1to3/1_0" slope="0.00"/>
        <vehicle id="leader" x="2711.93" y="2569.48" angle="306.00" type="automated" speed="15.60" pos="204.60" lane="2/1to3/1_0" slope="0.00"/>
    </timestep>
    <timestep time="31.00">
        <vehicle id="ToC_veh" x="2710.78" y="2566.23" angle="306.00" type="automated" speed="0.00" pos="203.61" lane="2/1to3/1_1" slope="0.00"/>
        <vehicle id="follower" x="2718.00" y="2565.07" angle="306.00" type="automated" speed="15.60" pos="197.10" lane="2/1to3/1_0" slope="0.00"/>
        <vehicle id="leader" x="2697.20" y="2580.18" angle="306.00" type="automated" speed="18.20" pos="222.80" lane="2/1to3/1_0" slope="0.00"/>
    </timestep>
    <timestep time="32.00">
        <vehicle id="ToC_veh" x="2710.78" y="2566.23" angle="306.00" type="automated" speed="0.00" pos="203.61" lane="2/1to3/1_1" slope="0.00"/>
        <vehicle id="follower" x="2703.27" y="2575.77" angle="306.00" type="automated" speed="18.20" pos="215.30" lane="2/1to3/1_0" slope="0.00"/>
        <vehicle id="leader" x="2681.35" y="2591.70" angle="306.00" type="automated" speed="19.60" pos="242.40" lane="2/1to3/1_0" slope="0.00"/>
    </timestep>
    <timestep time="33.00">
        <vehicle id="ToC_veh" x="2710.78" y="2566.23" angle="306.00" type="automated" speed="0.00" pos="203.61" lane="2/1to3/1_1" slope="0.00"/>
        <vehicle id="follower" x="2687.41" y="2587.29" angle="306.00" type="automated" speed="19.60" pos="234.90" lane="2/1to3/1_0" slope="0.00"/>
        <vehicle id="leader" x="2665.49" y="2603.22" angle="306.00" type="automated" speed="19.60" pos="262.00" lane="2/1to3/1_0" slope="0.00"/>
    </timestep>
    <timestep time="34.00">
        <vehicle id="ToC_veh" x="2710.78" y="2566.23" angle="306.00" type="automated" speed="0.00" pos="203.61" lane="2/1to3/1_1" slope="0.00"/>
        <vehicle id="follower" x="2671.56" y="2598.81" angle="306.00" type="automated" speed="19.60" pos="254.50" lane="2/1to3/1_0" slope="0.00"/>
        <vehicle id="leader" x="2649.63" y="2614.74" angle="306.00" type="automated" speed="19.60" pos="281.60" lane="2/1to3/1_0" slope="0.00"/>
    </timestep>
    <timestep time="35.00">
        <vehicle id="ToC_veh" x="2710.78" y="2566.23" angle="306.00" type="automated" speed="0.00" pos="203.61" lane="2/1to3/1_1" slope="0.00"/>
        <vehicle id="follower" x="2655.70" y="2610.33" angle="306.00" type="automated" speed="19.60" pos="274.10" lane="2/1to3/1_0" slope="0.00"/>
        <vehicle id="leader" x="2633.78" y="2626.26" angle="306.00" type="automated" speed="19.60" pos="301.20" lane="2/1to3/1_0" slope="0.00"/>
    </timestep>
    <timestep time="36.00">
        <vehicle id="ToC_veh" x="2710.78" y="2566.23" angle="306.00" type="automated" speed="0.00" pos="203.61" lane="2/1to3/1_1" slope="0.00"/>
        <vehicle id="follower" x="2639.84" y="2621.85" angle="306.00" type="automated" speed="19.60" pos="293.70" lane="2/1to3/1_0" slope="0.00"/>
        <vehicle id="leader" x="2617.92" y="2637.78" angle="306.00" type="automated" speed="19.60" pos="320.80" lane="2/1to3/1_0" slope="0.00"/>
    </timestep>
    <timestep time="37.00">
        <vehicle id="ToC_veh" x="2710.78" y="2566.23" angle="306.00" type="automated" speed="0.00" pos="203.61" lane="2/1to3/1_1" slope="0.00"/>
        <vehicle id="follower" x="2623.99" y="2633.37" angle="306.00" type="automated" speed="19.60" pos="313.30" lane="2/1to3/1_0" slope="0.00"/>
        <vehicle id="leader" x="2602.06" y="2649.30" angle="306.00" type="automated" speed="19.60" pos="340.40" lane="2/1to3/1_0" slope="0.00"/>
    </timestep>
    <timestep time="38.00">
        <vehicle id="ToC_veh" x="2710.78" y="2566.23" angle="306.00" type="automated" speed="0.00" pos="203.61" lane="2/1to3/1_1" slope="0.00"/>
        <vehicle id="follower" x="2608.13" y="2644.89" angle="306.00" type="automated" speed="19.60" pos="332.90" lane="2/1to3/1_0" slope="0.00"/>
        <vehicle id="leader" x="2586.21" y="2660.82" angle="306.00" type="automated" speed="19.60" pos="360.00" lane="2/1to3/1_0" slope="0.00"/>
    </timestep>
    <timestep time="39.00">
        <vehicle id="ToC_veh" x="2710.78" y="2566.23" angle="306.00" type="automated" speed="0.00" pos="203.61" lane="2/1to3/1_1" slope="0.00"/>
        <vehicle id="follower" x="2592.28" y="2656.41" angle="306.00" type="automated" speed="19.60" pos="352.50" lane="2/1to3/1_0" slope="0.00"/>
        <vehicle id="leader" x="2570.35" y="2672.34" angle="306.00" type="automated" speed="19.60" pos="379.60" lane="2/1to3/1_0" slope="0.00"/>
    </timestep>
    <timestep time="40.00">
        <vehicle id="ToC_veh" x="2710.78" y="2566.23" angle="306.00" type="automated" speed="0.00" pos="203.61" lane="2/1to3/1_1" slope="0.00"/>
        <vehicle id="follower" x="2576.42" y="2667.93" angle="306.00" type="automated" speed="19.60" pos="372.10" lane="2/1to3/1_0" slope="0.00"/>
        <vehicle id="leader" x="2554.49" y="2683.86" angle="306.00" type="automated" speed="19.60" pos="399.20" lane="2/1to3/1_0" slope="0.00"/>
    </timestep>
    <timestep time="41.00">
        <vehicle id="ToC_veh" x="2710.78" y="2566.23" angle="306.00" type="automated" speed="0.00" pos="203.61" lane="2/1to3/1_1" slope="0.00"/>
        <vehicle id="follower" x="2560.56" y="2679.45" angle="306.00" type="automated" speed="19.60" pos="391.70" lane="2/1to3/1_0" slope="0.00"/>
        <vehicle id="leader" x="2538.64" y="2695.38" angle="306.00" type="automated" speed="19.60" pos="418.80" lane="2/1to3/1_0" slope="0.00"/>
    </timestep>
    <timestep time="42.00">
        <vehicle id="ToC_veh" x="2710.78" y="2566.23" angle="306.00" type="automated" speed="0.00" pos="203.61" lane="2/1to3/1_1" slope="0.00"/>
        <vehicle id="follower" x="2544.71" y="2690.97" angle="306.00" type="automated" speed="19.60" pos="411.30" lane="2/1to3/1_0" slope="0.00"/>
        <vehicle id="leader" x="2522.78" y="2706.90" angle="306.00" type="automated" speed="19.60" pos="438.40" lane="2/1to3/1_0" slope="0.00"/>
    </timestep>
    <timestep time="43.00">
        <vehicle id="ToC_veh" x="2710.78" y="2566.23" angle="306.00" type="automated" speed="0.00" pos="203.61" lane="2/1to3/1_1" slope="0.00"/>
        <vehicle id="follower" x="2528.85" y="2702.49" angle="306.00" type="automated" speed="19.60" pos="430.90" lane="2/1to3/1_0" slope="0.00"/>
        <vehicle id="leader" x="2506.92" y="2718.42" angle="306.00" type="automated" speed="19.60" pos="458.00" lane="2/1to3/1_0" slope="0.00"/>
    </timestep>
    <timestep time="44.00">
        <vehicle id="ToC_veh" x="2710.78" y="2566.23" angle="306.00" type="automated" speed="0.00" pos="203.61" lane="2/1to3/1_1" slope="0.00"/>
        <vehicle id="follower" x="2512.99" y="2714.01" angle="306.00" type="automated" speed="19.60" pos="450.50" lane="2/1to3/1_0" slope="0.00"/>
        <vehicle id="leader" x="2491.07" y="2729.94" angle="306.00" type="automated" speed="19.60" pos="477.60" lane="2/1to3/1_0" slope="0.00"/>
    </timestep>
    <timestep time="45.00">
        <vehicle id="ToC_veh" x="2710.78" y="2566.23" angle="306.00" type="automated" speed="0.00" pos="203.61" lane="2/1to3/1_1" slope="0.00"/>
        <vehicle id="follower" x="2497.14" y="2725.53" angle="306.00" type="automated" speed="19.60" pos="470.10" lane="2/1to3/1_0" slope="0.00"/>
        <vehicle id="leader" x="2475.21" y="2741.46" angle="306.00" type="automated" speed="19.60" pos="497.20" lane="2/1to3/1_0" slope="0.00"/>
    </timestep>
    <timestep time="46.00">
        <vehicle id="ToC_veh" x="2710.78" y="2566.23" angle="306.00" type="automated" speed="0.00" pos="203.61" lane="2/1to3/1_1" slope="0.00"/>
        <vehicle id="follower" x="2481.28" y="2737.05" angle="306.00" type="automated" speed="19.60" pos="489.70" lane="2/1to3/1_0" slope="0.00"/>
        <vehicle id="leader" x="2459.35" y="2752.98" angle="306.00" type="automated" speed="19.60" pos="516.80" lane="2/1to3/1_0" slope="0.00"/>
    </timestep>
    <timestep time="47.00">
        <vehicle id="ToC_veh" x="2710.78" y="2566.23" angle="306.00" type="automated" speed="0.00" pos="203.61" lane="2/1to3/1_1" slope="0.00"/>
        <vehicle id="follower" x="2465.42" y="2748.57" angle="306.00" type="automated" speed="19.60" pos="509.30" lane="2/1to3/1_0" slope="0.00"/>
        <vehicle id="leader" x="2443.50" y="2764.50" angle="306.00" type="automated" speed="19.60" pos="536.40" lane="2/1to3/1_0" slope="0.00"/>
    </timestep>
    <timestep time="48.00">
        <vehicle id="ToC_veh" x="2710.78" y="2566.23" angle="306.00" type="automated" speed="0.00" pos="203.61" lane="2/1to3/1_1" slope="0.00"/>
        <vehicle id="follower" x="2449.57" y="2760.09" angle="306.00" type="automated" speed="19.60" pos="528.90" lane="2/1to3/1_0" slope="0.00"/>
        <vehicle id="leader" x="2427.64" y="2776.02" angle="306.00" type="automated" speed="19.60" pos="556.00" lane="2/1to3/1_0" slope="0.00"/>
    </timestep>
    <timestep time="49.00">
        <vehicle id="ToC_veh" x="2710.78" y="2566.23" angle="306.00" type="automated" speed="0.00" pos="203.61" lane="2/1to3/1_1" slope="0.00"/>
        <vehicle id="follower" x="2433.71" y="2771.62" angle="306.00" type="automated" speed="19.60" pos="548.50" lane="2/1to3/1_0" slope="0.00"/>
        <vehicle id="leader" x="2411.78" y="2787.54" angle="306.00" type="automated" speed="19.60" pos="575.60" lane="2/1to3/1_0" slope="0.00"/>
    </timestep>
    <timestep time="50.00">
        <vehicle id="ToC_veh" x="2710.78" y="2566.23" angle="306.00" type="automated" speed="0.00" pos="203.61" lane="2/1to3/1_1" slope="0.00"/>
        <vehicle id="follower" x="2417.85" y="2783.14" angle="306.00" type="automated" speed="19.60" pos="568.10" lane="2/1to3/1_0" slope="0.00"/>
        <vehicle id="leader" x="2395.93" y="2799.06" angle="306.00" type="automated" speed="19.60" pos="595.20" lane="2/1to3/1_0" slope="0.00"/>
    </timestep>
    <timestep time="51.00">
        <vehicle id="ToC_veh" x="2710.78" y="2566.23" angle="306.00" type="automated" speed="0.00" pos="203.61" lane="2/1to3/1_1" slope="0.00"/>
        <vehicle id="follower" x="2402.00" y="2794.66" angle="306.00" type="automated" speed="19.60" pos="587.70" lane="2/1to3/1_0" slope="0.00"/>
        <vehicle id="leader" x="2380.07" y="2810.59" angle="306.00" type="automated" speed="19.60" pos="614.80" lane="2/1to3/1_0" slope="0.00"/>
    </timestep>
    <timestep time="52.00">
        <vehicle id="ToC_veh" x="2710.78" y="2566.23" angle="306.00" type="automated" speed="0.00" pos="203.61" lane="2/1to3/1_1" slope="0.00"/>
        <vehicle id="follower" x="2386.14" y="2806.18" angle="306.00" type="automated" speed="19.60" pos="607.30" lane="2/1to3/1_0" slope="0.00"/>
        <vehicle id="leader" x="2364.21" y="2822.11" angle="306.00" type="automated" speed="19.60" pos="634.40" lane="2/1to3/1_0" slope="0.00"/>
    </timestep>
    <timestep time="53.00">
        <vehicle id="ToC_veh" x="2710.78" y="2566.23" angle="306.00" type="automated" speed="0.00" pos="203.61" lane="2/1to3/1_1" slope="0.00"/>
        <vehicle id="follower" x="2370.28" y="2817.70" angle="306.00" type="automated" speed="19.60" pos="626.90" lane="2/1to3/1_0" slope="0.00"/>
        <vehicle id="leader" x="2348.36" y="2833.63" angle="306.00" type="automated" speed="19.60" pos="654.00" lane="2/1to3/1_0" slope="0.00"/>
    </timestep>
    <timestep time="54.00">
        <vehicle id="ToC_veh" x="2710.78" y="2566.23" angle="306.00" type="automated" speed="0.00" pos="203.61" lane="2/1to3/1_1" slope="0.00"/>
        <vehicle id="follower" x="2354.43" y="2829.22" angle="306.00" type="automated" speed="19.60" pos="646.50" lane="2/1to3/1_0" slope="0.00"/>
        <vehicle id="leader" x="2332.50" y="2845.15" angle="306.00" type="automated" speed="19.60" pos="673.60" lane="2/1to3/1_0" slope="0.00"/>
    </timestep>
    <timestep time="55.00">
        <vehicle id="ToC_veh" x="2710.78" y="2566.23" angle="306.00" type="automated" speed="0.00" pos="203.61" lane="2/1to3/1_1" slope="0.00"/>
        <vehicle id="follower" x="2338.57" y="2840.74" angle="306.00" type="automated" speed="19.60" pos="666.10" lane="2/1to3/1_0" slope="0.00"/>
        <vehicle id="leader" x="2316.64" y="2856.67" angle="306.00" type="automated" speed="19.60" pos="693.20" lane="2/1to3/1_0" slope="0.00"/>
    </timestep>
    <timestep time="56.00">
        <vehicle id="ToC_veh" x="2710.78" y="2566.23" angle="306.00" type="automated" speed="0.00" pos="203.61" lane="2/1to3/1_1" slope="0.00"/>
        <vehicle id="follower" x="2322.71" y="2852.26" angle="306.00" type="automated" speed="19.60" pos="685.70" lane="2/1to3/1_0" slope="0.00"/>
        <vehicle id="leader" x="2300.79" y="2868.19" angle="306.00" type="automated" speed="19.60" pos="712.80" lane="2/1to3/1_0" slope="0.00"/>
    </timestep>
    <timestep time="57.00">
        <vehicle id="ToC_veh" x="2710.78" y="2566.23" angle="306.00" type="automated" speed="0.00" pos="203.61" lane="2/1to3/1_1" slope="0.00"/>
        <vehicle id="follower" x="2306.86" y="2863.78" angle="306.00" type="automated" speed="19.60" pos="705.30" lane="2/1to3/1_0" slope="0.00"/>
        <vehicle id="leader" x="2284.93" y="2879.71" angle="306.00" type="automated" speed="19.60" pos="732.40" lane="2/1to3/1_0" slope="0.00"/>
    </timestep>
    <timestep time="58.00">
        <vehicle id="ToC_veh" x="2710.78" y="2566.23" angle="306.00" type="automated" speed="0.00" pos="203.61" lane="2/1to3/1_1" slope="0.00"/>
        <vehicle id="follower" x="2291.00" y="2875.30" angle="306.00" type="automated" speed="19.60" pos="724.90" lane="2/1to3/1_0" slope="0.00"/>
        <vehicle id="leader" x="2269.07" y="2891.23" angle="306.00" type="automated" speed="19.60" pos="752.00" lane="2/1to3/1_0" slope="0.00"/>
    </timestep>
    <timestep time="59.00">
        <vehicle id="ToC_veh" x="2710.78" y="2566.23" angle="306.00" type="automated" speed="0.00" pos="203.61" lane="2/1to3/1_1" slope="0.00"/>
        <vehicle id="follower" x="2275.14" y="2886.82" angle="306.00" type="automated" speed="19.60" pos="744.50" lane="2/1to3/1_0" slope="0.00"/>
        <vehicle id="leader" x="2253.22" y="2902.75" angle="306.00" type="automated" speed="19.60" pos="771.60" lane="2/1to3/1_0" slope="0.00"/>
    </timestep>
    <timestep time="60.00">
        <vehicle id="ToC_veh" x="2710.78" y="2566.23" angle="306.00" type="automated" speed="0.00" pos="203.61" lane="2/1to3/1_1" slope="0.00"/>
        <vehicle id="follower" x="2259.29" y="2898.34" angle="306.00" type="automated" speed="19.60" pos="764.10" lane="2/1to3/1_0" slope="0.00"/>