<?xml version="1.0"?>

<!-- generated on 03/02/10 10:13:06 by SUMO sumo Version dev-SVN-r8163
<configuration>

    <input>
        <net-file value="three_split.net.xml"/>
        <additional-files value="input_routes.rou.xml,input_additional.add.xml"/>
    </input>

    <output>
        <tripinfo-output value="tripinfos.xml"/>
    </output>

    <time>
        <begin value="5"/>
    </time>

    <report>
        <no-duration-log value="true"/>
        <no-step-log value="true"/>
    </report>

</configuration>
-->

<tripinfos>
    <tripinfo id="emitter_5_0" depart="5" departLane="beg_0" departPos="100.00" departSpeed="0.00" departDelay="0" arrival="79" arrivalLane="rend_0" arrivalPos="19.59" arrivalSpeed="27.80" duration="74" routeLength="1900.59" waitSteps="0" rerouteNo="0" devices="" vtype="DEFAULT_VEHTYPE" vaporized=""></tripinfo>
    <tripinfo id="emitter_6_1" depart="7" departLane="beg_0" departPos="100.00" departSpeed="0.00" departDelay="1" arrival="81" arrivalLane="rend_0" arrivalPos="17.88" arrivalSpeed="27.80" duration="74" routeLength="1898.88" waitSteps="0" rerouteNo="0" devices="" vtype="DEFAULT_VEHTYPE" vaporized=""></tripinfo>
    <tripinfo id="emitter_7_2" depart="10" departLane="beg_0" departPos="100.00" departSpeed="0.00" departDelay="3" arrival="84" arrivalLane="rend_0" arrivalPos="19.59" arrivalSpeed="27.80" duration="74" routeLength="1900.59" waitSteps="0" rerouteNo="0" devices="" vtype="DEFAULT_VEHTYPE" vaporized=""></tripinfo>
    <tripinfo id="emitter_8_3" depart="12" departLane="beg_0" departPos="100.00" departSpeed="0.00" departDelay="4" arrival="86" arrivalLane="rend_0" arrivalPos="17.88" arrivalSpeed="27.80" duration="74" routeLength="1898.88" waitSteps="0" rerouteNo="0" devices="" vtype="DEFAULT_VEHTYPE" vaporized=""></tripinfo>
    <tripinfo id="emitter_9_4" depart="15" departLane="beg_0" departPos="100.00" departSpeed="0.00" departDelay="6" arrival="89" arrivalLane="rend_0" arrivalPos="19.59" arrivalSpeed="27.80" duration="74" routeLength="1900.59" waitSteps="0" rerouteNo="0" devices="" vtype="DEFAULT_VEHTYPE" vaporized=""></tripinfo>
</tripinfos>
