<?xml version="1.0"?>

<!-- generated on 07/22/10 09:21:40 by SUMO sumo Version dev-SVN-r8163
<configuration>

    <input>
        <net-file value="three_split.net.xml"/>
        <additional-files value="input_routes.rou.xml,input_additional.add.xml"/>
    </input>

    <output>
        <tripinfo-output value="tripinfos.xml"/>
    </output>

    <time>
        <begin value="5"/>
    </time>

    <report>
        <no-duration-log value="true"/>
        <no-step-log value="true"/>
    </report>

</configuration>
-->

<tripinfos>
    <tripinfo id="emitter_5.00_0" depart="5.00" departLane="beg_0" departPos="100.00" departSpeed="0.00" departDelay="0.00" arrival="79.00" arrivalLane="rend_0" arrivalPos="19.59" arrivalSpeed="27.80" duration="74.00" routeLength="1900.59" waitSteps="0" rerouteNo="0" devices="" vtype="DEFAULT_VEHTYPE" vaporized=""/>
    <tripinfo id="emitter_6.00_1" depart="7.00" departLane="beg_0" departPos="100.00" departSpeed="0.00" departDelay="1.00" arrival="81.00" arrivalLane="rend_0" arrivalPos="17.88" arrivalSpeed="27.80" duration="74.00" routeLength="1898.88" waitSteps="0" rerouteNo="0" devices="" vtype="DEFAULT_VEHTYPE" vaporized=""/>
    <tripinfo id="emitter_7.00_2" depart="10.00" departLane="beg_0" departPos="100.00" departSpeed="0.00" departDelay="3.00" arrival="84.00" arrivalLane="rend_0" arrivalPos="19.59" arrivalSpeed="27.80" duration="74.00" routeLength="1900.59" waitSteps="0" rerouteNo="0" devices="" vtype="DEFAULT_VEHTYPE" vaporized=""/>
    <tripinfo id="emitter_8.00_3" depart="12.00" departLane="beg_0" departPos="100.00" departSpeed="0.00" departDelay="4.00" arrival="86.00" arrivalLane="rend_0" arrivalPos="17.88" arrivalSpeed="27.80" duration="74.00" routeLength="1898.88" waitSteps="0" rerouteNo="0" devices="" vtype="DEFAULT_VEHTYPE" vaporized=""/>
    <tripinfo id="emitter_9.00_4" depart="15.00" departLane="beg_0" departPos="100.00" departSpeed="0.00" departDelay="6.00" arrival="89.00" arrivalLane="rend_0" arrivalPos="19.59" arrivalSpeed="27.80" duration="74.00" routeLength="1900.59" waitSteps="0" rerouteNo="0" devices="" vtype="DEFAULT_VEHTYPE" vaporized=""/>
</tripinfos>
