<?xml version="1.0" encoding="UTF-8"?>

<!-- generated on Mon Apr  3 13:24:06 2017 by SUMO Version dev-SVN-r23771
<?xml version="1.0" encoding="UTF-8"?>

<configuration xmlns:xsi="http://www.w3.org/2001/XMLSchema-instance" xsi:noNamespaceSchemaLocation="http://sumo.dlr.de/xsd/sumoConfiguration.xsd">

    <input>
        <net-file value="net.net.xml"/>
        <route-files value="input_routes.rou.xml"/>
    </input>

    <output>
        <tripinfo-output value="tripinfos.xml"/>
    </output>

    <processing>
        <lateral-resolution value="0.64"/>
    </processing>

    <report>
        <xml-validation value="never"/>
        <no-step-log value="true"/>
    </report>

</configuration>
-->

<tripinfos xmlns:xsi="http://www.w3.org/2001/XMLSchema-instance" xsi:noNamespaceSchemaLocation="http://sumo.dlr.de/xsd/tripinfo_file.xsd">
    <tripinfo id="mixed.2" depart="4.00" departLane="beg_1" departPos="5.10" departPosLat="0.53" departSpeed="0.00" departDelay="2.00" arrival="218.00" arrivalLane="end_0" arrivalPos="200.00" arrivalPosLat="-0.70" arrivalSpeed="12.91" duration="214.00" routeLength="494.90" waitSteps="168" timeLoss="177.32" rerouteNo="0" devices="tripinfo_mixed.2" vType="car" speedFactor="0.99" vaporized=""/>
    <tripinfo id="mixed.15" depart="25.00" departLane="beg_1" departPos="5.10" departPosLat="-0.55" departSpeed="0.00" departDelay="10.00" arrival="218.00" arrivalLane="end_1" arrivalPos="200.00" arrivalPosLat="-0.98" arrivalSpeed="17.26" duration="193.00" routeLength="494.90" waitSteps="150" timeLoss="165.06" rerouteNo="0" devices="tripinfo_mixed.15" vType="car" speedFactor="1.31" vaporized=""/>
    <tripinfo id="mixed.5" depart="10.00" departLane="beg_1" departPos="5.10" departPosLat="-0.40" departSpeed="0.00" departDelay="5.00" arrival="220.00" arrivalLane="end_0" arrivalPos="200.00" arrivalPosLat="-0.70" arrivalSpeed="11.05" duration="210.00" routeLength="494.90" waitSteps="157" timeLoss="166.43" rerouteNo="0" devices="tripinfo_mixed.5" vType="car" speedFactor="0.82" vaporized=""/>
    <tripinfo id="mixed.9" depart="14.00" departLane="beg_0" departPos="2.20" departPosLat="0.93" departSpeed="0.00" departDelay="5.00" arrival="222.00" arrivalLane="end_0" arrivalPos="200.00" arrivalPosLat="-0.56" arrivalSpeed="16.31" duration="208.00" routeLength="497.80" waitSteps="154" timeLoss="177.42" rerouteNo="0" devices="tripinfo_mixed.9" vType="moped" speedFactor="1.29" vaporized=""/>
    <tripinfo id="mixed.4" depart="5.00" departLane="beg_0" departPos="2.20" departPosLat="0.11" departSpeed="0.00" departDelay="1.00" arrival="224.00" arrivalLane="end_0" arrivalPos="200.00" arrivalPosLat="-1.20" arrivalSpeed="12.88" duration="219.00" routeLength="497.80" waitSteps="158" timeLoss="180.50" rerouteNo="0" devices="tripinfo_mixed.4" vType="moped" speedFactor="0.95" vaporized=""/>
    <tripinfo id="mixed.0" depart="0.00" departLane="beg_0" departPos="2.20" departPosLat="0.51" departSpeed="0.00" departDelay="0.00" arrival="224.00" arrivalLane="end_0" arrivalPos="200.00" arrivalPosLat="0.64" arrivalSpeed="12.07" duration="224.00" routeLength="497.80" waitSteps="162" timeLoss="182.41" rerouteNo="0" devices="tripinfo_mixed.0" vType="moped" speedFactor="0.88" vaporized=""/>
    <tripinfo id="mixed.20" depart="21.00" departLane="beg_1" departPos="2.20" departPosLat="-1.16" departSpeed="0.00" departDelay="1.00" arrival="224.00" arrivalLane="end_1" arrivalPos="200.00" arrivalPosLat="1.08" arrivalSpeed="16.37" duration="203.00" routeLength="497.80" waitSteps="146" timeLoss="172.28" rerouteNo="0" devices="tripinfo_mixed.20" vType="moped" speedFactor="1.23" vaporized=""/>
    <tripinfo id="mixed.12" depart="18.00" departLane="beg_0" departPos="2.20" departPosLat="1.06" departSpeed="0.00" departDelay="6.00" arrival="224.00" arrivalLane="end_1" arrivalPos="200.00" arrivalPosLat="-0.64" arrivalSpeed="15.59" duration="206.00" routeLength="497.80" waitSteps="147" timeLoss="174.02" rerouteNo="0" devices="tripinfo_mixed.12" vType="moped" speedFactor="1.15" vaporized=""/>
    <tripinfo id="mixed.1" depart="1.00" departLane="beg_1" departPos="2.20" departPosLat="0.22" departSpeed="0.00" departDelay="0.00" arrival="225.00" arrivalLane="end_0" arrivalPos="200.00" arrivalPosLat="-1.20" arrivalSpeed="13.40" duration="224.00" routeLength="497.80" waitSteps="160" timeLoss="187.44" rerouteNo="0" devices="tripinfo_mixed.1" vType="moped" speedFactor="0.99" vaporized=""/>
    <tripinfo id="mixed.10" depart="16.00" departLane="beg_1" departPos="2.20" departPosLat="0.69" departSpeed="0.00" departDelay="6.00" arrival="226.00" arrivalLane="end_0" arrivalPos="200.00" arrivalPosLat="0.08" arrivalSpeed="16.20" duration="210.00" routeLength="497.80" waitSteps="152" timeLoss="179.41" rerouteNo="0" devices="tripinfo_mixed.10" vType="moped" speedFactor="1.37" vaporized=""/>
    <tripinfo id="mixed.23" depart="28.00" departLane="beg_1" departPos="2.20" departPosLat="1.18" departSpeed="0.00" departDelay="5.00" arrival="226.00" arrivalLane="end_1" arrivalPos="200.00" arrivalPosLat="-0.84" arrivalSpeed="16.29" duration="198.00" routeLength="497.80" waitSteps="144" timeLoss="167.36" rerouteNo="0" devices="tripinfo_mixed.23" vType="moped" speedFactor="1.31" vaporized=""/>
    <tripinfo id="mixed.22" depart="32.00" departLane="beg_1" departPos="5.10" departPosLat="0.53" departSpeed="0.00" departDelay="10.00" arrival="226.00" arrivalLane="end_1" arrivalPos="200.00" arrivalPosLat="0.70" arrivalSpeed="15.43" duration="194.00" routeLength="494.90" waitSteps="139" timeLoss="161.84" rerouteNo="0" devices="tripinfo_mixed.22" vType="car" speedFactor="1.13" vaporized=""/>
    <tripinfo id="mixed.6" depart="7.00" departLane="beg_0" departPos="2.20" departPosLat="0.75" departSpeed="0.00" departDelay="1.00" arrival="227.00" arrivalLane="end_0" arrivalPos="200.00" arrivalPosLat="-1.20" arrivalSpeed="11.87" duration="220.00" routeLength="497.80" waitSteps="158" timeLoss="178.29" rerouteNo="0" devices="tripinfo_mixed.6" vType="moped" speedFactor="0.88" vaporized=""/>
    <tripinfo id="mixed.7" depart="13.00" departLane="beg_1" departPos="2.20" departPosLat="0.97" departSpeed="0.00" departDelay="6.00" arrival="227.00" arrivalLane="end_0" arrivalPos="200.00" arrivalPosLat="0.08" arrivalSpeed="15.61" duration="214.00" routeLength="497.80" waitSteps="148" timeLoss="183.81" rerouteNo="0" devices="tripinfo_mixed.7" vType="moped" speedFactor="1.53" vaporized=""/>
    <tripinfo id="mixed.21" depart="38.00" departLane="beg_1" departPos="5.10" departPosLat="0.43" departSpeed="0.00" departDelay="17.00" arrival="228.00" arrivalLane="end_1" arrivalPos="200.00" arrivalPosLat="-1.34" arrivalSpeed="16.57" duration="190.00" routeLength="494.90" waitSteps="135" timeLoss="160.02" rerouteNo="0" devices="tripinfo_mixed.21" vType="car" speedFactor="1.23" vaporized=""/>
    <tripinfo id="mixed.17" depart="26.00" departLane="beg_0" departPos="2.20" departPosLat="-0.64" departSpeed="0.00" departDelay="9.00" arrival="229.00" arrivalLane="end_0" arrivalPos="200.00" arrivalPosLat="-1.20" arrivalSpeed="16.31" duration="203.00" routeLength="497.80" waitSteps="139" timeLoss="172.19" rerouteNo="0" devices="tripinfo_mixed.17" vType="moped" speedFactor="1.91" vaporized=""/>
    <tripinfo id="mixed.19" depart="32.00" departLane="beg_0" departPos="5.10" departPosLat="-0.51" departSpeed="0.00" departDelay="13.00" arrival="229.00" arrivalLane="end_0" arrivalPos="200.00" arrivalPosLat="1.22" arrivalSpeed="16.57" duration="197.00" routeLength="494.90" waitSteps="137" timeLoss="167.02" rerouteNo="0" devices="tripinfo_mixed.19" vType="car" speedFactor="1.20" vaporized=""/>
    <tripinfo id="mixed.3" depart="11.00" departLane="beg_0" departPos="5.10" departPosLat="-0.55" departSpeed="0.00" departDelay="8.00" arrival="232.00" arrivalLane="end_0" arrivalPos="200.00" arrivalPosLat="-0.70" arrivalSpeed="9.75" duration="221.00" routeLength="494.90" waitSteps="156" timeLoss="169.95" rerouteNo="0" devices="tripinfo_mixed.3" vType="car" speedFactor="0.71" vaporized=""/>
    <tripinfo id="mixed.25" depart="35.00" departLane="beg_1" departPos="5.10" departPosLat="-0.10" departSpeed="0.00" departDelay="10.00" arrival="232.00" arrivalLane="end_0" arrivalPos="200.00" arrivalPosLat="1.32" arrivalSpeed="13.47" duration="197.00" routeLength="494.90" waitSteps="134" timeLoss="160.56" rerouteNo="0" devices="tripinfo_mixed.25" vType="car" speedFactor="0.99" vaporized=""/>
    <tripinfo id="mixed.30" depart="38.00" departLane="beg_0" departPos="2.20" departPosLat="0.54" departSpeed="0.00" departDelay="8.00" arrival="233.00" arrivalLane="end_1" arrivalPos="200.00" arrivalPosLat="-0.56" arrivalSpeed="13.17" duration="195.00" routeLength="497.80" waitSteps="134" timeLoss="157.44" rerouteNo="0" devices="tripinfo_mixed.30" vType="moped" speedFactor="0.97" vaporized=""/>
    <tripinfo id="mixed.13" depart="22.00" departLane="beg_0" departPos="2.20" departPosLat="-0.67" departSpeed="0.00" departDelay="9.00" arrival="234.00" arrivalLane="end_0" arrivalPos="200.00" arrivalPosLat="-1.20" arrivalSpeed="11.08" duration="212.00" routeLength="497.80" waitSteps="144" timeLoss="171.76" rerouteNo="0" devices="tripinfo_mixed.13" vType="moped" speedFactor="0.91" vaporized=""/>
    <tripinfo id="mixed.26" depart="40.00" departLane="beg_1" departPos="2.20" departPosLat="0.56" departSpeed="0.00" departDelay="14.00" arrival="234.00" arrivalLane="end_0" arrivalPos="200.00" arrivalPosLat="1.36" arrivalSpeed="14.55" duration="194.00" routeLength="497.80" waitSteps="131" timeLoss="160.04" rerouteNo="0" devices="tripinfo_mixed.26" vType="moped" speedFactor="1.08" vaporized=""/>
    <tripinfo id="mixed.11" depart="16.00" departLane="beg_0" departPos="2.20" departPosLat="-0.97" departSpeed="0.00" departDelay="5.00" arrival="234.00" arrivalLane="end_0" arrivalPos="200.00" arrivalPosLat="0.56" arrivalSpeed="12.74" duration="218.00" routeLength="497.80" waitSteps="151" timeLoss="180.56" rerouteNo="0" devices="tripinfo_mixed.11" vType="moped" speedFactor="0.96" vaporized=""/>
    <tripinfo id="mixed.33" depart="48.00" departLane="beg_1" departPos="2.20" departPosLat="0.71" departSpeed="0.00" departDelay="15.00" arrival="234.00" arrivalLane="end_1" arrivalPos="200.00" arrivalPosLat="0.44" arrivalSpeed="16.21" duration="186.00" routeLength="497.80" waitSteps="127" timeLoss="155.43" rerouteNo="0" devices="tripinfo_mixed.33" vType="moped" speedFactor="1.31" vaporized=""/>
    <tripinfo id="mixed.24" depart="34.00" departLane="beg_0" departPos="2.20" departPosLat="0.28" departSpeed="0.00" departDelay="10.00" arrival="236.00" arrivalLane="end_0" arrivalPos="200.00" arrivalPosLat="0.72" arrivalSpeed="13.54" duration="202.00" routeLength="497.80" waitSteps="137" timeLoss="169.19" rerouteNo="0" devices="tripinfo_mixed.24" vType="moped" speedFactor="1.12" vaporized=""/>
    <tripinfo id="mixed.14" depart="28.00" departLane="beg_1" departPos="5.10" departPosLat="-0.65" departSpeed="0.00" departDelay="14.00" arrival="236.00" arrivalLane="end_0" arrivalPos="200.00" arrivalPosLat="-0.70" arrivalSpeed="11.18" duration="208.00" routeLength="494.90" waitSteps="149" timeLoss="167.84" rerouteNo="0" devices="tripinfo_mixed.14" vType="car" speedFactor="0.89" vaporized=""/>
    <tripinfo id="mixed.28" depart="42.00" departLane="beg_0" departPos="2.20" departPosLat="0.12" departSpeed="0.00" departDelay="14.00" arrival="238.00" arrivalLane="end_0" arrivalPos="200.00" arrivalPosLat="0.56" arrivalSpeed="13.33" duration="196.00" routeLength="497.80" waitSteps="135" timeLoss="165.59" rerouteNo="0" devices="tripinfo_mixed.28" vType="moped" speedFactor="1.22" vaporized=""/>
    <tripinfo id="mixed.40" depart="55.00" departLane="beg_1" departPos="5.10" departPosLat="-0.28" departSpeed="0.00" departDelay="15.00" arrival="238.00" arrivalLane="end_1" arrivalPos="200.00" arrivalPosLat="-0.50" arrivalSpeed="12.40" duration="183.00" routeLength="494.90" waitSteps="125" timeLoss="143.07" rerouteNo="0" devices="tripinfo_mixed.40" vType="car" speedFactor="0.91" vaporized=""/>
    <tripinfo id="mixed.35" depart="45.00" departLane="beg_1" departPos="2.20" departPosLat="0.72" departSpeed="0.00" departDelay="10.00" arrival="239.00" arrivalLane="end_0" arrivalPos="200.00" arrivalPosLat="-1.20" arrivalSpeed="11.86" duration="194.00" routeLength="497.80" waitSteps="131" timeLoss="153.33" rerouteNo="0" devices="tripinfo_mixed.35" vType="moped" speedFactor="0.89" vaporized=""/>
    <tripinfo id="mixed.38" depart="67.00" departLane="beg_1" departPos="5.10" departPosLat="0.65" departSpeed="0.00" departDelay="29.00" arrival="239.00" arrivalLane="end_1" arrivalPos="200.00" arrivalPosLat="-1.34" arrivalSpeed="13.60" duration="172.00" routeLength="494.90" waitSteps="114" timeLoss="142.16" rerouteNo="0" devices="tripinfo_mixed.38" vType="car" speedFactor="1.20" vaporized=""/>
    <tripinfo id="mixed.34" depart="49.00" departLane="beg_0" departPos="2.20" departPosLat="-1.05" departSpeed="0.00" departDelay="15.00" arrival="240.00" arrivalLane="end_1" arrivalPos="200.00" arrivalPosLat="-0.56" arrivalSpeed="9.25" duration="191.00" routeLength="497.80" waitSteps="117" timeLoss="138.43" rerouteNo="0" devices="tripinfo_mixed.34" vType="moped" speedFactor="0.69" vaporized=""/>
    <tripinfo id="mixed.47" depart="58.00" departLane="beg_0" departPos="2.20" departPosLat="-0.82" departSpeed="0.00" departDelay="11.00" arrival="241.00" arrivalLane="end_0" arrivalPos="200.00" arrivalPosLat="0.08" arrivalSpeed="14.27" duration="183.00" routeLength="497.80" waitSteps="115" timeLoss="148.90" rerouteNo="0" devices="tripinfo_mixed.47" vType="moped" speedFactor="1.07" vaporized=""/>
    <tripinfo id="mixed.37" depart="51.00" departLane="beg_1" departPos="2.20" departPosLat="-0.98" departSpeed="0.00" departDelay="14.00" arrival="241.00" arrivalLane="end_1" arrivalPos="200.00" arrivalPosLat="0.08" arrivalSpeed="10.72" duration="190.00" routeLength="497.80" waitSteps="119" timeLoss="150.79" rerouteNo="0" devices="tripinfo_mixed.37" vType="moped" speedFactor="0.92" vaporized=""/>
    <tripinfo id="mixed.18" depart="21.00" departLane="beg_1" departPos="2.20" departPosLat="0.98" departSpeed="0.00" departDelay="3.00" arrival="243.00" arrivalLane="end_0" arrivalPos="200.00" arrivalPosLat="-1.20" arrivalSpeed="7.81" duration="222.00" routeLength="497.80" waitSteps="146" timeLoss="160.95" rerouteNo="0" devices="tripinfo_mixed.18" vType="moped" speedFactor="0.59" vaporized=""/>
    <tripinfo id="mixed.36" depart="58.00" departLane="beg_1" departPos="5.10" departPosLat="0.65" departSpeed="0.00" departDelay="22.00" arrival="243.00" arrivalLane="end_0" arrivalPos="200.00" arrivalPosLat="0.58" arrivalSpeed="12.10" duration="185.00" routeLength="494.90" waitSteps="125" timeLoss="144.38" rerouteNo="0" devices="tripinfo_mixed.36" vType="car" speedFactor="0.88" vaporized=""/>
    <tripinfo id="mixed.49" depart="77.00" departLane="beg_1" departPos="5.10" departPosLat="-0.46" departSpeed="0.00" departDelay="28.00" arrival="243.00" arrivalLane="end_1" arrivalPos="200.00" arrivalPosLat="-0.70" arrivalSpeed="13.60" duration="166.00" routeLength="494.90" waitSteps="109" timeLoss="131.63" rerouteNo="0" devices="tripinfo_mixed.49" vType="car" speedFactor="1.05" vaporized=""/>
    <tripinfo id="mixed.41" depart="56.00" departLane="beg_0" departPos="2.20" departPosLat="-1.01" departSpeed="0.00" departDelay="15.00" arrival="245.00" arrivalLane="end_0" arrivalPos="200.00" arrivalPosLat="0.08" arrivalSpeed="13.82" duration="189.00" routeLength="497.80" waitSteps="119" timeLoss="158.53" rerouteNo="0" devices="tripinfo_mixed.41" vType="moped" speedFactor="1.44" vaporized=""/>
    <tripinfo id="mixed.53" depart="77.00" departLane="beg_0" departPos="5.10" departPosLat="0.12" departSpeed="0.00" departDelay="24.00" arrival="245.00" arrivalLane="end_1" arrivalPos="200.00" arrivalPosLat="0.26" arrivalSpeed="15.29" duration="168.00" routeLength="494.90" waitSteps="106" timeLoss="136.61" rerouteNo="0" devices="tripinfo_mixed.53" vType="car" speedFactor="1.16" vaporized=""/>
    <tripinfo id="mixed.61" depart="85.00" departLane="beg_1" departPos="5.10" departPosLat="0.63" departSpeed="0.00" departDelay="24.00" arrival="246.00" arrivalLane="end_1" arrivalPos="200.00" arrivalPosLat="-1.34" arrivalSpeed="14.61" duration="161.00" routeLength="494.90" waitSteps="103" timeLoss="128.88" rerouteNo="0" devices="tripinfo_mixed.61" vType="car" speedFactor="1.12" vaporized=""/>
    <tripinfo id="mixed.66" depart="93.00" departLane="beg_1" departPos="5.10" departPosLat="0.61" departSpeed="0.00" departDelay="27.00" arrival="248.00" arrivalLane="end_1" arrivalPos="200.00" arrivalPosLat="-0.70" arrivalSpeed="17.00" duration="155.00" routeLength="494.90" waitSteps="98" timeLoss="125.97" rerouteNo="0" devices="tripinfo_mixed.66" vType="car" speedFactor="1.25" vaporized=""/>
    <tripinfo id="mixed.48" depart="68.00" departLane="beg_0" departPos="2.20" departPosLat="0.72" departSpeed="0.00" departDelay="20.00" arrival="250.00" arrivalLane="end_0" arrivalPos="200.00" arrivalPosLat="1.36" arrivalSpeed="14.53" duration="182.00" routeLength="497.80" waitSteps="112" timeLoss="151.19" rerouteNo="0" devices="tripinfo_mixed.48" vType="moped" speedFactor="1.38" vaporized=""/>
    <tripinfo id="mixed.74" depart="106.00" departLane="beg_1" departPos="2.20" departPosLat="0.99" departSpeed="0.00" departDelay="32.00" arrival="250.00" arrivalLane="end_1" arrivalPos="200.00" arrivalPosLat="0.08" arrivalSpeed="13.08" duration="144.00" routeLength="497.80" waitSteps="80" timeLoss="112.77" rerouteNo="0" devices="tripinfo_mixed.74" vType="moped" speedFactor="1.15" vaporized=""/>
    <tripinfo id="mixed.16" depart="19.00" departLane="beg_0" departPos="2.20" departPosLat="0.11" departSpeed="0.00" departDelay="3.00" arrival="251.00" arrivalLane="end_0" arrivalPos="200.00" arrivalPosLat="-1.20" arrivalSpeed="6.60" duration="232.00" routeLength="497.80" waitSteps="141" timeLoss="156.50" rerouteNo="0" devices="tripinfo_mixed.16" vType="moped" speedFactor="0.48" vaporized=""/>
    <tripinfo id="mixed.32" depart="46.00" departLane="beg_1" departPos="2.20" departPosLat="-0.76" departSpeed="0.00" departDelay="14.00" arrival="251.00" arrivalLane="end_0" arrivalPos="200.00" arrivalPosLat="0.63" arrivalSpeed="7.95" duration="205.00" routeLength="497.80" waitSteps="123" timeLoss="143.02" rerouteNo="0" devices="tripinfo_mixed.32" vType="moped" speedFactor="0.58" vaporized=""/>
    <tripinfo id="mixed.46" depart="70.00" departLane="beg_0" departPos="2.20" departPosLat="-0.86" departSpeed="0.00" departDelay="24.00" arrival="251.00" arrivalLane="end_1" arrivalPos="200.00" arrivalPosLat="-0.98" arrivalSpeed="13.58" duration="181.00" routeLength="497.80" waitSteps="107" timeLoss="150.84" rerouteNo="0" devices="tripinfo_mixed.46" vType="moped" speedFactor="1.70" vaporized=""/>
    <tripinfo id="mixed.45" depart="61.00" departLane="beg_0" departPos="2.20" departPosLat="-0.33" departSpeed="0.00" departDelay="16.00" arrival="253.00" arrivalLane="end_0" arrivalPos="200.00" arrivalPosLat="0.69" arrivalSpeed="9.12" duration="192.00" routeLength="497.80" waitSteps="119" timeLoss="159.16" rerouteNo="0" devices="tripinfo_mixed.45" vType="moped" speedFactor="1.12" vaporized=""/>
    <tripinfo id="mixed.50" depart="69.00" departLane="beg_1" departPos="2.20" departPosLat="-0.67" departSpeed="0.00" departDelay="19.00" arrival="253.00" arrivalLane="end_0" arrivalPos="200.00" arrivalPosLat="-0.72" arrivalSpeed="7.90" duration="184.00" routeLength="497.80" waitSteps="115" timeLoss="153.57" rerouteNo="0" devices="tripinfo_mixed.50" vType="moped" speedFactor="1.36" vaporized=""/>
    <tripinfo id="mixed.51" depart="72.00" departLane="beg_1" departPos="2.20" departPosLat="0.71" departSpeed="0.00" departDelay="21.00" arrival="253.00" arrivalLane="end_1" arrivalPos="200.00" arrivalPosLat="0.08" arrivalSpeed="14.33" duration="181.00" routeLength="497.80" waitSteps="107" timeLoss="150.35" rerouteNo="0" devices="tripinfo_mixed.51" vType="moped" speedFactor="1.89" vaporized=""/>
    <tripinfo id="mixed.42" depart="62.00" departLane="beg_1" departPos="2.20" departPosLat="0.45" departSpeed="0.00" departDelay="20.00" arrival="254.00" arrivalLane="end_0" arrivalPos="200.00" arrivalPosLat="-0.72" arrivalSpeed="7.77" duration="192.00" routeLength="497.80" waitSteps="114" timeLoss="147.43" rerouteNo="0" devices="tripinfo_mixed.42" vType="moped" speedFactor="0.81" vaporized=""/>
    <tripinfo id="mixed.43" depart="65.00" departLane="beg_0" departPos="2.20" departPosLat="0.72" departSpeed="0.00" departDelay="22.00" arrival="254.00" arrivalLane="end_0" arrivalPos="200.00" arrivalPosLat="0.08" arrivalSpeed="10.03" duration="189.00" routeLength="497.80" waitSteps="116" timeLoss="149.14" rerouteNo="0" devices="tripinfo_mixed.43" vType="moped" speedFactor="0.91" vaporized=""/>
    <tripinfo id="mixed.60" depart="88.00" departLane="beg_1" departPos="5.10" departPosLat="0.18" departSpeed="0.00" departDelay="28.00" arrival="255.00" arrivalLane="end_0" arrivalPos="200.00" arrivalPosLat="1.02" arrivalSpeed="13.14" duration="167.00" routeLength="494.90" waitSteps="99" timeLoss="131.03" rerouteNo="0" devices="tripinfo_mixed.60" vType="car" speedFactor="1.01" vaporized=""/>
    <tripinfo id="mixed.73" depart="103.00" departLane="beg_1" departPos="2.20" departPosLat="-0.03" departSpeed="0.00" departDelay="30.00" arrival="255.00" arrivalLane="end_1" arrivalPos="200.00" arrivalPosLat="0.08" arrivalSpeed="9.87" duration="152.00" routeLength="497.80" waitSteps="83" timeLoss="101.86" rerouteNo="0" devices="tripinfo_mixed.73" vType="moped" speedFactor="0.72" vaporized=""/>
    <tripinfo id="mixed.29" depart="38.00" departLane="beg_0" departPos="2.20" departPosLat="-0.89" departSpeed="0.00" departDelay="9.00" arrival="256.00" arrivalLane="end_0" arrivalPos="200.00" arrivalPosLat="-0.56" arrivalSpeed="7.12" duration="218.00" routeLength="497.80" waitSteps="134" timeLoss="168.19" rerouteNo="0" devices="tripinfo_mixed.29" vType="moped" speedFactor="0.72" vaporized=""/>
    <tripinfo id="mixed.56" depart="95.00" departLane="beg_0" departPos="5.10" departPosLat="0.08" departSpeed="0.00" departDelay="39.00" arrival="257.00" arrivalLane="end_1" arrivalPos="200.00" arrivalPosLat="-1.34" arrivalSpeed="12.19" duration="162.00" routeLength="494.90" waitSteps="94" timeLoss="121.18" rerouteNo="0" devices="tripinfo_mixed.56" vType="car" speedFactor="0.89" vaporized=""/>
    <tripinfo id="mixed.72" depart="101.00" departLane="beg_0" departPos="5.10" departPosLat="-0.30" departSpeed="0.00" departDelay="29.00" arrival="257.00" arrivalLane="end_1" arrivalPos="200.00" arrivalPosLat="0.70" arrivalSpeed="13.12" duration="156.00" routeLength="494.90" waitSteps="78" timeLoss="126.72" rerouteNo="0" devices="tripinfo_mixed.72" vType="car" speedFactor="1.24" vaporized=""/>
    <tripinfo id="mixed.77" depart="110.00" departLane="beg_0" departPos="2.20" departPosLat="0.40" departSpeed="0.00" departDelay="33.00" arrival="258.00" arrivalLane="end_0" arrivalPos="200.00" arrivalPosLat="0.95" arrivalSpeed="12.85" duration="148.00" routeLength="497.80" waitSteps="78" timeLoss="117.93" rerouteNo="0" devices="tripinfo_mixed.77" vType="moped" speedFactor="1.32" vaporized=""/>
    <tripinfo id="mixed.75" depart="106.00" departLane="beg_1" departPos="2.20" departPosLat="-0.38" departSpeed="0.00" departDelay="31.00" arrival="259.00" arrivalLane="end_0" arrivalPos="200.00" arrivalPosLat="1.36" arrivalSpeed="15.26" duration="153.00" routeLength="497.80" waitSteps="75" timeLoss="119.95" rerouteNo="0" devices="tripinfo_mixed.75" vType="moped" speedFactor="1.11" vaporized=""/>
    <tripinfo id="mixed.27" depart="41.00" departLane="beg_0" departPos="2.20" departPosLat="0.42" departSpeed="0.00" departDelay="14.00" arrival="259.00" arrivalLane="end_0" arrivalPos="200.00" arrivalPosLat="-1.20" arrivalSpeed="9.44" duration="218.00" routeLength="497.80" waitSteps="134" timeLoss="165.24" rerouteNo="0" devices="tripinfo_mixed.27" vType="moped" speedFactor="0.69" vaporized=""/>
    <tripinfo id="mixed.68" depart="104.00" departLane="beg_0" departPos="5.10" departPosLat="0.43" departSpeed="0.00" departDelay="36.00" arrival="259.00" arrivalLane="end_1" arrivalPos="200.00" arrivalPosLat="0.58" arrivalSpeed="14.11" duration="155.00" routeLength="494.90" waitSteps="79" timeLoss="124.94" rerouteNo="0" devices="tripinfo_mixed.68" vType="car" speedFactor="1.22" vaporized=""/>
    <tripinfo id="mixed.79" depart="114.00" departLane="beg_1" departPos="5.10" departPosLat="0.58" departSpeed="0.00" departDelay="35.00" arrival="260.00" arrivalLane="end_1" arrivalPos="200.00" arrivalPosLat="0.70" arrivalSpeed="11.61" duration="146.00" routeLength="494.90" waitSteps="78" timeLoss="105.28" rerouteNo="0" devices="tripinfo_mixed.79" vType="car" speedFactor="0.88" vaporized=""/>
    <tripinfo id="mixed.80" depart="116.00" departLane="beg_0" departPos="5.10" departPosLat="-0.45" departSpeed="0.00" departDelay="36.00" arrival="261.00" arrivalLane="end_0" arrivalPos="200.00" arrivalPosLat="1.22" arrivalSpeed="14.11" duration="145.00" routeLength="494.90" waitSteps="76" timeLoss="110.58" rerouteNo="0" devices="tripinfo_mixed.80" vType="car" speedFactor="1.05" vaporized=""/>
    <tripinfo id="mixed.31" depart="46.00" departLane="beg_0" departPos="5.10" departPosLat="0.08" departSpeed="0.00" departDelay="15.00" arrival="262.00" arrivalLane="end_0" arrivalPos="200.00" arrivalPosLat="-0.70" arrivalSpeed="8.84" duration="216.00" routeLength="494.90" waitSteps="133" timeLoss="165.21" rerouteNo="0" devices="tripinfo_mixed.31" vType="car" speedFactor="0.71" vaporized=""/>
    <tripinfo id="mixed.88" depart="127.00" departLane="beg_1" departPos="5.10" departPosLat="0.23" departSpeed="0.00" departDelay="39.00" arrival="262.00" arrivalLane="end_1" arrivalPos="200.00" arrivalPosLat="-0.06" arrivalSpeed="18.22" duration="135.00" routeLength="494.90" waitSteps="73" timeLoss="110.91" rerouteNo="0" devices="tripinfo_mixed.88" vType="car" speedFactor="1.51" vaporized=""/>
    <tripinfo id="mixed.76" depart="106.00" departLane="beg_0" departPos="2.20" departPosLat="0.70" departSpeed="0.00" departDelay="30.00" arrival="265.00" arrivalLane="end_0" arrivalPos="200.00" arrivalPosLat="0.08" arrivalSpeed="9.63" duration="159.00" routeLength="497.80" waitSteps="83" timeLoss="107.73" rerouteNo="0" devices="tripinfo_mixed.76" vType="moped" speedFactor="0.70" vaporized=""/>
    <tripinfo id="mixed.85" depart="116.00" departLane="beg_1" departPos="2.20" departPosLat="0.17" departSpeed="0.00" departDelay="31.00" arrival="267.00" arrivalLane="end_0" arrivalPos="200.00" arrivalPosLat="1.36" arrivalSpeed="10.82" duration="151.00" routeLength="497.80" waitSteps="83" timeLoss="104.35" rerouteNo="0" devices="tripinfo_mixed.85" vType="moped" speedFactor="0.79" vaporized=""/>
    <tripinfo id="mixed.64" depart="91.00" departLane="beg_0" departPos="2.20" departPosLat="-0.97" departSpeed="0.00" departDelay="27.00" arrival="267.00" arrivalLane="end_1" arrivalPos="200.00" arrivalPosLat="0.44" arrivalSpeed="16.40" duration="176.00" routeLength="497.80" waitSteps="92" timeLoss="145.16" rerouteNo="0" devices="tripinfo_mixed.64" vType="moped" speedFactor="1.25" vaporized=""/>
    <tripinfo id="mixed.44" depart="60.00" departLane="beg_1" departPos="2.20" departPosLat="0.01" departSpeed="0.00" departDelay="16.00" arrival="268.00" arrivalLane="end_0" arrivalPos="200.00" arrivalPosLat="-0.56" arrivalSpeed="6.69" duration="208.00" routeLength="497.80" waitSteps="115" timeLoss="134.51" rerouteNo="0" devices="tripinfo_mixed.44" vType="moped" speedFactor="0.50" vaporized=""/>
    <tripinfo id="mixed.63" depart="91.00" departLane="beg_0" departPos="2.20" departPosLat="0.40" departSpeed="0.00" departDelay="28.00" arrival="268.00" arrivalLane="end_1" arrivalPos="200.00" arrivalPosLat="-0.72" arrivalSpeed="11.86" duration="177.00" routeLength="497.80" waitSteps="96" timeLoss="141.28" rerouteNo="0" devices="tripinfo_mixed.63" vType="moped" speedFactor="1.02" vaporized=""/>
    <tripinfo id="mixed.55" depart="73.00" departLane="beg_0" departPos="2.20" departPosLat="0.21" departSpeed="0.00" departDelay="18.00" arrival="269.00" arrivalLane="end_0" arrivalPos="200.00" arrivalPosLat="0.20" arrivalSpeed="7.72" duration="196.00" routeLength="497.80" waitSteps="112" timeLoss="137.36" rerouteNo="0" devices="tripinfo_mixed.55" vType="moped" speedFactor="0.62" vaporized=""/>
    <tripinfo id="mixed.82" depart="122.00" departLane="beg_1" departPos="5.10" departPosLat="0.23" departSpeed="0.00" departDelay="40.00" arrival="269.00" arrivalLane="end_1" arrivalPos="200.00" arrivalPosLat="-0.06" arrivalSpeed="14.02" duration="147.00" routeLength="494.90" waitSteps="73" timeLoss="111.26" rerouteNo="0" devices="tripinfo_mixed.82" vType="car" speedFactor="1.02" vaporized=""/>
    <tripinfo id="mixed.8" depart="12.00" departLane="beg_1" departPos="2.20" departPosLat="0.67" departSpeed="0.00" departDelay="4.00" arrival="270.00" arrivalLane="end_0" arrivalPos="200.00" arrivalPosLat="-1.20" arrivalSpeed="4.40" duration="258.00" routeLength="497.80" waitSteps="134" timeLoss="150.08" rerouteNo="0" devices="tripinfo_mixed.8" vType="moped" speedFactor="0.33" vaporized=""/>
    <tripinfo id="mixed.62" depart="83.00" departLane="beg_1" departPos="2.20" departPosLat="0.18" departSpeed="0.00" departDelay="21.00" arrival="271.00" arrivalLane="end_0" arrivalPos="200.00" arrivalPosLat="1.36" arrivalSpeed="8.86" duration="188.00" routeLength="497.80" waitSteps="104" timeLoss="157.00" rerouteNo="0" devices="tripinfo_mixed.62" vType="moped" speedFactor="1.18" vaporized=""/>
    <tripinfo id="mixed.87" depart="134.00" departLane="beg_1" departPos="5.10" departPosLat="-0.63" departSpeed="0.00" departDelay="47.00" arrival="271.00" arrivalLane="end_1" arrivalPos="200.00" arrivalPosLat="0.58" arrivalSpeed="12.41" duration="137.00" routeLength="494.90" waitSteps="72" timeLoss="97.02" rerouteNo="0" devices="tripinfo_mixed.87" vType="car" speedFactor="0.90" vaporized=""/>