<?xml version="1.0" encoding="UTF-8"?>

<!-- generated on Thu May 18 12:32:03 2017 by SUMO Version dev-SVN-r24351
<?xml version="1.0" encoding="UTF-8"?>

<configuration xmlns:xsi="http://www.w3.org/2001/XMLSchema-instance" xsi:noNamespaceSchemaLocation="http://sumo.dlr.de/xsd/sumoConfiguration.xsd">

    <input>
        <net-file value="net.net.xml"/>
        <route-files value="input_routes.rou.xml"/>
    </input>

    <output>
        <tripinfo-output value="tripinfos.xml"/>
    </output>

    <processing>
        <lateral-resolution value="0.64"/>
    </processing>

    <report>
        <xml-validation value="never"/>
        <no-step-log value="true"/>
    </report>

</configuration>
-->

<tripinfos xmlns:xsi="http://www.w3.org/2001/XMLSchema-instance" xsi:noNamespaceSchemaLocation="http://sumo.dlr.de/xsd/tripinfo_file.xsd">
    <tripinfo id="mixed.15" depart="25.00" departLane="beg_1" departPos="5.10" departPosLat="-0.55" departSpeed="0.00" departDelay="10.00" arrival="217.00" arrivalLane="end_0" arrivalPos="200.00" arrivalPosLat="-0.06" arrivalSpeed="17.25" duration="192.00" routeLength="494.90" waitSteps="150" timeLoss="163.84" rerouteNo="0" devices="tripinfo_mixed.15" vType="car" speedFactor="1.31" vaporized=""/>
    <tripinfo id="mixed.2" depart="4.00" departLane="beg_1" departPos="5.10" departPosLat="0.53" departSpeed="0.00" departDelay="2.00" arrival="218.00" arrivalLane="end_0" arrivalPos="200.00" arrivalPosLat="-0.70" arrivalSpeed="13.55" duration="214.00" routeLength="494.90" waitSteps="168" timeLoss="177.40" rerouteNo="0" devices="tripinfo_mixed.2" vType="car" speedFactor="0.99" vaporized=""/>
    <tripinfo id="mixed.5" depart="10.00" departLane="beg_1" departPos="5.10" departPosLat="-0.40" departSpeed="0.00" departDelay="5.00" arrival="220.00" arrivalLane="end_0" arrivalPos="200.00" arrivalPosLat="-0.70" arrivalSpeed="11.30" duration="210.00" routeLength="494.90" waitSteps="157" timeLoss="166.53" rerouteNo="0" devices="tripinfo_mixed.5" vType="car" speedFactor="0.82" vaporized=""/>
    <tripinfo id="mixed.9" depart="14.00" departLane="beg_0" departPos="2.20" departPosLat="0.93" departSpeed="0.00" departDelay="5.00" arrival="222.00" arrivalLane="end_0" arrivalPos="200.00" arrivalPosLat="0.08" arrivalSpeed="16.44" duration="208.00" routeLength="497.80" waitSteps="153" timeLoss="178.04" rerouteNo="0" devices="tripinfo_mixed.9" vType="moped" speedFactor="1.29" vaporized=""/>
    <tripinfo id="mixed.0" depart="0.00" departLane="beg_0" departPos="2.20" departPosLat="0.51" departSpeed="0.00" departDelay="0.00" arrival="223.00" arrivalLane="end_0" arrivalPos="200.00" arrivalPosLat="-1.20" arrivalSpeed="11.86" duration="223.00" routeLength="497.80" waitSteps="161" timeLoss="182.00" rerouteNo="0" devices="tripinfo_mixed.0" vType="moped" speedFactor="0.88" vaporized=""/>
    <tripinfo id="mixed.1" depart="1.00" departLane="beg_1" departPos="2.20" departPosLat="0.22" departSpeed="0.00" departDelay="0.00" arrival="224.00" arrivalLane="end_0" arrivalPos="200.00" arrivalPosLat="0.08" arrivalSpeed="13.58" duration="223.00" routeLength="497.80" waitSteps="158" timeLoss="186.53" rerouteNo="0" devices="tripinfo_mixed.1" vType="moped" speedFactor="0.99" vaporized=""/>
    <tripinfo id="mixed.20" depart="21.00" departLane="beg_1" departPos="2.20" departPosLat="-1.16" departSpeed="0.00" departDelay="1.00" arrival="224.00" arrivalLane="end_1" arrivalPos="200.00" arrivalPosLat="-0.56" arrivalSpeed="16.58" duration="203.00" routeLength="497.80" waitSteps="146" timeLoss="172.30" rerouteNo="0" devices="tripinfo_mixed.20" vType="moped" speedFactor="1.23" vaporized=""/>
    <tripinfo id="mixed.7" depart="13.00" departLane="beg_1" departPos="2.20" departPosLat="0.97" departSpeed="0.00" departDelay="6.00" arrival="225.00" arrivalLane="end_0" arrivalPos="200.00" arrivalPosLat="1.36" arrivalSpeed="16.39" duration="212.00" routeLength="497.80" waitSteps="150" timeLoss="181.22" rerouteNo="0" devices="tripinfo_mixed.7" vType="moped" speedFactor="1.53" vaporized=""/>
    <tripinfo id="mixed.4" depart="5.00" departLane="beg_0" departPos="2.20" departPosLat="0.11" departSpeed="0.00" departDelay="1.00" arrival="225.00" arrivalLane="end_0" arrivalPos="200.00" arrivalPosLat="-1.20" arrivalSpeed="13.20" duration="220.00" routeLength="497.80" waitSteps="160" timeLoss="181.54" rerouteNo="0" devices="tripinfo_mixed.4" vType="moped" speedFactor="0.95" vaporized=""/>
    <tripinfo id="mixed.10" depart="16.00" departLane="beg_1" departPos="2.20" departPosLat="0.69" departSpeed="0.00" departDelay="6.00" arrival="225.00" arrivalLane="end_0" arrivalPos="200.00" arrivalPosLat="0.08" arrivalSpeed="14.54" duration="209.00" routeLength="497.80" waitSteps="154" timeLoss="179.00" rerouteNo="0" devices="tripinfo_mixed.10" vType="moped" speedFactor="1.37" vaporized=""/>
    <tripinfo id="mixed.23" depart="28.00" departLane="beg_1" departPos="2.20" departPosLat="1.18" departSpeed="0.00" departDelay="5.00" arrival="226.00" arrivalLane="end_0" arrivalPos="200.00" arrivalPosLat="1.36" arrivalSpeed="16.21" duration="198.00" routeLength="497.80" waitSteps="146" timeLoss="167.59" rerouteNo="0" devices="tripinfo_mixed.23" vType="moped" speedFactor="1.31" vaporized=""/>
    <tripinfo id="mixed.6" depart="7.00" departLane="beg_0" departPos="2.20" departPosLat="0.75" departSpeed="0.00" departDelay="1.00" arrival="226.00" arrivalLane="end_0" arrivalPos="200.00" arrivalPosLat="-1.20" arrivalSpeed="11.96" duration="219.00" routeLength="497.80" waitSteps="160" timeLoss="177.98" rerouteNo="0" devices="tripinfo_mixed.6" vType="moped" speedFactor="0.88" vaporized=""/>
    <tripinfo id="mixed.12" depart="18.00" departLane="beg_0" departPos="2.20" departPosLat="1.06" departSpeed="0.00" departDelay="6.00" arrival="227.00" arrivalLane="end_0" arrivalPos="200.00" arrivalPosLat="-0.56" arrivalSpeed="15.91" duration="209.00" routeLength="497.80" waitSteps="154" timeLoss="177.00" rerouteNo="0" devices="tripinfo_mixed.12" vType="moped" speedFactor="1.15" vaporized=""/>
    <tripinfo id="mixed.21" depart="38.00" departLane="beg_1" departPos="5.10" departPosLat="0.43" departSpeed="0.00" departDelay="17.00" arrival="228.00" arrivalLane="end_1" arrivalPos="200.00" arrivalPosLat="-1.34" arrivalSpeed="16.72" duration="190.00" routeLength="494.90" waitSteps="142" timeLoss="160.29" rerouteNo="0" devices="tripinfo_mixed.21" vType="car" speedFactor="1.23" vaporized=""/>
    <tripinfo id="mixed.19" depart="32.00" departLane="beg_0" departPos="5.10" departPosLat="-0.51" departSpeed="0.00" departDelay="13.00" arrival="229.00" arrivalLane="end_0" arrivalPos="200.00" arrivalPosLat="-0.70" arrivalSpeed="16.02" duration="197.00" routeLength="494.90" waitSteps="145" timeLoss="166.46" rerouteNo="0" devices="tripinfo_mixed.19" vType="car" speedFactor="1.20" vaporized=""/>
    <tripinfo id="mixed.25" depart="35.00" departLane="beg_1" departPos="5.10" departPosLat="-0.10" departSpeed="0.00" departDelay="10.00" arrival="231.00" arrivalLane="end_0" arrivalPos="200.00" arrivalPosLat="1.22" arrivalSpeed="12.44" duration="196.00" routeLength="494.90" waitSteps="139" timeLoss="159.46" rerouteNo="0" devices="tripinfo_mixed.25" vType="car" speedFactor="0.99" vaporized=""/>
    <tripinfo id="mixed.3" depart="11.00" departLane="beg_0" departPos="5.10" departPosLat="-0.55" departSpeed="0.00" departDelay="8.00" arrival="232.00" arrivalLane="end_0" arrivalPos="200.00" arrivalPosLat="-0.70" arrivalSpeed="9.72" duration="221.00" routeLength="494.90" waitSteps="156" timeLoss="170.03" rerouteNo="0" devices="tripinfo_mixed.3" vType="car" speedFactor="0.71" vaporized=""/>
    <tripinfo id="mixed.26" depart="41.00" departLane="beg_1" departPos="2.20" departPosLat="-0.92" departSpeed="0.00" departDelay="15.00" arrival="232.00" arrivalLane="end_1" arrivalPos="200.00" arrivalPosLat="0.08" arrivalSpeed="14.56" duration="191.00" routeLength="497.80" waitSteps="129" timeLoss="157.04" rerouteNo="0" devices="tripinfo_mixed.26" vType="moped" speedFactor="1.08" vaporized=""/>
    <tripinfo id="mixed.24" depart="34.00" departLane="beg_0" departPos="2.20" departPosLat="0.28" departSpeed="0.00" departDelay="10.00" arrival="233.00" arrivalLane="end_0" arrivalPos="200.00" arrivalPosLat="1.36" arrivalSpeed="15.12" duration="199.00" routeLength="497.80" waitSteps="138" timeLoss="165.99" rerouteNo="0" devices="tripinfo_mixed.24" vType="moped" speedFactor="1.12" vaporized=""/>
    <tripinfo id="mixed.11" depart="16.00" departLane="beg_0" departPos="2.20" departPosLat="-0.97" departSpeed="0.00" departDelay="5.00" arrival="234.00" arrivalLane="end_0" arrivalPos="200.00" arrivalPosLat="-1.20" arrivalSpeed="10.41" duration="218.00" routeLength="497.80" waitSteps="153" timeLoss="180.00" rerouteNo="0" devices="tripinfo_mixed.11" vType="moped" speedFactor="0.96" vaporized=""/>
    <tripinfo id="mixed.22" depart="32.00" departLane="beg_1" departPos="5.10" departPosLat="0.53" departSpeed="0.00" departDelay="10.00" arrival="234.00" arrivalLane="end_1" arrivalPos="200.00" arrivalPosLat="-0.50" arrivalSpeed="10.42" duration="202.00" routeLength="494.90" waitSteps="140" timeLoss="169.96" rerouteNo="0" devices="tripinfo_mixed.22" vType="car" speedFactor="1.13" vaporized=""/>
    <tripinfo id="mixed.13" depart="22.00" departLane="beg_0" departPos="2.20" departPosLat="-0.67" departSpeed="0.00" departDelay="9.00" arrival="235.00" arrivalLane="end_0" arrivalPos="200.00" arrivalPosLat="-1.20" arrivalSpeed="10.68" duration="213.00" routeLength="497.80" waitSteps="151" timeLoss="173.20" rerouteNo="0" devices="tripinfo_mixed.13" vType="moped" speedFactor="0.91" vaporized=""/>
    <tripinfo id="mixed.17" depart="26.00" departLane="beg_0" departPos="2.20" departPosLat="-0.64" departSpeed="0.00" departDelay="9.00" arrival="236.00" arrivalLane="end_0" arrivalPos="200.00" arrivalPosLat="0.78" arrivalSpeed="10.77" duration="210.00" routeLength="497.80" waitSteps="140" timeLoss="179.61" rerouteNo="0" devices="tripinfo_mixed.17" vType="moped" speedFactor="1.91" vaporized=""/>
    <tripinfo id="mixed.30" depart="38.00" departLane="beg_0" departPos="2.20" departPosLat="0.54" departSpeed="0.00" departDelay="8.00" arrival="236.00" arrivalLane="end_1" arrivalPos="200.00" arrivalPosLat="-0.72" arrivalSpeed="13.06" duration="198.00" routeLength="497.80" waitSteps="135" timeLoss="160.91" rerouteNo="0" devices="tripinfo_mixed.30" vType="moped" speedFactor="0.97" vaporized=""/>
    <tripinfo id="mixed.14" depart="28.00" departLane="beg_1" departPos="5.10" departPosLat="-0.65" departSpeed="0.00" departDelay="14.00" arrival="237.00" arrivalLane="end_0" arrivalPos="200.00" arrivalPosLat="-0.70" arrivalSpeed="12.10" duration="209.00" routeLength="494.90" waitSteps="149" timeLoss="168.36" rerouteNo="0" devices="tripinfo_mixed.14" vType="car" speedFactor="0.89" vaporized=""/>
    <tripinfo id="mixed.28" depart="41.00" departLane="beg_1" departPos="2.20" departPosLat="0.61" departSpeed="0.00" departDelay="13.00" arrival="237.00" arrivalLane="end_0" arrivalPos="200.00" arrivalPosLat="1.20" arrivalSpeed="14.16" duration="196.00" routeLength="497.80" waitSteps="139" timeLoss="165.90" rerouteNo="0" devices="tripinfo_mixed.28" vType="moped" speedFactor="1.22" vaporized=""/>
    <tripinfo id="mixed.33" depart="48.00" departLane="beg_1" departPos="2.20" departPosLat="0.71" departSpeed="0.00" departDelay="15.00" arrival="238.00" arrivalLane="end_1" arrivalPos="200.00" arrivalPosLat="0.08" arrivalSpeed="13.38" duration="190.00" routeLength="497.80" waitSteps="129" timeLoss="159.52" rerouteNo="0" devices="tripinfo_mixed.33" vType="moped" speedFactor="1.31" vaporized=""/>
    <tripinfo id="mixed.31" depart="46.00" departLane="beg_0" departPos="5.10" departPosLat="0.08" departSpeed="0.00" departDelay="15.00" arrival="240.00" arrivalLane="end_0" arrivalPos="200.00" arrivalPosLat="1.22" arrivalSpeed="8.93" duration="194.00" routeLength="494.90" waitSteps="121" timeLoss="143.52" rerouteNo="0" devices="tripinfo_mixed.31" vType="car" speedFactor="0.71" vaporized=""/>
    <tripinfo id="mixed.35" depart="45.00" departLane="beg_1" departPos="2.20" departPosLat="0.72" departSpeed="0.00" departDelay="10.00" arrival="241.00" arrivalLane="end_0" arrivalPos="200.00" arrivalPosLat="-1.20" arrivalSpeed="11.78" duration="196.00" routeLength="497.80" waitSteps="131" timeLoss="154.52" rerouteNo="0" devices="tripinfo_mixed.35" vType="moped" speedFactor="0.89" vaporized=""/>
    <tripinfo id="mixed.45" depart="60.00" departLane="beg_1" departPos="2.20" departPosLat="0.01" departSpeed="0.00" departDelay="15.00" arrival="241.00" arrivalLane="end_1" arrivalPos="200.00" arrivalPosLat="0.08" arrivalSpeed="12.95" duration="181.00" routeLength="497.80" waitSteps="119" timeLoss="148.45" rerouteNo="0" devices="tripinfo_mixed.45" vType="moped" speedFactor="1.12" vaporized=""/>
    <tripinfo id="mixed.37" depart="51.00" departLane="beg_1" departPos="2.20" departPosLat="-0.98" departSpeed="0.00" departDelay="14.00" arrival="242.00" arrivalLane="end_0" arrivalPos="200.00" arrivalPosLat="1.36" arrivalSpeed="11.12" duration="191.00" routeLength="497.80" waitSteps="120" timeLoss="151.49" rerouteNo="0" devices="tripinfo_mixed.37" vType="moped" speedFactor="0.92" vaporized=""/>
    <tripinfo id="mixed.18" depart="21.00" departLane="beg_1" departPos="2.20" departPosLat="0.98" departSpeed="0.00" departDelay="3.00" arrival="243.00" arrivalLane="end_0" arrivalPos="200.00" arrivalPosLat="-1.20" arrivalSpeed="8.05" duration="222.00" routeLength="497.80" waitSteps="146" timeLoss="161.01" rerouteNo="0" devices="tripinfo_mixed.18" vType="moped" speedFactor="0.59" vaporized=""/>
    <tripinfo id="mixed.34" depart="49.00" departLane="beg_0" departPos="2.20" departPosLat="-1.05" departSpeed="0.00" departDelay="15.00" arrival="243.00" arrivalLane="end_0" arrivalPos="200.00" arrivalPosLat="0.74" arrivalSpeed="9.35" duration="194.00" routeLength="497.80" waitSteps="124" timeLoss="141.94" rerouteNo="0" devices="tripinfo_mixed.34" vType="moped" speedFactor="0.69" vaporized=""/>
    <tripinfo id="mixed.54" depart="73.00" departLane="beg_0" departPos="2.20" departPosLat="0.21" departSpeed="0.00" departDelay="19.00" arrival="243.00" arrivalLane="end_1" arrivalPos="200.00" arrivalPosLat="0.08" arrivalSpeed="14.45" duration="170.00" routeLength="497.80" waitSteps="101" timeLoss="139.14" rerouteNo="0" devices="tripinfo_mixed.54" vType="moped" speedFactor="1.20" vaporized=""/>
    <tripinfo id="mixed.50" depart="69.00" departLane="beg_1" departPos="2.20" departPosLat="0.57" departSpeed="0.00" departDelay="19.00" arrival="243.00" arrivalLane="end_1" arrivalPos="200.00" arrivalPosLat="-1.14" arrivalSpeed="11.00" duration="174.00" routeLength="497.80" waitSteps="105" timeLoss="143.90" rerouteNo="0" devices="tripinfo_mixed.50" vType="moped" speedFactor="1.36" vaporized=""/>
    <tripinfo id="mixed.36" depart="61.00" departLane="beg_1" departPos="5.10" departPosLat="-0.68" departSpeed="0.00" departDelay="25.00" arrival="245.00" arrivalLane="end_0" arrivalPos="200.00" arrivalPosLat="-0.70" arrivalSpeed="11.27" duration="184.00" routeLength="494.90" waitSteps="122" timeLoss="143.10" rerouteNo="0" devices="tripinfo_mixed.36" vType="car" speedFactor="0.88" vaporized=""/>
    <tripinfo id="mixed.38" depart="65.00" departLane="beg_0" departPos="5.10" departPosLat="0.42" departSpeed="0.00" departDelay="27.00" arrival="245.00" arrivalLane="end_1" arrivalPos="200.00" arrivalPosLat="-1.60" arrivalSpeed="13.57" duration="180.00" routeLength="494.90" waitSteps="114" timeLoss="149.80" rerouteNo="0" devices="tripinfo_mixed.38" vType="car" speedFactor="1.20" vaporized=""/>
    <tripinfo id="mixed.49" depart="73.00" departLane="beg_1" departPos="5.10" departPosLat="0.32" departSpeed="0.00" departDelay="24.00" arrival="245.00" arrivalLane="end_1" arrivalPos="200.00" arrivalPosLat="0.70" arrivalSpeed="14.53" duration="172.00" routeLength="494.90" waitSteps="113" timeLoss="137.76" rerouteNo="0" devices="tripinfo_mixed.49" vType="car" speedFactor="1.05" vaporized=""/>
    <tripinfo id="mixed.48" depart="64.00" departLane="beg_1" departPos="2.20" departPosLat="-0.17" departSpeed="0.00" departDelay="16.00" arrival="247.00" arrivalLane="end_0" arrivalPos="200.00" arrivalPosLat="-1.20" arrivalSpeed="11.54" duration="183.00" routeLength="497.80" waitSteps="123" timeLoss="152.54" rerouteNo="0" devices="tripinfo_mixed.48" vType="moped" speedFactor="1.38" vaporized=""/>
    <tripinfo id="mixed.41" depart="56.00" departLane="beg_0" departPos="2.20" departPosLat="-1.01" departSpeed="0.00" departDelay="15.00" arrival="247.00" arrivalLane="end_0" arrivalPos="200.00" arrivalPosLat="1.08" arrivalSpeed="14.88" duration="191.00" routeLength="497.80" waitSteps="125" timeLoss="160.37" rerouteNo="0" devices="tripinfo_mixed.41" vType="moped" speedFactor="1.44" vaporized=""/>
    <tripinfo id="mixed.43" depart="57.00" departLane="beg_1" departPos="2.20" departPosLat="-1.20" departSpeed="0.00" departDelay="14.00" arrival="248.00" arrivalLane="end_0" arrivalPos="200.00" arrivalPosLat="1.20" arrivalSpeed="12.48" duration="191.00" routeLength="497.80" waitSteps="124" timeLoss="151.42" rerouteNo="0" devices="tripinfo_mixed.43" vType="moped" speedFactor="0.91" vaporized=""/>
    <tripinfo id="mixed.56" depart="81.00" departLane="beg_1" departPos="5.10" departPosLat="-0.69" departSpeed="0.00" departDelay="25.00" arrival="248.00" arrivalLane="end_1" arrivalPos="200.00" arrivalPosLat="-0.70" arrivalSpeed="11.81" duration="167.00" routeLength="494.90" waitSteps="103" timeLoss="126.51" rerouteNo="0" devices="tripinfo_mixed.56" vType="car" speedFactor="0.89" vaporized=""/>
    <tripinfo id="mixed.47" depart="71.00" departLane="beg_0" departPos="2.20" departPosLat="-0.81" departSpeed="0.00" departDelay="24.00" arrival="250.00" arrivalLane="end_0" arrivalPos="200.00" arrivalPosLat="0.08" arrivalSpeed="14.79" duration="179.00" routeLength="497.80" waitSteps="112" timeLoss="144.57" rerouteNo="0" devices="tripinfo_mixed.47" vType="moped" speedFactor="1.07" vaporized=""/>
    <tripinfo id="mixed.66" depart="97.00" departLane="beg_1" departPos="5.10" departPosLat="-0.22" departSpeed="0.00" departDelay="31.00" arrival="250.00" arrivalLane="end_1" arrivalPos="200.00" arrivalPosLat="0.30" arrivalSpeed="16.10" duration="153.00" routeLength="494.90" waitSteps="95" timeLoss="123.65" rerouteNo="0" devices="tripinfo_mixed.66" vType="car" speedFactor="1.25" vaporized=""/>
    <tripinfo id="mixed.16" depart="19.00" departLane="beg_0" departPos="2.20" departPosLat="0.11" departSpeed="0.00" departDelay="3.00" arrival="251.00" arrivalLane="end_0" arrivalPos="200.00" arrivalPosLat="-1.20" arrivalSpeed="6.49" duration="232.00" routeLength="497.80" waitSteps="142" timeLoss="156.68" rerouteNo="0" devices="tripinfo_mixed.16" vType="moped" speedFactor="0.48" vaporized=""/>
    <tripinfo id="mixed.63" depart="87.00" departLane="beg_1" departPos="2.20" departPosLat="-0.93" departSpeed="0.00" departDelay="24.00" arrival="251.00" arrivalLane="end_0" arrivalPos="200.00" arrivalPosLat="0.72" arrivalSpeed="14.04" duration="164.00" routeLength="497.80" waitSteps="95" timeLoss="128.44" rerouteNo="0" devices="tripinfo_mixed.63" vType="moped" speedFactor="1.02" vaporized=""/>
    <tripinfo id="mixed.61" depart="96.00" departLane="beg_0" departPos="5.10" departPosLat="0.48" departSpeed="0.00" departDelay="35.00" arrival="251.00" arrivalLane="end_1" arrivalPos="200.00" arrivalPosLat="0.30" arrivalSpeed="14.64" duration="155.00" routeLength="494.90" waitSteps="94" timeLoss="122.74" rerouteNo="0" devices="tripinfo_mixed.61" vType="car" speedFactor="1.12" vaporized=""/>
    <tripinfo id="mixed.42" depart="61.00" departLane="beg_0" departPos="2.20" departPosLat="-0.33" departSpeed="0.00" departDelay="19.00" arrival="253.00" arrivalLane="end_0" arrivalPos="200.00" arrivalPosLat="-1.08" arrivalSpeed="8.60" duration="192.00" routeLength="497.80" waitSteps="120" timeLoss="146.99" rerouteNo="0" devices="tripinfo_mixed.42" vType="moped" speedFactor="0.81" vaporized=""/>
    <tripinfo id="mixed.68" depart="99.00" departLane="beg_0" departPos="5.10" departPosLat="-0.39" departSpeed="0.00" departDelay="31.00" arrival="253.00" arrivalLane="end_0" arrivalPos="200.00" arrivalPosLat="0.58" arrivalSpeed="16.54" duration="154.00" routeLength="494.90" waitSteps="93" timeLoss="124.15" rerouteNo="0" devices="tripinfo_mixed.68" vType="car" speedFactor="1.22" vaporized=""/>
    <tripinfo id="mixed.72" depart="105.00" departLane="beg_0" departPos="5.10" departPosLat="-0.27" departSpeed="0.00" departDelay="33.00" arrival="253.00" arrivalLane="end_1" arrivalPos="200.00" arrivalPosLat="0.30" arrivalSpeed="16.85" duration="148.00" routeLength="494.90" waitSteps="91" timeLoss="119.11" rerouteNo="0" devices="tripinfo_mixed.72" vType="car" speedFactor="1.24" vaporized=""/>
    <tripinfo id="mixed.29" depart="38.00" departLane="beg_0" departPos="2.20" departPosLat="-0.89" departSpeed="0.00" departDelay="9.00" arrival="254.00" arrivalLane="end_0" arrivalPos="200.00" arrivalPosLat="-0.20" arrivalSpeed="9.12" duration="216.00" routeLength="497.80" waitSteps="133" timeLoss="166.19" rerouteNo="0" devices="tripinfo_mixed.29" vType="moped" speedFactor="0.72" vaporized=""/>
    <tripinfo id="mixed.27" depart="41.00" departLane="beg_0" departPos="2.20" departPosLat="0.42" departSpeed="0.00" departDelay="14.00" arrival="256.00" arrivalLane="end_0" arrivalPos="200.00" arrivalPosLat="-1.20" arrivalSpeed="9.36" duration="215.00" routeLength="497.80" waitSteps="130" timeLoss="162.22" rerouteNo="0" devices="tripinfo_mixed.27" vType="moped" speedFactor="0.69" vaporized=""/>
    <tripinfo id="mixed.59" depart="77.00" departLane="beg_0" departPos="2.20" departPosLat="1.18" departSpeed="0.00" departDelay="18.00" arrival="256.00" arrivalLane="end_0" arrivalPos="200.00" arrivalPosLat="1.08" arrivalSpeed="14.52" duration="179.00" routeLength="497.80" waitSteps="113" timeLoss="144.22" rerouteNo="0" devices="tripinfo_mixed.59" vType="moped" speedFactor="1.05" vaporized=""/>
    <tripinfo id="mixed.79" depart="117.00" departLane="beg_0" departPos="5.10" departPosLat="-0.03" departSpeed="0.00" departDelay="38.00" arrival="258.00" arrivalLane="end_1" arrivalPos="200.00" arrivalPosLat="-0.70" arrivalSpeed="11.81" duration="141.00" routeLength="494.90" waitSteps="78" timeLoss="99.63" rerouteNo="0" devices="tripinfo_mixed.79" vType="car" speedFactor="0.88" vaporized=""/>
    <tripinfo id="mixed.39" depart="53.00" departLane="beg_0" departPos="2.20" departPosLat="0.35" departSpeed="0.00" departDelay="14.00" arrival="259.00" arrivalLane="end_0" arrivalPos="200.00" arrivalPosLat="-1.20" arrivalSpeed="8.40" duration="206.00" routeLength="497.80" waitSteps="120" timeLoss="147.70" rerouteNo="0" devices="tripinfo_mixed.39" vType="moped" speedFactor="0.62" vaporized=""/>
    <tripinfo id="mixed.46" depart="68.00" departLane="beg_0" departPos="2.20" departPosLat="0.72" departSpeed="0.00" departDelay="22.00" arrival="259.00" arrivalLane="end_0" arrivalPos="200.00" arrivalPosLat="1.08" arrivalSpeed="16.56" duration="191.00" routeLength="497.80" waitSteps="113" timeLoss="160.59" rerouteNo="0" devices="tripinfo_mixed.46" vType="moped" speedFactor="1.70" vaporized=""/>
    <tripinfo id="mixed.82" depart="123.00" departLane="beg_1" departPos="5.10" departPosLat="-0.43" departSpeed="0.00" departDelay="41.00" arrival="259.00" arrivalLane="end_1" arrivalPos="200.00" arrivalPosLat="0.16" arrivalSpeed="13.68" duration="136.00" routeLength="494.90" waitSteps="75" timeLoss="100.75" rerouteNo="0" devices="tripinfo_mixed.82" vType="car" speedFactor="1.02" vaporized=""/>
    <tripinfo id="mixed.93" depart="132.00" departLane="beg_1" departPos="2.20" departPosLat="0.84" departSpeed="0.00" departDelay="39.00" arrival="260.00" arrivalLane="end_0" arrivalPos="200.00" arrivalPosLat="0.08" arrivalSpeed="15.28" duration="128.00" routeLength="497.80" waitSteps="62" timeLoss="97.04" rerouteNo="0" devices="tripinfo_mixed.93" vType="moped" speedFactor="1.16" vaporized=""/>
    <tripinfo id="mixed.86" depart="125.00" departLane="beg_1" departPos="2.20" departPosLat="0.90" departSpeed="0.00" departDelay="39.00" arrival="261.00" arrivalLane="end_1" arrivalPos="200.00" arrivalPosLat="0.72" arrivalSpeed="16.18" duration="136.00" routeLength="497.80" waitSteps="72" timeLoss="105.77" rerouteNo="0" devices="tripinfo_mixed.86" vType="moped" speedFactor="1.19" vaporized=""/>
    <tripinfo id="mixed.53" depart="86.00" departLane="beg_0" departPos="5.10" departPosLat="0.67" departSpeed="0.00" departDelay="33.00" arrival="262.00" arrivalLane="end_1" arrivalPos="200.00" arrivalPosLat="-1.34" arrivalSpeed="16.02" duration="176.00" routeLength="494.90" waitSteps="112" timeLoss="144.93" rerouteNo="0" devices="tripinfo_mixed.53" vType="car" speedFactor="1.16" vaporized=""/>
    <tripinfo id="mixed.74" depart="103.00" departLane="beg_1" departPos="2.20" departPosLat="-0.03" departSpeed="0.00" departDelay="29.00" arrival="263.00" arrivalLane="end_1" arrivalPos="200.00" arrivalPosLat="0.08" arrivalSpeed="15.76" duration="160.00" routeLength="497.80" waitSteps="96" timeLoss="128.43" rerouteNo="0" devices="tripinfo_mixed.74" vType="moped" speedFactor="1.15" vaporized=""/>
    <tripinfo id="mixed.64" depart="89.00" departLane="beg_0" departPos="2.20" departPosLat="-0.66" departSpeed="0.00" departDelay="25.00" arrival="265.00" arrivalLane="end_0" arrivalPos="200.00" arrivalPosLat="1.36" arrivalSpeed="15.20" duration="176.00" routeLength="497.80" waitSteps="106" timeLoss="145.20" rerouteNo="0" devices="tripinfo_mixed.64" vType="moped" speedFactor="1.25" vaporized=""/>
    <tripinfo id="mixed.88" depart="147.00" departLane="beg_0" departPos="5.10" departPosLat="0.22" departSpeed="0.00" departDelay="59.00" arrival="265.00" arrivalLane="end_1" arrivalPos="200.00" arrivalPosLat="-0.06" arrivalSpeed="18.74" duration="118.00" routeLength="494.90" waitSteps="58" timeLoss="93.78" rerouteNo="0" devices="tripinfo_mixed.88" vType="car" speedFactor="1.51" vaporized=""/>
    <tripinfo id="mixed.44" depart="56.00" departLane="beg_0" departPos="2.20" departPosLat="1.02" departSpeed="0.00" departDelay="12.00" arrival="266.00" arrivalLane="end_0" arrivalPos="200.00" arrivalPosLat="0.08" arrivalSpeed="6.61" duration="210.00" routeLength="497.80" waitSteps="114" timeLoss="136.80" rerouteNo="0" devices="tripinfo_mixed.44" vType="moped" speedFactor="0.50" vaporized=""/>
    <tripinfo id="mixed.75" depart="111.00" departLane="beg_0" departPos="2.20" departPosLat="0.58" departSpeed="0.00" departDelay="36.00" arrival="266.00" arrivalLane="end_1" arrivalPos="200.00" arrivalPosLat="-0.21" arrivalSpeed="14.84" duration="155.00" routeLength="497.80" waitSteps="82" timeLoss="122.28" rerouteNo="0" devices="tripinfo_mixed.75" vType="moped" speedFactor="1.11" vaporized=""/>
    <tripinfo id="mixed.8" depart="12.00" departLane="beg_1" departPos="2.20" departPosLat="0.67" departSpeed="0.00" departDelay="4.00" arrival="267.00" arrivalLane="end_0" arrivalPos="200.00" arrivalPosLat="-1.20" arrivalSpeed="4.23" duration="255.00" routeLength="497.80" waitSteps="134" timeLoss="147.50" rerouteNo="0" devices="tripinfo_mixed.8" vType="moped" speedFactor="0.33" vaporized=""/>
    <tripinfo id="mixed.51" depart="76.00" departLane="beg_1" departPos="2.20" departPosLat="-0.10" departSpeed="0.00" departDelay="25.00" arrival="267.00" arrivalLane="end_0" arrivalPos="200.00" arrivalPosLat="1.20" arrivalSpeed="7.47" duration="191.00" routeLength="497.80" waitSteps="108" timeLoss="160.94" rerouteNo="0" devices="tripinfo_mixed.51" vType="moped" speedFactor="1.89" vaporized=""/>
    <tripinfo id="mixed.81" depart="114.00" departLane="beg_1" departPos="2.20" departPosLat="0.99" departSpeed="0.00" departDelay="33.00" arrival="268.00" arrivalLane="end_0" arrivalPos="200.00" arrivalPosLat="1.56" arrivalSpeed="11.43" duration="154.00" routeLength="497.80" waitSteps="80" timeLoss="111.72" rerouteNo="0" devices="tripinfo_mixed.81" vType="moped" speedFactor="0.85" vaporized=""/>
    <tripinfo id="mixed.90" depart="132.00" departLane="beg_1" departPos="2.20" departPosLat="-1.18" departSpeed="0.00" departDelay="42.00" arrival="268.00" arrivalLane="end_1" arrivalPos="200.00" arrivalPosLat="0.08" arrivalSpeed="12.84" duration="136.00" routeLength="497.80" waitSteps="62" timeLoss="97.93" rerouteNo="0" devices="tripinfo_mixed.90" vType="moped" speedFactor="0.96" vaporized=""/>
    <tripinfo id="mixed.40" depart="55.00" departLane="beg_1" departPos="5.10" departPosLat="-0.28" departSpeed="0.00" departDelay="15.00" arrival="269.00" arrivalLane="end_0" arrivalPos="200.00" arrivalPosLat="-0.70" arrivalSpeed="8.20" duration="214.00" routeLength="494.90" waitSteps="126" timeLoss="174.38" rerouteNo="0" devices="tripinfo_mixed.40" vType="car" speedFactor="0.91" vaporized=""/>
    <tripinfo id="mixed.32" depart="46.00" departLane="beg_1" departPos="2.20" departPosLat="-0.76" departSpeed="0.00" departDelay="14.00" arrival="270.00" arrivalLane="end_0" arrivalPos="200.00" arrivalPosLat="0.08" arrivalSpeed="7.92" duration="224.00" routeLength="497.80" waitSteps="123" timeLoss="162.11" rerouteNo="0" devices="tripinfo_mixed.32" vType="moped" speedFactor="0.58" vaporized=""/>
    <tripinfo id="mixed.92" depart="141.00" departLane="beg_0" departPos="2.20" departPosLat="-0.84" departSpeed="0.00" departDelay="49.00" arrival="270.00" arrivalLane="end_1" arrivalPos="200.00" arrivalPosLat="-1.20" arrivalSpeed="12.66" duration="129.00" routeLength="497.80" waitSteps="58" timeLoss="88.89" rerouteNo="0" devices="tripinfo_mixed.92" vType="moped" speedFactor="0.92" vaporized=""/>
    <tripinfo id="mixed.58" depart="79.00" departLane="beg_0" departPos="2.20" departPosLat="-0.46" departSpeed="0.00" departDelay="21.00" arrival="271.00" arrivalLane="end_0" arrivalPos="200.00" arrivalPosLat="-1.20" arrivalSpeed="7.05" duration="192.00" routeLength="497.80" waitSteps="103" timeLoss="161.95" rerouteNo="0" devices="tripinfo_mixed.58" vType="moped" speedFactor="1.39" vaporized=""/>