<?xml version="1.0" encoding="UTF-8"?>

<!-- generated on Thu Mar  9 13:04:33 2017 by SUMO Version dev-SVN-r23260
<?xml version="1.0" encoding="UTF-8"?>

<configuration xmlns:xsi="http://www.w3.org/2001/XMLSchema-instance" xsi:noNamespaceSchemaLocation="http://sumo.dlr.de/xsd/sumoConfiguration.xsd">

    <input>
        <net-file value="net.net.xml"/>
        <route-files value="input_routes.rou.xml"/>
    </input>

    <output>
        <tripinfo-output value="tripinfos.xml"/>
    </output>

    <processing>
        <lateral-resolution value="0.64"/>
    </processing>

    <report>
        <xml-validation value="never"/>
        <no-step-log value="true"/>
    </report>

</configuration>
-->

<tripinfos xmlns:xsi="http://www.w3.org/2001/XMLSchema-instance" xsi:noNamespaceSchemaLocation="http://sumo.dlr.de/xsd/tripinfo_file.xsd">
    <tripinfo id="mixed.11" depart="20.00" departLane="beg_1" departPos="5.10" departPosLat="-0.40" departSpeed="0.00" departDelay="9.00" arrival="217.00" arrivalLane="end_0" arrivalPos="200.00" arrivalPosLat="-0.70" arrivalSpeed="14.13" duration="197.00" routeLength="494.90" waitSteps="151" timeLoss="163.28" rerouteNo="0" devices="tripinfo_mixed.11" vType="car" speedFactor="1.08" vaporized=""/>
    <tripinfo id="mixed.8" depart="11.00" departLane="beg_1" departPos="5.10" departPosLat="-0.67" departSpeed="0.00" departDelay="3.00" arrival="217.00" arrivalLane="end_0" arrivalPos="200.00" arrivalPosLat="1.22" arrivalSpeed="16.20" duration="206.00" routeLength="494.90" waitSteps="151" timeLoss="177.15" rerouteNo="0" devices="tripinfo_mixed.8" vType="car" speedFactor="1.25" vaporized=""/>
    <tripinfo id="mixed.20" depart="27.00" departLane="beg_1" departPos="5.10" departPosLat="-0.20" departSpeed="0.00" departDelay="7.00" arrival="219.00" arrivalLane="end_1" arrivalPos="200.00" arrivalPosLat="-0.49" arrivalSpeed="16.68" duration="192.00" routeLength="494.90" waitSteps="149" timeLoss="163.68" rerouteNo="0" devices="tripinfo_mixed.20" vType="car" speedFactor="1.26" vaporized=""/>
    <tripinfo id="mixed.3" depart="4.00" departLane="beg_1" departPos="2.20" departPosLat="-0.43" departSpeed="0.00" departDelay="1.00" arrival="221.00" arrivalLane="end_0" arrivalPos="200.00" arrivalPosLat="-1.20" arrivalSpeed="13.48" duration="217.00" routeLength="497.80" waitSteps="161" timeLoss="180.21" rerouteNo="0" devices="tripinfo_mixed.3" vType="moped" speedFactor="0.98" vaporized=""/>
    <tripinfo id="mixed.6" depart="7.00" departLane="beg_1" departPos="2.20" departPosLat="-0.80" departSpeed="0.00" departDelay="1.00" arrival="221.00" arrivalLane="end_0" arrivalPos="200.00" arrivalPosLat="0.68" arrivalSpeed="16.24" duration="214.00" routeLength="497.80" waitSteps="158" timeLoss="183.72" rerouteNo="0" devices="tripinfo_mixed.6" vType="moped" speedFactor="1.36" vaporized=""/>
    <tripinfo id="mixed.17" depart="30.00" departLane="beg_1" departPos="5.10" departPosLat="-0.50" departSpeed="0.00" departDelay="13.00" arrival="223.00" arrivalLane="end_1" arrivalPos="200.00" arrivalPosLat="-0.06" arrivalSpeed="12.87" duration="193.00" routeLength="494.90" waitSteps="143" timeLoss="157.89" rerouteNo="0" devices="tripinfo_mixed.17" vType="car" speedFactor="1.02" vaporized=""/>
    <tripinfo id="mixed.0" depart="0.00" departLane="beg_0" departPos="2.20" departPosLat="0.51" departSpeed="0.00" departDelay="0.00" arrival="225.00" arrivalLane="end_0" arrivalPos="200.00" arrivalPosLat="-1.20" arrivalSpeed="9.94" duration="225.00" routeLength="497.80" waitSteps="164" timeLoss="176.86" rerouteNo="0" devices="tripinfo_mixed.0" vType="moped" speedFactor="0.75" vaporized=""/>
    <tripinfo id="mixed.5" depart="6.00" departLane="beg_0" departPos="5.10" departPosLat="0.64" departSpeed="0.00" departDelay="1.00" arrival="227.00" arrivalLane="end_0" arrivalPos="200.00" arrivalPosLat="-0.70" arrivalSpeed="13.19" duration="221.00" routeLength="494.90" waitSteps="155" timeLoss="185.50" rerouteNo="0" devices="tripinfo_mixed.5" vType="car" speedFactor="1.03" vaporized=""/>
    <tripinfo id="mixed.15" depart="22.00" departLane="beg_0" departPos="2.20" departPosLat="0.85" departSpeed="0.00" departDelay="7.00" arrival="227.00" arrivalLane="end_1" arrivalPos="200.00" arrivalPosLat="0.58" arrivalSpeed="15.44" duration="205.00" routeLength="497.80" waitSteps="146" timeLoss="172.51" rerouteNo="0" devices="tripinfo_mixed.15" vType="moped" speedFactor="1.12" vaporized=""/>
    <tripinfo id="mixed.12" depart="12.00" departLane="beg_1" departPos="2.20" departPosLat="0.67" departSpeed="0.00" departDelay="0.00" arrival="228.00" arrivalLane="end_0" arrivalPos="200.00" arrivalPosLat="1.09" arrivalSpeed="10.25" duration="216.00" routeLength="497.80" waitSteps="147" timeLoss="167.02" rerouteNo="0" devices="tripinfo_mixed.12" vType="moped" speedFactor="0.74" vaporized=""/>
    <tripinfo id="mixed.13" depart="13.00" departLane="beg_0" departPos="2.20" departPosLat="-0.37" departSpeed="0.00" departDelay="0.00" arrival="228.00" arrivalLane="end_0" arrivalPos="200.00" arrivalPosLat="-1.20" arrivalSpeed="13.66" duration="215.00" routeLength="497.80" waitSteps="150" timeLoss="184.99" rerouteNo="0" devices="tripinfo_mixed.13" vType="moped" speedFactor="1.33" vaporized=""/>
    <tripinfo id="mixed.14" depart="17.00" departLane="beg_0" departPos="2.20" departPosLat="-0.23" departSpeed="0.00" departDelay="3.00" arrival="229.00" arrivalLane="end_1" arrivalPos="200.00" arrivalPosLat="0.59" arrivalSpeed="14.13" duration="212.00" routeLength="497.80" waitSteps="145" timeLoss="177.08" rerouteNo="0" devices="tripinfo_mixed.14" vType="moped" speedFactor="1.04" vaporized=""/>
    <tripinfo id="mixed.7" depart="10.00" departLane="beg_0" departPos="2.20" departPosLat="-1.01" departSpeed="0.00" departDelay="3.00" arrival="231.00" arrivalLane="end_0" arrivalPos="200.00" arrivalPosLat="0.08" arrivalSpeed="9.12" duration="221.00" routeLength="497.80" waitSteps="146" timeLoss="168.68" rerouteNo="0" devices="tripinfo_mixed.7" vType="moped" speedFactor="0.69" vaporized=""/>
    <tripinfo id="mixed.9" depart="23.00" departLane="beg_1" departPos="5.10" departPosLat="0.47" departSpeed="0.00" departDelay="14.00" arrival="233.00" arrivalLane="end_0" arrivalPos="200.00" arrivalPosLat="0.59" arrivalSpeed="10.76" duration="210.00" routeLength="494.90" waitSteps="140" timeLoss="164.85" rerouteNo="0" devices="tripinfo_mixed.9" vType="car" speedFactor="0.80" vaporized=""/>
    <tripinfo id="mixed.25" depart="33.00" departLane="beg_1" departPos="5.10" departPosLat="0.51" departSpeed="0.00" departDelay="8.00" arrival="233.00" arrivalLane="end_1" arrivalPos="200.00" arrivalPosLat="0.70" arrivalSpeed="12.17" duration="200.00" routeLength="494.90" waitSteps="141" timeLoss="161.20" rerouteNo="0" devices="tripinfo_mixed.25" vType="car" speedFactor="0.94" vaporized=""/>
    <tripinfo id="mixed.19" depart="40.00" departLane="beg_1" departPos="5.10" departPosLat="-0.16" departSpeed="0.00" departDelay="21.00" arrival="234.00" arrivalLane="end_1" arrivalPos="200.00" arrivalPosLat="0.70" arrivalSpeed="13.07" duration="194.00" routeLength="494.90" waitSteps="135" timeLoss="160.42" rerouteNo="0" devices="tripinfo_mixed.19" vType="car" speedFactor="1.06" vaporized=""/>
    <tripinfo id="mixed.10" depart="16.00" departLane="beg_1" departPos="2.20" departPosLat="0.72" departSpeed="0.00" departDelay="6.00" arrival="235.00" arrivalLane="end_0" arrivalPos="200.00" arrivalPosLat="0.65" arrivalSpeed="9.59" duration="219.00" routeLength="497.80" waitSteps="148" timeLoss="167.63" rerouteNo="0" devices="tripinfo_mixed.10" vType="moped" speedFactor="0.71" vaporized=""/>
    <tripinfo id="mixed.4" depart="4.00" departLane="beg_0" departPos="2.20" departPosLat="-1.09" departSpeed="0.00" departDelay="0.00" arrival="235.00" arrivalLane="end_0" arrivalPos="200.00" arrivalPosLat="-1.20" arrivalSpeed="7.42" duration="231.00" routeLength="497.80" waitSteps="148" timeLoss="164.86" rerouteNo="0" devices="tripinfo_mixed.4" vType="moped" speedFactor="0.54" vaporized=""/>
    <tripinfo id="mixed.23" depart="37.00" departLane="beg_0" departPos="2.20" departPosLat="-1.00" departSpeed="0.00" departDelay="14.00" arrival="235.00" arrivalLane="end_1" arrivalPos="200.00" arrivalPosLat="-0.81" arrivalSpeed="12.02" duration="198.00" routeLength="497.80" waitSteps="132" timeLoss="167.48" rerouteNo="0" devices="tripinfo_mixed.23" vType="moped" speedFactor="1.49" vaporized=""/>
    <tripinfo id="mixed.22" depart="37.00" departLane="beg_0" departPos="2.20" departPosLat="0.80" departSpeed="0.00" departDelay="15.00" arrival="236.00" arrivalLane="end_0" arrivalPos="200.00" arrivalPosLat="0.49" arrivalSpeed="12.35" duration="199.00" routeLength="497.80" waitSteps="134" timeLoss="168.97" rerouteNo="0" devices="tripinfo_mixed.22" vType="moped" speedFactor="1.62" vaporized=""/>
    <tripinfo id="mixed.26" depart="35.00" departLane="beg_1" departPos="2.20" departPosLat="-0.79" departSpeed="0.00" departDelay="9.00" arrival="236.00" arrivalLane="end_1" arrivalPos="200.00" arrivalPosLat="-1.19" arrivalSpeed="11.60" duration="201.00" routeLength="497.80" waitSteps="132" timeLoss="167.36" rerouteNo="0" devices="tripinfo_mixed.26" vType="moped" speedFactor="1.08" vaporized=""/>
    <tripinfo id="mixed.31" depart="49.00" departLane="beg_1" departPos="2.20" departPosLat="0.33" departSpeed="0.00" departDelay="18.00" arrival="236.00" arrivalLane="end_1" arrivalPos="200.00" arrivalPosLat="0.52" arrivalSpeed="12.78" duration="187.00" routeLength="497.80" waitSteps="125" timeLoss="156.74" rerouteNo="0" devices="tripinfo_mixed.31" vType="moped" speedFactor="1.26" vaporized=""/>
    <tripinfo id="mixed.28" depart="35.00" departLane="beg_1" departPos="2.20" departPosLat="1.01" departSpeed="0.00" departDelay="7.00" arrival="237.00" arrivalLane="end_0" arrivalPos="200.00" arrivalPosLat="-1.20" arrivalSpeed="8.97" duration="202.00" routeLength="497.80" waitSteps="135" timeLoss="171.73" rerouteNo="0" devices="tripinfo_mixed.28" vType="moped" speedFactor="1.41" vaporized=""/>
    <tripinfo id="mixed.35" depart="45.00" departLane="beg_1" departPos="2.20" departPosLat="-0.49" departSpeed="0.00" departDelay="10.00" arrival="238.00" arrivalLane="end_0" arrivalPos="200.00" arrivalPosLat="0.60" arrivalSpeed="14.78" duration="193.00" routeLength="497.80" waitSteps="128" timeLoss="159.06" rerouteNo="0" devices="tripinfo_mixed.35" vType="moped" speedFactor="1.08" vaporized=""/>
    <tripinfo id="mixed.30" depart="42.00" departLane="beg_1" departPos="2.20" departPosLat="-1.06" departSpeed="0.00" departDelay="12.00" arrival="238.00" arrivalLane="end_0" arrivalPos="200.00" arrivalPosLat="-1.20" arrivalSpeed="9.37" duration="196.00" routeLength="497.80" waitSteps="128" timeLoss="163.94" rerouteNo="0" devices="tripinfo_mixed.30" vType="moped" speedFactor="1.12" vaporized=""/>
    <tripinfo id="mixed.38" depart="58.00" departLane="beg_1" departPos="2.20" departPosLat="-1.12" departSpeed="0.00" departDelay="20.00" arrival="238.00" arrivalLane="end_1" arrivalPos="200.00" arrivalPosLat="-0.74" arrivalSpeed="13.53" duration="180.00" routeLength="497.80" waitSteps="120" timeLoss="149.26" rerouteNo="0" devices="tripinfo_mixed.38" vType="moped" speedFactor="1.68" vaporized=""/>
    <tripinfo id="mixed.47" depart="68.00" departLane="beg_1" departPos="2.20" departPosLat="0.44" departSpeed="0.00" departDelay="21.00" arrival="239.00" arrivalLane="end_1" arrivalPos="200.00" arrivalPosLat="-1.08" arrivalSpeed="13.45" duration="171.00" routeLength="497.80" waitSteps="111" timeLoss="134.29" rerouteNo="0" devices="tripinfo_mixed.47" vType="moped" speedFactor="0.99" vaporized=""/>
    <tripinfo id="mixed.43" depart="61.00" departLane="beg_0" departPos="2.20" departPosLat="0.21" departSpeed="0.00" departDelay="18.00" arrival="240.00" arrivalLane="end_1" arrivalPos="200.00" arrivalPosLat="1.14" arrivalSpeed="11.60" duration="179.00" routeLength="497.80" waitSteps="114" timeLoss="136.31" rerouteNo="0" devices="tripinfo_mixed.43" vType="moped" speedFactor="0.85" vaporized=""/>
    <tripinfo id="mixed.27" depart="44.00" departLane="beg_0" departPos="2.20" departPosLat="1.12" departSpeed="0.00" departDelay="17.00" arrival="241.00" arrivalLane="end_0" arrivalPos="200.00" arrivalPosLat="0.08" arrivalSpeed="10.12" duration="197.00" routeLength="497.80" waitSteps="124" timeLoss="148.91" rerouteNo="0" devices="tripinfo_mixed.27" vType="moped" speedFactor="0.76" vaporized=""/>
    <tripinfo id="mixed.39" depart="57.00" departLane="beg_0" departPos="2.20" departPosLat="-1.04" departSpeed="0.00" departDelay="18.00" arrival="242.00" arrivalLane="end_0" arrivalPos="200.00" arrivalPosLat="-0.41" arrivalSpeed="10.91" duration="185.00" routeLength="497.80" waitSteps="122" timeLoss="154.56" rerouteNo="0" devices="tripinfo_mixed.39" vType="moped" speedFactor="1.19" vaporized=""/>
    <tripinfo id="mixed.44" depart="66.00" departLane="beg_1" departPos="5.10" departPosLat="0.26" departSpeed="0.00" departDelay="22.00" arrival="242.00" arrivalLane="end_1" arrivalPos="200.00" arrivalPosLat="-0.18" arrivalSpeed="13.49" duration="176.00" routeLength="494.90" waitSteps="119" timeLoss="141.06" rerouteNo="0" devices="tripinfo_mixed.44" vType="car" speedFactor="1.05" vaporized=""/>
    <tripinfo id="mixed.52" depart="75.00" departLane="beg_1" departPos="5.10" departPosLat="-0.42" departSpeed="0.00" departDelay="23.00" arrival="244.00" arrivalLane="end_0" arrivalPos="200.00" arrivalPosLat="1.22" arrivalSpeed="14.00" duration="169.00" routeLength="494.90" waitSteps="107" timeLoss="133.90" rerouteNo="0" devices="tripinfo_mixed.52" vType="car" speedFactor="1.04" vaporized=""/>
    <tripinfo id="mixed.54" depart="82.00" departLane="beg_1" departPos="5.10" departPosLat="-0.24" departSpeed="0.00" departDelay="28.00" arrival="245.00" arrivalLane="end_1" arrivalPos="200.00" arrivalPosLat="0.70" arrivalSpeed="14.70" duration="163.00" routeLength="494.90" waitSteps="103" timeLoss="129.95" rerouteNo="0" devices="tripinfo_mixed.54" vType="car" speedFactor="1.11" vaporized=""/>
    <tripinfo id="mixed.37" depart="51.00" departLane="beg_1" departPos="2.20" departPosLat="-1.02" departSpeed="0.00" departDelay="14.00" arrival="246.00" arrivalLane="end_1" arrivalPos="200.00" arrivalPosLat="-1.23" arrivalSpeed="15.25" duration="195.00" routeLength="497.80" waitSteps="127" timeLoss="164.63" rerouteNo="0" devices="tripinfo_mixed.37" vType="moped" speedFactor="1.25" vaporized=""/>
    <tripinfo id="mixed.58" depart="84.00" departLane="beg_0" departPos="5.10" departPosLat="0.65" departSpeed="0.00" departDelay="26.00" arrival="246.00" arrivalLane="end_1" arrivalPos="200.00" arrivalPosLat="0.70" arrivalSpeed="15.57" duration="162.00" routeLength="494.90" waitSteps="98" timeLoss="131.30" rerouteNo="0" devices="tripinfo_mixed.58" vType="car" speedFactor="1.17" vaporized=""/>
    <tripinfo id="mixed.60" depart="92.00" departLane="beg_0" departPos="5.10" departPosLat="-0.07" departSpeed="0.00" departDelay="32.00" arrival="248.00" arrivalLane="end_1" arrivalPos="200.00" arrivalPosLat="0.70" arrivalSpeed="13.91" duration="156.00" routeLength="494.90" waitSteps="94" timeLoss="121.28" rerouteNo="0" devices="tripinfo_mixed.60" vType="car" speedFactor="1.03" vaporized=""/>
    <tripinfo id="mixed.16" depart="26.00" departLane="beg_0" departPos="2.20" departPosLat="0.15" departSpeed="0.00" departDelay="10.00" arrival="250.00" arrivalLane="end_0" arrivalPos="200.00" arrivalPosLat="0.36" arrivalSpeed="7.26" duration="224.00" routeLength="497.80" waitSteps="122" timeLoss="159.06" rerouteNo="0" devices="tripinfo_mixed.16" vType="moped" speedFactor="0.56" vaporized=""/>
    <tripinfo id="mixed.32" depart="64.00" departLane="beg_0" departPos="5.10" departPosLat="-0.19" departSpeed="0.00" departDelay="32.00" arrival="251.00" arrivalLane="end_1" arrivalPos="200.00" arrivalPosLat="0.70" arrivalSpeed="14.33" duration="187.00" routeLength="494.90" waitSteps="116" timeLoss="152.89" rerouteNo="0" devices="tripinfo_mixed.32" vType="car" speedFactor="1.08" vaporized=""/>
    <tripinfo id="mixed.1" depart="1.00" departLane="beg_1" departPos="2.20" departPosLat="0.22" departSpeed="0.00" departDelay="0.00" arrival="252.00" arrivalLane="end_0" arrivalPos="200.00" arrivalPosLat="-1.20" arrivalSpeed="4.42" duration="251.00" routeLength="497.80" waitSteps="140" timeLoss="150.17" rerouteNo="0" devices="tripinfo_mixed.1" vType="moped" speedFactor="0.36" vaporized=""/>
    <tripinfo id="mixed.21" depart="30.00" departLane="beg_0" departPos="5.10" departPosLat="0.34" departSpeed="0.00" departDelay="9.00" arrival="252.00" arrivalLane="end_1" arrivalPos="200.00" arrivalPosLat="-1.48" arrivalSpeed="10.69" duration="222.00" routeLength="494.90" waitSteps="125" timeLoss="175.89" rerouteNo="0" devices="tripinfo_mixed.21" vType="car" speedFactor="0.79" vaporized=""/>
    <tripinfo id="mixed.56" depart="77.00" departLane="beg_0" departPos="5.10" departPosLat="-0.69" departSpeed="0.00" departDelay="21.00" arrival="252.00" arrivalLane="end_1" arrivalPos="200.00" arrivalPosLat="0.70" arrivalSpeed="13.62" duration="175.00" routeLength="494.90" waitSteps="108" timeLoss="141.31" rerouteNo="0" devices="tripinfo_mixed.56" vType="car" speedFactor="1.06" vaporized=""/>
    <tripinfo id="mixed.34" depart="50.00" departLane="beg_0" departPos="5.10" departPosLat="-0.30" departSpeed="0.00" departDelay="16.00" arrival="253.00" arrivalLane="end_1" arrivalPos="200.00" arrivalPosLat="-1.50" arrivalSpeed="10.80" duration="203.00" routeLength="494.90" waitSteps="122" timeLoss="158.32" rerouteNo="0" devices="tripinfo_mixed.34" vType="car" speedFactor="0.80" vaporized=""/>
    <tripinfo id="mixed.24" depart="41.00" departLane="beg_0" departPos="2.20" departPosLat="-1.00" departSpeed="0.00" departDelay="17.00" arrival="255.00" arrivalLane="end_1" arrivalPos="200.00" arrivalPosLat="0.60" arrivalSpeed="12.36" duration="214.00" routeLength="497.80" waitSteps="119" timeLoss="176.52" rerouteNo="0" devices="tripinfo_mixed.24" vType="moped" speedFactor="0.98" vaporized=""/>
    <tripinfo id="mixed.67" depart="93.00" departLane="beg_1" departPos="2.20" departPosLat="0.22" departSpeed="0.00" departDelay="26.00" arrival="256.00" arrivalLane="end_1" arrivalPos="200.00" arrivalPosLat="0.99" arrivalSpeed="12.41" duration="163.00" routeLength="497.80" waitSteps="81" timeLoss="132.74" rerouteNo="0" devices="tripinfo_mixed.67" vType="moped" speedFactor="1.21" vaporized=""/>
    <tripinfo id="mixed.40" depart="53.00" departLane="beg_0" departPos="2.20" departPosLat="-0.82" departSpeed="0.00" departDelay="13.00" arrival="257.00" arrivalLane="end_0" arrivalPos="200.00" arrivalPosLat="1.02" arrivalSpeed="11.07" duration="204.00" routeLength="497.80" waitSteps="121" timeLoss="168.39" rerouteNo="0" devices="tripinfo_mixed.40" vType="moped" speedFactor="1.01" vaporized=""/>
    <tripinfo id="mixed.86" depart="123.00" departLane="beg_0" departPos="2.20" departPosLat="0.20" departSpeed="0.00" departDelay="37.00" arrival="258.00" arrivalLane="end_1" arrivalPos="200.00" arrivalPosLat="0.49" arrivalSpeed="13.17" duration="135.00" routeLength="497.80" waitSteps="61" timeLoss="104.27" rerouteNo="0" devices="tripinfo_mixed.86" vType="moped" speedFactor="1.71" vaporized=""/>
    <tripinfo id="mixed.76" depart="112.00" departLane="beg_1" departPos="2.20" departPosLat="0.33" departSpeed="0.00" departDelay="36.00" arrival="259.00" arrivalLane="end_1" arrivalPos="200.00" arrivalPosLat="0.54" arrivalSpeed="13.40" duration="147.00" routeLength="497.80" waitSteps="72" timeLoss="116.56" rerouteNo="0" devices="tripinfo_mixed.76" vType="moped" speedFactor="1.29" vaporized=""/>
    <tripinfo id="mixed.57" depart="82.00" departLane="beg_0" departPos="2.20" departPosLat="-0.19" departSpeed="0.00" departDelay="25.00" arrival="259.00" arrivalLane="end_1" arrivalPos="200.00" arrivalPosLat="-1.05" arrivalSpeed="9.31" duration="177.00" routeLength="497.80" waitSteps="89" timeLoss="123.44" rerouteNo="0" devices="tripinfo_mixed.57" vType="moped" speedFactor="0.67" vaporized=""/>
    <tripinfo id="mixed.2" depart="2.00" departLane="beg_0" departPos="2.20" departPosLat="0.11" departSpeed="0.00" departDelay="0.00" arrival="260.00" arrivalLane="end_0" arrivalPos="200.00" arrivalPosLat="-1.20" arrivalSpeed="4.14" duration="258.00" routeLength="497.80" waitSteps="134" timeLoss="146.65" rerouteNo="0" devices="tripinfo_mixed.2" vType="moped" speedFactor="0.32" vaporized=""/>
    <tripinfo id="mixed.18" depart="34.00" departLane="beg_0" departPos="5.10" departPosLat="-0.38" departSpeed="0.00" departDelay="16.00" arrival="260.00" arrivalLane="end_0" arrivalPos="200.00" arrivalPosLat="0.58" arrivalSpeed="9.30" duration="226.00" routeLength="494.90" waitSteps="121" timeLoss="177.92" rerouteNo="0" devices="tripinfo_mixed.18" vType="car" speedFactor="0.75" vaporized=""/>
    <tripinfo id="mixed.63" depart="89.00" departLane="beg_1" departPos="2.20" departPosLat="-0.60" departSpeed="0.00" departDelay="26.00" arrival="261.00" arrivalLane="end_1" arrivalPos="200.00" arrivalPosLat="0.08" arrivalSpeed="10.69" duration="172.00" routeLength="497.80" waitSteps="94" timeLoss="132.42" rerouteNo="0" devices="tripinfo_mixed.63" vType="moped" speedFactor="0.92" vaporized=""/>
    <tripinfo id="mixed.51" depart="73.00" departLane="beg_0" departPos="2.20" departPosLat="0.47" departSpeed="0.00" departDelay="22.00" arrival="263.00" arrivalLane="end_0" arrivalPos="200.00" arrivalPosLat="0.36" arrivalSpeed="8.46" duration="190.00" routeLength="497.80" waitSteps="101" timeLoss="143.97" rerouteNo="0" devices="tripinfo_mixed.51" vType="moped" speedFactor="0.79" vaporized=""/>
    <tripinfo id="mixed.48" depart="55.00" departLane="beg_1" departPos="2.20" departPosLat="-0.48" departSpeed="0.00" departDelay="7.00" arrival="263.00" arrivalLane="end_0" arrivalPos="200.00" arrivalPosLat="-1.20" arrivalSpeed="8.23" duration="208.00" routeLength="497.80" waitSteps="119" timeLoss="169.63" rerouteNo="0" devices="tripinfo_mixed.48" vType="moped" speedFactor="0.95" vaporized=""/>
    <tripinfo id="mixed.70" depart="101.00" departLane="beg_1" departPos="5.10" departPosLat="0.10" departSpeed="0.00" departDelay="31.00" arrival="263.00" arrivalLane="end_1" arrivalPos="200.00" arrivalPosLat="-0.97" arrivalSpeed="10.58" duration="162.00" routeLength="494.90" waitSteps="89" timeLoss="117.49" rerouteNo="0" devices="tripinfo_mixed.70" vType="car" speedFactor="0.81" vaporized=""/>
    <tripinfo id="mixed.61" depart="85.00" departLane="beg_1" departPos="2.20" departPosLat="-0.63" departSpeed="0.00" departDelay="24.00" arrival="264.00" arrivalLane="end_0" arrivalPos="200.00" arrivalPosLat="0.39" arrivalSpeed="8.29" duration="179.00" routeLength="497.80" waitSteps="99" timeLoss="148.94" rerouteNo="0" devices="tripinfo_mixed.61" vType="moped" speedFactor="1.33" vaporized=""/>
    <tripinfo id="mixed.71" depart="104.00" departLane="beg_0" departPos="5.10" departPosLat="-0.28" departSpeed="0.00" departDelay="33.00" arrival="265.00" arrivalLane="end_0" arrivalPos="200.00" arrivalPosLat="1.53" arrivalSpeed="15.01" duration="161.00" routeLength="494.90" waitSteps="82" timeLoss="132.33" rerouteNo="0" devices="tripinfo_mixed.71" vType="car" speedFactor="1.28" vaporized=""/>
    <tripinfo id="mixed.36" depart="54.00" departLane="beg_0" departPos="2.20" departPosLat="0.46" departSpeed="0.00" departDelay="18.00" arrival="265.00" arrivalLane="end_0" arrivalPos="200.00" arrivalPosLat="-1.20" arrivalSpeed="6.77" duration="211.00" routeLength="497.80" waitSteps="111" timeLoss="139.80" rerouteNo="0" devices="tripinfo_mixed.36" vType="moped" speedFactor="0.51" vaporized=""/>
    <tripinfo id="mixed.84" depart="122.00" departLane="beg_1" departPos="5.10" departPosLat="0.39" departSpeed="0.00" departDelay="38.00" arrival="265.00" arrivalLane="end_1" arrivalPos="200.00" arrivalPosLat="0.70" arrivalSpeed="13.77" duration="143.00" routeLength="494.90" waitSteps="69" timeLoss="112.36" rerouteNo="0" devices="tripinfo_mixed.84" vType="car" speedFactor="1.19" vaporized=""/>
    <tripinfo id="mixed.49" depart="71.00" departLane="beg_1" departPos="2.20" departPosLat="0.07" departSpeed="0.00" departDelay="22.00" arrival="266.00" arrivalLane="end_0" arrivalPos="200.00" arrivalPosLat="0.32" arrivalSpeed="8.97" duration="195.00" routeLength="497.80" waitSteps="98" timeLoss="151.75" rerouteNo="0" devices="tripinfo_mixed.49" vType="moped" speedFactor="0.84" vaporized=""/>
    <tripinfo id="mixed.62" depart="88.00" departLane="beg_0" departPos="2.20" departPosLat="0.80" departSpeed="0.00" departDelay="26.00" arrival="266.00" arrivalLane="end_0" arrivalPos="200.00" arrivalPosLat="1.36" arrivalSpeed="12.05" duration="178.00" routeLength="497.80" waitSteps="86" timeLoss="138.05" rerouteNo="0" devices="tripinfo_mixed.62" vType="moped" speedFactor="0.90" vaporized=""/>
    <tripinfo id="mixed.95" depart="138.00" departLane="beg_1" departPos="5.10" departPosLat="0.03" departSpeed="0.00" departDelay="43.00" arrival="266.00" arrivalLane="end_1" arrivalPos="200.00" arrivalPosLat="0.34" arrivalSpeed="12.72" duration="128.00" routeLength="494.90" waitSteps="60" timeLoss="92.50" rerouteNo="0" devices="tripinfo_mixed.95" vType="car" speedFactor="1.01" vaporized=""/>
    <tripinfo id="mixed.53" depart="78.00" departLane="beg_1" departPos="2.20" departPosLat="0.70" departSpeed="0.00" departDelay="25.00" arrival="268.00" arrivalLane="end_0" arrivalPos="200.00" arrivalPosLat="-0.60" arrivalSpeed="9.43" duration="190.00" routeLength="497.80" waitSteps="89" timeLoss="138.66" rerouteNo="0" devices="tripinfo_mixed.53" vType="moped" speedFactor="0.71" vaporized=""/>
    <tripinfo id="mixed.91" depart="141.00" departLane="beg_1" departPos="2.20" departPosLat="-0.09" departSpeed="0.00" departDelay="50.00" arrival="268.00" arrivalLane="end_1" arrivalPos="200.00" arrivalPosLat="1.11" arrivalSpeed="12.74" duration="127.00" routeLength="497.80" waitSteps="57" timeLoss="94.95" rerouteNo="0" devices="tripinfo_mixed.91" vType="moped" speedFactor="1.13" vaporized=""/>
    <tripinfo id="mixed.97" depart="145.00" departLane="beg_1" departPos="2.20" departPosLat="-0.21" departSpeed="0.00" departDelay="48.00" arrival="268.00" arrivalLane="end_1" arrivalPos="200.00" arrivalPosLat="-1.20" arrivalSpeed="11.85" duration="123.00" routeLength="497.80" waitSteps="52" timeLoss="93.00" rerouteNo="0" devices="tripinfo_mixed.97" vType="moped" speedFactor="1.41" vaporized=""/>
    <tripinfo id="mixed.46" depart="67.00" departLane="beg_1" departPos="2.20" departPosLat="-1.06" departSpeed="0.00" departDelay="21.00" arrival="270.00" arrivalLane="end_0" arrivalPos="200.00" arrivalPosLat="0.72" arrivalSpeed="10.02" duration="203.00" routeLength="497.80" waitSteps="103" timeLoss="172.40" rerouteNo="0" devices="tripinfo_mixed.46" vType="moped" speedFactor="1.48" vaporized=""/>
    <tripinfo id="mixed.73" depart="104.00" departLane="beg_1" departPos="2.20" departPosLat="-0.36" departSpeed="0.00" departDelay="31.00" arrival="270.00" arrivalLane="end_1" arrivalPos="200.00" arrivalPosLat="0.08" arrivalSpeed="12.86" duration="166.00" routeLength="497.80" waitSteps="78" timeLoss="135.50" rerouteNo="0" devices="tripinfo_mixed.73" vType="moped" speedFactor="1.58" vaporized=""/>
    <tripinfo id="mixed.79" depart="116.00" departLane="beg_1" departPos="5.10" departPosLat="0.65" departSpeed="0.00" departDelay="37.00" arrival="271.00" arrivalLane="end_0" arrivalPos="200.00" arrivalPosLat="1.03" arrivalSpeed="10.74" duration="155.00" routeLength="494.90" waitSteps="70" timeLoss="117.49" rerouteNo="0" devices="tripinfo_mixed.79" vType="car" speedFactor="0.95" vaporized=""/>
    <tripinfo id="mixed.88" depart="136.00" departLane="beg_0" departPos="5.10" departPosLat="-0.55" departSpeed="0.00" departDelay="48.00" arrival="272.00" arrivalLane="end_1" arrivalPos="200.00" arrivalPosLat="0.38" arrivalSpeed="13.42" duration="136.00" routeLength="494.90" waitSteps="58" timeLoss="98.79" rerouteNo="0" devices="tripinfo_mixed.88" vType="car" speedFactor="0.98" vaporized=""/>
    <tripinfo id="mixed.29" depart="40.00" departLane="beg_0" departPos="2.20" departPosLat="0.73" departSpeed="0.00" departDelay="11.00" arrival="273.00" arrivalLane="end_0" arrivalPos="200.00" arrivalPosLat="-1.20" arrivalSpeed="4.39" duration="233.00" routeLength="497.80" waitSteps="113" timeLoss="126.92" rerouteNo="0" devices="tripinfo_mixed.29" vType="moped" speedFactor="0.34" vaporized=""/>
    <tripinfo id="mixed.65" depart="96.00" departLane="beg_1" departPos="2.20" departPosLat="-0.13" departSpeed="0.00" departDelay="31.00" arrival="273.00" arrivalLane="end_0" arrivalPos="200.00" arrivalPosLat="1.06" arrivalSpeed="10.04" duration="177.00" routeLength="497.80" waitSteps="80" timeLoss="130.28" rerouteNo="0" devices="tripinfo_mixed.65" vType="moped" speedFactor="0.77" vaporized=""/>
    <tripinfo id="mixed.98" depart="148.00" departLane="beg_0" departPos="5.10" departPosLat="-0.32" departSpeed="0.00" departDelay="50.00" arrival="273.00" arrivalLane="end_1" arrivalPos="200.00" arrivalPosLat="0.40" arrivalSpeed="14.42" duration="125.00" routeLength="494.90" waitSteps="47" timeLoss="91.26" rerouteNo="0" devices="tripinfo_mixed.98" vType="car" speedFactor="1.06" vaporized=""/>
    <tripinfo id="mixed.41" depart="60.00" departLane="beg_0" departPos="2.20" departPosLat="-1.06" departSpeed="0.00" departDelay="19.00" arrival="275.00" arrivalLane="end_0" arrivalPos="200.00" arrivalPosLat="-0.26" arrivalSpeed="6.06" duration="215.00" routeLength="497.80" waitSteps="112" timeLoss="184.75" rerouteNo="0" devices="tripinfo_mixed.41" vType="moped" speedFactor="1.40" vaporized=""/>
    <tripinfo id="mixed.72" depart="107.00" departLane="beg_1" departPos="2.20" departPosLat="0.30" departSpeed="0.00" departDelay="35.00" arrival="275.00" arrivalLane="end_0" arrivalPos="200.00" arrivalPosLat="1.07" arrivalSpeed="10.58" duration="168.00" routeLength="497.80" waitSteps="81" timeLoss="137.65" rerouteNo="0" devices="tripinfo_mixed.72" vType="moped" speedFactor="1.39" vaporized=""/>