<?xml version="1.0" encoding="UTF-8"?>

<!-- generated on Tue Apr 19 13:59:26 2016 by SUMO Version dev-SVN-r20491
<?xml version="1.0" encoding="UTF-8"?>

<configuration xmlns:xsi="http://www.w3.org/2001/XMLSchema-instance" xsi:noNamespaceSchemaLocation="http://sumo.dlr.de/xsd/sumoConfiguration.xsd">

    <input>
        <net-file value="net.net.xml"/>
        <route-files value="input_routes.rou.xml"/>
    </input>

    <output>
        <tripinfo-output value="tripinfos.xml"/>
    </output>

    <processing>
        <lateral-resolution value="0.64"/>
    </processing>

    <report>
        <xml-validation value="never"/>
        <no-step-log value="true"/>
    </report>

</configuration>
-->

<tripinfos xmlns:xsi="http://www.w3.org/2001/XMLSchema-instance" xsi:noNamespaceSchemaLocation="http://sumo.dlr.de/xsd/tripinfo_file.xsd">
    <tripinfo id="mixed.6" depart="7.00" departLane="beg_1" departPos="2.20" departSpeed="0.00" departDelay="1.00" arrival="222.00" arrivalLane="end_0" arrivalPos="200.00" arrivalSpeed="16.42" duration="215.00" routeLength="497.80" waitSteps="161" timeLoss="184.56" rerouteNo="0" devices="tripinfo_mixed.6" vType="moped" vaporized=""/>
    <tripinfo id="mixed.3" depart="4.00" departLane="beg_1" departPos="2.20" departSpeed="0.00" departDelay="1.00" arrival="223.00" arrivalLane="end_0" arrivalPos="200.00" arrivalSpeed="13.61" duration="219.00" routeLength="497.80" waitSteps="158" timeLoss="181.50" rerouteNo="0" devices="tripinfo_mixed.3" vType="moped" vaporized=""/>
    <tripinfo id="mixed.0" depart="0.00" departLane="beg_0" departPos="2.20" departSpeed="0.00" departDelay="0.00" arrival="224.00" arrivalLane="end_0" arrivalPos="200.00" arrivalSpeed="10.43" duration="224.00" routeLength="497.80" waitSteps="163" timeLoss="176.35" rerouteNo="0" devices="tripinfo_mixed.0" vType="moped" vaporized=""/>
    <tripinfo id="mixed.5" depart="6.00" departLane="beg_0" departPos="5.10" departSpeed="0.00" departDelay="1.00" arrival="225.00" arrivalLane="end_0" arrivalPos="200.00" arrivalSpeed="14.04" duration="219.00" routeLength="494.90" waitSteps="157" timeLoss="183.28" rerouteNo="0" devices="tripinfo_mixed.5" vType="car" vaporized=""/>
    <tripinfo id="mixed.8" depart="10.00" departLane="beg_0" departPos="5.10" departSpeed="0.00" departDelay="2.00" arrival="226.00" arrivalLane="end_0" arrivalPos="200.00" arrivalSpeed="15.12" duration="216.00" routeLength="494.90" waitSteps="149" timeLoss="187.05" rerouteNo="0" devices="tripinfo_mixed.8" vType="car" vaporized=""/>
    <tripinfo id="mixed.10" depart="13.00" departLane="beg_1" departPos="2.20" departSpeed="0.00" departDelay="3.00" arrival="226.00" arrivalLane="end_1" arrivalPos="200.00" arrivalSpeed="9.37" duration="213.00" routeLength="497.80" waitSteps="148" timeLoss="161.64" rerouteNo="0" devices="tripinfo_mixed.10" vType="moped" vaporized=""/>
    <tripinfo id="mixed.13" depart="20.00" departLane="beg_0" departPos="2.20" departSpeed="0.00" departDelay="7.00" arrival="228.00" arrivalLane="end_0" arrivalPos="200.00" arrivalSpeed="14.94" duration="208.00" routeLength="497.80" waitSteps="145" timeLoss="177.45" rerouteNo="0" devices="tripinfo_mixed.13" vType="moped" vaporized=""/>
    <tripinfo id="mixed.9" depart="13.00" departLane="beg_0" departPos="5.10" departSpeed="0.00" departDelay="4.00" arrival="228.00" arrivalLane="end_1" arrivalPos="200.00" arrivalSpeed="10.08" duration="215.00" routeLength="494.90" waitSteps="144" timeLoss="169.64" rerouteNo="0" devices="tripinfo_mixed.9" vType="car" vaporized=""/>
    <tripinfo id="mixed.11" depart="17.00" departLane="beg_0" departPos="5.10" departSpeed="0.00" departDelay="6.00" arrival="229.00" arrivalLane="end_1" arrivalPos="200.00" arrivalSpeed="12.92" duration="212.00" routeLength="494.90" waitSteps="143" timeLoss="178.85" rerouteNo="0" devices="tripinfo_mixed.11" vType="car" vaporized=""/>
    <tripinfo id="mixed.14" depart="20.00" departLane="beg_1" departPos="2.20" departSpeed="0.00" departDelay="6.00" arrival="231.00" arrivalLane="end_1" arrivalPos="200.00" arrivalSpeed="12.68" duration="211.00" routeLength="497.80" waitSteps="147" timeLoss="176.01" rerouteNo="0" devices="tripinfo_mixed.14" vType="moped" vaporized=""/>
    <tripinfo id="mixed.7" depart="9.00" departLane="beg_1" departPos="2.20" departSpeed="0.00" departDelay="2.00" arrival="232.00" arrivalLane="end_0" arrivalPos="200.00" arrivalSpeed="9.60" duration="223.00" routeLength="497.80" waitSteps="144" timeLoss="170.59" rerouteNo="0" devices="tripinfo_mixed.7" vType="moped" vaporized=""/>
    <tripinfo id="mixed.18" depart="28.00" departLane="beg_1" departPos="5.10" departSpeed="0.00" departDelay="10.00" arrival="232.00" arrivalLane="end_1" arrivalPos="200.00" arrivalSpeed="10.27" duration="204.00" routeLength="494.90" waitSteps="138" timeLoss="155.24" rerouteNo="0" devices="tripinfo_mixed.18" vType="car" vaporized=""/>
    <tripinfo id="mixed.4" depart="4.00" departLane="beg_0" departPos="2.20" departSpeed="0.00" departDelay="0.00" arrival="233.00" arrivalLane="end_0" arrivalPos="200.00" arrivalSpeed="7.06" duration="229.00" routeLength="497.80" waitSteps="145" timeLoss="162.51" rerouteNo="0" devices="tripinfo_mixed.4" vType="moped" vaporized=""/>
    <tripinfo id="mixed.23" depart="37.00" departLane="beg_1" departPos="2.20" departSpeed="0.00" departDelay="14.00" arrival="233.00" arrivalLane="end_1" arrivalPos="200.00" arrivalSpeed="10.54" duration="196.00" routeLength="497.80" waitSteps="135" timeLoss="166.00" rerouteNo="0" devices="tripinfo_mixed.23" vType="moped" vaporized=""/>
    <tripinfo id="mixed.20" depart="32.00" departLane="beg_1" departPos="5.10" departSpeed="0.00" departDelay="12.00" arrival="233.00" arrivalLane="end_1" arrivalPos="200.00" arrivalSpeed="11.67" duration="201.00" routeLength="494.90" waitSteps="137" timeLoss="172.69" rerouteNo="0" devices="tripinfo_mixed.20" vType="car" vaporized=""/>
    <tripinfo id="mixed.17" depart="28.00" departLane="beg_0" departPos="5.10" departSpeed="0.00" departDelay="11.00" arrival="234.00" arrivalLane="end_0" arrivalPos="200.00" arrivalSpeed="13.42" duration="206.00" routeLength="494.90" waitSteps="140" timeLoss="170.24" rerouteNo="0" devices="tripinfo_mixed.17" vType="car" vaporized=""/>
    <tripinfo id="mixed.12" depart="19.00" departLane="beg_1" departPos="2.20" departSpeed="0.00" departDelay="7.00" arrival="235.00" arrivalLane="end_0" arrivalPos="200.00" arrivalSpeed="8.32" duration="216.00" routeLength="497.80" waitSteps="143" timeLoss="167.06" rerouteNo="0" devices="tripinfo_mixed.12" vType="moped" vaporized=""/>
    <tripinfo id="mixed.35" depart="54.00" departLane="beg_1" departPos="2.20" departSpeed="0.00" departDelay="19.00" arrival="235.00" arrivalLane="end_1" arrivalPos="200.00" arrivalSpeed="11.54" duration="181.00" routeLength="497.80" waitSteps="118" timeLoss="147.33" rerouteNo="0" devices="tripinfo_mixed.35" vType="moped" vaporized=""/>
    <tripinfo id="mixed.25" depart="43.00" departLane="beg_0" departPos="5.10" departSpeed="0.00" departDelay="18.00" arrival="235.00" arrivalLane="end_1" arrivalPos="200.00" arrivalSpeed="12.81" duration="192.00" routeLength="494.90" waitSteps="131" timeLoss="153.63" rerouteNo="0" devices="tripinfo_mixed.25" vType="car" vaporized=""/>
    <tripinfo id="mixed.24" depart="38.00" departLane="beg_0" departPos="2.20" departSpeed="0.00" departDelay="14.00" arrival="236.00" arrivalLane="end_0" arrivalPos="200.00" arrivalSpeed="13.26" duration="198.00" routeLength="497.80" waitSteps="134" timeLoss="160.38" rerouteNo="0" devices="tripinfo_mixed.24" vType="moped" vaporized=""/>
    <tripinfo id="mixed.19" depart="32.00" departLane="beg_0" departPos="5.10" departSpeed="0.00" departDelay="13.00" arrival="236.00" arrivalLane="end_0" arrivalPos="200.00" arrivalSpeed="10.24" duration="204.00" routeLength="494.90" waitSteps="137" timeLoss="170.40" rerouteNo="0" devices="tripinfo_mixed.19" vType="car" vaporized=""/>
    <tripinfo id="mixed.22" depart="37.00" departLane="beg_0" departPos="2.20" departSpeed="0.00" departDelay="15.00" arrival="236.00" arrivalLane="end_1" arrivalPos="200.00" arrivalSpeed="11.85" duration="199.00" routeLength="497.80" waitSteps="123" timeLoss="168.86" rerouteNo="0" devices="tripinfo_mixed.22" vType="moped" vaporized=""/>
    <tripinfo id="mixed.43" depart="63.00" departLane="beg_1" departPos="2.20" departSpeed="0.00" departDelay="20.00" arrival="237.00" arrivalLane="end_1" arrivalPos="200.00" arrivalSpeed="11.55" duration="174.00" routeLength="497.80" waitSteps="106" timeLoss="131.28" rerouteNo="0" devices="tripinfo_mixed.43" vType="moped" vaporized=""/>
    <tripinfo id="mixed.32" depart="51.00" departLane="beg_1" departPos="5.10" departSpeed="0.00" departDelay="19.00" arrival="238.00" arrivalLane="end_0" arrivalPos="200.00" arrivalSpeed="13.50" duration="187.00" routeLength="494.90" waitSteps="130" timeLoss="153.43" rerouteNo="0" devices="tripinfo_mixed.32" vType="car" vaporized=""/>
    <tripinfo id="mixed.40" depart="60.00" departLane="beg_1" departPos="2.20" departSpeed="0.00" departDelay="20.00" arrival="238.00" arrivalLane="end_1" arrivalPos="200.00" arrivalSpeed="12.17" duration="178.00" routeLength="497.80" waitSteps="114" timeLoss="141.83" rerouteNo="0" devices="tripinfo_mixed.40" vType="moped" vaporized=""/>
    <tripinfo id="mixed.41" depart="62.00" departLane="beg_0" departPos="2.20" departSpeed="0.00" departDelay="21.00" arrival="239.00" arrivalLane="end_0" arrivalPos="200.00" arrivalSpeed="13.69" duration="177.00" routeLength="497.80" waitSteps="110" timeLoss="146.26" rerouteNo="0" devices="tripinfo_mixed.41" vType="moped" vaporized=""/>
    <tripinfo id="mixed.45" depart="71.00" departLane="beg_1" departPos="5.10" departSpeed="0.00" departDelay="26.00" arrival="240.00" arrivalLane="end_1" arrivalPos="200.00" arrivalSpeed="13.09" duration="169.00" routeLength="494.90" waitSteps="101" timeLoss="132.34" rerouteNo="0" devices="tripinfo_mixed.45" vType="car" vaporized=""/>
    <tripinfo id="mixed.15" depart="23.00" departLane="beg_0" departPos="2.20" departSpeed="0.00" departDelay="8.00" arrival="241.00" arrivalLane="end_0" arrivalPos="200.00" arrivalSpeed="15.21" duration="218.00" routeLength="497.80" waitSteps="142" timeLoss="184.98" rerouteNo="0" devices="tripinfo_mixed.15" vType="moped" vaporized=""/>
    <tripinfo id="mixed.26" depart="43.00" departLane="beg_1" departPos="2.20" departSpeed="0.00" departDelay="17.00" arrival="242.00" arrivalLane="end_0" arrivalPos="200.00" arrivalSpeed="14.82" duration="199.00" routeLength="497.80" waitSteps="131" timeLoss="165.21" rerouteNo="0" devices="tripinfo_mixed.26" vType="moped" vaporized=""/>
    <tripinfo id="mixed.52" depart="80.00" departLane="beg_1" departPos="5.10" departSpeed="0.00" departDelay="28.00" arrival="242.00" arrivalLane="end_1" arrivalPos="200.00" arrivalSpeed="14.29" duration="162.00" routeLength="494.90" waitSteps="97" timeLoss="126.80" rerouteNo="0" devices="tripinfo_mixed.52" vType="car" vaporized=""/>
    <tripinfo id="mixed.44" depart="68.00" departLane="beg_1" departPos="5.10" departSpeed="0.00" departDelay="24.00" arrival="243.00" arrivalLane="end_1" arrivalPos="200.00" arrivalSpeed="14.21" duration="175.00" routeLength="494.90" waitSteps="114" timeLoss="140.78" rerouteNo="0" devices="tripinfo_mixed.44" vType="car" vaporized=""/>
    <tripinfo id="mixed.55" depart="86.00" departLane="beg_1" departPos="5.10" departSpeed="0.00" departDelay="31.00" arrival="245.00" arrivalLane="end_1" arrivalPos="200.00" arrivalSpeed="16.03" duration="159.00" routeLength="494.90" waitSteps="97" timeLoss="129.61" rerouteNo="0" devices="tripinfo_mixed.55" vType="car" vaporized=""/>
    <tripinfo id="mixed.34" depart="54.00" departLane="beg_0" departPos="5.10" departSpeed="0.00" departDelay="20.00" arrival="245.00" arrivalLane="end_1" arrivalPos="200.00" arrivalSpeed="10.60" duration="191.00" routeLength="494.90" waitSteps="126" timeLoss="146.31" rerouteNo="0" devices="tripinfo_mixed.34" vType="car" vaporized=""/>
    <tripinfo id="mixed.37" depart="57.00" departLane="beg_1" departPos="2.20" departSpeed="0.00" departDelay="20.00" arrival="247.00" arrivalLane="end_1" arrivalPos="200.00" arrivalSpeed="12.22" duration="190.00" routeLength="497.80" waitSteps="125" timeLoss="159.64" rerouteNo="0" devices="tripinfo_mixed.37" vType="moped" vaporized=""/>
    <tripinfo id="mixed.56" depart="90.00" departLane="beg_1" departPos="5.10" departSpeed="0.00" departDelay="34.00" arrival="247.00" arrivalLane="end_1" arrivalPos="200.00" arrivalSpeed="14.56" duration="157.00" routeLength="494.90" waitSteps="97" timeLoss="123.19" rerouteNo="0" devices="tripinfo_mixed.56" vType="car" vaporized=""/>
    <tripinfo id="mixed.16" depart="24.00" departLane="beg_1" departPos="2.20" departSpeed="0.00" departDelay="8.00" arrival="248.00" arrivalLane="end_0" arrivalPos="200.00" arrivalSpeed="7.37" duration="224.00" routeLength="497.80" waitSteps="133" timeLoss="159.18" rerouteNo="0" devices="tripinfo_mixed.16" vType="moped" vaporized=""/>
    <tripinfo id="mixed.38" depart="59.00" departLane="beg_1" departPos="2.20" departSpeed="0.00" departDelay="21.00" arrival="248.00" arrivalLane="end_0" arrivalPos="200.00" arrivalSpeed="12.24" duration="189.00" routeLength="497.80" waitSteps="124" timeLoss="158.97" rerouteNo="0" devices="tripinfo_mixed.38" vType="moped" vaporized=""/>
    <tripinfo id="mixed.61" depart="99.00" departLane="beg_1" departPos="2.20" departSpeed="0.00" departDelay="38.00" arrival="249.00" arrivalLane="end_1" arrivalPos="200.00" arrivalSpeed="15.58" duration="150.00" routeLength="497.80" waitSteps="81" timeLoss="119.39" rerouteNo="0" devices="tripinfo_mixed.61" vType="moped" vaporized=""/>
    <tripinfo id="mixed.39" depart="60.00" departLane="beg_0" departPos="2.20" departSpeed="0.00" departDelay="21.00" arrival="250.00" arrivalLane="end_0" arrivalPos="200.00" arrivalSpeed="12.35" duration="190.00" routeLength="497.80" waitSteps="124" timeLoss="159.38" rerouteNo="0" devices="tripinfo_mixed.39" vType="moped" vaporized=""/>
    <tripinfo id="mixed.58" depart="94.00" departLane="beg_0" departPos="5.10" departSpeed="0.00" departDelay="36.00" arrival="251.00" arrivalLane="end_1" arrivalPos="200.00" arrivalSpeed="15.32" duration="157.00" routeLength="494.90" waitSteps="96" timeLoss="125.80" rerouteNo="0" devices="tripinfo_mixed.58" vType="car" vaporized=""/>
    <tripinfo id="mixed.48" depart="73.00" departLane="beg_1" departPos="2.20" departSpeed="0.00" departDelay="25.00" arrival="251.00" arrivalLane="end_1" arrivalPos="200.00" arrivalSpeed="12.22" duration="178.00" routeLength="497.80" waitSteps="103" timeLoss="139.99" rerouteNo="0" devices="tripinfo_mixed.48" vType="moped" vaporized=""/>
    <tripinfo id="mixed.1" depart="1.00" departLane="beg_1" departPos="2.20" departSpeed="0.00" departDelay="0.00" arrival="253.00" arrivalLane="end_0" arrivalPos="200.00" arrivalSpeed="4.46" duration="252.00" routeLength="497.80" waitSteps="139" timeLoss="151.28" rerouteNo="0" devices="tripinfo_mixed.1" vType="moped" vaporized=""/>
    <tripinfo id="mixed.49" depart="74.00" departLane="beg_0" departPos="2.20" departSpeed="0.00" departDelay="25.00" arrival="253.00" arrivalLane="end_0" arrivalPos="200.00" arrivalSpeed="11.26" duration="179.00" routeLength="497.80" waitSteps="100" timeLoss="135.52" rerouteNo="0" devices="tripinfo_mixed.49" vType="moped" vaporized=""/>
    <tripinfo id="mixed.64" depart="104.00" departLane="beg_1" departPos="5.10" departSpeed="0.00" departDelay="40.00" arrival="253.00" arrivalLane="end_1" arrivalPos="200.00" arrivalSpeed="13.69" duration="149.00" routeLength="494.90" waitSteps="88" timeLoss="113.58" rerouteNo="0" devices="tripinfo_mixed.64" vType="car" vaporized=""/>
    <tripinfo id="mixed.51" depart="77.00" departLane="beg_0" departPos="2.20" departSpeed="0.00" departDelay="26.00" arrival="255.00" arrivalLane="end_1" arrivalPos="200.00" arrivalSpeed="10.78" duration="178.00" routeLength="497.80" waitSteps="91" timeLoss="131.81" rerouteNo="0" devices="tripinfo_mixed.51" vType="moped" vaporized=""/>
    <tripinfo id="mixed.71" depart="115.00" departLane="beg_0" departPos="5.10" departSpeed="0.00" departDelay="44.00" arrival="255.00" arrivalLane="end_1" arrivalPos="200.00" arrivalSpeed="16.69" duration="140.00" routeLength="494.90" waitSteps="82" timeLoss="111.61" rerouteNo="0" devices="tripinfo_mixed.71" vType="car" vaporized=""/>
    <tripinfo id="mixed.27" depart="43.00" departLane="beg_0" departPos="2.20" departSpeed="0.00" departDelay="16.00" arrival="256.00" arrivalLane="end_0" arrivalPos="200.00" arrivalSpeed="10.01" duration="213.00" routeLength="497.80" waitSteps="131" timeLoss="165.32" rerouteNo="0" devices="tripinfo_mixed.27" vType="moped" vaporized=""/>
    <tripinfo id="mixed.77" depart="121.00" departLane="beg_1" departPos="2.20" departSpeed="0.00" departDelay="44.00" arrival="257.00" arrivalLane="end_1" arrivalPos="200.00" arrivalSpeed="16.34" duration="136.00" routeLength="497.80" waitSteps="77" timeLoss="105.16" rerouteNo="0" devices="tripinfo_mixed.77" vType="moped" vaporized=""/>
    <tripinfo id="mixed.30" depart="49.00" departLane="beg_0" departPos="2.20" departSpeed="0.00" departDelay="19.00" arrival="257.00" arrivalLane="end_1" arrivalPos="200.00" arrivalSpeed="13.87" duration="208.00" routeLength="497.80" waitSteps="130" timeLoss="175.40" rerouteNo="0" devices="tripinfo_mixed.30" vType="moped" vaporized=""/>
    <tripinfo id="mixed.28" depart="46.00" departLane="beg_1" departPos="2.20" departSpeed="0.00" departDelay="18.00" arrival="259.00" arrivalLane="end_0" arrivalPos="200.00" arrivalSpeed="12.31" duration="213.00" routeLength="497.80" waitSteps="130" timeLoss="182.41" rerouteNo="0" devices="tripinfo_mixed.28" vType="moped" vaporized=""/>
    <tripinfo id="mixed.87" depart="137.00" departLane="beg_1" departPos="2.20" departSpeed="0.00" departDelay="50.00" arrival="259.00" arrivalLane="end_1" arrivalPos="200.00" arrivalSpeed="16.12" duration="122.00" routeLength="497.80" waitSteps="57" timeLoss="91.27" rerouteNo="0" devices="tripinfo_mixed.87" vType="moped" vaporized=""/>
    <tripinfo id="mixed.60" depart="97.00" departLane="beg_1" departPos="5.10" departSpeed="0.00" departDelay="37.00" arrival="260.00" arrivalLane="end_1" arrivalPos="200.00" arrivalSpeed="13.79" duration="163.00" routeLength="494.90" waitSteps="97" timeLoss="127.55" rerouteNo="0" devices="tripinfo_mixed.60" vType="car" vaporized=""/>
    <tripinfo id="mixed.46" depart="71.00" departLane="beg_0" departPos="2.20" departSpeed="0.00" departDelay="25.00" arrival="262.00" arrivalLane="end_1" arrivalPos="200.00" arrivalSpeed="13.89" duration="191.00" routeLength="497.80" waitSteps="106" timeLoss="160.30" rerouteNo="0" devices="tripinfo_mixed.46" vType="moped" vaporized=""/>
    <tripinfo id="mixed.2" depart="2.00" departLane="beg_0" departPos="2.20" departSpeed="0.00" departDelay="0.00" arrival="263.00" arrivalLane="end_0" arrivalPos="200.00" arrivalSpeed="4.22" duration="261.00" routeLength="497.80" waitSteps="135" timeLoss="149.81" rerouteNo="0" devices="tripinfo_mixed.2" vType="moped" vaporized=""/>
    <tripinfo id="mixed.47" depart="73.00" departLane="beg_1" departPos="2.20" departSpeed="0.00" departDelay="26.00" arrival="263.00" arrivalLane="end_0" arrivalPos="200.00" arrivalSpeed="10.59" duration="190.00" routeLength="497.80" waitSteps="112" timeLoss="153.10" rerouteNo="0" devices="tripinfo_mixed.47" vType="moped" vaporized=""/>
    <tripinfo id="mixed.73" depart="117.00" departLane="beg_1" departPos="2.20" departSpeed="0.00" departDelay="44.00" arrival="263.00" arrivalLane="end_1" arrivalPos="200.00" arrivalSpeed="14.70" duration="146.00" routeLength="497.80" waitSteps="79" timeLoss="115.21" rerouteNo="0" devices="tripinfo_mixed.73" vType="moped" vaporized=""/>
    <tripinfo id="mixed.72" depart="115.00" departLane="beg_1" departPos="2.20" departSpeed="0.00" departDelay="43.00" arrival="263.00" arrivalLane="end_1" arrivalPos="200.00" arrivalSpeed="14.57" duration="148.00" routeLength="497.80" waitSteps="76" timeLoss="117.97" rerouteNo="0" devices="tripinfo_mixed.72" vType="moped" vaporized=""/>
    <tripinfo id="mixed.50" depart="77.00" departLane="beg_1" departPos="2.20" departSpeed="0.00" departDelay="27.00" arrival="265.00" arrivalLane="end_0" arrivalPos="200.00" arrivalSpeed="8.59" duration="188.00" routeLength="497.80" waitSteps="100" timeLoss="130.08" rerouteNo="0" devices="tripinfo_mixed.50" vType="moped" vaporized=""/>
    <tripinfo id="mixed.21" depart="35.00" departLane="beg_1" departPos="5.10" departSpeed="0.00" departDelay="14.00" arrival="265.00" arrivalLane="end_0" arrivalPos="200.00" arrivalSpeed="8.14" duration="230.00" routeLength="494.90" waitSteps="131" timeLoss="184.15" rerouteNo="0" devices="tripinfo_mixed.21" vType="car" vaporized=""/>
    <tripinfo id="mixed.79" depart="127.00" departLane="beg_1" departPos="5.10" departSpeed="0.00" departDelay="48.00" arrival="266.00" arrivalLane="end_1" arrivalPos="200.00" arrivalSpeed="12.84" duration="139.00" routeLength="494.90" waitSteps="74" timeLoss="100.74" rerouteNo="0" devices="tripinfo_mixed.79" vType="car" vaporized=""/>
    <tripinfo id="mixed.54" depart="86.00" departLane="beg_0" departPos="5.10" departSpeed="0.00" departDelay="32.00" arrival="267.00" arrivalLane="end_0" arrivalPos="200.00" arrivalSpeed="12.49" duration="181.00" routeLength="494.90" waitSteps="92" timeLoss="148.01" rerouteNo="0" devices="tripinfo_mixed.54" vType="car" vaporized=""/>
    <tripinfo id="mixed.31" depart="49.00" departLane="beg_0" departPos="2.20" departSpeed="0.00" departDelay="18.00" arrival="267.00" arrivalLane="end_0" arrivalPos="200.00" arrivalSpeed="6.93" duration="218.00" routeLength="497.80" waitSteps="130" timeLoss="187.82" rerouteNo="0" devices="tripinfo_mixed.31" vType="moped" vaporized=""/>
    <tripinfo id="mixed.88" depart="139.00" departLane="beg_0" departPos="5.10" departSpeed="0.00" departDelay="51.00" arrival="267.00" arrivalLane="end_1" arrivalPos="200.00" arrivalSpeed="12.52" duration="128.00" routeLength="494.90" waitSteps="57" timeLoss="91.54" rerouteNo="0" devices="tripinfo_mixed.88" vType="car" vaporized=""/>
    <tripinfo id="mixed.36" depart="56.00" departLane="beg_0" departPos="2.20" departSpeed="0.00" departDelay="20.00" arrival="269.00" arrivalLane="end_0" arrivalPos="200.00" arrivalSpeed="6.71" duration="213.00" routeLength="497.80" waitSteps="116" timeLoss="141.69" rerouteNo="0" devices="tripinfo_mixed.36" vType="moped" vaporized=""/>
    <tripinfo id="mixed.63" depart="99.00" departLane="beg_0" departPos="2.20" departSpeed="0.00" departDelay="36.00" arrival="269.00" arrivalLane="end_0" arrivalPos="200.00" arrivalSpeed="10.73" duration="170.00" routeLength="497.80" waitSteps="90" timeLoss="130.28" rerouteNo="0" devices="tripinfo_mixed.63" vType="moped" vaporized=""/>
    <tripinfo id="mixed.67" depart="108.00" departLane="beg_1" departPos="2.20" departSpeed="0.00" departDelay="41.00" arrival="269.00" arrivalLane="end_1" arrivalPos="200.00" arrivalSpeed="12.31" duration="161.00" routeLength="497.80" waitSteps="82" timeLoss="130.63" rerouteNo="0" devices="tripinfo_mixed.67" vType="moped" vaporized=""/>
    <tripinfo id="mixed.96" depart="154.00" departLane="beg_1" departPos="5.10" departSpeed="0.00" departDelay="58.00" arrival="269.00" arrivalLane="end_1" arrivalPos="200.00" arrivalSpeed="16.29" duration="115.00" routeLength="494.90" waitSteps="50" timeLoss="85.45" rerouteNo="0" devices="tripinfo_mixed.96" vType="car" vaporized=""/>
    <tripinfo id="mixed.53" depart="82.00" departLane="beg_1" departPos="2.20" departSpeed="0.00" departDelay="29.00" arrival="271.00" arrivalLane="end_0" arrivalPos="200.00" arrivalSpeed="9.60" duration="189.00" routeLength="497.80" waitSteps="99" timeLoss="137.62" rerouteNo="0" devices="tripinfo_mixed.53" vType="moped" vaporized=""/>
    <tripinfo id="mixed.59" depart="96.00" departLane="beg_1" departPos="2.20" departSpeed="0.00" departDelay="37.00" arrival="271.00" arrivalLane="end_0" arrivalPos="200.00" arrivalSpeed="7.68" duration="175.00" routeLength="497.80" waitSteps="83" timeLoss="113.33" rerouteNo="0" devices="tripinfo_mixed.59" vType="moped" vaporized=""/>
    <tripinfo id="mixed.84" depart="132.00" departLane="beg_0" departPos="5.10" departSpeed="0.00" departDelay="48.00" arrival="271.00" arrivalLane="end_1" arrivalPos="200.00" arrivalSpeed="15.83" duration="139.00" routeLength="494.90" waitSteps="72" timeLoss="108.08" rerouteNo="0" devices="tripinfo_mixed.84" vType="car" vaporized=""/>
    <tripinfo id="mixed.42" depart="63.00" departLane="beg_0" departPos="2.20" departSpeed="0.00" departDelay="21.00" arrival="274.00" arrivalLane="end_0" arrivalPos="200.00" arrivalSpeed="7.95" duration="211.00" routeLength="497.80" waitSteps="112" timeLoss="149.95" rerouteNo="0" devices="tripinfo_mixed.42" vType="moped" vaporized=""/>
    <tripinfo id="mixed.75" depart="118.00" departLane="beg_0" departPos="5.10" departSpeed="0.00" departDelay="43.00" arrival="274.00" arrivalLane="end_1" arrivalPos="200.00" arrivalSpeed="11.42" duration="156.00" routeLength="494.90" waitSteps="69" timeLoss="115.33" rerouteNo="0" devices="tripinfo_mixed.75" vType="car" vaporized=""/>
    <tripinfo id="mixed.92" depart="147.00" departLane="beg_1" departPos="5.10" departSpeed="0.00" departDelay="55.00" arrival="275.00" arrivalLane="end_1" arrivalPos="200.00" arrivalSpeed="13.95" duration="128.00" routeLength="494.90" waitSteps="55" timeLoss="93.58" rerouteNo="0" devices="tripinfo_mixed.92" vType="car" vaporized=""/>
    <tripinfo id="mixed.70" depart="112.00" departLane="beg_1" departPos="5.10" departSpeed="0.00" departDelay="42.00" arrival="276.00" arrivalLane="end_1" arrivalPos="200.00" arrivalSpeed="10.74" duration="164.00" routeLength="494.90" waitSteps="79" timeLoss="119.15" rerouteNo="0" devices="tripinfo_mixed.70" vType="car" vaporized=""/>
    <tripinfo id="mixed.74" depart="117.00" departLane="beg_1" departPos="2.20" departSpeed="0.00" departDelay="43.00" arrival="277.00" arrivalLane="end_0" arrivalPos="200.00" arrivalSpeed="9.39" duration="160.00" routeLength="497.80" waitSteps="76" timeLoss="119.04" rerouteNo="0" devices="tripinfo_mixed.74" vType="moped" vaporized=""/>
    <tripinfo id="mixed.81" depart="130.00" departLane="beg_1" departPos="5.10" departSpeed="0.00" departDelay="49.00" arrival="277.00" arrivalLane="end_1" arrivalPos="200.00" arrivalSpeed="10.10" duration="147.00" routeLength="494.90" waitSteps="72" timeLoss="121.43" rerouteNo="0" devices="tripinfo_mixed.81" vType="car" vaporized=""/>
    <tripinfo id="mixed.29" depart="46.00" departLane="beg_1" departPos="2.20" departSpeed="0.00" departDelay="17.00" arrival="278.00" arrivalLane="end_0" arrivalPos="200.00" arrivalSpeed="4.47" duration="232.00" routeLength="497.80" waitSteps="113" timeLoss="126.29" rerouteNo="0" devices="tripinfo_mixed.29" vType="moped" vaporized=""/>
    <tripinfo id="mixed.86" depart="135.00" departLane="beg_0" departPos="2.20" departSpeed="0.00" departDelay="49.00" arrival="278.00" arrivalLane="end_1" arrivalPos="200.00" arrivalSpeed="14.37" duration="143.00" routeLength="497.80" waitSteps="66" timeLoss="112.23" rerouteNo="0" devices="tripinfo_mixed.86" vType="moped" vaporized=""/>
    <tripinfo id="mixed.65" depart="104.00" departLane="beg_0" departPos="2.20" departSpeed="0.00" departDelay="39.00" arrival="279.00" arrivalLane="end_0" arrivalPos="200.00" arrivalSpeed="10.32" duration="175.00" routeLength="497.80" waitSteps="82" timeLoss="127.82" rerouteNo="0" devices="tripinfo_mixed.65" vType="moped" vaporized=""/>
    <tripinfo id="mixed.94" depart="150.00" departLane="beg_1" departPos="2.20" departSpeed="0.00" departDelay="56.00" arrival="279.00" arrivalLane="end_1" arrivalPos="200.00" arrivalSpeed="14.93" duration="129.00" routeLength="497.80" waitSteps="50" timeLoss="96.68" rerouteNo="0" devices="tripinfo_mixed.94" vType="moped" vaporized=""/>
    <tripinfo id="mixed.62" depart="99.00" departLane="beg_0" departPos="2.20" departSpeed="0.00" departDelay="37.00" arrival="280.00" arrivalLane="end_0" arrivalPos="200.00" arrivalSpeed="6.78" duration="181.00" routeLength="497.80" waitSteps="85" timeLoss="140.93" rerouteNo="0" devices="tripinfo_mixed.62" vType="moped" vaporized=""/>
    <tripinfo id="mixed.69" depart="112.00" departLane="beg_0" departPos="5.10" departSpeed="0.00" departDelay="43.00" arrival="280.00" arrivalLane="end_1" arrivalPos="200.00" arrivalSpeed="9.92" duration="168.00" routeLength="494.90" waitSteps="71" timeLoss="117.86" rerouteNo="0" devices="tripinfo_mixed.69" vType="car" vaporized=""/>
    <tripinfo id="mixed.68" depart="109.00" departLane="beg_0" departPos="2.20" departSpeed="0.00" departDelay="41.00" arrival="281.00" arrivalLane="end_0" arrivalPos="200.00" arrivalSpeed="9.20" duration="172.00" routeLength="497.80" waitSteps="79" timeLoss="141.81" rerouteNo="0" devices="tripinfo_mixed.68" vType="moped" vaporized=""/>
    <tripinfo id="mixed.57" depart="91.00" departLane="beg_0" departPos="2.20" departSpeed="0.00" departDelay="34.00" arrival="282.00" arrivalLane="end_0" arrivalPos="200.00" arrivalSpeed="7.44" duration="191.00" routeLength="497.80" waitSteps="85" timeLoss="136.99" rerouteNo="0" devices="tripinfo_mixed.57" vType="moped" vaporized=""/>
    <tripinfo id="mixed.78" depart="125.00" departLane="beg_0" departPos="5.10" departSpeed="0.00" departDelay="47.00" arrival="283.00" arrivalLane="end_0" arrivalPos="200.00" arrivalSpeed="11.92" duration="158.00" routeLength="494.90" waitSteps="67" timeLoss="123.99" rerouteNo="0" devices="tripinfo_mixed.78" vType="car" vaporized=""/>
    <tripinfo id="mixed.80" depart="127.00" departLane="beg_0" departPos="2.20" departSpeed="0.00" departDelay="47.00" arrival="284.00" arrivalLane="end_0" arrivalPos="200.00" arrivalSpeed="8.14" duration="157.00" routeLength="497.80" waitSteps="67" timeLoss="126.55" rerouteNo="0" devices="tripinfo_mixed.80" vType="moped" vaporized=""/>