<?xml version="1.0" encoding="UTF-8"?>

<!-- generated on Thu Mar 30 15:43:30 2017 by SUMO Version dev-SVN-r23727
<?xml version="1.0" encoding="UTF-8"?>

<configuration xmlns:xsi="http://www.w3.org/2001/XMLSchema-instance" xsi:noNamespaceSchemaLocation="http://sumo.dlr.de/xsd/sumoConfiguration.xsd">

    <input>
        <net-file value="net.net.xml"/>
        <route-files value="input_routes.rou.xml"/>
    </input>

    <output>
        <tripinfo-output value="tripinfos.xml"/>
    </output>

    <processing>
        <lateral-resolution value="0.64"/>
    </processing>

    <report>
        <xml-validation value="never"/>
        <no-step-log value="true"/>
    </report>

</configuration>
-->

<tripinfos xmlns:xsi="http://www.w3.org/2001/XMLSchema-instance" xsi:noNamespaceSchemaLocation="http://sumo.dlr.de/xsd/tripinfo_file.xsd">
    <tripinfo id="mixed.2" depart="4.00" departLane="beg_1" departPos="5.10" departPosLat="0.53" departSpeed="0.00" departDelay="2.00" arrival="218.00" arrivalLane="end_0" arrivalPos="200.00" arrivalPosLat="-0.70" arrivalSpeed="13.48" duration="214.00" routeLength="494.90" waitSteps="168" timeLoss="177.48" rerouteNo="0" devices="tripinfo_mixed.2" vType="car" speedFactor="0.99" vaporized=""/>
    <tripinfo id="mixed.5" depart="9.00" departLane="beg_0" departPos="5.10" departPosLat="-0.61" departSpeed="0.00" departDelay="4.00" arrival="220.00" arrivalLane="end_0" arrivalPos="200.00" arrivalPosLat="0.58" arrivalSpeed="10.57" duration="211.00" routeLength="494.90" waitSteps="157" timeLoss="167.54" rerouteNo="0" devices="tripinfo_mixed.5" vType="car" speedFactor="0.82" vaporized=""/>
    <tripinfo id="mixed.1" depart="1.00" departLane="beg_1" departPos="2.20" departPosLat="0.22" departSpeed="0.00" departDelay="0.00" arrival="222.00" arrivalLane="end_0" arrivalPos="200.00" arrivalPosLat="-1.20" arrivalSpeed="13.62" duration="221.00" routeLength="497.80" waitSteps="166" timeLoss="184.22" rerouteNo="0" devices="tripinfo_mixed.1" vType="moped" speedFactor="0.99" vaporized=""/>
    <tripinfo id="mixed.10" depart="12.00" departLane="beg_0" departPos="2.20" departPosLat="-0.90" departSpeed="0.00" departDelay="2.00" arrival="223.00" arrivalLane="end_0" arrivalPos="200.00" arrivalPosLat="0.08" arrivalSpeed="16.28" duration="211.00" routeLength="497.80" waitSteps="157" timeLoss="180.19" rerouteNo="0" devices="tripinfo_mixed.10" vType="moped" speedFactor="1.37" vaporized=""/>
    <tripinfo id="mixed.9" depart="13.00" departLane="beg_1" departPos="2.20" departPosLat="-0.17" departSpeed="0.00" departDelay="4.00" arrival="223.00" arrivalLane="end_1" arrivalPos="200.00" arrivalPosLat="1.20" arrivalSpeed="16.52" duration="210.00" routeLength="497.80" waitSteps="152" timeLoss="179.55" rerouteNo="0" devices="tripinfo_mixed.9" vType="moped" speedFactor="1.29" vaporized=""/>
    <tripinfo id="mixed.15" depart="21.00" departLane="beg_0" departPos="5.10" departPosLat="0.10" departSpeed="0.00" departDelay="6.00" arrival="225.00" arrivalLane="end_1" arrivalPos="200.00" arrivalPosLat="-0.70" arrivalSpeed="16.96" duration="204.00" routeLength="494.90" waitSteps="146" timeLoss="176.12" rerouteNo="0" devices="tripinfo_mixed.15" vType="car" speedFactor="1.31" vaporized=""/>
    <tripinfo id="mixed.0" depart="0.00" departLane="beg_0" departPos="2.20" departPosLat="0.51" departSpeed="0.00" departDelay="0.00" arrival="226.00" arrivalLane="end_0" arrivalPos="200.00" arrivalPosLat="-1.20" arrivalSpeed="12.12" duration="226.00" routeLength="497.80" waitSteps="167" timeLoss="184.19" rerouteNo="0" devices="tripinfo_mixed.0" vType="moped" speedFactor="0.88" vaporized=""/>
    <tripinfo id="mixed.4" depart="5.00" departLane="beg_0" departPos="2.20" departPosLat="0.11" departSpeed="0.00" departDelay="1.00" arrival="227.00" arrivalLane="end_0" arrivalPos="200.00" arrivalPosLat="-1.20" arrivalSpeed="12.68" duration="222.00" routeLength="497.80" waitSteps="165" timeLoss="183.83" rerouteNo="0" devices="tripinfo_mixed.4" vType="moped" speedFactor="0.95" vaporized=""/>
    <tripinfo id="mixed.22" depart="25.00" departLane="beg_0" departPos="5.10" departPosLat="0.64" departSpeed="0.00" departDelay="3.00" arrival="227.00" arrivalLane="end_1" arrivalPos="200.00" arrivalPosLat="-0.06" arrivalSpeed="15.12" duration="202.00" routeLength="494.90" waitSteps="143" timeLoss="169.72" rerouteNo="0" devices="tripinfo_mixed.22" vType="car" speedFactor="1.13" vaporized=""/>
    <tripinfo id="mixed.3" depart="7.00" departLane="beg_1" departPos="5.10" departPosLat="-0.46" departSpeed="0.00" departDelay="4.00" arrival="228.00" arrivalLane="end_0" arrivalPos="200.00" arrivalPosLat="0.64" arrivalSpeed="9.48" duration="221.00" routeLength="494.90" waitSteps="158" timeLoss="170.29" rerouteNo="0" devices="tripinfo_mixed.3" vType="car" speedFactor="0.71" vaporized=""/>
    <tripinfo id="mixed.7" depart="10.00" departLane="beg_1" departPos="2.20" departPosLat="-0.18" departSpeed="0.00" departDelay="3.00" arrival="228.00" arrivalLane="end_0" arrivalPos="200.00" arrivalPosLat="-1.20" arrivalSpeed="12.98" duration="218.00" routeLength="497.80" waitSteps="163" timeLoss="187.95" rerouteNo="0" devices="tripinfo_mixed.7" vType="moped" speedFactor="1.53" vaporized=""/>
    <tripinfo id="mixed.19" depart="28.00" departLane="beg_0" departPos="5.10" departPosLat="-0.52" departSpeed="0.00" departDelay="9.00" arrival="229.00" arrivalLane="end_1" arrivalPos="200.00" arrivalPosLat="0.70" arrivalSpeed="16.61" duration="201.00" routeLength="494.90" waitSteps="133" timeLoss="170.37" rerouteNo="0" devices="tripinfo_mixed.19" vType="car" speedFactor="1.20" vaporized=""/>
    <tripinfo id="mixed.6" depart="9.00" departLane="beg_1" departPos="2.20" departPosLat="1.18" departSpeed="0.00" departDelay="3.00" arrival="230.00" arrivalLane="end_0" arrivalPos="200.00" arrivalPosLat="0.32" arrivalSpeed="10.52" duration="221.00" routeLength="497.80" waitSteps="157" timeLoss="179.61" rerouteNo="0" devices="tripinfo_mixed.6" vType="moped" speedFactor="0.88" vaporized=""/>
    <tripinfo id="mixed.11" depart="14.00" departLane="beg_1" departPos="2.20" departPosLat="-0.80" departSpeed="0.00" departDelay="3.00" arrival="230.00" arrivalLane="end_0" arrivalPos="200.00" arrivalPosLat="-1.20" arrivalSpeed="12.81" duration="216.00" routeLength="497.80" waitSteps="160" timeLoss="178.10" rerouteNo="0" devices="tripinfo_mixed.11" vType="moped" speedFactor="0.96" vaporized=""/>
    <tripinfo id="mixed.20" depart="21.00" departLane="beg_1" departPos="2.20" departPosLat="-1.16" departSpeed="0.00" departDelay="1.00" arrival="230.00" arrivalLane="end_1" arrivalPos="200.00" arrivalPosLat="-1.36" arrivalSpeed="10.93" duration="209.00" routeLength="497.80" waitSteps="151" timeLoss="178.70" rerouteNo="0" devices="tripinfo_mixed.20" vType="moped" speedFactor="1.23" vaporized=""/>
    <tripinfo id="mixed.33" depart="43.00" departLane="beg_1" departPos="2.20" departPosLat="-0.27" departSpeed="0.00" departDelay="10.00" arrival="230.00" arrivalLane="end_1" arrivalPos="200.00" arrivalPosLat="1.20" arrivalSpeed="16.51" duration="187.00" routeLength="497.80" waitSteps="124" timeLoss="156.65" rerouteNo="0" devices="tripinfo_mixed.33" vType="moped" speedFactor="1.31" vaporized=""/>
    <tripinfo id="mixed.28" depart="41.00" departLane="beg_0" departPos="2.20" departPosLat="0.42" departSpeed="0.00" departDelay="13.00" arrival="230.00" arrivalLane="end_1" arrivalPos="200.00" arrivalPosLat="-0.56" arrivalSpeed="16.28" duration="189.00" routeLength="497.80" waitSteps="131" timeLoss="158.66" rerouteNo="0" devices="tripinfo_mixed.28" vType="moped" speedFactor="1.22" vaporized=""/>
    <tripinfo id="mixed.17" depart="20.00" departLane="beg_1" departPos="2.20" departPosLat="1.01" departSpeed="0.00" departDelay="3.00" arrival="231.00" arrivalLane="end_0" arrivalPos="200.00" arrivalPosLat="0.64" arrivalSpeed="10.70" duration="211.00" routeLength="497.80" waitSteps="155" timeLoss="181.01" rerouteNo="0" devices="tripinfo_mixed.17" vType="moped" speedFactor="1.91" vaporized=""/>
    <tripinfo id="mixed.12" depart="16.00" departLane="beg_0" departPos="2.20" departPosLat="-0.66" departSpeed="0.00" departDelay="4.00" arrival="231.00" arrivalLane="end_0" arrivalPos="200.00" arrivalPosLat="-1.20" arrivalSpeed="14.12" duration="215.00" routeLength="497.80" waitSteps="159" timeLoss="183.52" rerouteNo="0" devices="tripinfo_mixed.12" vType="moped" speedFactor="1.15" vaporized=""/>
    <tripinfo id="mixed.23" depart="28.00" departLane="beg_1" departPos="2.20" departPosLat="1.18" departSpeed="0.00" departDelay="5.00" arrival="231.00" arrivalLane="end_1" arrivalPos="200.00" arrivalPosLat="-0.60" arrivalSpeed="10.62" duration="203.00" routeLength="497.80" waitSteps="145" timeLoss="173.05" rerouteNo="0" devices="tripinfo_mixed.23" vType="moped" speedFactor="1.31" vaporized=""/>
    <tripinfo id="mixed.21" depart="32.00" departLane="beg_1" departPos="5.10" departPosLat="0.53" departSpeed="0.00" departDelay="11.00" arrival="233.00" arrivalLane="end_0" arrivalPos="200.00" arrivalPosLat="0.58" arrivalSpeed="13.23" duration="201.00" routeLength="494.90" waitSteps="144" timeLoss="171.54" rerouteNo="0" devices="tripinfo_mixed.21" vType="car" speedFactor="1.23" vaporized=""/>
    <tripinfo id="mixed.30" depart="38.00" departLane="beg_0" departPos="2.20" departPosLat="-0.89" departSpeed="0.00" departDelay="8.00" arrival="233.00" arrivalLane="end_1" arrivalPos="200.00" arrivalPosLat="-1.20" arrivalSpeed="13.40" duration="195.00" routeLength="497.80" waitSteps="122" timeLoss="157.37" rerouteNo="0" devices="tripinfo_mixed.30" vType="moped" speedFactor="0.97" vaporized=""/>
    <tripinfo id="mixed.24" depart="34.00" departLane="beg_0" departPos="2.20" departPosLat="0.28" departSpeed="0.00" departDelay="10.00" arrival="233.00" arrivalLane="end_1" arrivalPos="200.00" arrivalPosLat="1.08" arrivalSpeed="15.43" duration="199.00" routeLength="497.80" waitSteps="133" timeLoss="166.43" rerouteNo="0" devices="tripinfo_mixed.24" vType="moped" speedFactor="1.12" vaporized=""/>
    <tripinfo id="mixed.13" depart="17.00" departLane="beg_1" departPos="2.20" departPosLat="0.40" departSpeed="0.00" departDelay="4.00" arrival="234.00" arrivalLane="end_0" arrivalPos="200.00" arrivalPosLat="-1.20" arrivalSpeed="12.48" duration="217.00" routeLength="497.80" waitSteps="157" timeLoss="176.69" rerouteNo="0" devices="tripinfo_mixed.13" vType="moped" speedFactor="0.91" vaporized=""/>
    <tripinfo id="mixed.26" depart="36.00" departLane="beg_1" departPos="2.20" departPosLat="0.20" departSpeed="0.00" departDelay="10.00" arrival="234.00" arrivalLane="end_1" arrivalPos="200.00" arrivalPosLat="-0.82" arrivalSpeed="12.83" duration="198.00" routeLength="497.80" waitSteps="140" timeLoss="164.56" rerouteNo="0" devices="tripinfo_mixed.26" vType="moped" speedFactor="1.08" vaporized=""/>
    <tripinfo id="mixed.14" depart="18.00" departLane="beg_0" departPos="5.10" departPosLat="0.58" departSpeed="0.00" departDelay="4.00" arrival="236.00" arrivalLane="end_0" arrivalPos="200.00" arrivalPosLat="-0.70" arrivalSpeed="12.05" duration="218.00" routeLength="494.90" waitSteps="151" timeLoss="177.54" rerouteNo="0" devices="tripinfo_mixed.14" vType="car" speedFactor="0.89" vaporized=""/>
    <tripinfo id="mixed.27" depart="31.00" departLane="beg_0" departPos="2.20" departPosLat="0.17" departSpeed="0.00" departDelay="4.00" arrival="238.00" arrivalLane="end_0" arrivalPos="200.00" arrivalPosLat="0.72" arrivalSpeed="9.24" duration="207.00" routeLength="497.80" waitSteps="130" timeLoss="154.24" rerouteNo="0" devices="tripinfo_mixed.27" vType="moped" speedFactor="0.69" vaporized=""/>
    <tripinfo id="mixed.37" depart="50.00" departLane="beg_1" departPos="2.20" departPosLat="-0.09" departSpeed="0.00" departDelay="13.00" arrival="240.00" arrivalLane="end_1" arrivalPos="200.00" arrivalPosLat="-0.72" arrivalSpeed="12.62" duration="190.00" routeLength="497.80" waitSteps="125" timeLoss="150.52" rerouteNo="0" devices="tripinfo_mixed.37" vType="moped" speedFactor="0.92" vaporized=""/>
    <tripinfo id="mixed.34" depart="44.00" departLane="beg_0" departPos="2.20" departPosLat="0.81" departSpeed="0.00" departDelay="10.00" arrival="242.00" arrivalLane="end_0" arrivalPos="200.00" arrivalPosLat="-1.20" arrivalSpeed="9.62" duration="198.00" routeLength="497.80" waitSteps="122" timeLoss="145.31" rerouteNo="0" devices="tripinfo_mixed.34" vType="moped" speedFactor="0.69" vaporized=""/>
    <tripinfo id="mixed.31" depart="48.00" departLane="beg_1" departPos="5.10" departPosLat="0.55" departSpeed="0.00" departDelay="17.00" arrival="242.00" arrivalLane="end_1" arrivalPos="200.00" arrivalPosLat="0.70" arrivalSpeed="9.45" duration="194.00" routeLength="494.90" waitSteps="125" timeLoss="143.00" rerouteNo="0" devices="tripinfo_mixed.31" vType="car" speedFactor="0.71" vaporized=""/>
    <tripinfo id="mixed.18" depart="25.00" departLane="beg_1" departPos="2.20" departPosLat="-0.94" departSpeed="0.00" departDelay="7.00" arrival="243.00" arrivalLane="end_0" arrivalPos="200.00" arrivalPosLat="0.65" arrivalSpeed="7.74" duration="218.00" routeLength="497.80" waitSteps="140" timeLoss="156.50" rerouteNo="0" devices="tripinfo_mixed.18" vType="moped" speedFactor="0.59" vaporized=""/>
    <tripinfo id="mixed.47" depart="66.00" departLane="beg_1" departPos="2.20" departPosLat="0.89" departSpeed="0.00" departDelay="19.00" arrival="243.00" arrivalLane="end_1" arrivalPos="200.00" arrivalPosLat="1.20" arrivalSpeed="10.31" duration="177.00" routeLength="497.80" waitSteps="109" timeLoss="143.28" rerouteNo="0" devices="tripinfo_mixed.47" vType="moped" speedFactor="1.07" vaporized=""/>
    <tripinfo id="mixed.36" depart="55.00" departLane="beg_0" departPos="5.10" departPosLat="-0.16" departSpeed="0.00" departDelay="19.00" arrival="243.00" arrivalLane="end_1" arrivalPos="200.00" arrivalPosLat="-0.64" arrivalSpeed="11.70" duration="188.00" routeLength="494.90" waitSteps="124" timeLoss="147.41" rerouteNo="0" devices="tripinfo_mixed.36" vType="car" speedFactor="0.88" vaporized=""/>
    <tripinfo id="mixed.29" depart="39.00" departLane="beg_1" departPos="2.20" departPosLat="-0.34" departSpeed="0.00" departDelay="10.00" arrival="244.00" arrivalLane="end_0" arrivalPos="200.00" arrivalPosLat="0.66" arrivalSpeed="8.90" duration="205.00" routeLength="497.80" waitSteps="125" timeLoss="155.05" rerouteNo="0" devices="tripinfo_mixed.29" vType="moped" speedFactor="0.72" vaporized=""/>
    <tripinfo id="mixed.51" depart="69.00" departLane="beg_1" departPos="2.20" departPosLat="-0.67" departSpeed="0.00" departDelay="18.00" arrival="245.00" arrivalLane="end_1" arrivalPos="200.00" arrivalPosLat="1.20" arrivalSpeed="10.94" duration="176.00" routeLength="497.80" waitSteps="109" timeLoss="145.62" rerouteNo="0" devices="tripinfo_mixed.51" vType="moped" speedFactor="1.89" vaporized=""/>
    <tripinfo id="mixed.38" depart="62.00" departLane="beg_1" departPos="5.10" departPosLat="0.66" departSpeed="0.00" departDelay="24.00" arrival="245.00" arrivalLane="end_1" arrivalPos="200.00" arrivalPosLat="-0.70" arrivalSpeed="13.32" duration="183.00" routeLength="494.90" waitSteps="123" timeLoss="152.93" rerouteNo="0" devices="tripinfo_mixed.38" vType="car" speedFactor="1.20" vaporized=""/>
    <tripinfo id="mixed.25" depart="48.00" departLane="beg_0" departPos="5.10" departPosLat="-0.06" departSpeed="0.00" departDelay="23.00" arrival="246.00" arrivalLane="end_0" arrivalPos="200.00" arrivalPosLat="-0.70" arrivalSpeed="11.80" duration="198.00" routeLength="494.90" waitSteps="118" timeLoss="161.12" rerouteNo="0" devices="tripinfo_mixed.25" vType="car" speedFactor="0.99" vaporized=""/>
    <tripinfo id="mixed.43" depart="62.00" departLane="beg_1" departPos="2.20" departPosLat="-1.17" departSpeed="0.00" departDelay="19.00" arrival="247.00" arrivalLane="end_1" arrivalPos="200.00" arrivalPosLat="-1.51" arrivalSpeed="11.67" duration="185.00" routeLength="497.80" waitSteps="118" timeLoss="145.11" rerouteNo="0" devices="tripinfo_mixed.43" vType="moped" speedFactor="0.91" vaporized=""/>
    <tripinfo id="mixed.53" depart="78.00" departLane="beg_1" departPos="5.10" departPosLat="0.57" departSpeed="0.00" departDelay="25.00" arrival="247.00" arrivalLane="end_1" arrivalPos="200.00" arrivalPosLat="0.70" arrivalSpeed="15.41" duration="169.00" routeLength="494.90" waitSteps="108" timeLoss="137.63" rerouteNo="0" devices="tripinfo_mixed.53" vType="car" speedFactor="1.16" vaporized=""/>
    <tripinfo id="mixed.39" depart="50.00" departLane="beg_1" departPos="2.20" departPosLat="0.88" departSpeed="0.00" departDelay="11.00" arrival="248.00" arrivalLane="end_0" arrivalPos="200.00" arrivalPosLat="-1.20" arrivalSpeed="8.06" duration="198.00" routeLength="497.80" waitSteps="118" timeLoss="139.71" rerouteNo="0" devices="tripinfo_mixed.39" vType="moped" speedFactor="0.62" vaporized=""/>
    <tripinfo id="mixed.46" depart="59.00" departLane="beg_1" departPos="2.20" departPosLat="0.25" departSpeed="0.00" departDelay="13.00" arrival="248.00" arrivalLane="end_0" arrivalPos="200.00" arrivalPosLat="0.91" arrivalSpeed="12.49" duration="189.00" routeLength="497.80" waitSteps="117" timeLoss="158.93" rerouteNo="0" devices="tripinfo_mixed.46" vType="moped" speedFactor="1.70" vaporized=""/>
    <tripinfo id="mixed.50" depart="73.00" departLane="beg_1" departPos="2.20" departPosLat="0.55" departSpeed="0.00" departDelay="23.00" arrival="249.00" arrivalLane="end_1" arrivalPos="200.00" arrivalPosLat="-0.43" arrivalSpeed="12.19" duration="176.00" routeLength="497.80" waitSteps="114" timeLoss="145.37" rerouteNo="0" devices="tripinfo_mixed.50" vType="moped" speedFactor="1.36" vaporized=""/>
    <tripinfo id="mixed.59" depart="82.00" departLane="beg_1" departPos="2.20" departPosLat="0.73" departSpeed="0.00" departDelay="23.00" arrival="249.00" arrivalLane="end_1" arrivalPos="200.00" arrivalPosLat="1.20" arrivalSpeed="13.25" duration="167.00" routeLength="497.80" waitSteps="103" timeLoss="132.13" rerouteNo="0" devices="tripinfo_mixed.59" vType="moped" speedFactor="1.05" vaporized=""/>
    <tripinfo id="mixed.48" depart="66.00" departLane="beg_0" departPos="2.20" departPosLat="-0.34" departSpeed="0.00" departDelay="18.00" arrival="250.00" arrivalLane="end_0" arrivalPos="200.00" arrivalPosLat="0.64" arrivalSpeed="12.84" duration="184.00" routeLength="497.80" waitSteps="111" timeLoss="153.48" rerouteNo="0" devices="tripinfo_mixed.48" vType="moped" speedFactor="1.38" vaporized=""/>
    <tripinfo id="mixed.63" depart="85.00" departLane="beg_1" departPos="2.20" departPosLat="1.09" departSpeed="0.00" departDelay="22.00" arrival="250.00" arrivalLane="end_1" arrivalPos="200.00" arrivalPosLat="-0.37" arrivalSpeed="12.16" duration="165.00" routeLength="497.80" waitSteps="103" timeLoss="129.36" rerouteNo="0" devices="tripinfo_mixed.63" vType="moped" speedFactor="1.02" vaporized=""/>
    <tripinfo id="mixed.58" depart="80.00" departLane="beg_1" departPos="2.20" departPosLat="0.61" departSpeed="0.00" departDelay="22.00" arrival="250.00" arrivalLane="end_1" arrivalPos="200.00" arrivalPosLat="1.20" arrivalSpeed="13.38" duration="170.00" routeLength="497.80" waitSteps="103" timeLoss="139.74" rerouteNo="0" devices="tripinfo_mixed.58" vType="moped" speedFactor="1.39" vaporized=""/>
    <tripinfo id="mixed.61" depart="89.00" departLane="beg_1" departPos="5.10" departPosLat="0.63" departSpeed="0.00" departDelay="28.00" arrival="252.00" arrivalLane="end_0" arrivalPos="200.00" arrivalPosLat="1.41" arrivalSpeed="15.48" duration="163.00" routeLength="494.90" waitSteps="102" timeLoss="130.01" rerouteNo="0" devices="tripinfo_mixed.61" vType="car" speedFactor="1.12" vaporized=""/>
    <tripinfo id="mixed.66" depart="98.00" departLane="beg_1" departPos="5.10" departPosLat="-0.52" departSpeed="0.00" departDelay="32.00" arrival="252.00" arrivalLane="end_1" arrivalPos="200.00" arrivalPosLat="0.70" arrivalSpeed="15.88" duration="154.00" routeLength="494.90" waitSteps="94" timeLoss="124.92" rerouteNo="0" devices="tripinfo_mixed.66" vType="car" speedFactor="1.25" vaporized=""/>
    <tripinfo id="mixed.16" depart="24.00" departLane="beg_1" departPos="2.20" departPosLat="1.13" departSpeed="0.00" departDelay="8.00" arrival="253.00" arrivalLane="end_0" arrivalPos="200.00" arrivalPosLat="-1.20" arrivalSpeed="6.47" duration="229.00" routeLength="497.80" waitSteps="139" timeLoss="153.03" rerouteNo="0" devices="tripinfo_mixed.16" vType="moped" speedFactor="0.48" vaporized=""/>
    <tripinfo id="mixed.49" depart="71.00" departLane="beg_0" departPos="5.10" departPosLat="-0.47" departSpeed="0.00" departDelay="22.00" arrival="253.00" arrivalLane="end_1" arrivalPos="200.00" arrivalPosLat="-1.22" arrivalSpeed="14.64" duration="182.00" routeLength="494.90" waitSteps="114" timeLoss="147.89" rerouteNo="0" devices="tripinfo_mixed.49" vType="car" speedFactor="1.05" vaporized=""/>
    <tripinfo id="mixed.45" depart="66.00" departLane="beg_1" departPos="2.20" departPosLat="-1.07" departSpeed="0.00" departDelay="21.00" arrival="254.00" arrivalLane="end_0" arrivalPos="200.00" arrivalPosLat="0.08" arrivalSpeed="7.63" duration="188.00" routeLength="497.80" waitSteps="112" timeLoss="155.55" rerouteNo="0" devices="tripinfo_mixed.45" vType="moped" speedFactor="1.12" vaporized=""/>
    <tripinfo id="mixed.72" depart="103.00" departLane="beg_1" departPos="5.10" departPosLat="-0.02" departSpeed="0.00" departDelay="31.00" arrival="254.00" arrivalLane="end_1" arrivalPos="200.00" arrivalPosLat="0.70" arrivalSpeed="17.11" duration="151.00" routeLength="494.90" waitSteps="89" timeLoss="121.29" rerouteNo="0" devices="tripinfo_mixed.72" vType="car" speedFactor="1.24" vaporized=""/>
    <tripinfo id="mixed.68" depart="104.00" departLane="beg_0" departPos="5.10" departPosLat="0.43" departSpeed="0.00" departDelay="36.00" arrival="255.00" arrivalLane="end_1" arrivalPos="200.00" arrivalPosLat="0.70" arrivalSpeed="16.09" duration="151.00" routeLength="494.90" waitSteps="87" timeLoss="121.37" rerouteNo="0" devices="tripinfo_mixed.68" vType="car" speedFactor="1.22" vaporized=""/>
    <tripinfo id="mixed.40" depart="62.00" departLane="beg_0" departPos="5.10" departPosLat="0.66" departSpeed="0.00" departDelay="22.00" arrival="255.00" arrivalLane="end_1" arrivalPos="200.00" arrivalPosLat="-1.28" arrivalSpeed="12.55" duration="193.00" routeLength="494.90" waitSteps="121" timeLoss="153.55" rerouteNo="0" devices="tripinfo_mixed.40" vType="car" speedFactor="0.91" vaporized=""/>
    <tripinfo id="mixed.41" depart="55.00" departLane="beg_1" departPos="2.20" departPosLat="-0.48" departSpeed="0.00" departDelay="14.00" arrival="256.00" arrivalLane="end_0" arrivalPos="200.00" arrivalPosLat="0.08" arrivalSpeed="8.25" duration="201.00" routeLength="497.80" waitSteps="120" timeLoss="170.62" rerouteNo="0" devices="tripinfo_mixed.41" vType="moped" speedFactor="1.44" vaporized=""/>
    <tripinfo id="mixed.32" depart="44.00" departLane="beg_0" departPos="2.20" departPosLat="-1.02" departSpeed="0.00" departDelay="12.00" arrival="256.00" arrivalLane="end_0" arrivalPos="200.00" arrivalPosLat="-1.20" arrivalSpeed="7.96" duration="212.00" routeLength="497.80" waitSteps="127" timeLoss="150.25" rerouteNo="0" devices="tripinfo_mixed.32" vType="moped" speedFactor="0.58" vaporized=""/>
    <tripinfo id="mixed.42" depart="58.00" departLane="beg_0" departPos="2.20" departPosLat="0.15" departSpeed="0.00" departDelay="16.00" arrival="257.00" arrivalLane="end_0" arrivalPos="200.00" arrivalPosLat="0.17" arrivalSpeed="8.43" duration="199.00" routeLength="497.80" waitSteps="121" timeLoss="154.45" rerouteNo="0" devices="tripinfo_mixed.42" vType="moped" speedFactor="0.81" vaporized=""/>
    <tripinfo id="mixed.79" depart="112.00" departLane="beg_1" departPos="5.10" departPosLat="-0.17" departSpeed="0.00" departDelay="33.00" arrival="258.00" arrivalLane="end_1" arrivalPos="200.00" arrivalPosLat="-1.34" arrivalSpeed="10.93" duration="146.00" routeLength="494.90" waitSteps="80" timeLoss="104.68" rerouteNo="0" devices="tripinfo_mixed.79" vType="car" speedFactor="0.88" vaporized=""/>
    <tripinfo id="mixed.80" depart="116.00" departLane="beg_0" departPos="5.10" departPosLat="-0.45" departSpeed="0.00" departDelay="36.00" arrival="259.00" arrivalLane="end_1" arrivalPos="200.00" arrivalPosLat="0.58" arrivalSpeed="14.54" duration="143.00" routeLength="494.90" waitSteps="76" timeLoss="108.19" rerouteNo="0" devices="tripinfo_mixed.80" vType="car" speedFactor="1.05" vaporized=""/>
    <tripinfo id="mixed.35" depart="51.00" departLane="beg_0" departPos="2.20" departPosLat="-0.60" departSpeed="0.00" departDelay="16.00" arrival="260.00" arrivalLane="end_0" arrivalPos="200.00" arrivalPosLat="-1.20" arrivalSpeed="12.30" duration="209.00" routeLength="497.80" waitSteps="123" timeLoss="167.40" rerouteNo="0" devices="tripinfo_mixed.35" vType="moped" speedFactor="0.89" vaporized=""/>
    <tripinfo id="mixed.54" depart="78.00" departLane="beg_0" departPos="2.20" departPosLat="0.42" departSpeed="0.00" departDelay="24.00" arrival="261.00" arrivalLane="end_0" arrivalPos="200.00" arrivalPosLat="0.32" arrivalSpeed="15.60" duration="183.00" routeLength="497.80" waitSteps="111" timeLoss="152.32" rerouteNo="0" devices="tripinfo_mixed.54" vType="moped" speedFactor="1.20" vaporized=""/>
    <tripinfo id="mixed.87" depart="123.00" departLane="beg_1" departPos="5.10" departPosLat="-0.06" departSpeed="0.00" departDelay="36.00" arrival="261.00" arrivalLane="end_1" arrivalPos="200.00" arrivalPosLat="-0.46" arrivalSpeed="12.27" duration="138.00" routeLength="494.90" waitSteps="74" timeLoss="98.01" rerouteNo="0" devices="tripinfo_mixed.87" vType="car" speedFactor="0.90" vaporized=""/>
    <tripinfo id="mixed.56" depart="76.00" departLane="beg_0" departPos="5.10" departPosLat="0.70" departSpeed="0.00" departDelay="20.00" arrival="263.00" arrivalLane="end_0" arrivalPos="200.00" arrivalPosLat="0.15" arrivalSpeed="12.27" duration="187.00" routeLength="494.90" waitSteps="114" timeLoss="146.48" rerouteNo="0" devices="tripinfo_mixed.56" vType="car" speedFactor="0.89" vaporized=""/>
    <tripinfo id="mixed.96" depart="134.00" departLane="beg_1" departPos="2.20" departPosLat="0.54" departSpeed="0.00" departDelay="38.00" arrival="263.00" arrivalLane="end_1" arrivalPos="200.00" arrivalPosLat="-0.56" arrivalSpeed="11.99" duration="129.00" routeLength="497.80" waitSteps="65" timeLoss="87.07" rerouteNo="0" devices="tripinfo_mixed.96" vType="moped" speedFactor="0.87" vaporized=""/>
    <tripinfo id="mixed.86" depart="116.00" departLane="beg_1" departPos="2.20" departPosLat="0.17" departSpeed="0.00" departDelay="30.00" arrival="264.00" arrivalLane="end_1" arrivalPos="200.00" arrivalPosLat="1.20" arrivalSpeed="13.85" duration="148.00" routeLength="497.80" waitSteps="75" timeLoss="117.58" rerouteNo="0" devices="tripinfo_mixed.86" vType="moped" speedFactor="1.19" vaporized=""/>
    <tripinfo id="mixed.60" depart="86.00" departLane="beg_0" departPos="5.10" departPosLat="0.67" departSpeed="0.00" departDelay="26.00" arrival="265.00" arrivalLane="end_1" arrivalPos="200.00" arrivalPosLat="-0.64" arrivalSpeed="13.94" duration="179.00" routeLength="494.90" waitSteps="100" timeLoss="143.01" rerouteNo="0" devices="tripinfo_mixed.60" vType="car" speedFactor="1.01" vaporized=""/>
    <tripinfo id="mixed.55" depart="73.00" departLane="beg_0" departPos="2.20" departPosLat="0.21" departSpeed="0.00" departDelay="18.00" arrival="266.00" arrivalLane="end_0" arrivalPos="200.00" arrivalPosLat="0.56" arrivalSpeed="8.28" duration="193.00" routeLength="497.80" waitSteps="111" timeLoss="134.73" rerouteNo="0" devices="tripinfo_mixed.55" vType="moped" speedFactor="0.62" vaporized=""/>
    <tripinfo id="mixed.81" depart="108.00" departLane="beg_1" departPos="2.20" departPosLat="0.68" departSpeed="0.00" departDelay="27.00" arrival="267.00" arrivalLane="end_1" arrivalPos="200.00" arrivalPosLat="-1.20" arrivalSpeed="11.55" duration="159.00" routeLength="497.80" waitSteps="82" timeLoss="116.07" rerouteNo="0" devices="tripinfo_mixed.81" vType="moped" speedFactor="0.85" vaporized=""/>
    <tripinfo id="mixed.92" depart="127.00" departLane="beg_1" departPos="2.20" departPosLat="0.39" departSpeed="0.00" departDelay="35.00" arrival="267.00" arrivalLane="end_1" arrivalPos="200.00" arrivalPosLat="0.96" arrivalSpeed="12.59" duration="140.00" routeLength="497.80" waitSteps="74" timeLoss="100.76" rerouteNo="0" devices="tripinfo_mixed.92" vType="moped" speedFactor="0.92" vaporized=""/>
    <tripinfo id="mixed.44" depart="62.00" departLane="beg_0" departPos="2.20" departPosLat="-0.77" departSpeed="0.00" departDelay="18.00" arrival="269.00" arrivalLane="end_0" arrivalPos="200.00" arrivalPosLat="0.58" arrivalSpeed="6.45" duration="207.00" routeLength="497.80" waitSteps="115" timeLoss="134.36" rerouteNo="0" devices="tripinfo_mixed.44" vType="moped" speedFactor="0.50" vaporized=""/>
    <tripinfo id="mixed.74" depart="108.00" departLane="beg_0" departPos="2.20" departPosLat="-0.55" departSpeed="0.00" departDelay="34.00" arrival="269.00" arrivalLane="end_1" arrivalPos="200.00" arrivalPosLat="0.96" arrivalSpeed="14.15" duration="161.00" routeLength="497.80" waitSteps="80" timeLoss="129.15" rerouteNo="0" devices="tripinfo_mixed.74" vType="moped" speedFactor="1.15" vaporized=""/>
    <tripinfo id="mixed.64" depart="92.00" departLane="beg_1" departPos="2.20" departPosLat="-0.29" departSpeed="0.00" departDelay="28.00" arrival="270.00" arrivalLane="end_1" arrivalPos="200.00" arrivalPosLat="-1.20" arrivalSpeed="10.51" duration="178.00" routeLength="497.80" waitSteps="101" timeLoss="147.54" rerouteNo="0" devices="tripinfo_mixed.64" vType="moped" speedFactor="1.25" vaporized=""/>
    <tripinfo id="mixed.93" depart="133.00" departLane="beg_0" departPos="2.20" departPosLat="-0.84" departSpeed="0.00" departDelay="40.00" arrival="270.00" arrivalLane="end_1" arrivalPos="200.00" arrivalPosLat="0.08" arrivalSpeed="13.31" duration="137.00" routeLength="497.80" waitSteps="64" timeLoss="105.84" rerouteNo="0" devices="tripinfo_mixed.93" vType="moped" speedFactor="1.16" vaporized=""/>