<?xml version="1.0" encoding="UTF-8"?>

<!-- generated on Wed Mar  8 15:52:24 2017 by SUMO Version dev-SVN-r23260
<?xml version="1.0" encoding="UTF-8"?>

<configuration xmlns:xsi="http://www.w3.org/2001/XMLSchema-instance" xsi:noNamespaceSchemaLocation="http://sumo.dlr.de/xsd/sumoConfiguration.xsd">

    <input>
        <net-file value="net.net.xml"/>
        <route-files value="input_routes.rou.xml"/>
    </input>

    <output>
        <tripinfo-output value="tripinfos.xml"/>
    </output>

    <processing>
        <lateral-resolution value="0.64"/>
    </processing>

    <report>
        <xml-validation value="never"/>
        <no-step-log value="true"/>
    </report>

</configuration>
-->

<tripinfos xmlns:xsi="http://www.w3.org/2001/XMLSchema-instance" xsi:noNamespaceSchemaLocation="http://sumo.dlr.de/xsd/tripinfo_file.xsd">
    <tripinfo id="mixed.11" depart="20.00" departLane="beg_1" departPos="5.10" departPosLat="-0.40" departSpeed="0.00" departDelay="9.00" arrival="216.00" arrivalLane="end_0" arrivalPos="200.00" arrivalPosLat="-0.70" arrivalSpeed="14.74" duration="196.00" routeLength="494.90" waitSteps="151" timeLoss="162.96" rerouteNo="0" devices="tripinfo_mixed.11" vType="car" speedFactor="1.08" vaporized=""/>
    <tripinfo id="mixed.8" depart="11.00" departLane="beg_1" departPos="5.10" departPosLat="-0.67" departSpeed="0.00" departDelay="3.00" arrival="218.00" arrivalLane="end_0" arrivalPos="200.00" arrivalPosLat="1.22" arrivalSpeed="16.33" duration="207.00" routeLength="494.90" waitSteps="151" timeLoss="177.56" rerouteNo="0" devices="tripinfo_mixed.8" vType="car" speedFactor="1.25" vaporized=""/>
    <tripinfo id="mixed.6" depart="7.00" departLane="beg_1" departPos="2.20" departPosLat="-0.80" departSpeed="0.00" departDelay="1.00" arrival="221.00" arrivalLane="end_0" arrivalPos="200.00" arrivalPosLat="-1.20" arrivalSpeed="16.15" duration="214.00" routeLength="497.80" waitSteps="158" timeLoss="183.43" rerouteNo="0" devices="tripinfo_mixed.6" vType="moped" speedFactor="1.36" vaporized=""/>
    <tripinfo id="mixed.3" depart="4.00" departLane="beg_1" departPos="2.20" departPosLat="-0.43" departSpeed="0.00" departDelay="1.00" arrival="223.00" arrivalLane="end_0" arrivalPos="200.00" arrivalPosLat="0.56" arrivalSpeed="13.36" duration="219.00" routeLength="497.80" waitSteps="161" timeLoss="181.85" rerouteNo="0" devices="tripinfo_mixed.3" vType="moped" speedFactor="0.98" vaporized=""/>
    <tripinfo id="mixed.0" depart="0.00" departLane="beg_0" departPos="2.20" departPosLat="0.51" departSpeed="0.00" departDelay="0.00" arrival="225.00" arrivalLane="end_0" arrivalPos="200.00" arrivalPosLat="-1.20" arrivalSpeed="10.19" duration="225.00" routeLength="497.80" waitSteps="164" timeLoss="176.73" rerouteNo="0" devices="tripinfo_mixed.0" vType="moped" speedFactor="0.75" vaporized=""/>
    <tripinfo id="mixed.20" depart="27.00" departLane="beg_1" departPos="5.10" departPosLat="-0.20" departSpeed="0.00" departDelay="7.00" arrival="225.00" arrivalLane="end_1" arrivalPos="200.00" arrivalPosLat="0.70" arrivalSpeed="17.07" duration="198.00" routeLength="494.90" waitSteps="149" timeLoss="168.89" rerouteNo="0" devices="tripinfo_mixed.20" vType="car" speedFactor="1.26" vaporized=""/>
    <tripinfo id="mixed.12" depart="12.00" departLane="beg_1" departPos="2.20" departPosLat="0.67" departSpeed="0.00" departDelay="0.00" arrival="226.00" arrivalLane="end_0" arrivalPos="200.00" arrivalPosLat="0.72" arrivalSpeed="10.14" duration="214.00" routeLength="497.80" waitSteps="147" timeLoss="165.62" rerouteNo="0" devices="tripinfo_mixed.12" vType="moped" speedFactor="0.74" vaporized=""/>
    <tripinfo id="mixed.5" depart="6.00" departLane="beg_0" departPos="5.10" departPosLat="0.64" departSpeed="0.00" departDelay="1.00" arrival="227.00" arrivalLane="end_0" arrivalPos="200.00" arrivalPosLat="-0.70" arrivalSpeed="13.15" duration="221.00" routeLength="494.90" waitSteps="155" timeLoss="185.39" rerouteNo="0" devices="tripinfo_mixed.5" vType="car" speedFactor="1.03" vaporized=""/>
    <tripinfo id="mixed.13" depart="13.00" departLane="beg_0" departPos="2.20" departPosLat="-0.37" departSpeed="0.00" departDelay="0.00" arrival="228.00" arrivalLane="end_1" arrivalPos="200.00" arrivalPosLat="-0.99" arrivalSpeed="13.28" duration="215.00" routeLength="497.80" waitSteps="150" timeLoss="184.29" rerouteNo="0" devices="tripinfo_mixed.13" vType="moped" speedFactor="1.33" vaporized=""/>
    <tripinfo id="mixed.17" depart="30.00" departLane="beg_1" departPos="5.10" departPosLat="-0.50" departSpeed="0.00" departDelay="13.00" arrival="229.00" arrivalLane="end_1" arrivalPos="200.00" arrivalPosLat="0.70" arrivalSpeed="14.10" duration="199.00" routeLength="494.90" waitSteps="143" timeLoss="163.32" rerouteNo="0" devices="tripinfo_mixed.17" vType="car" speedFactor="1.02" vaporized=""/>
    <tripinfo id="mixed.15" depart="22.00" departLane="beg_0" departPos="2.20" departPosLat="0.85" departSpeed="0.00" departDelay="7.00" arrival="230.00" arrivalLane="end_0" arrivalPos="200.00" arrivalPosLat="0.72" arrivalSpeed="15.45" duration="208.00" routeLength="497.80" waitSteps="146" timeLoss="175.12" rerouteNo="0" devices="tripinfo_mixed.15" vType="moped" speedFactor="1.12" vaporized=""/>
    <tripinfo id="mixed.7" depart="10.00" departLane="beg_0" departPos="2.20" departPosLat="-1.01" departSpeed="0.00" departDelay="3.00" arrival="231.00" arrivalLane="end_0" arrivalPos="200.00" arrivalPosLat="-1.20" arrivalSpeed="9.25" duration="221.00" routeLength="497.80" waitSteps="146" timeLoss="168.24" rerouteNo="0" devices="tripinfo_mixed.7" vType="moped" speedFactor="0.69" vaporized=""/>
    <tripinfo id="mixed.14" depart="17.00" departLane="beg_0" departPos="2.20" departPosLat="-0.23" departSpeed="0.00" departDelay="3.00" arrival="231.00" arrivalLane="end_1" arrivalPos="200.00" arrivalPosLat="-1.07" arrivalSpeed="14.10" duration="214.00" routeLength="497.80" waitSteps="145" timeLoss="179.22" rerouteNo="0" devices="tripinfo_mixed.14" vType="moped" speedFactor="1.04" vaporized=""/>
    <tripinfo id="mixed.9" depart="23.00" departLane="beg_1" departPos="5.10" departPosLat="0.47" departSpeed="0.00" departDelay="14.00" arrival="232.00" arrivalLane="end_0" arrivalPos="200.00" arrivalPosLat="0.62" arrivalSpeed="11.04" duration="209.00" routeLength="494.90" waitSteps="140" timeLoss="163.95" rerouteNo="0" devices="tripinfo_mixed.9" vType="car" speedFactor="0.80" vaporized=""/>
    <tripinfo id="mixed.25" depart="33.00" departLane="beg_1" departPos="5.10" departPosLat="0.51" departSpeed="0.00" departDelay="8.00" arrival="232.00" arrivalLane="end_1" arrivalPos="200.00" arrivalPosLat="0.70" arrivalSpeed="12.25" duration="199.00" routeLength="494.90" waitSteps="141" timeLoss="160.45" rerouteNo="0" devices="tripinfo_mixed.25" vType="car" speedFactor="0.94" vaporized=""/>
    <tripinfo id="mixed.23" depart="37.00" departLane="beg_0" departPos="2.20" departPosLat="-1.00" departSpeed="0.00" departDelay="14.00" arrival="233.00" arrivalLane="end_1" arrivalPos="200.00" arrivalPosLat="-0.74" arrivalSpeed="16.15" duration="196.00" routeLength="497.80" waitSteps="133" timeLoss="165.20" rerouteNo="0" devices="tripinfo_mixed.23" vType="moped" speedFactor="1.49" vaporized=""/>
    <tripinfo id="mixed.28" depart="35.00" departLane="beg_1" departPos="2.20" departPosLat="1.01" departSpeed="0.00" departDelay="7.00" arrival="234.00" arrivalLane="end_0" arrivalPos="200.00" arrivalPosLat="0.46" arrivalSpeed="12.02" duration="199.00" routeLength="497.80" waitSteps="136" timeLoss="168.48" rerouteNo="0" devices="tripinfo_mixed.28" vType="moped" speedFactor="1.41" vaporized=""/>
    <tripinfo id="mixed.19" depart="40.00" departLane="beg_1" departPos="5.10" departPosLat="-0.16" departSpeed="0.00" departDelay="21.00" arrival="234.00" arrivalLane="end_1" arrivalPos="200.00" arrivalPosLat="0.70" arrivalSpeed="13.97" duration="194.00" routeLength="494.90" waitSteps="135" timeLoss="159.62" rerouteNo="0" devices="tripinfo_mixed.19" vType="car" speedFactor="1.06" vaporized=""/>
    <tripinfo id="mixed.26" depart="35.00" departLane="beg_1" departPos="2.20" departPosLat="-0.79" departSpeed="0.00" departDelay="9.00" arrival="235.00" arrivalLane="end_1" arrivalPos="200.00" arrivalPosLat="-0.56" arrivalSpeed="13.85" duration="200.00" routeLength="497.80" waitSteps="132" timeLoss="166.42" rerouteNo="0" devices="tripinfo_mixed.26" vType="moped" speedFactor="1.08" vaporized=""/>
    <tripinfo id="mixed.4" depart="4.00" departLane="beg_0" departPos="2.20" departPosLat="-1.09" departSpeed="0.00" departDelay="0.00" arrival="236.00" arrivalLane="end_0" arrivalPos="200.00" arrivalPosLat="-1.20" arrivalSpeed="7.18" duration="232.00" routeLength="497.80" waitSteps="148" timeLoss="165.40" rerouteNo="0" devices="tripinfo_mixed.4" vType="moped" speedFactor="0.54" vaporized=""/>
    <tripinfo id="mixed.21" depart="30.00" departLane="beg_0" departPos="5.10" departPosLat="0.34" departSpeed="0.00" departDelay="9.00" arrival="236.00" arrivalLane="end_0" arrivalPos="200.00" arrivalPosLat="0.97" arrivalSpeed="9.70" duration="206.00" routeLength="494.90" waitSteps="132" timeLoss="160.67" rerouteNo="0" devices="tripinfo_mixed.21" vType="car" speedFactor="0.79" vaporized=""/>
    <tripinfo id="mixed.10" depart="16.00" departLane="beg_1" departPos="2.20" departPosLat="0.72" departSpeed="0.00" departDelay="6.00" arrival="237.00" arrivalLane="end_0" arrivalPos="200.00" arrivalPosLat="-0.99" arrivalSpeed="8.69" duration="221.00" routeLength="497.80" waitSteps="148" timeLoss="170.10" rerouteNo="0" devices="tripinfo_mixed.10" vType="moped" speedFactor="0.71" vaporized=""/>
    <tripinfo id="mixed.37" depart="51.00" departLane="beg_1" departPos="2.20" departPosLat="-1.02" departSpeed="0.00" departDelay="14.00" arrival="237.00" arrivalLane="end_1" arrivalPos="200.00" arrivalPosLat="0.72" arrivalSpeed="14.27" duration="186.00" routeLength="497.80" waitSteps="123" timeLoss="155.31" rerouteNo="0" devices="tripinfo_mixed.37" vType="moped" speedFactor="1.25" vaporized=""/>
    <tripinfo id="mixed.30" depart="42.00" departLane="beg_1" departPos="2.20" departPosLat="-1.06" departSpeed="0.00" departDelay="12.00" arrival="238.00" arrivalLane="end_0" arrivalPos="200.00" arrivalPosLat="0.16" arrivalSpeed="12.05" duration="196.00" routeLength="497.80" waitSteps="129" timeLoss="163.63" rerouteNo="0" devices="tripinfo_mixed.30" vType="moped" speedFactor="1.12" vaporized=""/>
    <tripinfo id="mixed.31" depart="49.00" departLane="beg_1" departPos="2.20" departPosLat="0.33" departSpeed="0.00" departDelay="18.00" arrival="238.00" arrivalLane="end_1" arrivalPos="200.00" arrivalPosLat="-1.45" arrivalSpeed="11.93" duration="189.00" routeLength="497.80" waitSteps="129" timeLoss="158.73" rerouteNo="0" devices="tripinfo_mixed.31" vType="moped" speedFactor="1.26" vaporized=""/>
    <tripinfo id="mixed.38" depart="58.00" departLane="beg_1" departPos="2.20" departPosLat="-1.12" departSpeed="0.00" departDelay="20.00" arrival="238.00" arrivalLane="end_1" arrivalPos="200.00" arrivalPosLat="1.20" arrivalSpeed="13.91" duration="180.00" routeLength="497.80" waitSteps="122" timeLoss="149.66" rerouteNo="0" devices="tripinfo_mixed.38" vType="moped" speedFactor="1.68" vaporized=""/>
    <tripinfo id="mixed.39" depart="57.00" departLane="beg_0" departPos="2.20" departPosLat="-1.04" departSpeed="0.00" departDelay="18.00" arrival="238.00" arrivalLane="end_1" arrivalPos="200.00" arrivalPosLat="-0.55" arrivalSpeed="14.02" duration="181.00" routeLength="497.80" waitSteps="119" timeLoss="150.47" rerouteNo="0" devices="tripinfo_mixed.39" vType="moped" speedFactor="1.19" vaporized=""/>
    <tripinfo id="mixed.48" depart="55.00" departLane="beg_1" departPos="2.20" departPosLat="-0.48" departSpeed="0.00" departDelay="7.00" arrival="240.00" arrivalLane="end_0" arrivalPos="200.00" arrivalPosLat="-1.20" arrivalSpeed="12.41" duration="185.00" routeLength="497.80" waitSteps="111" timeLoss="146.15" rerouteNo="0" devices="tripinfo_mixed.48" vType="moped" speedFactor="0.95" vaporized=""/>
    <tripinfo id="mixed.35" depart="45.00" departLane="beg_1" departPos="2.20" departPosLat="-0.49" departSpeed="0.00" departDelay="10.00" arrival="240.00" arrivalLane="end_1" arrivalPos="200.00" arrivalPosLat="-1.20" arrivalSpeed="12.58" duration="195.00" routeLength="497.80" waitSteps="127" timeLoss="160.94" rerouteNo="0" devices="tripinfo_mixed.35" vType="moped" speedFactor="1.08" vaporized=""/>
    <tripinfo id="mixed.44" depart="66.00" departLane="beg_1" departPos="5.10" departPosLat="0.26" departSpeed="0.00" departDelay="22.00" arrival="240.00" arrivalLane="end_1" arrivalPos="200.00" arrivalPosLat="0.70" arrivalSpeed="13.25" duration="174.00" routeLength="494.90" waitSteps="119" timeLoss="139.56" rerouteNo="0" devices="tripinfo_mixed.44" vType="car" speedFactor="1.05" vaporized=""/>
    <tripinfo id="mixed.24" depart="41.00" departLane="beg_0" departPos="2.20" departPosLat="-1.00" departSpeed="0.00" departDelay="17.00" arrival="241.00" arrivalLane="end_0" arrivalPos="200.00" arrivalPosLat="0.08" arrivalSpeed="13.38" duration="200.00" routeLength="497.80" waitSteps="127" timeLoss="162.29" rerouteNo="0" devices="tripinfo_mixed.24" vType="moped" speedFactor="0.98" vaporized=""/>
    <tripinfo id="mixed.43" depart="61.00" departLane="beg_0" departPos="2.20" departPosLat="0.21" departSpeed="0.00" departDelay="18.00" arrival="241.00" arrivalLane="end_0" arrivalPos="200.00" arrivalPosLat="1.36" arrivalSpeed="11.36" duration="180.00" routeLength="497.80" waitSteps="110" timeLoss="137.39" rerouteNo="0" devices="tripinfo_mixed.43" vType="moped" speedFactor="0.85" vaporized=""/>
    <tripinfo id="mixed.40" depart="53.00" departLane="beg_0" departPos="2.20" departPosLat="-0.82" departSpeed="0.00" departDelay="13.00" arrival="242.00" arrivalLane="end_0" arrivalPos="200.00" arrivalPosLat="-0.56" arrivalSpeed="13.78" duration="189.00" routeLength="497.80" waitSteps="113" timeLoss="153.00" rerouteNo="0" devices="tripinfo_mixed.40" vType="moped" speedFactor="1.01" vaporized=""/>
    <tripinfo id="mixed.47" depart="68.00" departLane="beg_1" departPos="2.20" departPosLat="0.44" departSpeed="0.00" departDelay="21.00" arrival="242.00" arrivalLane="end_1" arrivalPos="200.00" arrivalPosLat="0.08" arrivalSpeed="13.72" duration="174.00" routeLength="497.80" waitSteps="108" timeLoss="137.40" rerouteNo="0" devices="tripinfo_mixed.47" vType="moped" speedFactor="0.99" vaporized=""/>
    <tripinfo id="mixed.22" depart="37.00" departLane="beg_0" departPos="2.20" departPosLat="0.80" departSpeed="0.00" departDelay="15.00" arrival="243.00" arrivalLane="end_1" arrivalPos="200.00" arrivalPosLat="-1.55" arrivalSpeed="16.49" duration="206.00" routeLength="497.80" waitSteps="133" timeLoss="175.59" rerouteNo="0" devices="tripinfo_mixed.22" vType="moped" speedFactor="1.62" vaporized=""/>
    <tripinfo id="mixed.52" depart="75.00" departLane="beg_1" departPos="5.10" departPosLat="-0.42" departSpeed="0.00" departDelay="23.00" arrival="244.00" arrivalLane="end_1" arrivalPos="200.00" arrivalPosLat="0.42" arrivalSpeed="13.95" duration="169.00" routeLength="494.90" waitSteps="107" timeLoss="134.35" rerouteNo="0" devices="tripinfo_mixed.52" vType="car" speedFactor="1.04" vaporized=""/>
    <tripinfo id="mixed.55" depart="80.00" departLane="beg_0" departPos="5.10" departPosLat="-0.08" departSpeed="0.00" departDelay="25.00" arrival="246.00" arrivalLane="end_1" arrivalPos="200.00" arrivalPosLat="-0.84" arrivalSpeed="17.02" duration="166.00" routeLength="494.90" waitSteps="105" timeLoss="136.19" rerouteNo="0" devices="tripinfo_mixed.55" vType="car" speedFactor="1.24" vaporized=""/>
    <tripinfo id="mixed.27" depart="44.00" departLane="beg_0" departPos="2.20" departPosLat="1.12" departSpeed="0.00" departDelay="17.00" arrival="247.00" arrivalLane="end_0" arrivalPos="200.00" arrivalPosLat="0.18" arrivalSpeed="10.28" duration="203.00" routeLength="497.80" waitSteps="122" timeLoss="155.00" rerouteNo="0" devices="tripinfo_mixed.27" vType="moped" speedFactor="0.76" vaporized=""/>
    <tripinfo id="mixed.58" depart="83.00" departLane="beg_1" departPos="5.10" departPosLat="0.02" departSpeed="0.00" departDelay="25.00" arrival="247.00" arrivalLane="end_1" arrivalPos="200.00" arrivalPosLat="0.43" arrivalSpeed="15.73" duration="164.00" routeLength="494.90" waitSteps="102" timeLoss="133.37" rerouteNo="0" devices="tripinfo_mixed.58" vType="car" speedFactor="1.17" vaporized=""/>
    <tripinfo id="mixed.32" depart="64.00" departLane="beg_0" departPos="5.10" departPosLat="-0.19" departSpeed="0.00" departDelay="32.00" arrival="249.00" arrivalLane="end_0" arrivalPos="200.00" arrivalPosLat="-0.70" arrivalSpeed="14.46" duration="185.00" routeLength="494.90" waitSteps="110" timeLoss="150.77" rerouteNo="0" devices="tripinfo_mixed.32" vType="car" speedFactor="1.08" vaporized=""/>
    <tripinfo id="mixed.46" depart="67.00" departLane="beg_1" departPos="2.20" departPosLat="-1.06" departSpeed="0.00" departDelay="21.00" arrival="250.00" arrivalLane="end_0" arrivalPos="200.00" arrivalPosLat="1.18" arrivalSpeed="11.74" duration="183.00" routeLength="497.80" waitSteps="109" timeLoss="152.87" rerouteNo="0" devices="tripinfo_mixed.46" vType="moped" speedFactor="1.48" vaporized=""/>
    <tripinfo id="mixed.63" depart="91.00" departLane="beg_1" departPos="2.20" departPosLat="0.02" departSpeed="0.00" departDelay="28.00" arrival="250.00" arrivalLane="end_1" arrivalPos="200.00" arrivalPosLat="-0.74" arrivalSpeed="12.32" duration="159.00" routeLength="497.80" waitSteps="99" timeLoss="119.64" rerouteNo="0" devices="tripinfo_mixed.63" vType="moped" speedFactor="0.92" vaporized=""/>
    <tripinfo id="mixed.49" depart="71.00" departLane="beg_1" departPos="2.20" departPosLat="0.07" departSpeed="0.00" departDelay="22.00" arrival="253.00" arrivalLane="end_1" arrivalPos="200.00" arrivalPosLat="-1.42" arrivalSpeed="11.59" duration="182.00" routeLength="497.80" waitSteps="105" timeLoss="138.85" rerouteNo="0" devices="tripinfo_mixed.49" vType="moped" speedFactor="0.84" vaporized=""/>
    <tripinfo id="mixed.56" depart="77.00" departLane="beg_0" departPos="5.10" departPosLat="-0.69" departSpeed="0.00" departDelay="21.00" arrival="254.00" arrivalLane="end_1" arrivalPos="200.00" arrivalPosLat="0.46" arrivalSpeed="14.20" duration="177.00" routeLength="494.90" waitSteps="103" timeLoss="142.52" rerouteNo="0" devices="tripinfo_mixed.56" vType="car" speedFactor="1.06" vaporized=""/>
    <tripinfo id="mixed.1" depart="1.00" departLane="beg_1" departPos="2.20" departPosLat="0.22" departSpeed="0.00" departDelay="0.00" arrival="255.00" arrivalLane="end_0" arrivalPos="200.00" arrivalPosLat="-1.20" arrivalSpeed="4.81" duration="254.00" routeLength="497.80" waitSteps="141" timeLoss="152.93" rerouteNo="0" devices="tripinfo_mixed.1" vType="moped" speedFactor="0.36" vaporized=""/>
    <tripinfo id="mixed.16" depart="26.00" departLane="beg_0" departPos="2.20" departPosLat="0.15" departSpeed="0.00" departDelay="10.00" arrival="255.00" arrivalLane="end_0" arrivalPos="200.00" arrivalPosLat="0.35" arrivalSpeed="7.30" duration="229.00" routeLength="497.80" waitSteps="128" timeLoss="164.60" rerouteNo="0" devices="tripinfo_mixed.16" vType="moped" speedFactor="0.56" vaporized=""/>
    <tripinfo id="mixed.62" depart="85.00" departLane="beg_1" departPos="2.20" departPosLat="-0.63" departSpeed="0.00" departDelay="23.00" arrival="256.00" arrivalLane="end_1" arrivalPos="200.00" arrivalPosLat="-0.12" arrivalSpeed="12.29" duration="171.00" routeLength="497.80" waitSteps="85" timeLoss="131.05" rerouteNo="0" devices="tripinfo_mixed.62" vType="moped" speedFactor="0.90" vaporized=""/>
    <tripinfo id="mixed.18" depart="34.00" departLane="beg_0" departPos="5.10" departPosLat="-0.38" departSpeed="0.00" departDelay="16.00" arrival="257.00" arrivalLane="end_0" arrivalPos="200.00" arrivalPosLat="1.06" arrivalSpeed="9.77" duration="223.00" routeLength="494.90" waitSteps="128" timeLoss="174.50" rerouteNo="0" devices="tripinfo_mixed.18" vType="car" speedFactor="0.75" vaporized=""/>
    <tripinfo id="mixed.34" depart="50.00" departLane="beg_0" departPos="5.10" departPosLat="-0.30" departSpeed="0.00" departDelay="16.00" arrival="261.00" arrivalLane="end_0" arrivalPos="200.00" arrivalPosLat="0.58" arrivalSpeed="9.54" duration="211.00" routeLength="494.90" waitSteps="121" timeLoss="166.25" rerouteNo="0" devices="tripinfo_mixed.34" vType="car" speedFactor="0.80" vaporized=""/>
    <tripinfo id="mixed.59" depart="88.00" departLane="beg_0" departPos="2.20" departPosLat="-0.68" departSpeed="0.00" departDelay="29.00" arrival="261.00" arrivalLane="end_1" arrivalPos="200.00" arrivalPosLat="-1.01" arrivalSpeed="7.98" duration="173.00" routeLength="497.80" waitSteps="80" timeLoss="111.41" rerouteNo="0" devices="tripinfo_mixed.59" vType="moped" speedFactor="0.59" vaporized=""/>
    <tripinfo id="mixed.70" depart="100.00" departLane="beg_1" departPos="5.10" departPosLat="0.65" departSpeed="0.00" departDelay="30.00" arrival="261.00" arrivalLane="end_1" arrivalPos="200.00" arrivalPosLat="0.70" arrivalSpeed="10.21" duration="161.00" routeLength="494.90" waitSteps="92" timeLoss="116.18" rerouteNo="0" devices="tripinfo_mixed.70" vType="car" speedFactor="0.81" vaporized=""/>
    <tripinfo id="mixed.2" depart="2.00" departLane="beg_0" departPos="2.20" departPosLat="0.11" departSpeed="0.00" departDelay="0.00" arrival="262.00" arrivalLane="end_0" arrivalPos="200.00" arrivalPosLat="-1.20" arrivalSpeed="3.95" duration="260.00" routeLength="497.80" waitSteps="134" timeLoss="148.57" rerouteNo="0" devices="tripinfo_mixed.2" vType="moped" speedFactor="0.32" vaporized=""/>
    <tripinfo id="mixed.54" depart="86.00" departLane="beg_0" departPos="5.10" departPosLat="-0.26" departSpeed="0.00" departDelay="32.00" arrival="263.00" arrivalLane="end_0" arrivalPos="200.00" arrivalPosLat="0.61" arrivalSpeed="13.54" duration="177.00" routeLength="494.90" waitSteps="99" timeLoss="144.80" rerouteNo="0" devices="tripinfo_mixed.54" vType="car" speedFactor="1.11" vaporized=""/>
    <tripinfo id="mixed.69" depart="110.00" departLane="beg_1" departPos="5.10" departPosLat="0.61" departSpeed="0.00" departDelay="41.00" arrival="263.00" arrivalLane="end_1" arrivalPos="200.00" arrivalPosLat="0.70" arrivalSpeed="9.90" duration="153.00" routeLength="494.90" waitSteps="79" timeLoss="103.47" rerouteNo="0" devices="tripinfo_mixed.69" vType="car" speedFactor="0.72" vaporized=""/>
    <tripinfo id="mixed.36" depart="54.00" departLane="beg_0" departPos="2.20" departPosLat="0.46" departSpeed="0.00" departDelay="18.00" arrival="264.00" arrivalLane="end_0" arrivalPos="200.00" arrivalPosLat="-1.20" arrivalSpeed="6.60" duration="210.00" routeLength="497.80" waitSteps="110" timeLoss="139.03" rerouteNo="0" devices="tripinfo_mixed.36" vType="moped" speedFactor="0.51" vaporized=""/>
    <tripinfo id="mixed.53" depart="78.00" departLane="beg_1" departPos="2.20" departPosLat="0.70" departSpeed="0.00" departDelay="25.00" arrival="264.00" arrivalLane="end_1" arrivalPos="200.00" arrivalPosLat="-1.20" arrivalSpeed="9.21" duration="186.00" routeLength="497.80" waitSteps="100" timeLoss="134.79" rerouteNo="0" devices="tripinfo_mixed.53" vType="moped" speedFactor="0.71" vaporized=""/>
    <tripinfo id="mixed.45" depart="69.00" departLane="beg_0" departPos="5.10" departPosLat="-0.08" departSpeed="0.00" departDelay="24.00" arrival="265.00" arrivalLane="end_0" arrivalPos="200.00" arrivalPosLat="-0.06" arrivalSpeed="13.28" duration="196.00" routeLength="494.90" waitSteps="106" timeLoss="159.98" rerouteNo="0" devices="tripinfo_mixed.45" vType="car" speedFactor="0.99" vaporized=""/>
    <tripinfo id="mixed.75" depart="114.00" departLane="beg_1" departPos="5.10" departPosLat="0.59" departSpeed="0.00" departDelay="39.00" arrival="265.00" arrivalLane="end_1" arrivalPos="200.00" arrivalPosLat="0.58" arrivalSpeed="11.34" duration="151.00" routeLength="494.90" waitSteps="81" timeLoss="111.02" rerouteNo="0" devices="tripinfo_mixed.75" vType="car" speedFactor="0.90" vaporized=""/>
    <tripinfo id="mixed.60" depart="92.00" departLane="beg_0" departPos="5.10" departPosLat="-0.07" departSpeed="0.00" departDelay="32.00" arrival="267.00" arrivalLane="end_0" arrivalPos="200.00" arrivalPosLat="0.85" arrivalSpeed="13.63" duration="175.00" routeLength="494.90" waitSteps="99" timeLoss="140.05" rerouteNo="0" devices="tripinfo_mixed.60" vType="car" speedFactor="1.03" vaporized=""/>
    <tripinfo id="mixed.78" depart="117.00" departLane="beg_1" departPos="5.10" departPosLat="0.02" departSpeed="0.00" departDelay="39.00" arrival="267.00" arrivalLane="end_1" arrivalPos="200.00" arrivalPosLat="0.37" arrivalSpeed="14.08" duration="150.00" routeLength="494.90" waitSteps="77" timeLoss="116.12" rerouteNo="0" devices="tripinfo_mixed.78" vType="car" speedFactor="1.07" vaporized=""/>
    <tripinfo id="mixed.79" depart="123.00" departLane="beg_0" departPos="5.10" departPosLat="-0.56" departSpeed="0.00" departDelay="44.00" arrival="269.00" arrivalLane="end_1" arrivalPos="200.00" arrivalPosLat="0.37" arrivalSpeed="12.83" duration="146.00" routeLength="494.90" waitSteps="74" timeLoss="108.05" rerouteNo="0" devices="tripinfo_mixed.79" vType="car" speedFactor="0.95" vaporized=""/>
    <tripinfo id="mixed.67" depart="96.00" departLane="beg_1" departPos="2.20" departPosLat="0.96" departSpeed="0.00" departDelay="29.00" arrival="270.00" arrivalLane="end_0" arrivalPos="200.00" arrivalPosLat="0.12" arrivalSpeed="13.12" duration="174.00" routeLength="497.80" waitSteps="97" timeLoss="143.29" rerouteNo="0" devices="tripinfo_mixed.67" vType="moped" speedFactor="1.21" vaporized=""/>
    <tripinfo id="mixed.74" depart="111.00" departLane="beg_0" departPos="2.20" departPosLat="-1.05" departSpeed="0.00" departDelay="37.00" arrival="270.00" arrivalLane="end_1" arrivalPos="200.00" arrivalPosLat="-1.42" arrivalSpeed="11.58" duration="159.00" routeLength="497.80" waitSteps="67" timeLoss="116.87" rerouteNo="0" devices="tripinfo_mixed.74" vType="moped" speedFactor="0.87" vaporized=""/>
    <tripinfo id="mixed.72" depart="103.00" departLane="beg_1" departPos="2.20" departPosLat="-0.86" departSpeed="0.00" departDelay="31.00" arrival="271.00" arrivalLane="end_0" arrivalPos="200.00" arrivalPosLat="1.20" arrivalSpeed="12.07" duration="168.00" routeLength="497.80" waitSteps="87" timeLoss="137.99" rerouteNo="0" devices="tripinfo_mixed.72" vType="moped" speedFactor="1.39" vaporized=""/>
    <tripinfo id="mixed.94" depart="134.00" departLane="beg_1" departPos="2.20" departPosLat="0.38" departSpeed="0.00" departDelay="40.00" arrival="271.00" arrivalLane="end_1" arrivalPos="200.00" arrivalPosLat="-0.20" arrivalSpeed="11.98" duration="137.00" routeLength="497.80" waitSteps="73" timeLoss="104.92" rerouteNo="0" devices="tripinfo_mixed.94" vType="moped" speedFactor="1.13" vaporized=""/>
    <tripinfo id="mixed.64" depart="102.00" departLane="beg_0" departPos="5.10" departPosLat="0.02" departSpeed="0.00" departDelay="38.00" arrival="273.00" arrivalLane="end_0" arrivalPos="200.00" arrivalPosLat="1.55" arrivalSpeed="13.86" duration="171.00" routeLength="494.90" waitSteps="85" timeLoss="135.52" rerouteNo="0" devices="tripinfo_mixed.64" vType="car" speedFactor="1.01" vaporized=""/>
    <tripinfo id="mixed.92" depart="141.00" departLane="beg_1" departPos="5.10" departPosLat="-0.36" departSpeed="0.00" departDelay="49.00" arrival="273.00" arrivalLane="end_1" arrivalPos="200.00" arrivalPosLat="0.70" arrivalSpeed="13.64" duration="132.00" routeLength="494.90" waitSteps="68" timeLoss="97.34" rerouteNo="0" devices="tripinfo_mixed.92" vType="car" speedFactor="1.05" vaporized=""/>
    <tripinfo id="mixed.29" depart="40.00" departLane="beg_0" departPos="2.20" departPosLat="0.73" departSpeed="0.00" departDelay="11.00" arrival="275.00" arrivalLane="end_0" arrivalPos="200.00" arrivalPosLat="-1.20" arrivalSpeed="4.58" duration="235.00" routeLength="497.80" waitSteps="109" timeLoss="128.60" rerouteNo="0" devices="tripinfo_mixed.29" vType="moped" speedFactor="0.34" vaporized=""/>
    <tripinfo id="mixed.88" depart="131.00" departLane="beg_1" departPos="5.10" departPosLat="0.27" departSpeed="0.00" departDelay="43.00" arrival="275.00" arrivalLane="end_0" arrivalPos="200.00" arrivalPosLat="1.57" arrivalSpeed="13.05" duration="144.00" routeLength="494.90" waitSteps="73" timeLoss="107.26" rerouteNo="0" devices="tripinfo_mixed.88" vType="car" speedFactor="0.98" vaporized=""/>
    <tripinfo id="mixed.97" depart="147.00" departLane="beg_1" departPos="2.20" departPosLat="0.47" departSpeed="0.00" departDelay="50.00" arrival="275.00" arrivalLane="end_1" arrivalPos="200.00" arrivalPosLat="0.52" arrivalSpeed="12.60" duration="128.00" routeLength="497.80" waitSteps="58" timeLoss="97.54" rerouteNo="0" devices="tripinfo_mixed.97" vType="moped" speedFactor="1.41" vaporized=""/>
    <tripinfo id="mixed.41" depart="60.00" departLane="beg_0" departPos="2.20" departPosLat="-1.06" departSpeed="0.00" departDelay="19.00" arrival="277.00" arrivalLane="end_0" arrivalPos="200.00" arrivalPosLat="-0.43" arrivalSpeed="6.60" duration="217.00" routeLength="497.80" waitSteps="108" timeLoss="186.59" rerouteNo="0" devices="tripinfo_mixed.41" vType="moped" speedFactor="1.40" vaporized=""/>
    <tripinfo id="mixed.71" depart="108.00" departLane="beg_0" departPos="5.10" departPosLat="0.13" departSpeed="0.00" departDelay="37.00" arrival="277.00" arrivalLane="end_0" arrivalPos="200.00" arrivalPosLat="1.49" arrivalSpeed="17.47" duration="169.00" routeLength="494.90" waitSteps="84" timeLoss="140.22" rerouteNo="0" devices="tripinfo_mixed.71" vType="car" speedFactor="1.28" vaporized=""/>
    <tripinfo id="mixed.98" depart="149.00" departLane="beg_0" departPos="5.10" departPosLat="-0.28" departSpeed="0.00" departDelay="51.00" arrival="277.00" arrivalLane="end_1" arrivalPos="200.00" arrivalPosLat="0.70" arrivalSpeed="14.35" duration="128.00" routeLength="494.90" waitSteps="59" timeLoss="93.53" rerouteNo="0" devices="tripinfo_mixed.98" vType="car" speedFactor="1.06" vaporized=""/>