<?xml version="1.0" encoding="UTF-8"?>

<!-- generated on 2021-07-02 23:32:47 by Eclipse SUMO sumo Version v1_9_2+0829-3c89482
This data file and the accompanying materials
are made available under the terms of the Eclipse Public License v2.0
which accompanies this distribution, and is available at
http://www.eclipse.org/legal/epl-v20.html
SPDX-License-Identifier: EPL-2.0
<configuration xmlns:xsi="http://www.w3.org/2001/XMLSchema-instance" xsi:noNamespaceSchemaLocation="http://sumo.dlr.de/xsd/sumoConfiguration.xsd">

    <input>
        <net-file value="net.net.xml"/>
        <route-files value="input_routes.rou.xml"/>
    </input>

    <output>
        <write-license value="true"/>
        <tripinfo-output value="tripinfos.xml"/>
        <railsignal-block-output value="railsignal_blocks.xml"/>
    </output>

    <processing>
        <railsignal-moving-block value="true"/>
        <default.speeddev value="0"/>
    </processing>

    <report>
        <xml-validation value="never"/>
        <xml-validation.routes value="never"/>
        <duration-log.disable value="true"/>
        <no-step-log value="true"/>
    </report>

</configuration>
-->

<tripinfos xmlns:xsi="http://www.w3.org/2001/XMLSchema-instance" xsi:noNamespaceSchemaLocation="http://sumo.dlr.de/xsd/tripinfo_file.xsd">
    <tripinfo id="EW" depart="0.00" departLane="-a_0" departPos="50.10" departSpeed="0.00" departDelay="0.00" arrival="89.00" arrivalLane="e_0" arrivalPos="477.81" arrivalSpeed="13.89" duration="89.00" routeLength="851.97" waitingTime="0.00" waitingCount="0" stopTime="0.00" timeLoss="27.28" rerouteNo="1" devices="tripinfo_EW routing_EW" vType="fast" speedFactor="1.00" vaporized=""/>
    <tripinfo id="WE0" depart="1.00" departLane="a_0" departPos="50.10" departSpeed="0.00" departDelay="0.00" arrival="181.00" arrivalLane="e_0" arrivalPos="477.81" arrivalSpeed="5.00" duration="180.00" routeLength="850.10" waitingTime="0.00" waitingCount="0" stopTime="0.00" timeLoss="9.50" rerouteNo="1" devices="tripinfo_WE0 routing_WE0" vType="slow" speedFactor="1.00" vaporized=""/>
    <tripinfo id="WE1" depart="22.00" departLane="a_0" departPos="50.10" departSpeed="0.00" departDelay="20.00" arrival="191.00" arrivalLane="e_0" arrivalPos="477.81" arrivalSpeed="7.50" duration="169.00" routeLength="850.10" waitingTime="0.00" waitingCount="0" stopTime="0.00" timeLoss="107.36" rerouteNo="1" devices="tripinfo_WE1 routing_WE1" vType="fast" speedFactor="1.00" vaporized=""/>
</tripinfos>
