<?xml version="1.0" encoding="UTF-8"?>

<!-- generated on Fri Jun  6 13:06:50 2014 by SUMO sumo Version dev-SVN-r16550
<?xml version="1.0" encoding="UTF-8"?>

<configuration xmlns:xsi="http://www.w3.org/2001/XMLSchema-instance" xsi:noNamespaceSchemaLocation="http://sumo.dlr.de/xsd/sumoConfiguration.xsd">

    <input>
        <net-file value="net.net.xml"/>
        <additional-files value="input_routes.rou.xml,input_additional.add.xml,input_additional2.add.xml"/>
    </input>

    <time>
        <begin value="0"/>
        <end value="150"/>
    </time>

    <report>
        <xml-validation value="never"/>
        <no-duration-log value="true"/>
        <no-step-log value="true"/>
    </report>

    <mesoscopic>
        <mesosim value="true"/>
    </mesoscopic>

</configuration>
-->

<meandata xmlns:xsi="http://www.w3.org/2001/XMLSchema-instance" xsi:noNamespaceSchemaLocation="http://sumo.dlr.de/xsd/meandata_file.xsd">
    <interval begin="0.00" end="60.00" id="dump_60">
        <edge id="3/1to2/1" sampledSeconds="33.00" traveltime="40.00" density="1.38" occupancy="1.00" waitingTime="0.00" speed="10.00" departed="0" arrived="0" entered="2" left="0" laneChangedFrom="0" laneChangedTo="0"/>
        <edge id="4/1to3/1" sampledSeconds="80.00" traveltime="40.00" density="3.33" occupancy="2.67" waitingTime="0.00" speed="10.00" departed="2" arrived="0" entered="0" left="2" laneChangedFrom="0" laneChangedTo="0"/>
    </interval>
    <interval begin="60.00" end="120.00" id="dump_60">
        <edge id="2/1to1/1" sampledSeconds="73.00" traveltime="40.00" density="3.04" occupancy="2.33" waitingTime="0.00" speed="10.00" departed="0" arrived="0" entered="2" left="0" laneChangedFrom="0" laneChangedTo="0"/>
        <edge id="3/1to2/1" sampledSeconds="47.00" traveltime="40.00" density="1.96" occupancy="1.67" waitingTime="0.00" speed="10.00" departed="0" arrived="0" entered="0" left="2" laneChangedFrom="0" laneChangedTo="0"/>
    </interval>
    <interval begin="120.00" end="150.00" id="dump_60">
        <edge id="1/1to0/1" sampledSeconds="55.00" traveltime="40.00" density="4.58" occupancy="3.46" waitingTime="0.00" speed="10.00" departed="0" arrived="0" entered="2" left="0" laneChangedFrom="0" laneChangedTo="0"/>
        <edge id="2/1to1/1" sampledSeconds="7.00" traveltime="40.00" density="0.58" occupancy="0.68" waitingTime="0.00" speed="10.00" departed="0" arrived="0" entered="0" left="2" laneChangedFrom="0" laneChangedTo="0"/>
    </interval>
</meandata>
