<?xml version="1.0" encoding="UTF-8"?>

<!-- generated on Tue Dec  3 16:34:17 2013 by SUMO sumo Version dev-SVN-r15233
<?xml version="1.0" encoding="UTF-8"?>

<configuration xmlns:xsi="http://www.w3.org/2001/XMLSchema-instance" xsi:noNamespaceSchemaLocation="http://sumo-sim.org/xsd/sumoConfiguration.xsd">

    <input>
        <net-file value="net.net.xml"/>
        <route-files value="input_routes.rou.xml"/>
        <additional-files value="input_additional.add.xml"/>
    </input>

    <output>
        <fcd-output value="fcd.xml"/>
    </output>

    <time>
        <step-length value="0.5"/>
    </time>

    <processing>
        <lanechange.duration value="10"/>
    </processing>

    <report>
        <no-duration-log value="true"/>
        <no-step-log value="true"/>
    </report>

</configuration>
-->

<fcd-export>
    <timestep time="0.00">
        <vehicle id="v0" x="256.60" y="495.05" angle="90.00" type="DEFAULT_VEHTYPE" speed="0.00" pos="5.10" lane="1si_0" slope="0.00"/>
    </timestep>
    <timestep time="0.50">
        <vehicle id="v0" x="257.25" y="495.05" angle="90.00" type="DEFAULT_VEHTYPE" speed="1.30" pos="5.75" lane="1si_0" slope="0.00"/>
    </timestep>
    <timestep time="1.00">
        <vehicle id="v0" x="258.55" y="495.05" angle="90.00" type="DEFAULT_VEHTYPE" speed="2.60" pos="7.05" lane="1si_0" slope="0.00"/>
    </timestep>
    <timestep time="1.50">
        <vehicle id="v0" x="260.50" y="495.05" angle="90.00" type="DEFAULT_VEHTYPE" speed="3.90" pos="9.00" lane="1si_0" slope="0.00"/>
    </timestep>
    <timestep time="2.00">
        <vehicle id="v0" x="263.10" y="495.05" angle="90.00" type="DEFAULT_VEHTYPE" speed="5.20" pos="11.60" lane="1si_0" slope="0.00"/>
    </timestep>
    <timestep time="2.50">
        <vehicle id="v0" x="266.35" y="495.05" angle="90.00" type="DEFAULT_VEHTYPE" speed="6.50" pos="14.85" lane="1si_0" slope="0.00"/>
    </timestep>
    <timestep time="3.00">
        <vehicle id="v0" x="270.25" y="495.05" angle="90.00" type="DEFAULT_VEHTYPE" speed="7.80" pos="18.75" lane="1si_0" slope="0.00"/>
    </timestep>
    <timestep time="3.50">
        <vehicle id="v0" x="274.80" y="495.05" angle="90.00" type="DEFAULT_VEHTYPE" speed="9.10" pos="23.30" lane="1si_0" slope="0.00"/>
    </timestep>
    <timestep time="4.00">
        <vehicle id="v0" x="280.00" y="495.22" angle="90.30" type="DEFAULT_VEHTYPE" speed="10.40" pos="28.50" lane="1si_0" slope="0.00"/>
    </timestep>
    <timestep time="4.50">
        <vehicle id="v0" x="285.85" y="495.38" angle="90.60" type="DEFAULT_VEHTYPE" speed="11.70" pos="34.35" lane="1si_0" slope="0.00"/>
    </timestep>
    <timestep time="5.00">
        <vehicle id="v0" x="292.35" y="495.55" angle="90.90" type="DEFAULT_VEHTYPE" speed="13.00" pos="40.85" lane="1si_0" slope="0.00"/>
    </timestep>
    <timestep time="5.50">
        <vehicle id="v0" x="299.30" y="495.71" angle="91.20" type="DEFAULT_VEHTYPE" speed="13.89" pos="47.80" lane="1si_0" slope="0.00"/>
    </timestep>
    <timestep time="6.00">
        <vehicle id="v0" x="306.24" y="495.88" angle="91.50" type="DEFAULT_VEHTYPE" speed="13.89" pos="54.74" lane="1si_0" slope="0.00"/>
    </timestep>
    <timestep time="6.50">
        <vehicle id="v0" x="313.19" y="496.04" angle="91.80" type="DEFAULT_VEHTYPE" speed="13.89" pos="61.69" lane="1si_0" slope="0.00"/>
    </timestep>
    <timestep time="7.00">
        <vehicle id="v0" x="320.13" y="496.21" angle="92.10" type="DEFAULT_VEHTYPE" speed="13.89" pos="68.63" lane="1si_0" slope="0.00"/>
    </timestep>
    <timestep time="7.50">
        <vehicle id="v0" x="327.07" y="496.37" angle="92.40" type="DEFAULT_VEHTYPE" speed="13.89" pos="75.57" lane="1si_0" slope="0.00"/>
    </timestep>
    <timestep time="8.00">
        <vehicle id="v0" x="334.02" y="496.54" angle="92.70" type="DEFAULT_VEHTYPE" speed="13.89" pos="82.52" lane="1si_0" slope="0.00"/>
    </timestep>
    <timestep time="8.50">
        <vehicle id="v0" x="340.96" y="496.70" angle="93.00" type="DEFAULT_VEHTYPE" speed="13.89" pos="89.46" lane="1si_0" slope="0.00"/>
    </timestep>
    <timestep time="9.00">
        <vehicle id="v0" x="347.91" y="496.87" angle="92.70" type="DEFAULT_VEHTYPE" speed="13.89" pos="96.41" lane="1si_1" slope="0.00"/>
    </timestep>
    <timestep time="9.50">
        <vehicle id="v0" x="354.86" y="497.03" angle="92.40" type="DEFAULT_VEHTYPE" speed="13.89" pos="103.35" lane="1si_1" slope="0.00"/>
    </timestep>
    <timestep time="10.00">
        <vehicle id="v0" x="361.80" y="497.19" angle="92.10" type="DEFAULT_VEHTYPE" speed="13.89" pos="110.30" lane="1si_1" slope="0.00"/>
    </timestep>
    <timestep time="10.50">
        <vehicle id="v0" x="368.75" y="497.36" angle="91.80" type="DEFAULT_VEHTYPE" speed="13.89" pos="117.24" lane="1si_1" slope="0.00"/>
    </timestep>
    <timestep time="11.00">
        <vehicle id="v0" x="375.69" y="497.53" angle="91.50" type="DEFAULT_VEHTYPE" speed="13.89" pos="124.19" lane="1si_1" slope="0.00"/>
    </timestep>
    <timestep time="11.50">
        <vehicle id="v0" x="382.63" y="497.69" angle="91.20" type="DEFAULT_VEHTYPE" speed="13.89" pos="131.13" lane="1si_1" slope="0.00"/>
    </timestep>
    <timestep time="12.00">
        <vehicle id="v0" x="389.58" y="497.86" angle="90.90" type="DEFAULT_VEHTYPE" speed="13.89" pos="138.08" lane="1si_1" slope="0.00"/>
    </timestep>
    <timestep time="12.50">
        <vehicle id="v0" x="396.52" y="498.02" angle="90.60" type="DEFAULT_VEHTYPE" speed="13.89" pos="145.02" lane="1si_1" slope="0.00"/>
    </timestep>
    <timestep time="13.00">
        <vehicle id="v0" x="403.47" y="498.19" angle="90.30" type="DEFAULT_VEHTYPE" speed="13.89" pos="151.97" lane="1si_1" slope="0.00"/>
    </timestep>
    <timestep time="13.50">
        <vehicle id="v0" x="410.41" y="498.35" angle="90.00" type="DEFAULT_VEHTYPE" speed="13.89" pos="158.91" lane="1si_1" slope="0.00"/>
    </timestep>
    <timestep time="14.00">
        <vehicle id="v0" x="417.36" y="498.35" angle="90.00" type="DEFAULT_VEHTYPE" speed="13.89" pos="165.86" lane="1si_1" slope="0.00"/>
    </timestep>
    <timestep time="14.50">
        <vehicle id="v0" x="424.30" y="498.35" angle="90.00" type="DEFAULT_VEHTYPE" speed="13.89" pos="172.80" lane="1si_1" slope="0.00"/>
    </timestep>
    <timestep time="15.00">
        <vehicle id="v0" x="431.25" y="498.35" angle="90.00" type="DEFAULT_VEHTYPE" speed="13.89" pos="179.75" lane="1si_1" slope="0.00"/>
    </timestep>
    <timestep time="15.50">
        <vehicle id="v0" x="438.19" y="498.35" angle="90.00" type="DEFAULT_VEHTYPE" speed="13.89" pos="186.69" lane="1si_1" slope="0.00"/>
    </timestep>
    <timestep time="16.00">
        <vehicle id="v0" x="445.14" y="498.35" angle="90.00" type="DEFAULT_VEHTYPE" speed="13.89" pos="193.64" lane="1si_1" slope="0.00"/>
    </timestep>
    <timestep time="16.50">
        <vehicle id="v0" x="452.08" y="498.35" angle="90.00" type="DEFAULT_VEHTYPE" speed="13.89" pos="200.58" lane="1si_1" slope="0.00"/>
    </timestep>
    <timestep time="17.00">
        <vehicle id="v0" x="459.03" y="498.35" angle="90.00" type="DEFAULT_VEHTYPE" speed="13.89" pos="207.53" lane="1si_1" slope="0.00"/>
    </timestep>
    <timestep time="17.50">
        <vehicle id="v0" x="465.31" y="498.35" angle="90.00" type="DEFAULT_VEHTYPE" speed="12.57" pos="213.81" lane="1si_1" slope="0.00"/>
    </timestep>
    <timestep time="18.00">
        <vehicle id="v0" x="470.66" y="498.35" angle="90.00" type="DEFAULT_VEHTYPE" speed="10.69" pos="219.16" lane="1si_1" slope="0.00"/>
    </timestep>
    <timestep time="18.50">
        <vehicle id="v0" x="475.11" y="498.35" angle="90.00" type="DEFAULT_VEHTYPE" speed="8.89" pos="223.61" lane="1si_1" slope="0.00"/>
    </timestep>
    <timestep time="19.00">
        <vehicle id="v0" x="478.67" y="498.35" angle="90.00" type="DEFAULT_VEHTYPE" speed="7.12" pos="227.17" lane="1si_1" slope="0.00"/>
    </timestep>
    <timestep time="19.50">
        <vehicle id="v0" x="481.38" y="498.35" angle="90.00" type="DEFAULT_VEHTYPE" speed="5.43" pos="229.88" lane="1si_1" slope="0.00"/>
    </timestep>
    <timestep time="20.00">
        <vehicle id="v0" x="483.35" y="498.35" angle="90.00" type="DEFAULT_VEHTYPE" speed="3.93" pos="231.85" lane="1si_1" slope="0.00"/>
    </timestep>
    <timestep time="20.50">
        <vehicle id="v0" x="485.96" y="498.35" angle="90.00" type="DEFAULT_VEHTYPE" speed="5.23" pos="234.46" lane="1si_1" slope="0.00"/>
    </timestep>
    <timestep time="21.00">
        <vehicle id="v0" x="489.22" y="498.35" angle="90.00" type="DEFAULT_VEHTYPE" speed="6.53" pos="0.57" lane=":0_16_0" slope="0.00"/>
    </timestep>
    <timestep time="21.50">
        <vehicle id="v0" x="493.14" y="498.35" angle="90.00" type="DEFAULT_VEHTYPE" speed="7.83" pos="4.49" lane=":0_16_0" slope="0.00"/>
    </timestep>
    <timestep time="22.00">
        <vehicle id="v0" x="497.70" y="498.35" angle="90.00" type="DEFAULT_VEHTYPE" speed="9.13" pos="9.05" lane=":0_16_0" slope="0.00"/>
    </timestep>
    <timestep time="22.50">
        <vehicle id="v0" x="502.92" y="498.35" angle="90.00" type="DEFAULT_VEHTYPE" speed="10.43" pos="14.27" lane=":0_16_0" slope="0.00"/>
    </timestep>
    <timestep time="23.00">
        <vehicle id="v0" x="508.78" y="498.35" angle="90.00" type="DEFAULT_VEHTYPE" speed="11.73" pos="20.13" lane=":0_16_0" slope="0.00"/>
    </timestep>
    <timestep time="23.50">
        <vehicle id="v0" x="514.34" y="498.35" angle="90.00" type="DEFAULT_VEHTYPE" speed="11.11" pos="2.99" lane="2o_1" slope="0.00"/>
    </timestep>
    <timestep time="24.00">
        <vehicle id="v0" x="519.89" y="498.35" angle="90.00" type="DEFAULT_VEHTYPE" speed="11.11" pos="8.54" lane="2o_1" slope="0.00"/>
    </timestep>
    <timestep time="24.50"/>
</fcd-export>
