<?xml version="1.0" encoding="UTF-8"?>

<!-- generated on 05/18/16 15:21:27 by SUMO Version dev-SVN-r20731
<?xml version="1.0" encoding="UTF-8"?>

<configuration xmlns:xsi="http://www.w3.org/2001/XMLSchema-instance" xsi:noNamespaceSchemaLocation="http://sumo.dlr.de/xsd/sumoConfiguration.xsd">

    <input>
        <net-file value="net2.net.xml"/>
        <route-files value="input_routes.rou.xml"/>
    </input>

    <output>
        <tripinfo-output value="tripinfos.xml"/>
    </output>

    <processing>
        <pedestrian.model value="nonInteracting"/>
    </processing>

    <report>
        <xml-validation value="never"/>
        <no-step-log value="true"/>
    </report>

</configuration>
-->

<tripinfos xmlns:xsi="http://www.w3.org/2001/XMLSchema-instance" xsi:noNamespaceSchemaLocation="http://sumo.dlr.de/xsd/tripinfo_file.xsd">
    <personinfo id="forward_turn_left" depart="0.00">
        <walk arrival="14.00"/>
    </personinfo>
    <personinfo id="backward_change_side" depart="0.00">
        <walk arrival="14.00"/>
    </personinfo>
    <personinfo id="forward_change_side" depart="0.00">
        <walk arrival="14.00"/>
    </personinfo>
    <personinfo id="backward_turn_left" depart="0.00">
        <walk arrival="14.00"/>
    </personinfo>
</tripinfos>
