<?xml version="1.0"?>

<!-- generated on 10/23/08 15:07:54 by SUMO dfrouter Version dev-SVN-r6184
<configuration>

   <input>
      <net-file>input_net.net.xml</net-file>
      <detector-files>input_detectors.det.xml</detector-files>
      <detector-flow-files>input_flows.txt</detector-flow-files>
   </input>

   <output>
      <routes-output>routes.rou.xml</routes-output>
      <emitters-output>emitters.add.xml</emitters-output>
   </output>

</configuration>
-->

<routes>

   <route id="1to2_to_9to10" edges="1to2 2to9split 9to10"/>
   <route id="1to2_to_4to5" edges="1to2 2to3 3to4 4to5"/>

   <route id="6to7_to_9to10" edges="6to7 7to8 8to9 9to10"/>

</routes>
