<?xml version="1.0"?>

<!-- generated on 01/25/13 15:50:11 by SUMO sumo Version dev-SVN-rUNKNOWN
<?xml version="1.0" encoding="UTF-8"?>

<configuration xmlns:xsi="http://www.w3.org/2001/XMLSchema-instance" xsi:noNamespaceSchemaLocation="http://sumo.sf.net/xsd/sumoConfiguration.xsd">

    <input>
        <net-file value="net.net.xml"/>
        <route-files value="input_routes.rou.xml"/>
    </input>

    <output>
        <fcd-output value="fcd.xml"/>
    </output>

    <time>
        <begin value="0"/>
        <end value="200"/>
    </time>

</configuration>
-->

<fcd-export>
    <timestep time="0.00">
        <vehicle id="always_left.0" x="501.65" y="5.10" angle="180.00" type="passenger" speed="0.00" pos="5.10" lane="3fi_0" slope="0.00"/>
        <vehicle id="always_right.0" x="5.10" y="498.35" angle="90.00" type="passenger" speed="0.00" pos="5.10" lane="1fi_0" slope="0.00"/>
        <vehicle id="horizontal.0" x="994.90" y="501.65" angle="-90.00" type="passenger" speed="0.00" pos="5.10" lane="2fi_0" slope="0.00"/>
    </timestep>
    <timestep time="1.00">
        <vehicle id="always_left.0" x="501.65" y="5.88" angle="180.00" type="passenger" speed="0.78" pos="5.88" lane="3fi_0" slope="0.00"/>
        <vehicle id="always_right.0" x="5.54" y="498.35" angle="90.00" type="passenger" speed="0.44" pos="5.54" lane="1fi_0" slope="0.00"/>
        <vehicle id="horizontal.0" x="994.38" y="501.65" angle="-90.00" type="passenger" speed="0.52" pos="5.62" lane="2fi_0" slope="0.00"/>
    </timestep>
    <timestep time="2.00">
        <vehicle id="always_left.0" x="501.65" y="7.45" angle="180.00" type="passenger" speed="1.56" pos="7.45" lane="3fi_0" slope="0.00"/>
        <vehicle id="always_right.0" x="6.59" y="498.35" angle="90.00" type="passenger" speed="1.05" pos="6.59" lane="1fi_0" slope="0.00"/>
        <vehicle id="horizontal.0" x="993.31" y="501.65" angle="-90.00" type="passenger" speed="1.08" pos="6.69" lane="2fi_0" slope="0.00"/>
    </timestep>
    <timestep time="3.00">
        <vehicle id="always_left.0" x="501.65" y="9.59" angle="180.00" type="passenger" speed="2.15" pos="9.59" lane="3fi_0" slope="0.00"/>
        <vehicle id="always_right.0" x="8.14" y="498.35" angle="90.00" type="passenger" speed="1.55" pos="8.14" lane="1fi_0" slope="0.00"/>
        <vehicle id="horizontal.0" x="991.53" y="501.65" angle="-90.00" type="passenger" speed="1.78" pos="8.47" lane="2fi_0" slope="0.00"/>
    </timestep>
    <timestep time="4.00">
        <vehicle id="always_left.0" x="501.65" y="12.27" angle="180.00" type="passenger" speed="2.68" pos="12.27" lane="3fi_0" slope="0.00"/>
        <vehicle id="always_right.0" x="10.19" y="498.35" angle="90.00" type="passenger" speed="2.05" pos="10.19" lane="1fi_0" slope="0.00"/>
        <vehicle id="horizontal.0" x="988.95" y="501.65" angle="-90.00" type="passenger" speed="2.58" pos="11.05" lane="2fi_0" slope="0.00"/>
        <vehicle id="vertical.0" x="501.65" y="5.10" angle="180.00" type="passenger" speed="0.00" pos="5.10" lane="3fi_0" slope="0.00"/>
    </timestep>
    <timestep time="5.00">
        <vehicle id="always_left.0" x="501.65" y="15.64" angle="180.00" type="passenger" speed="3.37" pos="15.64" lane="3fi_0" slope="0.00"/>
        <vehicle id="always_right.0" x="12.86" y="498.35" angle="90.00" type="passenger" speed="2.67" pos="12.86" lane="1fi_0" slope="0.00"/>
        <vehicle id="horizontal.0" x="985.75" y="501.65" angle="-90.00" type="passenger" speed="3.20" pos="14.25" lane="2fi_0" slope="0.00"/>
        <vehicle id="vertical.0" x="501.65" y="5.22" angle="180.00" type="passenger" speed="0.12" pos="5.22" lane="3fi_0" slope="0.00"/>
    </timestep>
    <timestep time="6.00">
        <vehicle id="always_left.0" x="501.65" y="19.54" angle="180.00" type="passenger" speed="3.90" pos="19.54" lane="3fi_0" slope="0.00"/>
        <vehicle id="always_right.0" x="16.30" y="498.35" angle="90.00" type="passenger" speed="3.44" pos="16.30" lane="1fi_0" slope="0.00"/>
        <vehicle id="horizontal.0" x="982.11" y="501.65" angle="-90.00" type="passenger" speed="3.65" pos="17.89" lane="2fi_0" slope="0.00"/>
        <vehicle id="vertical.0" x="501.65" y="6.01" angle="180.00" type="passenger" speed="0.79" pos="6.01" lane="3fi_0" slope="0.00"/>
    </timestep>
    <timestep time="7.00">
        <vehicle id="always_left.0" x="501.65" y="23.98" angle="180.00" type="passenger" speed="4.44" pos="23.98" lane="3fi_0" slope="0.00"/>
        <vehicle id="always_right.0" x="20.52" y="498.35" angle="90.00" type="passenger" speed="4.22" pos="20.52" lane="1fi_0" slope="0.00"/>
        <vehicle id="horizontal.0" x="977.86" y="501.65" angle="-90.00" type="passenger" speed="4.24" pos="22.14" lane="2fi_0" slope="0.00"/>
        <vehicle id="vertical.0" x="501.65" y="7.48" angle="180.00" type="passenger" speed="1.47" pos="7.48" lane="3fi_0" slope="0.00"/>
    </timestep>
    <timestep time="8.00">
        <vehicle id="always_left.0" x="501.65" y="29.07" angle="180.00" type="passenger" speed="5.09" pos="29.07" lane="3fi_0" slope="0.00"/>
        <vehicle id="always_right.0" x="25.17" y="498.35" angle="90.00" type="passenger" speed="4.65" pos="25.17" lane="1fi_0" slope="0.00"/>
        <vehicle id="horizontal.0" x="973.15" y="501.65" angle="-90.00" type="passenger" speed="4.71" pos="26.85" lane="2fi_0" slope="0.00"/>
        <vehicle id="vertical.0" x="501.65" y="9.39" angle="180.00" type="passenger" speed="1.91" pos="9.39" lane="3fi_0" slope="0.00"/>
    </timestep>
    <timestep time="9.00">
        <vehicle id="always_left.0" x="501.65" y="34.83" angle="180.00" type="passenger" speed="5.77" pos="34.83" lane="3fi_0" slope="0.00"/>
        <vehicle id="always_right.0" x="30.40" y="498.35" angle="90.00" type="passenger" speed="5.23" pos="30.40" lane="1fi_0" slope="0.00"/>
        <vehicle id="horizontal.0" x="967.74" y="501.65" angle="-90.00" type="passenger" speed="5.42" pos="32.26" lane="2fi_0" slope="0.00"/>
        <vehicle id="vertical.0" x="501.65" y="12.09" angle="180.00" type="passenger" speed="2.70" pos="12.09" lane="3fi_0" slope="0.00"/>
    </timestep>
    <timestep time="10.00">
        <vehicle id="always_left.0" x="501.65" y="41.39" angle="180.00" type="passenger" speed="6.55" pos="41.39" lane="3fi_0" slope="0.00"/>
        <vehicle id="always_right.0" x="36.12" y="498.35" angle="90.00" type="passenger" speed="5.72" pos="36.12" lane="1fi_0" slope="0.00"/>
        <vehicle id="horizontal.0" x="961.58" y="501.65" angle="-90.00" type="passenger" speed="6.15" pos="38.42" lane="2fi_0" slope="0.00"/>
        <vehicle id="vertical.0" x="501.65" y="15.21" angle="180.00" type="passenger" speed="3.12" pos="15.21" lane="3fi_0" slope="0.00"/>
    </timestep>
    <timestep time="11.00">
        <vehicle id="always_left.0" x="501.65" y="48.69" angle="180.00" type="passenger" speed="7.30" pos="48.69" lane="3fi_0" slope="0.00"/>
        <vehicle id="always_right.0" x="42.37" y="498.35" angle="90.00" type="passenger" speed="6.25" pos="42.37" lane="1fi_0" slope="0.00"/>
        <vehicle id="horizontal.0" x="954.76" y="501.65" angle="-90.00" type="passenger" speed="6.82" pos="45.24" lane="2fi_0" slope="0.00"/>
        <vehicle id="vertical.0" x="501.65" y="19.07" angle="180.00" type="passenger" speed="3.87" pos="19.07" lane="3fi_0" slope="0.00"/>
    </timestep>
    <timestep time="12.00">
        <vehicle id="always_left.0" x="501.65" y="56.70" angle="180.00" type="passenger" speed="8.01" pos="56.70" lane="3fi_0" slope="0.00"/>
        <vehicle id="always_right.0" x="49.26" y="498.35" angle="90.00" type="passenger" speed="6.88" pos="49.26" lane="1fi_0" slope="0.00"/>
        <vehicle id="horizontal.0" x="947.53" y="501.65" angle="-90.00" type="passenger" speed="7.23" pos="52.47" lane="2fi_0" slope="0.00"/>
        <vehicle id="vertical.0" x="501.65" y="23.63" angle="180.00" type="passenger" speed="4.56" pos="23.63" lane="3fi_0" slope="0.00"/>
    </timestep>
    <timestep time="13.00">
        <vehicle id="always_left.0" x="501.65" y="65.19" angle="180.00" type="passenger" speed="8.49" pos="65.19" lane="3fi_0" slope="0.00"/>
        <vehicle id="always_right.0" x="56.87" y="498.35" angle="90.00" type="passenger" speed="7.62" pos="56.87" lane="1fi_0" slope="0.00"/>
        <vehicle id="horizontal.0" x="939.72" y="501.65" angle="-90.00" type="passenger" speed="7.81" pos="60.28" lane="2fi_0" slope="0.00"/>
        <vehicle id="vertical.0" x="501.65" y="28.89" angle="180.00" type="passenger" speed="5.26" pos="28.89" lane="3fi_0" slope="0.00"/>
    </timestep>
    <timestep time="14.00">
        <vehicle id="always_left.0" x="501.65" y="74.24" angle="180.00" type="passenger" speed="9.05" pos="74.24" lane="3fi_0" slope="0.00"/>
        <vehicle id="always_right.0" x="65.25" y="498.35" angle="90.00" type="passenger" speed="8.38" pos="65.25" lane="1fi_0" slope="0.00"/>
        <vehicle id="horizontal.0" x="931.38" y="501.65" angle="-90.00" type="passenger" speed="8.34" pos="68.62" lane="2fi_0" slope="0.00"/>
        <vehicle id="vertical.0" x="501.65" y="34.67" angle="180.00" type="passenger" speed="5.78" pos="34.67" lane="3fi_0" slope="0.00"/>
    </timestep>
    <timestep time="15.00">
        <vehicle id="always_left.0" x="501.65" y="83.97" angle="180.00" type="passenger" speed="9.73" pos="83.97" lane="3fi_0" slope="0.00"/>
        <vehicle id="always_right.0" x="74.16" y="498.35" angle="90.00" type="passenger" speed="8.91" pos="74.16" lane="1fi_0" slope="0.00"/>
        <vehicle id="horizontal.0" x="922.62" y="501.65" angle="-90.00" type="passenger" speed="8.77" pos="77.38" lane="2fi_0" slope="0.00"/>
        <vehicle id="vertical.0" x="501.65" y="40.86" angle="180.00" type="passenger" speed="6.19" pos="40.86" lane="3fi_0" slope="0.00"/>
    </timestep>
    <timestep time="16.00">
        <vehicle id="always_left.0" x="501.65" y="94.12" angle="180.00" type="passenger" speed="10.15" pos="94.12" lane="3fi_0" slope="0.00"/>
        <vehicle id="always_right.0" x="83.67" y="498.35" angle="90.00" type="passenger" speed="9.51" pos="83.67" lane="1fi_0" slope="0.00"/>
        <vehicle id="horizontal.0" x="913.28" y="501.65" angle="-90.00" type="passenger" speed="9.33" pos="86.72" lane="2fi_0" slope="0.00"/>
        <vehicle id="vertical.0" x="501.65" y="47.79" angle="180.00" type="passenger" speed="6.93" pos="47.79" lane="3fi_0" slope="0.00"/>
    </timestep>
    <timestep time="17.00">
        <vehicle id="always_left.0" x="501.65" y="105.05" angle="180.00" type="passenger" speed="10.93" pos="105.05" lane="3fi_0" slope="0.00"/>
        <vehicle id="always_right.0" x="93.90" y="498.35" angle="90.00" type="passenger" speed="10.24" pos="93.90" lane="1fi_0" slope="0.00"/>
        <vehicle id="horizontal.0" x="903.41" y="501.65" angle="-90.00" type="passenger" speed="9.88" pos="96.59" lane="2fi_0" slope="0.00"/>
        <vehicle id="vertical.0" x="501.65" y="55.45" angle="180.00" type="passenger" speed="7.66" pos="55.45" lane="3fi_0" slope="0.00"/>
    </timestep>
    <timestep time="18.00">
        <vehicle id="always_left.0" x="501.65" y="116.13" angle="180.00" type="passenger" speed="11.08" pos="116.13" lane="3fi_0" slope="0.00"/>
        <vehicle id="always_right.0" x="104.83" y="498.35" angle="90.00" type="passenger" speed="10.92" pos="104.83" lane="1fi_0" slope="0.00"/>
        <vehicle id="horizontal.0" x="892.95" y="501.65" angle="-90.00" type="passenger" speed="10.46" pos="107.05" lane="2fi_0" slope="0.00"/>
        <vehicle id="vertical.0" x="501.65" y="63.55" angle="180.00" type="passenger" speed="8.09" pos="63.55" lane="3fi_0" slope="0.00"/>
    </timestep>
    <timestep time="19.00">
        <vehicle id="always_left.0" x="501.65" y="127.11" angle="180.00" type="passenger" speed="10.97" pos="127.11" lane="3fi_0" slope="0.00"/>
        <vehicle id="always_right.0" x="115.87" y="498.35" angle="90.00" type="passenger" speed="11.04" pos="115.87" lane="1fi_0" slope="0.00"/>
        <vehicle id="horizontal.0" x="882.24" y="501.65" angle="-90.00" type="passenger" speed="10.71" pos="117.76" lane="2fi_0" slope="0.00"/>
        <vehicle id="vertical.0" x="501.65" y="72.32" angle="180.00" type="passenger" speed="8.77" pos="72.32" lane="3fi_0" slope="0.00"/>
    </timestep>
    <timestep time="20.00">
        <vehicle id="always_left.0" x="501.65" y="138.15" angle="180.00" type="passenger" speed="11.04" pos="138.15" lane="3fi_0" slope="0.00"/>
        <vehicle id="always_right.0" x="126.94" y="498.35" angle="90.00" type="passenger" speed="11.08" pos="126.94" lane="1fi_0" slope="0.00"/>
        <vehicle id="horizontal.0" x="871.35" y="501.65" angle="-90.00" type="passenger" speed="10.88" pos="128.65" lane="2fi_0" slope="0.00"/>
        <vehicle id="vertical.0" x="501.65" y="81.80" angle="180.00" type="passenger" speed="9.49" pos="81.80" lane="3fi_0" slope="0.00"/>
    </timestep>
    <timestep time="21.00">
        <vehicle id="always_left.0" x="501.65" y="149.12" angle="180.00" type="passenger" speed="10.97" pos="149.12" lane="3fi_0" slope="0.00"/>
        <vehicle id="always_right.0" x="138.03" y="498.35" angle="90.00" type="passenger" speed="11.09" pos="138.03" lane="1fi_0" slope="0.00"/>
        <vehicle id="horizontal.0" x="860.27" y="501.65" angle="-90.00" type="passenger" speed="11.08" pos="139.73" lane="2fi_0" slope="0.00"/>
        <vehicle id="vertical.0" x="501.65" y="91.80" angle="180.00" type="passenger" speed="10.00" pos="91.80" lane="3fi_0" slope="0.00"/>
    </timestep>
    <timestep time="22.00">
        <vehicle id="always_left.0" x="501.65" y="160.06" angle="180.00" type="passenger" speed="10.94" pos="160.06" lane="3fi_0" slope="0.00"/>
        <vehicle id="always_right.0" x="149.03" y="498.35" angle="90.00" type="passenger" speed="10.99" pos="149.03" lane="1fi_0" slope="0.00"/>
        <vehicle id="horizontal.0" x="849.25" y="501.65" angle="-90.00" type="passenger" speed="11.03" pos="150.75" lane="2fi_0" slope="0.00"/>
        <vehicle id="vertical.0" x="501.65" y="102.32" angle="180.00" type="passenger" speed="10.52" pos="102.32" lane="3fi_0" slope="0.00"/>
    </timestep>
    <timestep time="23.00">
        <vehicle id="always_left.0" x="501.65" y="170.84" angle="180.00" type="passenger" speed="10.78" pos="170.84" lane="3fi_0" slope="0.00"/>
        <vehicle id="always_right.0" x="159.89" y="498.35" angle="90.00" type="passenger" speed="10.86" pos="159.89" lane="1fi_0" slope="0.00"/>
        <vehicle id="horizontal.0" x="838.30" y="501.65" angle="-90.00" type="passenger" speed="10.95" pos="161.70" lane="2fi_0" slope="0.00"/>
        <vehicle id="vertical.0" x="501.65" y="113.23" angle="180.00" type="passenger" speed="10.90" pos="113.23" lane="3fi_0" slope="0.00"/>
    </timestep>
    <timestep time="24.00">
        <vehicle id="always_left.0" x="501.65" y="181.55" angle="180.00" type="passenger" speed="10.72" pos="181.55" lane="3fi_0" slope="0.00"/>
        <vehicle id="always_right.0" x="170.77" y="498.35" angle="90.00" type="passenger" speed="10.88" pos="170.77" lane="1fi_0" slope="0.00"/>
        <vehicle id="horizontal.0" x="827.35" y="501.65" angle="-90.00" type="passenger" speed="10.94" pos="172.65" lane="2fi_0" slope="0.00"/>
        <vehicle id="vertical.0" x="501.65" y="124.19" angle="180.00" type="passenger" speed="10.96" pos="124.19" lane="3fi_0" slope="0.00"/>
    </timestep>
    <timestep time="25.00">
        <vehicle id="always_left.0" x="501.65" y="192.31" angle="180.00" type="passenger" speed="10.76" pos="192.31" lane="3fi_0" slope="0.00"/>
        <vehicle id="always_right.0" x="181.87" y="498.35" angle="90.00" type="passenger" speed="11.10" pos="181.87" lane="1fi_0" slope="0.00"/>
        <vehicle id="horizontal.0" x="816.36" y="501.65" angle="-90.00" type="passenger" speed="10.99" pos="183.64" lane="2fi_0" slope="0.00"/>
        <vehicle id="vertical.0" x="501.65" y="135.26" angle="180.00" type="passenger" speed="11.07" pos="135.26" lane="3fi_0" slope="0.00"/>
    </timestep>
    <timestep time="26.00">
        <vehicle id="always_left.0" x="501.65" y="203.25" angle="180.00" type="passenger" speed="10.94" pos="203.25" lane="3fi_0" slope="0.00"/>
        <vehicle id="always_right.0" x="192.73" y="498.35" angle="90.00" type="passenger" speed="10.86" pos="192.73" lane="1fi_0" slope="0.00"/>
        <vehicle id="horizontal.0" x="805.62" y="501.65" angle="-90.00" type="passenger" speed="10.74" pos="194.38" lane="2fi_0" slope="0.00"/>
        <vehicle id="vertical.0" x="501.65" y="146.17" angle="180.00" type="passenger" speed="10.91" pos="146.17" lane="3fi_0" slope="0.00"/>
    </timestep>
    <timestep time="27.00">
        <vehicle id="always_left.0" x="501.65" y="214.14" angle="180.00" type="passenger" speed="10.88" pos="214.14" lane="3fi_0" slope="0.00"/>
        <vehicle id="always_right.0" x="203.55" y="498.35" angle="90.00" type="passenger" speed="10.83" pos="203.55" lane="1fi_0" slope="0.00"/>
        <vehicle id="horizontal.0" x="794.70" y="501.65" angle="-90.00" type="passenger" speed="10.93" pos="205.30" lane="2fi_0" slope="0.00"/>
        <vehicle id="vertical.0" x="501.65" y="156.93" angle="180.00" type="passenger" speed="10.76" pos="156.93" lane="3fi_0" slope="0.00"/>
    </timestep>
    <timestep time="28.00">
        <vehicle id="always_left.0" x="501.65" y="225.11" angle="180.00" type="passenger" speed="10.97" pos="225.11" lane="3fi_0" slope="0.00"/>
        <vehicle id="always_right.0" x="214.27" y="498.35" angle="90.00" type="passenger" speed="10.72" pos="214.27" lane="1fi_0" slope="0.00"/>
        <vehicle id="horizontal.0" x="783.70" y="501.65" angle="-90.00" type="passenger" speed="10.99" pos="216.30" lane="2fi_0" slope="0.00"/>
        <vehicle id="vertical.0" x="501.65" y="167.88" angle="180.00" type="passenger" speed="10.95" pos="167.88" lane="3fi_0" slope="0.00"/>
    </timestep>
    <timestep time="29.00">
        <vehicle id="always_left.0" x="501.65" y="235.95" angle="180.00" type="passenger" speed="10.85" pos="235.95" lane="3fi_0" slope="0.00"/>
        <vehicle id="always_right.0" x="225.10" y="498.35" angle="90.00" type="passenger" speed="10.83" pos="225.10" lane="1fi_0" slope="0.00"/>
        <vehicle id="horizontal.0" x="772.63" y="501.65" angle="-90.00" type="passenger" speed="11.07" pos="227.37" lane="2fi_0" slope="0.00"/>
        <vehicle id="vertical.0" x="501.65" y="178.80" angle="180.00" type="passenger" speed="10.92" pos="178.80" lane="3fi_0" slope="0.00"/>
    </timestep>
    <timestep time="30.00">
        <vehicle id="always_left.0" x="501.65" y="247.01" angle="180.00" type="passenger" speed="11.06" pos="247.01" lane="3fi_0" slope="0.00"/>
        <vehicle id="always_left.1" x="501.65" y="5.10" angle="180.00" type="passenger" speed="0.00" pos="5.10" lane="3fi_0" slope="0.00"/>
        <vehicle id="always_right.0" x="235.90" y="498.35" angle="90.00" type="passenger" speed="10.80" pos="235.90" lane="1fi_0" slope="0.00"/>
        <vehicle id="always_right.1" x="5.10" y="498.35" angle="90.00" type="passenger" speed="0.00" pos="5.10" lane="1fi_0" slope="0.00"/>
        <vehicle id="horizontal.0" x="761.64" y="501.65" angle="-90.00" type="passenger" speed="11.00" pos="238.36" lane="2fi_0" slope="0.00"/>
        <vehicle id="horizontal.1" x="994.90" y="501.65" angle="-90.00" type="passenger" speed="0.00" pos="5.10" lane="2fi_0" slope="0.00"/>
        <vehicle id="vertical.0" x="501.65" y="189.63" angle="180.00" type="passenger" speed="10.83" pos="189.63" lane="3fi_0" slope="0.00"/>
    </timestep>
    <timestep time="31.00">
        <vehicle id="always_left.0" x="508.25" y="253.72" angle="143.06" type="passenger" speed="10.95" pos="2.22" lane="3si_0" slope="0.00"/>
        <vehicle id="always_left.1" x="501.65" y="5.71" angle="180.00" type="passenger" speed="0.61" pos="5.71" lane="3fi_0" slope="0.00"/>
        <vehicle id="always_right.0" x="246.96" y="498.35" angle="90.00" type="passenger" speed="11.05" pos="246.96" lane="1fi_0" slope="0.00"/>
        <vehicle id="always_right.1" x="5.61" y="498.35" angle="90.00" type="passenger" speed="0.51" pos="5.61" lane="1fi_0" slope="0.00"/>
        <vehicle id="horizontal.0" x="750.95" y="502.26" angle="-97.35" type="passenger" speed="10.96" pos="0.82" lane=":m2_1_0" slope="0.00"/>
        <vehicle id="horizontal.1" x="994.45" y="501.65" angle="-90.00" type="passenger" speed="0.45" pos="5.55" lane="2fi_0" slope="0.00"/>
        <vehicle id="vertical.0" x="501.65" y="200.72" angle="180.00" type="passenger" speed="11.09" pos="200.72" lane="3fi_0" slope="0.00"/>
    </timestep>
    <timestep time="32.00">
        <vehicle id="always_left.0" x="508.25" y="265.20" angle="180.00" type="passenger" speed="11.48" pos="13.70" lane="3si_0" slope="0.00"/>
        <vehicle id="always_left.1" x="501.65" y="6.75" angle="180.00" type="passenger" speed="1.05" pos="6.75" lane="3fi_0" slope="0.00"/>
        <vehicle id="always_right.0" x="257.73" y="498.35" angle="90.00" type="passenger" speed="10.77" pos="6.23" lane="1si_2" slope="0.00"/>
        <vehicle id="always_right.1" x="6.54" y="498.35" angle="90.00" type="passenger" speed="0.92" pos="6.54" lane="1fi_0" slope="0.00"/>
        <vehicle id="horizontal.0" x="740.64" y="504.95" angle="-90.00" type="passenger" speed="11.50" pos="7.86" lane="2si_1" slope="0.00"/>
        <vehicle id="horizontal.1" x="993.27" y="501.65" angle="-90.00" type="passenger" speed="1.19" pos="6.73" lane="2fi_0" slope="0.00"/>
        <vehicle id="vertical.0" x="501.65" y="211.69" angle="180.00" type="passenger" speed="10.97" pos="211.69" lane="3fi_0" slope="0.00"/>
    </timestep>
    <timestep time="33.00">
        <vehicle id="always_left.0" x="508.25" y="277.37" angle="180.00" type="passenger" speed="12.17" pos="25.87" lane="3si_0" slope="0.00"/>
        <vehicle id="always_left.1" x="501.65" y="8.36" angle="180.00" type="passenger" speed="1.61" pos="8.36" lane="3fi_0" slope="0.00"/>
        <vehicle id="always_right.0" x="269.06" y="498.35" angle="90.00" type="passenger" speed="11.34" pos="17.56" lane="1si_2" slope="0.00"/>
        <vehicle id="always_right.1" x="8.11" y="498.35" angle="90.00" type="passenger" speed="1.57" pos="8.11" lane="1fi_0" slope="0.00"/>
        <vehicle id="horizontal.0" x="728.52" y="504.95" angle="-90.00" type="passenger" speed="12.12" pos="19.98" lane="2si_1" slope="0.00"/>
        <vehicle id="horizontal.1" x="991.55" y="501.65" angle="-90.00" type="passenger" speed="1.71" pos="8.45" lane="2fi_0" slope="0.00"/>
        <vehicle id="vertical.0" x="501.65" y="222.57" angle="180.00" type="passenger" speed="10.88" pos="222.57" lane="3fi_0" slope="0.00"/>
    </timestep>
    <timestep time="34.00">
        <vehicle id="always_left.0" x="508.25" y="290.09" angle="180.00" type="passenger" speed="12.72" pos="38.59" lane="3si_0" slope="0.00"/>
        <vehicle id="always_left.1" x="501.65" y="10.55" angle="180.00" type="passenger" speed="2.19" pos="10.55" lane="3fi_0" slope="0.00"/>
        <vehicle id="always_right.0" x="280.86" y="498.35" angle="90.00" type="passenger" speed="11.79" pos="29.36" lane="1si_2" slope="0.00"/>
        <vehicle id="always_right.1" x="10.15" y="498.35" angle="90.00" type="passenger" speed="2.04" pos="10.15" lane="1fi_0" slope="0.00"/>
        <vehicle id="horizontal.0" x="715.63" y="504.95" angle="-90.00" type="passenger" speed="12.88" pos="32.87" lane="2si_1" slope="0.00"/>
        <vehicle id="horizontal.1" x="989.42" y="501.65" angle="-90.00" type="passenger" speed="2.14" pos="10.58" lane="2fi_0" slope="0.00"/>
        <vehicle id="vertical.0" x="501.65" y="233.68" angle="180.00" type="passenger" speed="11.10" pos="233.68" lane="3fi_0" slope="0.00"/>
    </timestep>
    <timestep time="35.00">
        <vehicle id="always_left.0" x="508.25" y="303.41" angle="180.00" type="passenger" speed="13.32" pos="51.91" lane="3si_0" slope="0.00"/>
        <vehicle id="always_left.1" x="501.65" y="13.40" angle="180.00" type="passenger" speed="2.85" pos="13.40" lane="3fi_0" slope="0.00"/>
        <vehicle id="always_right.0" x="293.10" y="498.35" angle="90.00" type="passenger" speed="12.24" pos="41.60" lane="1si_2" slope="0.00"/>
        <vehicle id="always_right.1" x="12.63" y="498.35" angle="90.00" type="passenger" speed="2.48" pos="12.63" lane="1fi_0" slope="0.00"/>
        <vehicle id="horizontal.0" x="702.34" y="504.95" angle="-90.00" type="passenger" speed="13.29" pos="46.16" lane="2si_1" slope="0.00"/>
        <vehicle id="horizontal.1" x="986.55" y="501.65" angle="-90.00" type="passenger" speed="2.87" pos="13.45" lane="2fi_0" slope="0.00"/>
        <vehicle id="vertical.0" x="501.65" y="244.47" angle="180.00" type="passenger" speed="10.79" pos="244.47" lane="3fi_0" slope="0.00"/>
        <vehicle id="vertical.1" x="501.65" y="5.10" angle="180.00" type="passenger" speed="0.00" pos="5.10" lane="3fi_0" slope="0.00"/>
    </timestep>
    <timestep time="36.00">
        <vehicle id="always_left.0" x="508.25" y="317.30" angle="180.00" type="passenger" speed="13.89" pos="65.80" lane="3si_0" slope="0.00"/>
        <vehicle id="always_left.1" x="501.65" y="16.86" angle="180.00" type="passenger" speed="3.46" pos="16.86" lane="3fi_0" slope="0.00"/>
        <vehicle id="always_right.0" x="306.00" y="498.35" angle="90.00" type="passenger" speed="12.90" pos="54.50" lane="1si_2" slope="0.00"/>
        <vehicle id="always_right.1" x="15.65" y="498.35" angle="90.00" type="passenger" speed="3.02" pos="15.65" lane="1fi_0" slope="0.00"/>
        <vehicle id="horizontal.0" x="688.64" y="504.95" angle="-90.00" type="passenger" speed="13.70" pos="59.86" lane="2si_1" slope="0.00"/>
        <vehicle id="horizontal.1" x="983.25" y="501.65" angle="-90.00" type="passenger" speed="3.30" pos="16.75" lane="2fi_0" slope="0.00"/>
        <vehicle id="vertical.0" x="504.95" y="253.75" angle="153.65" type="passenger" speed="10.75" pos="2.25" lane="3si_1" slope="0.00"/>
        <vehicle id="vertical.1" x="501.65" y="5.90" angle="180.00" type="passenger" speed="0.80" pos="5.90" lane="3fi_0" slope="0.00"/>
    </timestep>
    <timestep time="37.00">
        <vehicle id="always_left.0" x="508.25" y="330.87" angle="180.00" type="passenger" speed="13.56" pos="79.37" lane="3si_0" slope="0.00"/>
        <vehicle id="always_left.1" x="501.65" y="20.74" angle="180.00" type="passenger" speed="3.88" pos="20.74" lane="3fi_0" slope="0.00"/>
        <vehicle id="always_right.0" x="319.36" y="498.35" angle="90.00" type="passenger" speed="13.36" pos="67.86" lane="1si_2" slope="0.00"/>
        <vehicle id="always_right.1" x="19.31" y="498.35" angle="90.00" type="passenger" speed="3.66" pos="19.31" lane="1fi_0" slope="0.00"/>
        <vehicle id="horizontal.0" x="674.80" y="504.95" angle="-90.00" type="passenger" speed="13.84" pos="73.70" lane="2si_1" slope="0.00"/>
        <vehicle id="horizontal.1" x="979.55" y="501.65" angle="-90.00" type="passenger" speed="3.70" pos="20.45" lane="2fi_0" slope="0.00"/>
        <vehicle id="vertical.0" x="504.95" y="265.14" angle="180.00" type="passenger" speed="11.38" pos="13.64" lane="3si_1" slope="0.00"/>
        <vehicle id="vertical.1" x="501.65" y="7.30" angle="180.00" type="passenger" speed="1.40" pos="7.30" lane="3fi_0" slope="0.00"/>
    </timestep>
    <timestep time="38.00">
        <vehicle id="always_left.0" x="508.25" y="344.62" angle="180.00" type="passenger" speed="13.76" pos="93.12" lane="3si_0" slope="0.00"/>
        <vehicle id="always_left.1" x="501.65" y="25.30" angle="180.00" type="passenger" speed="4.55" pos="25.30" lane="3fi_0" slope="0.00"/>
        <vehicle id="always_right.0" x="332.91" y="498.35" angle="90.00" type="passenger" speed="13.55" pos="81.41" lane="1si_2" slope="0.00"/>
        <vehicle id="always_right.1" x="23.69" y="498.35" angle="90.00" type="passenger" speed="4.38" pos="23.69" lane="1fi_0" slope="0.00"/>
        <vehicle id="horizontal.0" x="661.09" y="504.95" angle="-90.00" type="passenger" speed="13.70" pos="87.41" lane="2si_1" slope="0.00"/>
        <vehicle id="horizontal.1" x="975.11" y="501.65" angle="-90.00" type="passenger" speed="4.44" pos="24.89" lane="2fi_0" slope="0.00"/>
        <vehicle id="vertical.0" x="504.95" y="277.00" angle="180.00" type="passenger" speed="11.87" pos="25.50" lane="3si_1" slope="0.00"/>
        <vehicle id="vertical.1" x="501.65" y="9.32" angle="180.00" type="passenger" speed="2.02" pos="9.32" lane="3fi_0" slope="0.00"/>
    </timestep>
    <timestep time="39.00">
        <vehicle id="always_left.0" x="508.25" y="358.19" angle="180.00" type="passenger" speed="13.57" pos="106.69" lane="3si_0" slope="0.00"/>
        <vehicle id="always_left.1" x="501.65" y="30.33" angle="180.00" type="passenger" speed="5.04" pos="30.33" lane="3fi_0" slope="0.00"/>
        <vehicle id="always_right.0" x="346.66" y="498.35" angle="90.00" type="passenger" speed="13.74" pos="95.16" lane="1si_2" slope="0.00"/>
        <vehicle id="always_right.1" x="28.81" y="498.35" angle="90.00" type="passenger" speed="5.11" pos="28.81" lane="1fi_0" slope="0.00"/>
        <vehicle id="horizontal.0" x="647.38" y="504.95" angle="-90.00" type="passenger" speed="13.71" pos="101.12" lane="2si_1" slope="0.00"/>
        <vehicle id="horizontal.1" x="970.10" y="501.65" angle="-90.00" type="passenger" speed="5.01" pos="29.90" lane="2fi_0" slope="0.00"/>
        <vehicle id="vertical.0" x="504.95" y="289.38" angle="180.00" type="passenger" speed="12.38" pos="37.88" lane="3si_1" slope="0.00"/>
        <vehicle id="vertical.1" x="501.65" y="12.09" angle="180.00" type="passenger" speed="2.77" pos="12.09" lane="3fi_0" slope="0.00"/>
    </timestep>
    <timestep time="40.00">
        <vehicle id="always_left.0" x="508.25" y="371.99" angle="180.00" type="passenger" speed="13.80" pos="120.49" lane="3si_0" slope="0.00"/>
        <vehicle id="always_left.1" x="501.65" y="36.07" angle="180.00" type="passenger" speed="5.74" pos="36.07" lane="3fi_0" slope="0.00"/>
        <vehicle id="always_right.0" x="360.46" y="498.35" angle="90.00" type="passenger" speed="13.80" pos="108.96" lane="1si_2" slope="0.00"/>