<?xml version="1.0" encoding="UTF-8"?>

<!-- generated on 07/06/17 11:19:22 by SUMO Version dev-SVN-r25114
<?xml version="1.0" encoding="UTF-8"?>

<configuration xmlns:xsi="http://www.w3.org/2001/XMLSchema-instance" xsi:noNamespaceSchemaLocation="http://sumo.dlr.de/xsd/sumoConfiguration.xsd">

    <input>
        <net-file value="motorway.net.xml"/>
        <route-files value="input_routes.rou.xml"/>
        <additional-files value="input_additional.add.xml"/>
    </input>

    <processing>
        <max-depart-delay value="1"/>
    </processing>

    <report>
        <verbose value="true"/>
        <xml-validation value="never"/>
        <duration-log.statistics value="true"/>
        <no-step-log value="true"/>
    </report>

</configuration>
-->

<detector xmlns:xsi="http://www.w3.org/2001/XMLSchema-instance" xsi:noNamespaceSchemaLocation="http://sumo.dlr.de/xsd/det_e1_file.xsd">
    <interval begin="0.00" end="900.00" id="beg2_0" nVehContrib="447" flow="1788.00" occupancy="8.76" speed="28.89" length="5.00" nVehEntered="447"/>
    <interval begin="0.00" end="900.00" id="beg2_1" nVehContrib="544" flow="2176.00" occupancy="9.22" speed="32.87" length="5.00" nVehEntered="544"/>
    <interval begin="900.00" end="1800.00" id="beg2_0" nVehContrib="457" flow="1828.00" occupancy="9.20" speed="28.68" length="5.00" nVehEntered="457"/>
    <interval begin="900.00" end="1800.00" id="beg2_1" nVehContrib="563" flow="2252.00" occupancy="9.90" speed="31.76" length="5.00" nVehEntered="563"/>
    <interval begin="1800.00" end="1902.00" id="beg2_0" nVehContrib="40" flow="1411.76" occupancy="6.77" speed="29.08" length="5.00" nVehEntered="40"/>
    <interval begin="1800.00" end="1902.00" id="beg2_1" nVehContrib="57" flow="2011.76" occupancy="8.47" speed="33.11" length="5.00" nVehEntered="57"/>
</detector>
