<?xml version="1.0" encoding="UTF-8"?>

<!-- generated on Tue Mar 31 09:33:56 2020 by Eclipse SUMO Version v1_5_0+1023-63f9a82342
This data file and the accompanying materials
are made available under the terms of the Eclipse Public License v2.0
which accompanies this distribution, and is available at
http://www.eclipse.org/legal/epl-v20.html
SPDX-License-Identifier: EPL-2.0
<configuration xmlns:xsi="http://www.w3.org/2001/XMLSchema-instance" xsi:noNamespaceSchemaLocation="http://sumo.dlr.de/xsd/sumoConfiguration.xsd">

    <input>
        <net-file value="net.net.xml"/>
        <route-files value="input_routes.rou.xml"/>
        <additional-files value="input_additional.add.xml,input_additional2.add.xml"/>
    </input>

    <output>
        <write-license value="true"/>
        <tripinfo-output.write-unfinished value="true"/>
    </output>

    <time>
        <begin value="0"/>
        <end value="3000"/>
    </time>

    <processing>
        <default.speeddev value="0"/>
    </processing>

    <report>
        <verbose value="true"/>
        <xml-validation value="never"/>
        <duration-log.statistics value="true"/>
        <no-step-log value="true"/>
    </report>

</configuration>
-->

<meandata xmlns:xsi="http://www.w3.org/2001/XMLSchema-instance" xsi:noNamespaceSchemaLocation="http://sumo.dlr.de/xsd/meandata_file.xsd">
    <interval begin="0.00" end="60.00" id="dump_60">
        <edge id="1/1to2/1" sampledSeconds="874.67" traveltime="171.07" overlapTraveltime="168.84" density="14.88" laneDensity="14.88" occupancy="7.39" waitingTime="208.00" speed="5.83" departed="60" arrived="0" entered="0" left="33" laneChangedFrom="0" laneChangedTo="0"/>
        <edge id="2/1to3/1" sampledSeconds="897.27" traveltime="52.92" overlapTraveltime="53.19" density="15.26" laneDensity="15.26" occupancy="7.58" waitingTime="0.00" speed="18.52" departed="0" arrived="0" entered="33" left="1" laneChangedFrom="0" laneChangedTo="0"/>
        <edge id="3/1to4/1" sampledSeconds="2.90" traveltime="51.33" overlapTraveltime="51.60" density="0.05" laneDensity="0.05" occupancy="0.02" waitingTime="0.00" speed="19.09" departed="0" arrived="0" entered="1" left="0" laneChangedFrom="0" laneChangedTo="0"/>
    </interval>
    <interval begin="60.00" end="120.00" id="dump_60">
        <edge id="1/1to2/1" sampledSeconds="2258.53" traveltime="125.85" overlapTraveltime="125.70" density="38.41" laneDensity="38.41" occupancy="19.16" waitingTime="691.00" speed="7.84" departed="60" arrived="0" entered="0" left="38" laneChangedFrom="0" laneChangedTo="0"/>
        <edge id="2/1to3/1" sampledSeconds="1961.89" traveltime="52.28" overlapTraveltime="52.55" density="33.37" laneDensity="33.37" occupancy="16.60" waitingTime="0.00" speed="18.74" departed="0" arrived="0" entered="38" left="37" laneChangedFrom="0" laneChangedTo="0"/>
        <edge id="3/1to4/1" sampledSeconds="1127.55" traveltime="52.08" overlapTraveltime="52.35" density="19.18" laneDensity="19.18" occupancy="9.54" waitingTime="0.00" speed="18.82" departed="0" arrived="0" entered="37" left="6" laneChangedFrom="0" laneChangedTo="0"/>
        <edge id="4/1to5/1" sampledSeconds="30.55" traveltime="51.58" overlapTraveltime="51.85" density="0.52" laneDensity="0.52" occupancy="0.25" waitingTime="0.00" speed="19.00" departed="0" arrived="0" entered="6" left="0" laneChangedFrom="0" laneChangedTo="0"/>
    </interval>
    <interval begin="120.00" end="180.00" id="dump_60">
        <edge id="1/1to2/1" sampledSeconds="2868.59" traveltime="92.18" overlapTraveltime="92.41" density="48.79" laneDensity="48.79" occupancy="24.24" waitingTime="635.00" speed="10.66" departed="23" arrived="0" entered="0" left="37" laneChangedFrom="0" laneChangedTo="0"/>
        <edge id="2/1to3/1" sampledSeconds="1957.84" traveltime="52.26" overlapTraveltime="52.53" density="33.30" laneDensity="33.30" occupancy="16.57" waitingTime="0.00" speed="18.75" departed="0" arrived="0" entered="37" left="37" laneChangedFrom="0" laneChangedTo="0"/>
        <edge id="3/1to4/1" sampledSeconds="1960.37" traveltime="52.23" overlapTraveltime="52.50" density="33.34" laneDensity="33.34" occupancy="16.59" waitingTime="0.00" speed="18.76" departed="0" arrived="0" entered="37" left="37" laneChangedFrom="0" laneChangedTo="0"/>
        <edge id="4/1to5/1" sampledSeconds="1344.36" traveltime="51.92" overlapTraveltime="52.19" density="22.86" laneDensity="22.86" occupancy="11.38" waitingTime="0.00" speed="18.87" departed="0" arrived="0" entered="37" left="11" laneChangedFrom="0" laneChangedTo="0"/>
        <edge id="5/1to6/1" sampledSeconds="95.54" traveltime="51.76" overlapTraveltime="52.02" density="1.62" laneDensity="1.62" occupancy="0.80" waitingTime="0.00" speed="18.93" departed="0" arrived="0" entered="10" left="0" laneChangedFrom="0" laneChangedTo="0"/>
    </interval>
    <interval begin="180.00" end="240.00" id="dump_60">
        <edge id="1/1to2/1" sampledSeconds="1602.00" traveltime="56.06" overlapTraveltime="56.32" density="27.25" laneDensity="27.25" occupancy="13.41" waitingTime="10.00" speed="17.49" departed="20" arrived="0" entered="0" left="36" laneChangedFrom="0" laneChangedTo="0"/>
        <edge id="2/1to3/1" sampledSeconds="1962.27" traveltime="52.27" overlapTraveltime="52.53" density="33.37" laneDensity="33.37" occupancy="16.60" waitingTime="0.00" speed="18.75" departed="0" arrived="0" entered="36" left="38" laneChangedFrom="0" laneChangedTo="0"/>
        <edge id="3/1to4/1" sampledSeconds="1956.59" traveltime="52.20" overlapTraveltime="52.46" density="33.28" laneDensity="33.28" occupancy="16.55" waitingTime="0.00" speed="18.77" departed="0" arrived="0" entered="37" left="37" laneChangedFrom="0" laneChangedTo="0"/>
        <edge id="4/1to5/1" sampledSeconds="1957.62" traveltime="52.14" overlapTraveltime="52.41" density="33.29" laneDensity="33.29" occupancy="16.56" waitingTime="0.00" speed="18.79" departed="0" arrived="0" entered="37" left="36" laneChangedFrom="0" laneChangedTo="0"/>
        <edge id="5/1to6/1" sampledSeconds="1530.24" traveltime="51.99" overlapTraveltime="52.25" density="26.03" laneDensity="26.03" occupancy="12.95" waitingTime="0.00" speed="18.85" departed="0" arrived="0" entered="37" left="15" laneChangedFrom="0" laneChangedTo="0"/>
        <edge id="6/1to7/1" sampledSeconds="199.26" traveltime="51.81" overlapTraveltime="52.07" density="3.39" laneDensity="3.39" occupancy="1.68" waitingTime="0.00" speed="18.91" departed="0" arrived="0" entered="15" left="0" laneChangedFrom="0" laneChangedTo="0"/>
    </interval>
    <interval begin="240.00" end="300.00" id="dump_60">
        <edge id="1/1to2/1" sampledSeconds="1115.06" traveltime="56.94" overlapTraveltime="57.20" density="18.96" laneDensity="18.96" occupancy="9.33" waitingTime="13.00" speed="17.22" departed="20" arrived="0" entered="0" left="20" laneChangedFrom="0" laneChangedTo="0"/>
        <edge id="2/1to3/1" sampledSeconds="1400.21" traveltime="52.13" overlapTraveltime="52.39" density="23.81" laneDensity="23.81" occupancy="11.85" waitingTime="0.00" speed="18.80" departed="0" arrived="0" entered="20" left="34" laneChangedFrom="0" laneChangedTo="0"/>
        <edge id="3/1to4/1" sampledSeconds="1939.28" traveltime="52.19" overlapTraveltime="52.46" density="32.98" laneDensity="32.98" occupancy="16.41" waitingTime="0.00" speed="18.78" departed="0" arrived="0" entered="35" left="37" laneChangedFrom="0" laneChangedTo="0"/>
        <edge id="4/1to5/1" sampledSeconds="1957.25" traveltime="52.20" overlapTraveltime="52.47" density="33.29" laneDensity="33.29" occupancy="16.56" waitingTime="0.00" speed="18.77" departed="0" arrived="0" entered="37" left="38" laneChangedFrom="0" laneChangedTo="0"/>
        <edge id="5/1to6/1" sampledSeconds="1955.13" traveltime="52.14" overlapTraveltime="52.41" density="33.25" laneDensity="33.25" occupancy="16.54" waitingTime="0.00" speed="18.79" departed="0" arrived="0" entered="38" left="37" laneChangedFrom="0" laneChangedTo="0"/>
        <edge id="6/1to7/1" sampledSeconds="1676.71" traveltime="51.96" overlapTraveltime="52.22" density="28.52" laneDensity="28.52" occupancy="14.19" waitingTime="0.00" speed="18.86" departed="0" arrived="0" entered="37" left="20" laneChangedFrom="0" laneChangedTo="0"/>
        <edge id="7/1to8/1" sampledSeconds="339.91" traveltime="51.80" overlapTraveltime="52.06" density="5.78" laneDensity="5.78" occupancy="2.87" waitingTime="0.00" speed="18.92" departed="0" arrived="0" entered="20" left="0" laneChangedFrom="0" laneChangedTo="0"/>
    </interval>
    <interval begin="300.00" end="360.00" id="dump_60">
        <edge id="1/1to2/1" sampledSeconds="1157.01" traveltime="56.81" overlapTraveltime="57.07" density="19.68" laneDensity="19.68" occupancy="9.64" waitingTime="12.00" speed="17.26" departed="20" arrived="0" entered="0" left="20" laneChangedFrom="0" laneChangedTo="0"/>
        <edge id="2/1to3/1" sampledSeconds="1015.35" traveltime="51.74" overlapTraveltime="52.00" density="17.27" laneDensity="17.27" occupancy="8.59" waitingTime="0.00" speed="18.94" departed="0" arrived="0" entered="20" left="20" laneChangedFrom="0" laneChangedTo="0"/>
        <edge id="3/1to4/1" sampledSeconds="1307.22" traveltime="51.89" overlapTraveltime="52.16" density="22.23" laneDensity="22.23" occupancy="11.06" waitingTime="0.00" speed="18.88" departed="0" arrived="0" entered="20" left="33" laneChangedFrom="0" laneChangedTo="0"/>
        <edge id="4/1to5/1" sampledSeconds="1906.52" traveltime="52.14" overlapTraveltime="52.40" density="32.43" laneDensity="32.43" occupancy="16.13" waitingTime="0.00" speed="18.80" departed="0" arrived="0" entered="33" left="37" laneChangedFrom="0" laneChangedTo="0"/>
        <edge id="5/1to6/1" sampledSeconds="1958.72" traveltime="52.16" overlapTraveltime="52.43" density="33.31" laneDensity="33.31" occupancy="16.57" waitingTime="0.00" speed="18.79" departed="0" arrived="0" entered="37" left="38" laneChangedFrom="0" laneChangedTo="0"/>
        <edge id="6/1to7/1" sampledSeconds="1954.03" traveltime="52.18" overlapTraveltime="52.45" density="33.23" laneDensity="33.23" occupancy="16.53" waitingTime="0.00" speed="18.78" departed="0" arrived="0" entered="38" left="37" laneChangedFrom="0" laneChangedTo="0"/>
        <edge id="7/1to8/1" sampledSeconds="1783.95" traveltime="51.92" overlapTraveltime="52.18" density="30.34" laneDensity="30.34" occupancy="15.10" waitingTime="0.00" speed="18.88" departed="0" arrived="0" entered="37" left="25" laneChangedFrom="0" laneChangedTo="0"/>
        <edge id="8/1to9/1" sampledSeconds="520.04" traveltime="51.80" overlapTraveltime="52.06" density="8.84" laneDensity="8.84" occupancy="4.39" waitingTime="0.00" speed="18.92" departed="0" arrived="0" entered="25" left="0" laneChangedFrom="0" laneChangedTo="0"/>
    </interval>
    <interval begin="360.00" end="420.00" id="dump_60">
        <edge id="1/1to2/1" sampledSeconds="1115.76" traveltime="56.84" overlapTraveltime="57.11" density="18.98" laneDensity="18.98" occupancy="9.32" waitingTime="13.00" speed="17.25" departed="19" arrived="0" entered="0" left="20" laneChangedFrom="0" laneChangedTo="0"/>
        <edge id="2/1to3/1" sampledSeconds="1060.36" traveltime="51.71" overlapTraveltime="51.97" density="18.03" laneDensity="18.03" occupancy="8.97" waitingTime="0.00" speed="18.95" departed="0" arrived="0" entered="20" left="20" laneChangedFrom="0" laneChangedTo="0"/>
        <edge id="3/1to4/1" sampledSeconds="1014.41" traveltime="51.64" overlapTraveltime="51.91" density="17.25" laneDensity="17.25" occupancy="8.58" waitingTime="0.00" speed="18.98" departed="0" arrived="0" entered="20" left="19" laneChangedFrom="0" laneChangedTo="0"/>
        <edge id="4/1to5/1" sampledSeconds="1226.29" traveltime="51.85" overlapTraveltime="52.11" density="20.86" laneDensity="20.86" occupancy="10.37" waitingTime="0.00" speed="18.90" departed="0" arrived="0" entered="19" left="31" laneChangedFrom="0" laneChangedTo="0"/>
        <edge id="5/1to6/1" sampledSeconds="1865.33" traveltime="52.17" overlapTraveltime="52.44" density="31.73" laneDensity="31.73" occupancy="15.78" waitingTime="0.00" speed="18.78" departed="0" arrived="0" entered="31" left="37" laneChangedFrom="0" laneChangedTo="0"/>
        <edge id="6/1to7/1" sampledSeconds="1959.08" traveltime="52.16" overlapTraveltime="52.43" density="33.32" laneDensity="33.32" occupancy="16.58" waitingTime="0.00" speed="18.79" departed="0" arrived="0" entered="37" left="37" laneChangedFrom="0" laneChangedTo="0"/>
        <edge id="7/1to8/1" sampledSeconds="1952.73" traveltime="52.12" overlapTraveltime="52.38" density="33.21" laneDensity="33.21" occupancy="16.52" waitingTime="0.00" speed="18.80" departed="0" arrived="0" entered="37" left="37" laneChangedFrom="0" laneChangedTo="0"/>
        <edge id="8/1to9/1" sampledSeconds="1853.95" traveltime="51.94" overlapTraveltime="52.21" density="31.53" laneDensity="31.53" occupancy="15.69" waitingTime="0.00" speed="18.87" departed="0" arrived="0" entered="37" left="30" laneChangedFrom="0" laneChangedTo="0"/>
        <edge id="9/1to10/1" sampledSeconds="737.21" traveltime="51.86" overlapTraveltime="52.13" density="12.54" laneDensity="12.54" occupancy="6.24" waitingTime="0.00" speed="18.90" departed="0" arrived="0" entered="30" left="0" laneChangedFrom="0" laneChangedTo="0"/>
    </interval>
    <interval begin="420.00" end="480.00" id="dump_60">
        <edge id="1/1to2/1" sampledSeconds="1107.83" traveltime="56.66" overlapTraveltime="56.92" density="18.84" laneDensity="18.84" occupancy="9.26" waitingTime="11.00" speed="17.30" departed="17" arrived="0" entered="4" left="19" laneChangedFrom="0" laneChangedTo="0"/>
        <edge id="10/1to1/1" sampledSeconds="981.42" traveltime="51.99" overlapTraveltime="52.28" density="16.69" laneDensity="16.69" occupancy="8.30" waitingTime="0.00" speed="18.84" departed="0" arrived="0" entered="34" left="4" laneChangedFrom="0" laneChangedTo="0"/>
        <edge id="2/1to3/1" sampledSeconds="1010.21" traveltime="51.72" overlapTraveltime="51.98" density="17.18" laneDensity="17.18" occupancy="8.55" waitingTime="0.00" speed="18.95" departed="0" arrived="0" entered="19" left="19" laneChangedFrom="0" laneChangedTo="0"/>
        <edge id="3/1to4/1" sampledSeconds="1058.08" traveltime="51.70" overlapTraveltime="51.96" density="18.00" laneDensity="18.00" occupancy="8.95" waitingTime="0.00" speed="18.95" departed="0" arrived="0" entered="19" left="21" laneChangedFrom="0" laneChangedTo="0"/>
        <edge id="4/1to5/1" sampledSeconds="1018.92" traveltime="51.69" overlapTraveltime="51.96" density="17.33" laneDensity="17.33" occupancy="8.62" waitingTime="0.00" speed="18.96" departed="0" arrived="0" entered="21" left="19" laneChangedFrom="0" laneChangedTo="0"/>
        <edge id="5/1to6/1" sampledSeconds="1154.31" traveltime="51.81" overlapTraveltime="52.08" density="19.63" laneDensity="19.63" occupancy="9.76" waitingTime="0.00" speed="18.91" departed="0" arrived="0" entered="19" left="29" laneChangedFrom="0" laneChangedTo="0"/>
        <edge id="6/1to7/1" sampledSeconds="1808.28" traveltime="52.08" overlapTraveltime="52.34" density="30.75" laneDensity="30.75" occupancy="15.30" waitingTime="0.00" speed="18.82" departed="0" arrived="0" entered="29" left="38" laneChangedFrom="0" laneChangedTo="0"/>
        <edge id="7/1to8/1" sampledSeconds="1962.15" traveltime="52.22" overlapTraveltime="52.49" density="33.37" laneDensity="33.37" occupancy="16.60" waitingTime="0.00" speed="18.76" departed="0" arrived="0" entered="38" left="37" laneChangedFrom="0" laneChangedTo="0"/>
        <edge id="8/1to9/1" sampledSeconds="1951.84" traveltime="52.22" overlapTraveltime="52.49" density="33.20" laneDensity="33.20" occupancy="16.51" waitingTime="0.00" speed="18.76" departed="0" arrived="0" entered="37" left="37" laneChangedFrom="0" laneChangedTo="0"/>
        <edge id="9/1to10/1" sampledSeconds="1884.87" traveltime="51.89" overlapTraveltime="52.16" density="32.06" laneDensity="32.06" occupancy="15.95" waitingTime="0.00" speed="18.88" departed="0" arrived="0" entered="36" left="34" laneChangedFrom="0" laneChangedTo="0"/>
    </interval>
    <interval begin="480.00" end="540.00" id="dump_60">
        <edge id="1/1to2/1" sampledSeconds="1600.51" traveltime="51.96" overlapTraveltime="52.22" density="27.22" laneDensity="27.22" occupancy="13.54" waitingTime="0.00" speed="18.86" departed="0" arrived="0" entered="35" left="24" laneChangedFrom="0" laneChangedTo="0"/>
        <edge id="10/1to1/1" sampledSeconds="1897.29" traveltime="52.00" overlapTraveltime="52.27" density="32.27" laneDensity="32.27" occupancy="16.05" waitingTime="0.00" speed="18.84" departed="0" arrived="0" entered="37" left="35" laneChangedFrom="0" laneChangedTo="0"/>
        <edge id="2/1to3/1" sampledSeconds="1040.66" traveltime="51.74" overlapTraveltime="52.00" density="17.70" laneDensity="17.70" occupancy="8.80" waitingTime="0.00" speed="18.94" departed="0" arrived="0" entered="24" left="20" laneChangedFrom="0" laneChangedTo="0"/>
        <edge id="3/1to4/1" sampledSeconds="1005.00" traveltime="51.72" overlapTraveltime="51.99" density="17.09" laneDensity="17.09" occupancy="8.50" waitingTime="0.00" speed="18.95" departed="0" arrived="0" entered="20" left="19" laneChangedFrom="0" laneChangedTo="0"/>
        <edge id="4/1to5/1" sampledSeconds="1054.76" traveltime="51.76" overlapTraveltime="52.02" density="17.94" laneDensity="17.94" occupancy="8.93" waitingTime="0.00" speed="18.93" departed="0" arrived="0" entered="19" left="20" laneChangedFrom="0" laneChangedTo="0"/>
        <edge id="5/1to6/1" sampledSeconds="1028.24" traveltime="51.73" overlapTraveltime="51.99" density="17.49" laneDensity="17.49" occupancy="8.70" waitingTime="0.00" speed="18.94" departed="0" arrived="0" entered="20" left="19" laneChangedFrom="0" laneChangedTo="0"/>
        <edge id="6/1to7/1" sampledSeconds="1093.62" traveltime="51.76" overlapTraveltime="52.03" density="18.60" laneDensity="18.60" occupancy="9.25" waitingTime="0.00" speed="18.93" departed="0" arrived="0" entered="19" left="26" laneChangedFrom="0" laneChangedTo="0"/>
        <edge id="7/1to8/1" sampledSeconds="1734.20" traveltime="52.03" overlapTraveltime="52.30" density="29.49" laneDensity="29.49" occupancy="14.68" waitingTime="0.00" speed="18.83" departed="0" arrived="0" entered="26" left="37" laneChangedFrom="0" laneChangedTo="0"/>
        <edge id="8/1to9/1" sampledSeconds="1970.10" traveltime="52.31" overlapTraveltime="52.58" density="33.51" laneDensity="33.51" occupancy="16.67" waitingTime="0.00" speed="18.73" departed="0" arrived="0" entered="37" left="37" laneChangedFrom="0" laneChangedTo="0"/>
        <edge id="9/1to10/1" sampledSeconds="1944.47" traveltime="52.10" overlapTraveltime="52.37" density="33.07" laneDensity="33.07" occupancy="16.45" waitingTime="0.00" speed="18.81" departed="0" arrived="0" entered="38" left="37" laneChangedFrom="0" laneChangedTo="0"/>
    </interval>
    <interval begin="540.00" end="600.00" id="dump_60">
        <edge id="1/1to2/1" sampledSeconds="1901.70" traveltime="51.95" overlapTraveltime="52.22" density="32.34" laneDensity="32.34" occupancy="16.09" waitingTime="0.00" speed="18.86" departed="0" arrived="0" entered="37" left="36" laneChangedFrom="0" laneChangedTo="0"/>
        <edge id="10/1to1/1" sampledSeconds="1944.40" traveltime="52.08" overlapTraveltime="52.34" density="33.07" laneDensity="33.07" occupancy="16.45" waitingTime="0.00" speed="18.82" departed="0" arrived="0" entered="37" left="37" laneChangedFrom="0" laneChangedTo="0"/>
        <edge id="2/1to3/1" sampledSeconds="1685.79" traveltime="51.93" overlapTraveltime="52.19" density="28.67" laneDensity="28.67" occupancy="14.27" waitingTime="0.00" speed="18.87" departed="0" arrived="0" entered="36" left="26" laneChangedFrom="0" laneChangedTo="0"/>
        <edge id="3/1to4/1" sampledSeconds="1081.97" traveltime="51.69" overlapTraveltime="51.95" density="18.40" laneDensity="18.40" occupancy="9.15" waitingTime="0.00" speed="18.96" departed="0" arrived="0" entered="26" left="19" laneChangedFrom="0" laneChangedTo="0"/>
        <edge id="4/1to5/1" sampledSeconds="1002.37" traveltime="51.61" overlapTraveltime="51.87" density="17.05" laneDensity="17.05" occupancy="8.48" waitingTime="0.00" speed="18.99" departed="0" arrived="0" entered="19" left="20" laneChangedFrom="0" laneChangedTo="0"/>
        <edge id="5/1to6/1" sampledSeconds="1048.18" traveltime="51.73" overlapTraveltime="51.99" density="17.83" laneDensity="17.83" occupancy="8.87" waitingTime="0.00" speed="18.95" departed="0" arrived="0" entered="20" left="20" laneChangedFrom="0" laneChangedTo="0"/>
        <edge id="6/1to7/1" sampledSeconds="1037.83" traveltime="51.73" overlapTraveltime="51.99" density="17.65" laneDensity="17.65" occupancy="8.78" waitingTime="0.00" speed="18.94" departed="0" arrived="0" entered="20" left="19" laneChangedFrom="0" laneChangedTo="0"/>
        <edge id="7/1to8/1" sampledSeconds="1052.05" traveltime="51.76" overlapTraveltime="52.02" density="17.89" laneDensity="17.89" occupancy="8.90" waitingTime="0.00" speed="18.93" departed="0" arrived="0" entered="19" left="25" laneChangedFrom="0" laneChangedTo="0"/>
        <edge id="8/1to9/1" sampledSeconds="1650.57" traveltime="52.11" overlapTraveltime="52.37" density="28.07" laneDensity="28.07" occupancy="13.97" waitingTime="0.00" speed="18.81" departed="0" arrived="0" entered="24" left="37" laneChangedFrom="0" laneChangedTo="0"/>
        <edge id="9/1to10/1" sampledSeconds="1963.90" traveltime="52.17" overlapTraveltime="52.44" density="33.40" laneDensity="33.40" occupancy="16.62" waitingTime="0.00" speed="18.78" departed="0" arrived="0" entered="37" left="38" laneChangedFrom="0" laneChangedTo="0"/>
    </interval>
    <interval begin="600.00" end="660.00" id="dump_60">
        <edge id="1/1to2/1" sampledSeconds="1943.63" traveltime="52.13" overlapTraveltime="52.39" density="33.06" laneDensity="33.06" occupancy="16.45" waitingTime="0.00" speed="18.80" departed="0" arrived="0" entered="37" left="37" laneChangedFrom="0" laneChangedTo="0"/>
        <edge id="10/1to1/1" sampledSeconds="1959.93" traveltime="52.22" overlapTraveltime="52.49" density="33.33" laneDensity="33.33" occupancy="16.58" waitingTime="0.00" speed="18.76" departed="0" arrived="0" entered="38" left="37" laneChangedFrom="0" laneChangedTo="0"/>
        <edge id="2/1to3/1" sampledSeconds="1903.69" traveltime="51.96" overlapTraveltime="52.22" density="32.38" laneDensity="32.38" occupancy="16.11" waitingTime="0.00" speed="18.86" departed="0" arrived="0" entered="37" left="36" laneChangedFrom="0" laneChangedTo="0"/>
        <edge id="3/1to4/1" sampledSeconds="1756.44" traveltime="51.94" overlapTraveltime="52.21" density="29.87" laneDensity="29.87" occupancy="14.86" waitingTime="0.00" speed="18.86" departed="0" arrived="0" entered="36" left="28" laneChangedFrom="0" laneChangedTo="0"/>
        <edge id="4/1to5/1" sampledSeconds="1139.79" traveltime="51.80" overlapTraveltime="52.07" density="19.39" laneDensity="19.39" occupancy="9.64" waitingTime="0.00" speed="18.92" departed="0" arrived="0" entered="28" left="19" laneChangedFrom="0" laneChangedTo="0"/>
        <edge id="5/1to6/1" sampledSeconds="1001.85" traveltime="51.70" overlapTraveltime="51.97" density="17.04" laneDensity="17.04" occupancy="8.48" waitingTime="0.00" speed="18.95" departed="0" arrived="0" entered="19" left="20" laneChangedFrom="0" laneChangedTo="0"/>
        <edge id="6/1to7/1" sampledSeconds="1041.73" traveltime="51.70" overlapTraveltime="51.97" density="17.72" laneDensity="17.72" occupancy="8.81" waitingTime="0.00" speed="18.95" departed="0" arrived="0" entered="20" left="21" laneChangedFrom="0" laneChangedTo="0"/>
        <edge id="7/1to8/1" sampledSeconds="1045.00" traveltime="51.67" overlapTraveltime="51.93" density="17.77" laneDensity="17.77" occupancy="8.84" waitingTime="0.00" speed="18.97" departed="0" arrived="0" entered="21" left="19" laneChangedFrom="0" laneChangedTo="0"/>
        <edge id="8/1to9/1" sampledSeconds="1024.51" traveltime="51.69" overlapTraveltime="51.95" density="17.42" laneDensity="17.42" occupancy="8.67" waitingTime="0.00" speed="18.96" departed="0" arrived="0" entered="20" left="22" laneChangedFrom="0" laneChangedTo="0"/>
        <edge id="9/1to10/1" sampledSeconds="1552.41" traveltime="52.05" overlapTraveltime="52.32" density="26.40" laneDensity="26.40" occupancy="13.13" waitingTime="0.00" speed="18.83" departed="0" arrived="0" entered="22" left="37" laneChangedFrom="0" laneChangedTo="0"/>
    </interval>
    <interval begin="660.00" end="720.00" id="dump_60">
        <edge id="1/1to2/1" sampledSeconds="1948.13" traveltime="52.29" overlapTraveltime="52.55" density="33.13" laneDensity="33.13" occupancy="16.48" waitingTime="0.00" speed="18.74" departed="1" arrived="0" entered="35" left="37" laneChangedFrom="0" laneChangedTo="0"/>
        <edge id="10/1to1/1" sampledSeconds="1447.87" traveltime="52.09" overlapTraveltime="52.35" density="24.63" laneDensity="24.63" occupancy="12.25" waitingTime="0.00" speed="18.81" departed="0" arrived="0" entered="19" left="35" laneChangedFrom="0" laneChangedTo="0"/>
        <edge id="2/1to3/1" sampledSeconds="1941.32" traveltime="52.12" overlapTraveltime="52.39" density="33.02" laneDensity="33.02" occupancy="16.43" waitingTime="0.00" speed="18.80" departed="0" arrived="0" entered="37" left="37" laneChangedFrom="0" laneChangedTo="0"/>
        <edge id="3/1to4/1" sampledSeconds="1907.61" traveltime="51.96" overlapTraveltime="52.22" density="32.44" laneDensity="32.44" occupancy="16.14" waitingTime="0.00" speed="18.86" departed="0" arrived="0" entered="37" left="37" laneChangedFrom="0" laneChangedTo="0"/>
        <edge id="4/1to5/1" sampledSeconds="1810.59" traveltime="51.88" overlapTraveltime="52.15" density="30.79" laneDensity="30.79" occupancy="15.32" waitingTime="0.00" speed="18.89" departed="0" arrived="0" entered="36" left="30" laneChangedFrom="0" laneChangedTo="0"/>
        <edge id="5/1to6/1" sampledSeconds="1212.17" traveltime="51.74" overlapTraveltime="52.01" density="20.62" laneDensity="20.62" occupancy="10.25" waitingTime="0.00" speed="18.94" departed="0" arrived="0" entered="30" left="19" laneChangedFrom="0" laneChangedTo="0"/>
        <edge id="6/1to7/1" sampledSeconds="999.79" traveltime="51.69" overlapTraveltime="51.96" density="17.00" laneDensity="17.00" occupancy="8.46" waitingTime="0.00" speed="18.96" departed="0" arrived="0" entered="19" left="19" laneChangedFrom="0" laneChangedTo="0"/>
        <edge id="7/1to8/1" sampledSeconds="1032.83" traveltime="51.64" overlapTraveltime="51.90" density="17.57" laneDensity="17.57" occupancy="8.74" waitingTime="0.00" speed="18.98" departed="0" arrived="0" entered="19" left="21" laneChangedFrom="0" laneChangedTo="0"/>
        <edge id="8/1to9/1" sampledSeconds="1056.87" traveltime="51.70" overlapTraveltime="51.97" density="17.98" laneDensity="17.98" occupancy="8.94" waitingTime="0.00" speed="18.95" departed="0" arrived="0" entered="21" left="20" laneChangedFrom="0" laneChangedTo="0"/>
        <edge id="9/1to10/1" sampledSeconds="1013.46" traveltime="51.67" overlapTraveltime="51.94" density="17.24" laneDensity="17.24" occupancy="8.57" waitingTime="0.00" speed="18.96" departed="0" arrived="0" entered="20" left="20" laneChangedFrom="0" laneChangedTo="0"/>
    </interval>
    <interval begin="720.00" end="780.00" id="dump_60">
        <edge id="1/1to2/1" sampledSeconds="1490.94" traveltime="53.18" overlapTraveltime="53.45" density="25.36" laneDensity="25.36" occupancy="12.61" waitingTime="1.00" speed="18.43" departed="4" arrived="0" entered="20" left="34" laneChangedFrom="0" laneChangedTo="0"/>
        <edge id="10/1to1/1" sampledSeconds="1020.78" traveltime="51.99" overlapTraveltime="52.32" density="17.36" laneDensity="17.36" occupancy="8.63" waitingTime="0.00" speed="18.83" departed="0" arrived="0" entered="21" left="20" laneChangedFrom="0" laneChangedTo="0"/>
        <edge id="2/1to3/1" sampledSeconds="1916.49" traveltime="52.09" overlapTraveltime="52.35" density="32.60" laneDensity="32.60" occupancy="16.22" waitingTime="0.00" speed="18.81" departed="0" arrived="0" entered="34" left="37" laneChangedFrom="0" laneChangedTo="0"/>
        <edge id="3/1to4/1" sampledSeconds="1938.24" traveltime="52.10" overlapTraveltime="52.36" density="32.97" laneDensity="32.97" occupancy="16.40" waitingTime="0.00" speed="18.81" departed="0" arrived="0" entered="37" left="36" laneChangedFrom="0" laneChangedTo="0"/>
        <edge id="4/1to5/1" sampledSeconds="1908.61" traveltime="51.96" overlapTraveltime="52.22" density="32.46" laneDensity="32.46" occupancy="16.15" waitingTime="0.00" speed="18.86" departed="0" arrived="0" entered="37" left="36" laneChangedFrom="0" laneChangedTo="0"/>
        <edge id="5/1to6/1" sampledSeconds="1850.48" traveltime="51.92" overlapTraveltime="52.18" density="31.47" laneDensity="31.47" occupancy="15.66" waitingTime="0.00" speed="18.88" departed="0" arrived="0" entered="36" left="32" laneChangedFrom="0" laneChangedTo="0"/>
        <edge id="6/1to7/1" sampledSeconds="1301.43" traveltime="51.81" overlapTraveltime="52.07" density="22.13" laneDensity="22.13" occupancy="11.01" waitingTime="0.00" speed="18.92" departed="0" arrived="0" entered="32" left="19" laneChangedFrom="0" laneChangedTo="0"/>
        <edge id="7/1to8/1" sampledSeconds="999.80" traveltime="51.67" overlapTraveltime="51.94" density="17.00" laneDensity="17.00" occupancy="8.46" waitingTime="0.00" speed="18.96" departed="0" arrived="0" entered="19" left="19" laneChangedFrom="0" laneChangedTo="0"/>
        <edge id="8/1to9/1" sampledSeconds="1021.05" traveltime="51.72" overlapTraveltime="51.99" density="17.37" laneDensity="17.37" occupancy="8.64" waitingTime="0.00" speed="18.95" departed="0" arrived="0" entered="19" left="20" laneChangedFrom="0" laneChangedTo="0"/>