<?xml version="1.0" encoding="UTF-8"?>

<!-- generated on Tue Dec  3 16:34:42 2013 by SUMO sumo Version dev-SVN-r15233
<?xml version="1.0" encoding="UTF-8"?>

<configuration xmlns:xsi="http://www.w3.org/2001/XMLSchema-instance" xsi:noNamespaceSchemaLocation="http://sumo-sim.org/xsd/sumoConfiguration.xsd">

    <input>
        <net-file value="net.net.xml"/>
        <route-files value="input_routes.rou.xml"/>
    </input>

    <output>
        <tripinfo-output value="tripinfos.xml"/>
    </output>

    <report>
        <no-step-log value="true"/>
    </report>

</configuration>
-->

<tripinfos>
    <tripinfo id="fast_follower" depart="0.00" departLane="beg_0" departPos="20.00" departSpeed="20.00" departDelay="0.00" arrival="17.00" arrivalLane="end_0" arrivalPos="112.83" arrivalSpeed="20.00" duration="17.00" routeLength="175.73" waitSteps="0" rerouteNo="0" devices="tripinfo_fast_follower" vType="DEFAULT_VEHTYPE" vaporized=""/>
    <tripinfo id="change_left" depart="0.00" departLane="end_1" departPos="10.00" departSpeed="1.00" departDelay="0.00" arrival="26.00" arrivalLane="end_0" arrivalPos="112.83" arrivalSpeed="20.00" duration="26.00" routeLength="102.83" waitSteps="16" rerouteNo="0" devices="tripinfo_change_left" vType="DEFAULT_VEHTYPE" vaporized=""/>
</tripinfos>
