<?xml version="1.0" encoding="UTF-8"?>

<!-- generated on Thu Apr 25 11:14:50 2019 by Eclipse SUMO Version v1_2_0+0026-b74d136
This data file and the accompanying materials
are made available under the terms of the Eclipse Public License v2.0
which accompanies this distribution, and is available at
http://www.eclipse.org/legal/epl-v20.html
SPDX-License-Identifier: EPL-2.0
<configuration xmlns:xsi="http://www.w3.org/2001/XMLSchema-instance" xsi:noNamespaceSchemaLocation="http://sumo.dlr.de/xsd/sumoConfiguration.xsd">

    <input>
        <net-file value="motorway.net.xml"/>
        <route-files value="input_routes.rou.xml"/>
        <additional-files value="input_additional.add.xml"/>
    </input>

    <output>
        <write-license value="true"/>
        <vehroute-output value="vehroutes.xml"/>
    </output>

    <processing>
        <default.speeddev value="0"/>
    </processing>

    <report>
        <verbose value="true"/>
        <xml-validation value="never"/>
        <no-step-log value="true"/>
    </report>

</configuration>
-->

<meandata xmlns:xsi="http://www.w3.org/2001/XMLSchema-instance" xsi:noNamespaceSchemaLocation="http://sumo.dlr.de/xsd/meandata_file.xsd">
    <interval begin="0.00" end="100.00" id="expect10vehs">
        <edge id="beg">
            <lane id="beg_0" sampledSeconds="11.03" traveltime="84.99" overlapTraveltime="85.16" density="0.04" occupancy="0.02" waitingTime="0.00" speed="35.28" departed="4" arrived="0" entered="0" left="3" laneChangedFrom="1" laneChangedTo="0"/>
            <lane id="beg_1" sampledSeconds="0.92" traveltime="83.29" overlapTraveltime="83.43" density="0.00" occupancy="0.00" waitingTime="0.00" speed="36.00" departed="0" arrived="0" entered="0" left="1" laneChangedFrom="0" laneChangedTo="1"/>
            <lane id="beg_2" sampledSeconds="0.00" departed="0" arrived="0" entered="0" left="0" laneChangedFrom="0" laneChangedTo="0"/>
        </edge>
        <edge id="beg2">
            <lane id="beg2_0" sampledSeconds="828.45" traveltime="89.00" overlapTraveltime="89.15" density="2.76" occupancy="1.38" waitingTime="0.00" speed="33.67" departed="35" arrived="1" entered="3" left="0" laneChangedFrom="1" laneChangedTo="0"/>
            <lane id="beg2_1" sampledSeconds="783.73" traveltime="88.73" overlapTraveltime="88.88" density="2.62" occupancy="1.37" waitingTime="0.00" speed="33.78" departed="34" arrived="1" entered="1" left="0" laneChangedFrom="0" laneChangedTo="1"/>
        </edge>
        <edge id="end">
            <lane id="end_0" sampledSeconds="0.00" departed="0" arrived="0" entered="0" left="0" laneChangedFrom="0" laneChangedTo="0"/>
            <lane id="end_1" sampledSeconds="0.00" departed="0" arrived="0" entered="0" left="0" laneChangedFrom="0" laneChangedTo="0"/>
        </edge>
        <edge id="end2">
            <lane id="end2_0" sampledSeconds="0.00" departed="0" arrived="0" entered="0" left="0" laneChangedFrom="0" laneChangedTo="0"/>
        </edge>
        <edge id="end3">
            <lane id="end3_0" sampledSeconds="0.00" departed="0" arrived="0" entered="0" left="0" laneChangedFrom="0" laneChangedTo="0"/>
        </edge>
        <edge id="merge">
            <lane id="merge_0" sampledSeconds="0.00" departed="0" arrived="0" entered="0" left="0" laneChangedFrom="0" laneChangedTo="0"/>
            <lane id="merge_1" sampledSeconds="0.00" departed="0" arrived="0" entered="0" left="0" laneChangedFrom="0" laneChangedTo="0"/>
            <lane id="merge_2" sampledSeconds="0.00" departed="0" arrived="0" entered="0" left="0" laneChangedFrom="0" laneChangedTo="0"/>
        </edge>
        <edge id="offRamp">
            <lane id="offRamp_0" sampledSeconds="0.00" departed="0" arrived="0" entered="0" left="0" laneChangedFrom="0" laneChangedTo="0"/>
        </edge>
        <edge id="onRamp">
            <lane id="onRamp_0" sampledSeconds="0.00" departed="0" arrived="0" entered="0" left="0" laneChangedFrom="0" laneChangedTo="0"/>
        </edge>
    </interval>
    <interval begin="200.00" end="400.00" id="expect31vehs">
        <edge id="beg">
            <lane id="beg_0" sampledSeconds="19.10" traveltime="96.92" overlapTraveltime="97.19" density="0.03" occupancy="0.02" waitingTime="0.00" speed="30.91" departed="7" arrived="0" entered="0" left="4" laneChangedFrom="3" laneChangedTo="0"/>
            <lane id="beg_1" sampledSeconds="4.30" traveltime="100.11" overlapTraveltime="99.87" density="0.01" occupancy="0.00" waitingTime="0.00" speed="30.07" departed="0" arrived="0" entered="0" left="2" laneChangedFrom="0" laneChangedTo="3"/>
            <lane id="beg_2" sampledSeconds="0.00" departed="0" arrived="0" entered="0" left="0" laneChangedFrom="0" laneChangedTo="0"/>
        </edge>
        <edge id="beg2">
            <lane id="beg2_0" sampledSeconds="5227.25" traveltime="88.51" overlapTraveltime="88.65" density="8.72" occupancy="4.37" waitingTime="0.00" speed="33.86" departed="82" arrived="34" entered="4" left="0" laneChangedFrom="0" laneChangedTo="0"/>
            <lane id="beg2_1" sampledSeconds="5051.26" traveltime="84.78" overlapTraveltime="84.92" density="8.43" occupancy="4.21" waitingTime="0.00" speed="35.35" departed="87" arrived="34" entered="2" left="0" laneChangedFrom="0" laneChangedTo="0"/>
        </edge>
        <edge id="end">
            <lane id="end_0" sampledSeconds="0.00" departed="0" arrived="0" entered="0" left="0" laneChangedFrom="0" laneChangedTo="0"/>
            <lane id="end_1" sampledSeconds="0.00" departed="0" arrived="0" entered="0" left="0" laneChangedFrom="0" laneChangedTo="0"/>
        </edge>
        <edge id="end2">
            <lane id="end2_0" sampledSeconds="0.00" departed="0" arrived="0" entered="0" left="0" laneChangedFrom="0" laneChangedTo="0"/>
        </edge>
        <edge id="end3">
            <lane id="end3_0" sampledSeconds="0.00" departed="0" arrived="0" entered="0" left="0" laneChangedFrom="0" laneChangedTo="0"/>
        </edge>
        <edge id="merge">
            <lane id="merge_0" sampledSeconds="0.00" departed="0" arrived="0" entered="0" left="0" laneChangedFrom="0" laneChangedTo="0"/>
            <lane id="merge_1" sampledSeconds="0.00" departed="0" arrived="0" entered="0" left="0" laneChangedFrom="0" laneChangedTo="0"/>
            <lane id="merge_2" sampledSeconds="0.00" departed="0" arrived="0" entered="0" left="0" laneChangedFrom="0" laneChangedTo="0"/>
        </edge>
        <edge id="offRamp">
            <lane id="offRamp_0" sampledSeconds="0.00" departed="0" arrived="0" entered="0" left="0" laneChangedFrom="0" laneChangedTo="0"/>
        </edge>
        <edge id="onRamp">
            <lane id="onRamp_0" sampledSeconds="0.00" departed="0" arrived="0" entered="0" left="0" laneChangedFrom="0" laneChangedTo="0"/>
        </edge>
    </interval>
    <interval begin="400.00" end="700.00" id="expect100vehs">
        <edge id="beg">
            <lane id="beg_0" sampledSeconds="16.00" traveltime="103.84" overlapTraveltime="104.01" density="0.02" occupancy="0.01" waitingTime="0.00" speed="28.88" departed="8" arrived="0" entered="0" left="0" laneChangedFrom="8" laneChangedTo="0"/>
            <lane id="beg_1" sampledSeconds="12.89" traveltime="98.46" overlapTraveltime="97.94" density="0.01" occupancy="0.01" waitingTime="0.00" speed="30.67" departed="0" arrived="0" entered="0" left="9" laneChangedFrom="0" laneChangedTo="8"/>
            <lane id="beg_2" sampledSeconds="0.00" departed="0" arrived="0" entered="0" left="0" laneChangedFrom="0" laneChangedTo="0"/>
        </edge>
        <edge id="beg2">
            <lane id="beg2_0" sampledSeconds="15871.83" traveltime="87.90" overlapTraveltime="88.04" density="17.65" occupancy="8.83" waitingTime="0.00" speed="34.10" departed="183" arrived="184" entered="0" left="0" laneChangedFrom="1" laneChangedTo="3"/>
            <lane id="beg2_1" sampledSeconds="15880.74" traveltime="83.84" overlapTraveltime="83.98" density="17.66" occupancy="8.82" waitingTime="0.00" speed="35.75" departed="179" arrived="186" entered="9" left="0" laneChangedFrom="3" laneChangedTo="1"/>
        </edge>
        <edge id="end">
            <lane id="end_0" sampledSeconds="0.00" departed="0" arrived="0" entered="0" left="0" laneChangedFrom="0" laneChangedTo="0"/>
            <lane id="end_1" sampledSeconds="0.00" departed="0" arrived="0" entered="0" left="0" laneChangedFrom="0" laneChangedTo="0"/>
        </edge>
        <edge id="end2">
            <lane id="end2_0" sampledSeconds="0.00" departed="0" arrived="0" entered="0" left="0" laneChangedFrom="0" laneChangedTo="0"/>
        </edge>
        <edge id="end3">
            <lane id="end3_0" sampledSeconds="0.00" departed="0" arrived="0" entered="0" left="0" laneChangedFrom="0" laneChangedTo="0"/>
        </edge>
        <edge id="merge">
            <lane id="merge_0" sampledSeconds="0.00" departed="0" arrived="0" entered="0" left="0" laneChangedFrom="0" laneChangedTo="0"/>
            <lane id="merge_1" sampledSeconds="0.00" departed="0" arrived="0" entered="0" left="0" laneChangedFrom="0" laneChangedTo="0"/>
            <lane id="merge_2" sampledSeconds="0.00" departed="0" arrived="0" entered="0" left="0" laneChangedFrom="0" laneChangedTo="0"/>
        </edge>
        <edge id="offRamp">
            <lane id="offRamp_0" sampledSeconds="0.00" departed="0" arrived="0" entered="0" left="0" laneChangedFrom="0" laneChangedTo="0"/>
        </edge>
        <edge id="onRamp">
            <lane id="onRamp_0" sampledSeconds="0.00" departed="0" arrived="0" entered="0" left="0" laneChangedFrom="0" laneChangedTo="0"/>
        </edge>
    </interval>
    <interval begin="2000.00" end="2100.00" id="expect10vehs">
        <edge id="beg">
            <lane id="beg_0" sampledSeconds="138.62" traveltime="87.17" overlapTraveltime="87.48" density="0.46" occupancy="0.24" waitingTime="0.00" speed="34.34" departed="47" arrived="0" entered="0" left="43" laneChangedFrom="1" laneChangedTo="0"/>
            <lane id="beg_1" sampledSeconds="1.19" traveltime="88.26" overlapTraveltime="88.33" density="0.00" occupancy="0.00" waitingTime="0.00" speed="34.00" departed="0" arrived="0" entered="0" left="1" laneChangedFrom="0" laneChangedTo="1"/>
            <lane id="beg_2" sampledSeconds="0.00" departed="0" arrived="0" entered="0" left="0" laneChangedFrom="0" laneChangedTo="0"/>
        </edge>
        <edge id="beg2">
            <lane id="beg2_0" sampledSeconds="1949.10" traveltime="84.02" overlapTraveltime="84.16" density="6.50" occupancy="3.26" waitingTime="0.00" speed="35.67" departed="0" arrived="6" entered="43" left="0" laneChangedFrom="3" laneChangedTo="1"/>
            <lane id="beg2_1" sampledSeconds="664.46" traveltime="89.26" overlapTraveltime="89.43" density="2.22" occupancy="1.25" waitingTime="0.00" speed="33.58" departed="28" arrived="1" entered="1" left="0" laneChangedFrom="1" laneChangedTo="3"/>
        </edge>
        <edge id="end">
            <lane id="end_0" sampledSeconds="0.00" departed="0" arrived="0" entered="0" left="0" laneChangedFrom="0" laneChangedTo="0"/>
            <lane id="end_1" sampledSeconds="0.00" departed="0" arrived="0" entered="0" left="0" laneChangedFrom="0" laneChangedTo="0"/>
        </edge>
        <edge id="end2">
            <lane id="end2_0" sampledSeconds="0.00" departed="0" arrived="0" entered="0" left="0" laneChangedFrom="0" laneChangedTo="0"/>
        </edge>
        <edge id="end3">
            <lane id="end3_0" sampledSeconds="0.00" departed="0" arrived="0" entered="0" left="0" laneChangedFrom="0" laneChangedTo="0"/>
        </edge>
        <edge id="merge">
            <lane id="merge_0" sampledSeconds="0.00" departed="0" arrived="0" entered="0" left="0" laneChangedFrom="0" laneChangedTo="0"/>
            <lane id="merge_1" sampledSeconds="0.00" departed="0" arrived="0" entered="0" left="0" laneChangedFrom="0" laneChangedTo="0"/>
            <lane id="merge_2" sampledSeconds="0.00" departed="0" arrived="0" entered="0" left="0" laneChangedFrom="0" laneChangedTo="0"/>
        </edge>
        <edge id="offRamp">
            <lane id="offRamp_0" sampledSeconds="0.00" departed="0" arrived="0" entered="0" left="0" laneChangedFrom="0" laneChangedTo="0"/>
        </edge>
        <edge id="onRamp">
            <lane id="onRamp_0" sampledSeconds="0.00" departed="0" arrived="0" entered="0" left="0" laneChangedFrom="0" laneChangedTo="0"/>
        </edge>
    </interval>
    <interval begin="2200.00" end="2400.00" id="expect31vehs">
        <edge id="beg">
            <lane id="beg_0" sampledSeconds="290.60" traveltime="92.32" overlapTraveltime="93.02" density="0.48" occupancy="0.25" waitingTime="0.00" speed="32.29" departed="91" arrived="0" entered="0" left="87" laneChangedFrom="4" laneChangedTo="0"/>
            <lane id="beg_1" sampledSeconds="8.73" traveltime="116.82" overlapTraveltime="117.06" density="0.01" occupancy="0.01" waitingTime="0.00" speed="25.66" departed="0" arrived="0" entered="0" left="4" laneChangedFrom="0" laneChangedTo="4"/>
            <lane id="beg_2" sampledSeconds="0.00" departed="0" arrived="0" entered="0" left="0" laneChangedFrom="0" laneChangedTo="0"/>
        </edge>
        <edge id="beg2">
            <lane id="beg2_0" sampledSeconds="7465.83" traveltime="84.26" overlapTraveltime="84.40" density="12.46" occupancy="6.30" waitingTime="0.00" speed="35.57" departed="7" arrived="89" entered="87" left="0" laneChangedFrom="7" laneChangedTo="10"/>
            <lane id="beg2_1" sampledSeconds="4091.68" traveltime="86.13" overlapTraveltime="86.28" density="6.83" occupancy="3.57" waitingTime="0.00" speed="34.80" departed="62" arrived="23" entered="4" left="0" laneChangedFrom="10" laneChangedTo="7"/>
        </edge>
        <edge id="end">
            <lane id="end_0" sampledSeconds="0.00" departed="0" arrived="0" entered="0" left="0" laneChangedFrom="0" laneChangedTo="0"/>
            <lane id="end_1" sampledSeconds="0.00" departed="0" arrived="0" entered="0" left="0" laneChangedFrom="0" laneChangedTo="0"/>
        </edge>
        <edge id="end2">
            <lane id="end2_0" sampledSeconds="0.00" departed="0" arrived="0" entered="0" left="0" laneChangedFrom="0" laneChangedTo="0"/>
        </edge>
        <edge id="end3">
            <lane id="end3_0" sampledSeconds="0.00" departed="0" arrived="0" entered="0" left="0" laneChangedFrom="0" laneChangedTo="0"/>
        </edge>
        <edge id="merge">
            <lane id="merge_0" sampledSeconds="0.00" departed="0" arrived="0" entered="0" left="0" laneChangedFrom="0" laneChangedTo="0"/>
            <lane id="merge_1" sampledSeconds="0.00" departed="0" arrived="0" entered="0" left="0" laneChangedFrom="0" laneChangedTo="0"/>
            <lane id="merge_2" sampledSeconds="0.00" departed="0" arrived="0" entered="0" left="0" laneChangedFrom="0" laneChangedTo="0"/>
        </edge>
        <edge id="offRamp">
            <lane id="offRamp_0" sampledSeconds="0.00" departed="0" arrived="0" entered="0" left="0" laneChangedFrom="0" laneChangedTo="0"/>
        </edge>
        <edge id="onRamp">
            <lane id="onRamp_0" sampledSeconds="0.00" departed="0" arrived="0" entered="0" left="0" laneChangedFrom="0" laneChangedTo="0"/>
        </edge>
    </interval>
    <interval begin="2400.00" end="2700.00" id="expect100vehs">
        <edge id="beg">
            <lane id="beg_0" sampledSeconds="406.71" traveltime="84.83" overlapTraveltime="84.98" density="0.45" occupancy="0.23" waitingTime="0.00" speed="35.35" departed="138" arrived="0" entered="0" left="131" laneChangedFrom="6" laneChangedTo="0"/>
            <lane id="beg_1" sampledSeconds="2.71" traveltime="83.51" overlapTraveltime="83.85" density="0.00" occupancy="0.00" waitingTime="0.00" speed="35.82" departed="0" arrived="0" entered="0" left="6" laneChangedFrom="0" laneChangedTo="6"/>
            <lane id="beg_2" sampledSeconds="0.00" departed="0" arrived="0" entered="0" left="0" laneChangedFrom="0" laneChangedTo="0"/>
        </edge>
        <edge id="beg2">
            <lane id="beg2_0" sampledSeconds="14469.96" traveltime="83.47" overlapTraveltime="83.62" density="16.09" occupancy="8.27" waitingTime="0.00" speed="35.90" departed="47" arrived="171" entered="131" left="0" laneChangedFrom="3" laneChangedTo="3"/>
            <lane id="beg2_1" sampledSeconds="14816.52" traveltime="83.56" overlapTraveltime="83.70" density="16.48" occupancy="8.24" waitingTime="0.00" speed="35.87" departed="172" arrived="171" entered="6" left="0" laneChangedFrom="3" laneChangedTo="3"/>
        </edge>
        <edge id="end">
            <lane id="end_0" sampledSeconds="0.00" departed="0" arrived="0" entered="0" left="0" laneChangedFrom="0" laneChangedTo="0"/>
            <lane id="end_1" sampledSeconds="0.00" departed="0" arrived="0" entered="0" left="0" laneChangedFrom="0" laneChangedTo="0"/>
        </edge>
        <edge id="end2">
            <lane id="end2_0" sampledSeconds="0.00" departed="0" arrived="0" entered="0" left="0" laneChangedFrom="0" laneChangedTo="0"/>
        </edge>
        <edge id="end3">
            <lane id="end3_0" sampledSeconds="0.00" departed="0" arrived="0" entered="0" left="0" laneChangedFrom="0" laneChangedTo="0"/>
        </edge>
        <edge id="merge">
            <lane id="merge_0" sampledSeconds="0.00" departed="0" arrived="0" entered="0" left="0" laneChangedFrom="0" laneChangedTo="0"/>
            <lane id="merge_1" sampledSeconds="0.00" departed="0" arrived="0" entered="0" left="0" laneChangedFrom="0" laneChangedTo="0"/>
            <lane id="merge_2" sampledSeconds="0.00" departed="0" arrived="0" entered="0" left="0" laneChangedFrom="0" laneChangedTo="0"/>
        </edge>
        <edge id="offRamp">
            <lane id="offRamp_0" sampledSeconds="0.00" departed="0" arrived="0" entered="0" left="0" laneChangedFrom="0" laneChangedTo="0"/>
        </edge>
        <edge id="onRamp">
            <lane id="onRamp_0" sampledSeconds="0.00" departed="0" arrived="0" entered="0" left="0" laneChangedFrom="0" laneChangedTo="0"/>
        </edge>
    </interval>
</meandata>
