<?xml version="1.0" encoding="UTF-8"?>

<!-- generated on Tue May 31 12:55:29 2016 by SUMO Version dev-SVN-r20823
<?xml version="1.0" encoding="UTF-8"?>

<configuration xmlns:xsi="http://www.w3.org/2001/XMLSchema-instance" xsi:noNamespaceSchemaLocation="http://sumo.dlr.de/xsd/sumoConfiguration.xsd">

    <input>
        <net-file value="net.net.xml"/>
        <additional-files value="input_routes.rou.xml,input_additional2.add.xml"/>
    </input>

    <output>
        <tripinfo-output value="tripinfos.xml"/>
    </output>

    <report>
        <xml-validation value="never"/>
        <duration-log.disable value="true"/>
        <no-step-log value="true"/>
    </report>

    <mesoscopic>
        <mesosim value="true"/>
    </mesoscopic>

</configuration>
-->

<tripinfos xmlns:xsi="http://www.w3.org/2001/XMLSchema-instance" xsi:noNamespaceSchemaLocation="http://sumo.dlr.de/xsd/tripinfo_file.xsd">
    <tripinfo id="1.12" depart="17.00" departLane="" departPos="0.00" departSpeed="8.65" departDelay="1.62" arrival="480.00" arrivalLane="" arrivalPos="400.00" arrivalSpeed="0.00" duration="463.00" routeLength="1600.00" waitSteps="300" timeLoss="312.00" rerouteNo="0" devices="tripinfo_1.12" vType="DEFAULT_VEHTYPE" vaporized=""/>
    <tripinfo id="1.13" depart="17.00" departLane="" departPos="0.00" departSpeed="7.88" departDelay="0.76" arrival="780.00" arrivalLane="" arrivalPos="400.00" arrivalSpeed="0.00" duration="763.00" routeLength="1600.00" waitSteps="300" timeLoss="612.00" rerouteNo="0" devices="tripinfo_1.13" vType="DEFAULT_VEHTYPE" vaporized=""/>
    <tripinfo id="1.14" depart="19.00" departLane="" departPos="0.00" departSpeed="8.46" departDelay="1.89" arrival="1080.00" arrivalLane="" arrivalPos="400.00" arrivalSpeed="0.00" duration="1061.00" routeLength="1600.00" waitSteps="300" timeLoss="910.00" rerouteNo="0" devices="tripinfo_1.14" vType="DEFAULT_VEHTYPE" vaporized=""/>
    <tripinfo id="0" depart="0.00" departLane="" departPos="0.00" departSpeed="10.00" departDelay="0.00" arrival="1160.00" arrivalLane="" arrivalPos="400.00" arrivalSpeed="0.10" duration="1160.00" routeLength="1600.00" waitSteps="0" timeLoss="1000.00" rerouteNo="0" devices="tripinfo_0" vType="DEFAULT_VEHTYPE" vaporized=""/>
    <tripinfo id="1.0" depart="5.00" departLane="" departPos="0.00" departSpeed="10.00" departDelay="0.00" arrival="1162.00" arrivalLane="" arrivalPos="400.00" arrivalSpeed="0.10" duration="1157.00" routeLength="1600.00" waitSteps="0" timeLoss="996.13" rerouteNo="0" devices="tripinfo_1.0" vType="DEFAULT_VEHTYPE" vaporized=""/>
    <tripinfo id="1.1" depart="5.00" departLane="" departPos="0.00" departSpeed="8.98" departDelay="-0.86" arrival="1163.00" arrivalLane="" arrivalPos="400.00" arrivalSpeed="0.10" duration="1158.00" routeLength="1600.00" waitSteps="0" timeLoss="997.26" rerouteNo="0" devices="tripinfo_1.1" vType="DEFAULT_VEHTYPE" vaporized=""/>
    <tripinfo id="1.2" depart="6.00" departLane="" departPos="0.00" departSpeed="8.88" departDelay="-0.73" arrival="1164.00" arrivalLane="" arrivalPos="400.00" arrivalSpeed="0.10" duration="1158.00" routeLength="1600.00" waitSteps="0" timeLoss="997.39" rerouteNo="0" devices="tripinfo_1.2" vType="DEFAULT_VEHTYPE" vaporized=""/>
    <tripinfo id="1.3" depart="7.00" departLane="" departPos="0.00" departSpeed="8.78" departDelay="-0.59" arrival="1165.00" arrivalLane="" arrivalPos="400.00" arrivalSpeed="0.10" duration="1158.00" routeLength="1600.00" waitSteps="0" timeLoss="997.52" rerouteNo="0" devices="tripinfo_1.3" vType="DEFAULT_VEHTYPE" vaporized=""/>
    <tripinfo id="1.4" depart="8.00" departLane="" departPos="0.00" departSpeed="8.68" departDelay="-0.46" arrival="1166.00" arrivalLane="" arrivalPos="400.00" arrivalSpeed="0.10" duration="1158.00" routeLength="1600.00" waitSteps="0" timeLoss="997.65" rerouteNo="0" devices="tripinfo_1.4" vType="DEFAULT_VEHTYPE" vaporized=""/>
    <tripinfo id="1.5" depart="9.00" departLane="" departPos="0.00" departSpeed="8.58" departDelay="-0.33" arrival="1167.00" arrivalLane="" arrivalPos="400.00" arrivalSpeed="0.10" duration="1158.00" routeLength="1600.00" waitSteps="0" timeLoss="997.78" rerouteNo="0" devices="tripinfo_1.5" vType="DEFAULT_VEHTYPE" vaporized=""/>
    <tripinfo id="1.6" depart="10.00" departLane="" departPos="0.00" departSpeed="8.49" departDelay="-0.19" arrival="1168.00" arrivalLane="" arrivalPos="400.00" arrivalSpeed="0.10" duration="1158.00" routeLength="1600.00" waitSteps="0" timeLoss="997.91" rerouteNo="0" devices="tripinfo_1.6" vType="DEFAULT_VEHTYPE" vaporized=""/>
    <tripinfo id="1.7" depart="11.00" departLane="" departPos="0.00" departSpeed="8.40" departDelay="-0.06" arrival="1170.00" arrivalLane="" arrivalPos="400.00" arrivalSpeed="0.10" duration="1159.00" routeLength="1600.00" waitSteps="0" timeLoss="998.04" rerouteNo="0" devices="tripinfo_1.7" vType="DEFAULT_VEHTYPE" vaporized=""/>
    <tripinfo id="1.8" depart="11.00" departLane="" departPos="0.00" departSpeed="7.67" departDelay="-0.92" arrival="1171.00" arrivalLane="" arrivalPos="400.00" arrivalSpeed="0.10" duration="1160.00" routeLength="1600.00" waitSteps="0" timeLoss="999.17" rerouteNo="0" devices="tripinfo_1.8" vType="DEFAULT_VEHTYPE" vaporized=""/>
    <tripinfo id="1.9" depart="12.00" departLane="" departPos="0.00" departSpeed="7.59" departDelay="-0.79" arrival="1172.00" arrivalLane="" arrivalPos="400.00" arrivalSpeed="0.10" duration="1160.00" routeLength="1600.00" waitSteps="0" timeLoss="999.30" rerouteNo="0" devices="tripinfo_1.9" vType="DEFAULT_VEHTYPE" vaporized=""/>
    <tripinfo id="1.10" depart="13.00" departLane="" departPos="0.00" departSpeed="7.52" departDelay="-0.65" arrival="1173.00" arrivalLane="" arrivalPos="400.00" arrivalSpeed="0.10" duration="1160.00" routeLength="1600.00" waitSteps="0" timeLoss="999.43" rerouteNo="0" devices="tripinfo_1.10" vType="DEFAULT_VEHTYPE" vaporized=""/>
    <tripinfo id="1.11" depart="15.00" departLane="" departPos="0.00" departSpeed="8.05" departDelay="0.48" arrival="1174.00" arrivalLane="" arrivalPos="400.00" arrivalSpeed="0.10" duration="1159.00" routeLength="1600.00" waitSteps="0" timeLoss="998.56" rerouteNo="0" devices="tripinfo_1.11" vType="DEFAULT_VEHTYPE" vaporized=""/>
    <tripinfo id="1.15" depart="19.00" departLane="" departPos="0.00" departSpeed="7.72" departDelay="1.02" arrival="1175.00" arrivalLane="" arrivalPos="400.00" arrivalSpeed="6.81" duration="1156.00" routeLength="1600.00" waitSteps="80" timeLoss="995.69" rerouteNo="0" devices="tripinfo_1.15" vType="DEFAULT_VEHTYPE" vaporized=""/>
    <tripinfo id="1.16" depart="21.00" departLane="" departPos="0.00" departSpeed="8.28" departDelay="2.16" arrival="1184.00" arrivalLane="" arrivalPos="400.00" arrivalSpeed="10.00" duration="1163.00" routeLength="1600.00" waitSteps="0" timeLoss="1002.54" rerouteNo="0" devices="tripinfo_1.16" vType="DEFAULT_VEHTYPE" vaporized=""/>
    <tripinfo id="1.17" depart="23.00" departLane="" departPos="0.00" departSpeed="8.92" departDelay="3.29" arrival="1186.00" arrivalLane="" arrivalPos="400.00" arrivalSpeed="10.00" duration="1163.00" routeLength="1600.00" waitSteps="0" timeLoss="1002.54" rerouteNo="0" devices="tripinfo_1.17" vType="DEFAULT_VEHTYPE" vaporized=""/>
    <tripinfo id="1.18" depart="25.00" departLane="" departPos="0.00" departSpeed="9.67" departDelay="4.43" arrival="1188.00" arrivalLane="" arrivalPos="400.00" arrivalSpeed="10.00" duration="1163.00" routeLength="1600.00" waitSteps="0" timeLoss="1002.54" rerouteNo="0" devices="tripinfo_1.18" vType="DEFAULT_VEHTYPE" vaporized=""/>
    <tripinfo id="1.19" depart="27.00" departLane="" departPos="0.00" departSpeed="10.00" departDelay="5.57" arrival="1190.00" arrivalLane="" arrivalPos="400.00" arrivalSpeed="10.00" duration="1163.00" routeLength="1600.00" waitSteps="0" timeLoss="1002.54" rerouteNo="0" devices="tripinfo_1.19" vType="DEFAULT_VEHTYPE" vaporized=""/>
    <tripinfo id="1.20" depart="29.00" departLane="" departPos="0.00" departSpeed="10.00" departDelay="6.70" arrival="1192.00" arrivalLane="" arrivalPos="400.00" arrivalSpeed="10.00" duration="1163.00" routeLength="1600.00" waitSteps="0" timeLoss="1002.54" rerouteNo="0" devices="tripinfo_1.20" vType="DEFAULT_VEHTYPE" vaporized=""/>
    <tripinfo id="1.21" depart="31.00" departLane="" departPos="0.00" departSpeed="10.00" departDelay="7.83" arrival="1194.00" arrivalLane="" arrivalPos="400.00" arrivalSpeed="10.00" duration="1163.00" routeLength="1600.00" waitSteps="0" timeLoss="1002.42" rerouteNo="0" devices="tripinfo_1.21" vType="DEFAULT_VEHTYPE" vaporized=""/>
    <tripinfo id="1.22" depart="33.00" departLane="" departPos="0.00" departSpeed="10.00" departDelay="8.97" arrival="1196.00" arrivalLane="" arrivalPos="400.00" arrivalSpeed="10.00" duration="1163.00" routeLength="1600.00" waitSteps="0" timeLoss="1002.30" rerouteNo="0" devices="tripinfo_1.22" vType="DEFAULT_VEHTYPE" vaporized=""/>
    <tripinfo id="1.23" depart="35.00" departLane="" departPos="0.00" departSpeed="10.00" departDelay="10.11" arrival="1198.00" arrivalLane="" arrivalPos="400.00" arrivalSpeed="10.00" duration="1163.00" routeLength="1600.00" waitSteps="0" timeLoss="1002.18" rerouteNo="0" devices="tripinfo_1.23" vType="DEFAULT_VEHTYPE" vaporized=""/>
    <tripinfo id="1.24" depart="37.00" departLane="" departPos="0.00" departSpeed="10.00" departDelay="11.24" arrival="1200.00" arrivalLane="" arrivalPos="400.00" arrivalSpeed="10.00" duration="1163.00" routeLength="1600.00" waitSteps="0" timeLoss="1002.06" rerouteNo="0" devices="tripinfo_1.24" vType="DEFAULT_VEHTYPE" vaporized=""/>
    <tripinfo id="1.25" depart="39.00" departLane="" departPos="0.00" departSpeed="10.00" departDelay="12.38" arrival="1201.00" arrivalLane="" arrivalPos="400.00" arrivalSpeed="10.00" duration="1162.00" routeLength="1600.00" waitSteps="284" timeLoss="1001.94" rerouteNo="0" devices="tripinfo_1.25" vType="DEFAULT_VEHTYPE" vaporized=""/>
    <tripinfo id="1.26" depart="41.00" departLane="" departPos="0.00" departSpeed="10.00" departDelay="13.51" arrival="1203.00" arrivalLane="" arrivalPos="400.00" arrivalSpeed="10.00" duration="1162.00" routeLength="1600.00" waitSteps="286" timeLoss="1001.82" rerouteNo="0" devices="tripinfo_1.26" vType="DEFAULT_VEHTYPE" vaporized=""/>
    <tripinfo id="1.27" depart="43.00" departLane="" departPos="0.00" departSpeed="10.00" departDelay="14.64" arrival="1205.00" arrivalLane="" arrivalPos="400.00" arrivalSpeed="10.00" duration="1162.00" routeLength="1600.00" waitSteps="286" timeLoss="1001.70" rerouteNo="0" devices="tripinfo_1.27" vType="DEFAULT_VEHTYPE" vaporized=""/>
    <tripinfo id="1.28" depart="45.00" departLane="" departPos="0.00" departSpeed="10.00" departDelay="15.78" arrival="1207.00" arrivalLane="" arrivalPos="400.00" arrivalSpeed="10.00" duration="1162.00" routeLength="1600.00" waitSteps="67" timeLoss="1001.58" rerouteNo="0" devices="tripinfo_1.28" vType="DEFAULT_VEHTYPE" vaporized=""/>
    <tripinfo id="1.29" depart="47.00" departLane="" departPos="0.00" departSpeed="10.00" departDelay="16.91" arrival="1209.00" arrivalLane="" arrivalPos="400.00" arrivalSpeed="10.00" duration="1162.00" routeLength="1600.00" waitSteps="0" timeLoss="1001.46" rerouteNo="0" devices="tripinfo_1.29" vType="DEFAULT_VEHTYPE" vaporized=""/>
    <tripinfo id="1.30" depart="49.00" departLane="" departPos="0.00" departSpeed="10.00" departDelay="18.05" arrival="1211.00" arrivalLane="" arrivalPos="400.00" arrivalSpeed="10.00" duration="1162.00" routeLength="1600.00" waitSteps="0" timeLoss="1001.34" rerouteNo="0" devices="tripinfo_1.30" vType="DEFAULT_VEHTYPE" vaporized=""/>
    <tripinfo id="1.31" depart="51.00" departLane="" departPos="0.00" departSpeed="10.00" departDelay="19.18" arrival="1213.00" arrivalLane="" arrivalPos="400.00" arrivalSpeed="10.00" duration="1162.00" routeLength="1600.00" waitSteps="0" timeLoss="1001.22" rerouteNo="0" devices="tripinfo_1.31" vType="DEFAULT_VEHTYPE" vaporized=""/>
    <tripinfo id="1.32" depart="53.00" departLane="" departPos="0.00" departSpeed="10.00" departDelay="20.32" arrival="1215.00" arrivalLane="" arrivalPos="400.00" arrivalSpeed="10.00" duration="1162.00" routeLength="1600.00" waitSteps="0" timeLoss="1001.10" rerouteNo="0" devices="tripinfo_1.32" vType="DEFAULT_VEHTYPE" vaporized=""/>
    <tripinfo id="1.33" depart="55.00" departLane="" departPos="0.00" departSpeed="10.00" departDelay="21.45" arrival="1216.00" arrivalLane="" arrivalPos="400.00" arrivalSpeed="10.00" duration="1161.00" routeLength="1600.00" waitSteps="0" timeLoss="1000.98" rerouteNo="0" devices="tripinfo_1.33" vType="DEFAULT_VEHTYPE" vaporized=""/>
    <tripinfo id="1.34" depart="57.00" departLane="" departPos="0.00" departSpeed="10.00" departDelay="22.59" arrival="1218.00" arrivalLane="" arrivalPos="400.00" arrivalSpeed="10.00" duration="1161.00" routeLength="1600.00" waitSteps="0" timeLoss="1000.86" rerouteNo="0" devices="tripinfo_1.34" vType="DEFAULT_VEHTYPE" vaporized=""/>
    <tripinfo id="1.35" depart="59.00" departLane="" departPos="0.00" departSpeed="10.00" departDelay="23.73" arrival="1220.00" arrivalLane="" arrivalPos="400.00" arrivalSpeed="10.00" duration="1161.00" routeLength="1600.00" waitSteps="0" timeLoss="1000.74" rerouteNo="0" devices="tripinfo_1.35" vType="DEFAULT_VEHTYPE" vaporized=""/>
    <tripinfo id="1.36" depart="61.00" departLane="" departPos="0.00" departSpeed="10.00" departDelay="24.86" arrival="1222.00" arrivalLane="" arrivalPos="400.00" arrivalSpeed="10.00" duration="1161.00" routeLength="1600.00" waitSteps="0" timeLoss="1000.62" rerouteNo="0" devices="tripinfo_1.36" vType="DEFAULT_VEHTYPE" vaporized=""/>
    <tripinfo id="1.37" depart="63.00" departLane="" departPos="0.00" departSpeed="10.00" departDelay="26.00" arrival="1224.00" arrivalLane="" arrivalPos="400.00" arrivalSpeed="10.00" duration="1161.00" routeLength="1600.00" waitSteps="0" timeLoss="1000.50" rerouteNo="0" devices="tripinfo_1.37" vType="DEFAULT_VEHTYPE" vaporized=""/>
    <tripinfo id="1.38" depart="65.00" departLane="" departPos="0.00" departSpeed="10.00" departDelay="27.13" arrival="1226.00" arrivalLane="" arrivalPos="400.00" arrivalSpeed="10.00" duration="1161.00" routeLength="1600.00" waitSteps="268" timeLoss="1000.38" rerouteNo="0" devices="tripinfo_1.38" vType="DEFAULT_VEHTYPE" vaporized=""/>
    <tripinfo id="1.39" depart="67.00" departLane="" departPos="0.00" departSpeed="10.00" departDelay="28.27" arrival="1228.00" arrivalLane="" arrivalPos="400.00" arrivalSpeed="10.00" duration="1161.00" routeLength="1600.00" waitSteps="286" timeLoss="1000.26" rerouteNo="0" devices="tripinfo_1.39" vType="DEFAULT_VEHTYPE" vaporized=""/>
    <tripinfo id="1.40" depart="69.00" departLane="" departPos="0.00" departSpeed="10.00" departDelay="29.40" arrival="1230.00" arrivalLane="" arrivalPos="400.00" arrivalSpeed="10.00" duration="1161.00" routeLength="1600.00" waitSteps="286" timeLoss="1000.14" rerouteNo="0" devices="tripinfo_1.40" vType="DEFAULT_VEHTYPE" vaporized=""/>
    <tripinfo id="1.41" depart="71.00" departLane="" departPos="0.00" departSpeed="10.00" departDelay="30.54" arrival="1232.00" arrivalLane="" arrivalPos="400.00" arrivalSpeed="10.00" duration="1161.00" routeLength="1600.00" waitSteps="67" timeLoss="1000.02" rerouteNo="0" devices="tripinfo_1.41" vType="DEFAULT_VEHTYPE" vaporized=""/>
    <tripinfo id="1.42" depart="73.00" departLane="" departPos="0.00" departSpeed="10.00" departDelay="31.67" arrival="1233.00" arrivalLane="" arrivalPos="400.00" arrivalSpeed="10.00" duration="1160.00" routeLength="1600.00" waitSteps="0" timeLoss="999.90" rerouteNo="0" devices="tripinfo_1.42" vType="DEFAULT_VEHTYPE" vaporized=""/>
    <tripinfo id="1.43" depart="75.00" departLane="" departPos="0.00" departSpeed="10.00" departDelay="32.80" arrival="1235.00" arrivalLane="" arrivalPos="400.00" arrivalSpeed="10.00" duration="1160.00" routeLength="1600.00" waitSteps="0" timeLoss="999.78" rerouteNo="0" devices="tripinfo_1.43" vType="DEFAULT_VEHTYPE" vaporized=""/>
    <tripinfo id="1.44" depart="77.00" departLane="" departPos="0.00" departSpeed="10.00" departDelay="33.94" arrival="1237.00" arrivalLane="" arrivalPos="400.00" arrivalSpeed="10.00" duration="1160.00" routeLength="1600.00" waitSteps="0" timeLoss="999.66" rerouteNo="0" devices="tripinfo_1.44" vType="DEFAULT_VEHTYPE" vaporized=""/>
    <tripinfo id="1.45" depart="79.00" departLane="" departPos="0.00" departSpeed="10.00" departDelay="35.08" arrival="1239.00" arrivalLane="" arrivalPos="400.00" arrivalSpeed="10.00" duration="1160.00" routeLength="1600.00" waitSteps="0" timeLoss="999.54" rerouteNo="0" devices="tripinfo_1.45" vType="DEFAULT_VEHTYPE" vaporized=""/>
    <tripinfo id="1.46" depart="81.00" departLane="" departPos="0.00" departSpeed="10.00" departDelay="36.21" arrival="1241.00" arrivalLane="" arrivalPos="400.00" arrivalSpeed="10.00" duration="1160.00" routeLength="1600.00" waitSteps="0" timeLoss="999.42" rerouteNo="0" devices="tripinfo_1.46" vType="DEFAULT_VEHTYPE" vaporized=""/>
    <tripinfo id="1.47" depart="83.00" departLane="" departPos="0.00" departSpeed="10.00" departDelay="37.34" arrival="1243.00" arrivalLane="" arrivalPos="400.00" arrivalSpeed="10.00" duration="1160.00" routeLength="1600.00" waitSteps="0" timeLoss="999.30" rerouteNo="0" devices="tripinfo_1.47" vType="DEFAULT_VEHTYPE" vaporized=""/>
    <tripinfo id="1.48" depart="85.00" departLane="" departPos="0.00" departSpeed="10.00" departDelay="38.48" arrival="1245.00" arrivalLane="" arrivalPos="400.00" arrivalSpeed="10.00" duration="1160.00" routeLength="1600.00" waitSteps="0" timeLoss="999.18" rerouteNo="0" devices="tripinfo_1.48" vType="DEFAULT_VEHTYPE" vaporized=""/>
    <tripinfo id="1.49" depart="87.00" departLane="" departPos="0.00" departSpeed="10.00" departDelay="39.62" arrival="1247.00" arrivalLane="" arrivalPos="400.00" arrivalSpeed="10.00" duration="1160.00" routeLength="1600.00" waitSteps="0" timeLoss="999.06" rerouteNo="0" devices="tripinfo_1.49" vType="DEFAULT_VEHTYPE" vaporized=""/>
    <tripinfo id="1.50" depart="89.00" departLane="" departPos="0.00" departSpeed="10.00" departDelay="40.75" arrival="1248.00" arrivalLane="" arrivalPos="400.00" arrivalSpeed="10.00" duration="1159.00" routeLength="1600.00" waitSteps="0" timeLoss="998.94" rerouteNo="0" devices="tripinfo_1.50" vType="DEFAULT_VEHTYPE" vaporized=""/>
    <tripinfo id="1.51" depart="91.00" departLane="" departPos="0.00" departSpeed="10.00" departDelay="41.88" arrival="1250.00" arrivalLane="" arrivalPos="400.00" arrivalSpeed="10.00" duration="1159.00" routeLength="1600.00" waitSteps="253" timeLoss="998.82" rerouteNo="0" devices="tripinfo_1.51" vType="DEFAULT_VEHTYPE" vaporized=""/>
    <tripinfo id="2" depart="160.00" departLane="" departPos="0.00" departSpeed="10.00" departDelay="0.00" arrival="1252.00" arrivalLane="" arrivalPos="400.00" arrivalSpeed="10.00" duration="1092.00" routeLength="1600.00" waitSteps="298" timeLoss="931.70" rerouteNo="0" devices="tripinfo_2" vType="DEFAULT_VEHTYPE" vaporized=""/>
</tripinfos>
