<?xml version="1.0" encoding="UTF-8"?>

<!-- generated on Tue Dec  3 16:30:11 2013 by SUMO sumo Version dev-SVN-r15233
<?xml version="1.0" encoding="UTF-8"?>

<configuration xmlns:xsi="http://www.w3.org/2001/XMLSchema-instance" xsi:noNamespaceSchemaLocation="http://sumo-sim.org/xsd/sumoConfiguration.xsd">

    <input>
        <net-file value="net.net.xml"/>
        <additional-files value="input_routes.rou.xml,input_additional2.add.xml"/>
    </input>

    <output>
        <tripinfo-output value="tripinfos.xml"/>
    </output>

    <report>
        <no-duration-log value="true"/>
        <no-step-log value="true"/>
    </report>

</configuration>
-->

<tripinfos>
    <tripinfo id="2" depart="160.00" departLane="4/1to3/1_0" departPos="100.00" departSpeed="10.00" departDelay="0.00" arrival="960.00" arrivalLane="1/1to0/1_0" arrivalPos="390.50" arrivalSpeed="0.00" duration="800.00" routeLength="1462.00" waitSteps="302" rerouteNo="0" devices="tripinfo_2" vType="DEFAULT_VEHTYPE" vaporized=""/>
    <tripinfo id="0" depart="0.00" departLane="4/1to3/1_0" departPos="100.00" departSpeed="10.00" departDelay="0.00" arrival="1149.00" arrivalLane="1/1to0/1_0" arrivalPos="390.50" arrivalSpeed="0.10" duration="1149.00" routeLength="1462.00" waitSteps="1003" rerouteNo="0" devices="tripinfo_0" vType="DEFAULT_VEHTYPE" vaporized=""/>
    <tripinfo id="1.0" depart="5.00" departLane="4/1to3/1_0" departPos="100.00" departSpeed="0.00" departDelay="0.00" arrival="1149.00" arrivalLane="1/1to0/1_0" arrivalPos="390.50" arrivalSpeed="0.00" duration="1144.00" routeLength="1462.00" waitSteps="997" rerouteNo="0" devices="tripinfo_1.0" vType="DEFAULT_VEHTYPE" vaporized=""/>
    <tripinfo id="1.1" depart="7.00" departLane="4/1to3/1_0" departPos="100.00" departSpeed="0.00" departDelay="1.12" arrival="1152.00" arrivalLane="1/1to0/1_0" arrivalPos="390.50" arrivalSpeed="7.80" duration="1145.00" routeLength="1462.00" waitSteps="994" rerouteNo="0" devices="tripinfo_1.1" vType="DEFAULT_VEHTYPE" vaporized=""/>
    <tripinfo id="1.2" depart="10.00" departLane="4/1to3/1_0" departPos="100.00" departSpeed="0.00" departDelay="3.24" arrival="1154.00" arrivalLane="1/1to0/1_0" arrivalPos="390.50" arrivalSpeed="10.00" duration="1144.00" routeLength="1462.00" waitSteps="994" rerouteNo="0" devices="tripinfo_1.2" vType="DEFAULT_VEHTYPE" vaporized=""/>
    <tripinfo id="1.3" depart="12.00" departLane="4/1to3/1_0" departPos="100.00" departSpeed="0.00" departDelay="4.35" arrival="1156.00" arrivalLane="1/1to0/1_0" arrivalPos="390.50" arrivalSpeed="10.00" duration="1144.00" routeLength="1462.00" waitSteps="993" rerouteNo="0" devices="tripinfo_1.3" vType="DEFAULT_VEHTYPE" vaporized=""/>
    <tripinfo id="1.4" depart="15.00" departLane="4/1to3/1_0" departPos="100.00" departSpeed="0.00" departDelay="6.47" arrival="1158.00" arrivalLane="1/1to0/1_0" arrivalPos="390.50" arrivalSpeed="10.00" duration="1143.00" routeLength="1462.00" waitSteps="992" rerouteNo="0" devices="tripinfo_1.4" vType="DEFAULT_VEHTYPE" vaporized=""/>
    <tripinfo id="1.5" depart="17.00" departLane="4/1to3/1_0" departPos="100.00" departSpeed="0.00" departDelay="7.59" arrival="1159.00" arrivalLane="1/1to0/1_0" arrivalPos="390.50" arrivalSpeed="10.00" duration="1142.00" routeLength="1462.00" waitSteps="991" rerouteNo="0" devices="tripinfo_1.5" vType="DEFAULT_VEHTYPE" vaporized=""/>
    <tripinfo id="1.6" depart="20.00" departLane="4/1to3/1_0" departPos="100.00" departSpeed="0.00" departDelay="9.71" arrival="1161.00" arrivalLane="1/1to0/1_0" arrivalPos="390.50" arrivalSpeed="10.00" duration="1141.00" routeLength="1462.00" waitSteps="991" rerouteNo="0" devices="tripinfo_1.6" vType="DEFAULT_VEHTYPE" vaporized=""/>
    <tripinfo id="1.7" depart="22.00" departLane="4/1to3/1_0" departPos="100.00" departSpeed="0.00" departDelay="10.83" arrival="1163.00" arrivalLane="1/1to0/1_0" arrivalPos="390.50" arrivalSpeed="10.00" duration="1141.00" routeLength="1462.00" waitSteps="990" rerouteNo="0" devices="tripinfo_1.7" vType="DEFAULT_VEHTYPE" vaporized=""/>
    <tripinfo id="1.8" depart="25.00" departLane="4/1to3/1_0" departPos="100.00" departSpeed="0.00" departDelay="12.94" arrival="1165.00" arrivalLane="1/1to0/1_0" arrivalPos="390.50" arrivalSpeed="10.00" duration="1140.00" routeLength="1462.00" waitSteps="989" rerouteNo="0" devices="tripinfo_1.8" vType="DEFAULT_VEHTYPE" vaporized=""/>
    <tripinfo id="1.9" depart="27.00" departLane="4/1to3/1_0" departPos="100.00" departSpeed="0.00" departDelay="14.06" arrival="1166.00" arrivalLane="1/1to0/1_0" arrivalPos="390.50" arrivalSpeed="10.00" duration="1139.00" routeLength="1462.00" waitSteps="988" rerouteNo="0" devices="tripinfo_1.9" vType="DEFAULT_VEHTYPE" vaporized=""/>
    <tripinfo id="1.10" depart="30.00" departLane="4/1to3/1_0" departPos="100.00" departSpeed="0.00" departDelay="16.18" arrival="1168.00" arrivalLane="1/1to0/1_0" arrivalPos="390.50" arrivalSpeed="10.00" duration="1138.00" routeLength="1462.00" waitSteps="988" rerouteNo="0" devices="tripinfo_1.10" vType="DEFAULT_VEHTYPE" vaporized=""/>
    <tripinfo id="1.11" depart="32.00" departLane="4/1to3/1_0" departPos="100.00" departSpeed="0.00" departDelay="17.30" arrival="1170.00" arrivalLane="1/1to0/1_0" arrivalPos="390.50" arrivalSpeed="10.00" duration="1138.00" routeLength="1462.00" waitSteps="987" rerouteNo="0" devices="tripinfo_1.11" vType="DEFAULT_VEHTYPE" vaporized=""/>
    <tripinfo id="1.12" depart="35.00" departLane="4/1to3/1_0" departPos="100.00" departSpeed="0.00" departDelay="19.42" arrival="1172.00" arrivalLane="1/1to0/1_0" arrivalPos="390.50" arrivalSpeed="10.00" duration="1137.00" routeLength="1462.00" waitSteps="986" rerouteNo="0" devices="tripinfo_1.12" vType="DEFAULT_VEHTYPE" vaporized=""/>
    <tripinfo id="1.13" depart="37.00" departLane="4/1to3/1_0" departPos="100.00" departSpeed="0.00" departDelay="20.53" arrival="1173.00" arrivalLane="1/1to0/1_0" arrivalPos="390.50" arrivalSpeed="10.00" duration="1136.00" routeLength="1462.00" waitSteps="985" rerouteNo="0" devices="tripinfo_1.13" vType="DEFAULT_VEHTYPE" vaporized=""/>
    <tripinfo id="1.14" depart="40.00" departLane="4/1to3/1_0" departPos="100.00" departSpeed="0.00" departDelay="22.65" arrival="1175.00" arrivalLane="1/1to0/1_0" arrivalPos="390.50" arrivalSpeed="10.00" duration="1135.00" routeLength="1462.00" waitSteps="985" rerouteNo="0" devices="tripinfo_1.14" vType="DEFAULT_VEHTYPE" vaporized=""/>
    <tripinfo id="1.15" depart="42.00" departLane="4/1to3/1_0" departPos="100.00" departSpeed="0.00" departDelay="23.77" arrival="1177.00" arrivalLane="1/1to0/1_0" arrivalPos="390.50" arrivalSpeed="10.00" duration="1135.00" routeLength="1462.00" waitSteps="984" rerouteNo="0" devices="tripinfo_1.15" vType="DEFAULT_VEHTYPE" vaporized=""/>
    <tripinfo id="1.16" depart="45.00" departLane="4/1to3/1_0" departPos="100.00" departSpeed="0.00" departDelay="25.89" arrival="1179.00" arrivalLane="1/1to0/1_0" arrivalPos="390.50" arrivalSpeed="10.00" duration="1134.00" routeLength="1462.00" waitSteps="983" rerouteNo="0" devices="tripinfo_1.16" vType="DEFAULT_VEHTYPE" vaporized=""/>
    <tripinfo id="1.17" depart="47.00" departLane="4/1to3/1_0" departPos="100.00" departSpeed="0.00" departDelay="27.01" arrival="1180.00" arrivalLane="1/1to0/1_0" arrivalPos="390.50" arrivalSpeed="10.00" duration="1133.00" routeLength="1462.00" waitSteps="982" rerouteNo="0" devices="tripinfo_1.17" vType="DEFAULT_VEHTYPE" vaporized=""/>
    <tripinfo id="1.18" depart="50.00" departLane="4/1to3/1_0" departPos="100.00" departSpeed="0.00" departDelay="29.12" arrival="1182.00" arrivalLane="1/1to0/1_0" arrivalPos="390.50" arrivalSpeed="10.00" duration="1132.00" routeLength="1462.00" waitSteps="982" rerouteNo="0" devices="tripinfo_1.18" vType="DEFAULT_VEHTYPE" vaporized=""/>
    <tripinfo id="1.19" depart="52.00" departLane="4/1to3/1_0" departPos="100.00" departSpeed="0.00" departDelay="30.24" arrival="1184.00" arrivalLane="1/1to0/1_0" arrivalPos="390.50" arrivalSpeed="10.00" duration="1132.00" routeLength="1462.00" waitSteps="981" rerouteNo="0" devices="tripinfo_1.19" vType="DEFAULT_VEHTYPE" vaporized=""/>
    <tripinfo id="1.20" depart="55.00" departLane="4/1to3/1_0" departPos="100.00" departSpeed="0.00" departDelay="32.36" arrival="1186.00" arrivalLane="1/1to0/1_0" arrivalPos="390.50" arrivalSpeed="10.00" duration="1131.00" routeLength="1462.00" waitSteps="980" rerouteNo="0" devices="tripinfo_1.20" vType="DEFAULT_VEHTYPE" vaporized=""/>
    <tripinfo id="1.21" depart="57.00" departLane="4/1to3/1_0" departPos="100.00" departSpeed="0.00" departDelay="33.48" arrival="1187.00" arrivalLane="1/1to0/1_0" arrivalPos="390.50" arrivalSpeed="10.00" duration="1130.00" routeLength="1462.00" waitSteps="979" rerouteNo="0" devices="tripinfo_1.21" vType="DEFAULT_VEHTYPE" vaporized=""/>
    <tripinfo id="1.22" depart="60.00" departLane="4/1to3/1_0" departPos="100.00" departSpeed="0.00" departDelay="35.60" arrival="1189.00" arrivalLane="1/1to0/1_0" arrivalPos="390.50" arrivalSpeed="10.00" duration="1129.00" routeLength="1462.00" waitSteps="979" rerouteNo="0" devices="tripinfo_1.22" vType="DEFAULT_VEHTYPE" vaporized=""/>
    <tripinfo id="1.23" depart="62.00" departLane="4/1to3/1_0" departPos="100.00" departSpeed="0.00" departDelay="36.71" arrival="1191.00" arrivalLane="1/1to0/1_0" arrivalPos="390.50" arrivalSpeed="10.00" duration="1129.00" routeLength="1462.00" waitSteps="978" rerouteNo="0" devices="tripinfo_1.23" vType="DEFAULT_VEHTYPE" vaporized=""/>
    <tripinfo id="1.24" depart="65.00" departLane="4/1to3/1_0" departPos="100.00" departSpeed="0.00" departDelay="38.83" arrival="1193.00" arrivalLane="1/1to0/1_0" arrivalPos="390.50" arrivalSpeed="10.00" duration="1128.00" routeLength="1462.00" waitSteps="977" rerouteNo="0" devices="tripinfo_1.24" vType="DEFAULT_VEHTYPE" vaporized=""/>
    <tripinfo id="1.25" depart="67.00" departLane="4/1to3/1_0" departPos="100.00" departSpeed="0.00" departDelay="39.95" arrival="1194.00" arrivalLane="1/1to0/1_0" arrivalPos="390.50" arrivalSpeed="10.00" duration="1127.00" routeLength="1462.00" waitSteps="976" rerouteNo="0" devices="tripinfo_1.25" vType="DEFAULT_VEHTYPE" vaporized=""/>
    <tripinfo id="1.26" depart="70.00" departLane="4/1to3/1_0" departPos="100.00" departSpeed="0.00" departDelay="42.07" arrival="1196.00" arrivalLane="1/1to0/1_0" arrivalPos="390.50" arrivalSpeed="10.00" duration="1126.00" routeLength="1462.00" waitSteps="976" rerouteNo="0" devices="tripinfo_1.26" vType="DEFAULT_VEHTYPE" vaporized=""/>
    <tripinfo id="1.27" depart="72.00" departLane="4/1to3/1_0" departPos="100.00" departSpeed="0.00" departDelay="43.19" arrival="1198.00" arrivalLane="1/1to0/1_0" arrivalPos="390.50" arrivalSpeed="10.00" duration="1126.00" routeLength="1462.00" waitSteps="975" rerouteNo="0" devices="tripinfo_1.27" vType="DEFAULT_VEHTYPE" vaporized=""/>
    <tripinfo id="1.28" depart="75.00" departLane="4/1to3/1_0" departPos="100.00" departSpeed="0.00" departDelay="45.30" arrival="1200.00" arrivalLane="1/1to0/1_0" arrivalPos="390.50" arrivalSpeed="10.00" duration="1125.00" routeLength="1462.00" waitSteps="974" rerouteNo="0" devices="tripinfo_1.28" vType="DEFAULT_VEHTYPE" vaporized=""/>
    <tripinfo id="1.29" depart="77.00" departLane="4/1to3/1_0" departPos="100.00" departSpeed="0.00" departDelay="46.42" arrival="1201.00" arrivalLane="1/1to0/1_0" arrivalPos="390.50" arrivalSpeed="10.00" duration="1124.00" routeLength="1462.00" waitSteps="973" rerouteNo="0" devices="tripinfo_1.29" vType="DEFAULT_VEHTYPE" vaporized=""/>
    <tripinfo id="1.30" depart="80.00" departLane="4/1to3/1_0" departPos="100.00" departSpeed="0.00" departDelay="48.54" arrival="1203.00" arrivalLane="1/1to0/1_0" arrivalPos="390.50" arrivalSpeed="10.00" duration="1123.00" routeLength="1462.00" waitSteps="973" rerouteNo="0" devices="tripinfo_1.30" vType="DEFAULT_VEHTYPE" vaporized=""/>
    <tripinfo id="1.31" depart="82.00" departLane="4/1to3/1_0" departPos="100.00" departSpeed="0.00" departDelay="49.66" arrival="1205.00" arrivalLane="1/1to0/1_0" arrivalPos="390.50" arrivalSpeed="10.00" duration="1123.00" routeLength="1462.00" waitSteps="972" rerouteNo="0" devices="tripinfo_1.31" vType="DEFAULT_VEHTYPE" vaporized=""/>
    <tripinfo id="1.32" depart="85.00" departLane="4/1to3/1_0" departPos="100.00" departSpeed="0.00" departDelay="51.78" arrival="1207.00" arrivalLane="1/1to0/1_0" arrivalPos="390.50" arrivalSpeed="10.00" duration="1122.00" routeLength="1462.00" waitSteps="971" rerouteNo="0" devices="tripinfo_1.32" vType="DEFAULT_VEHTYPE" vaporized=""/>
    <tripinfo id="1.33" depart="87.00" departLane="4/1to3/1_0" departPos="100.00" departSpeed="0.00" departDelay="52.89" arrival="1208.00" arrivalLane="1/1to0/1_0" arrivalPos="390.50" arrivalSpeed="10.00" duration="1121.00" routeLength="1462.00" waitSteps="970" rerouteNo="0" devices="tripinfo_1.33" vType="DEFAULT_VEHTYPE" vaporized=""/>
    <tripinfo id="1.34" depart="90.00" departLane="4/1to3/1_0" departPos="100.00" departSpeed="0.00" departDelay="55.01" arrival="1210.00" arrivalLane="1/1to0/1_0" arrivalPos="390.50" arrivalSpeed="10.00" duration="1120.00" routeLength="1462.00" waitSteps="970" rerouteNo="0" devices="tripinfo_1.34" vType="DEFAULT_VEHTYPE" vaporized=""/>
    <tripinfo id="1.35" depart="92.00" departLane="4/1to3/1_0" departPos="100.00" departSpeed="0.00" departDelay="56.13" arrival="1212.00" arrivalLane="1/1to0/1_0" arrivalPos="390.50" arrivalSpeed="10.00" duration="1120.00" routeLength="1462.00" waitSteps="969" rerouteNo="0" devices="tripinfo_1.35" vType="DEFAULT_VEHTYPE" vaporized=""/>
    <tripinfo id="1.36" depart="95.00" departLane="4/1to3/1_0" departPos="100.00" departSpeed="0.00" departDelay="58.25" arrival="1214.00" arrivalLane="1/1to0/1_0" arrivalPos="390.50" arrivalSpeed="10.00" duration="1119.00" routeLength="1462.00" waitSteps="968" rerouteNo="0" devices="tripinfo_1.36" vType="DEFAULT_VEHTYPE" vaporized=""/>
    <tripinfo id="1.37" depart="97.00" departLane="4/1to3/1_0" departPos="100.00" departSpeed="0.00" departDelay="59.37" arrival="1215.00" arrivalLane="1/1to0/1_0" arrivalPos="390.50" arrivalSpeed="10.00" duration="1118.00" routeLength="1462.00" waitSteps="967" rerouteNo="0" devices="tripinfo_1.37" vType="DEFAULT_VEHTYPE" vaporized=""/>
    <tripinfo id="1.38" depart="100.00" departLane="4/1to3/1_0" departPos="100.00" departSpeed="0.00" departDelay="61.48" arrival="1217.00" arrivalLane="1/1to0/1_0" arrivalPos="390.50" arrivalSpeed="10.00" duration="1117.00" routeLength="1462.00" waitSteps="967" rerouteNo="0" devices="tripinfo_1.38" vType="DEFAULT_VEHTYPE" vaporized=""/>
    <tripinfo id="1.39" depart="102.00" departLane="4/1to3/1_0" departPos="100.00" departSpeed="0.00" departDelay="62.60" arrival="1219.00" arrivalLane="1/1to0/1_0" arrivalPos="390.50" arrivalSpeed="10.00" duration="1117.00" routeLength="1462.00" waitSteps="966" rerouteNo="0" devices="tripinfo_1.39" vType="DEFAULT_VEHTYPE" vaporized=""/>
    <tripinfo id="1.40" depart="105.00" departLane="4/1to3/1_0" departPos="100.00" departSpeed="0.00" departDelay="64.72" arrival="1221.00" arrivalLane="1/1to0/1_0" arrivalPos="390.50" arrivalSpeed="10.00" duration="1116.00" routeLength="1462.00" waitSteps="965" rerouteNo="0" devices="tripinfo_1.40" vType="DEFAULT_VEHTYPE" vaporized=""/>
    <tripinfo id="1.41" depart="107.00" departLane="4/1to3/1_0" departPos="100.00" departSpeed="0.00" departDelay="65.84" arrival="1222.00" arrivalLane="1/1to0/1_0" arrivalPos="390.50" arrivalSpeed="10.00" duration="1115.00" routeLength="1462.00" waitSteps="964" rerouteNo="0" devices="tripinfo_1.41" vType="DEFAULT_VEHTYPE" vaporized=""/>
    <tripinfo id="1.42" depart="110.00" departLane="4/1to3/1_0" departPos="100.00" departSpeed="0.00" departDelay="67.96" arrival="1224.00" arrivalLane="1/1to0/1_0" arrivalPos="390.50" arrivalSpeed="10.00" duration="1114.00" routeLength="1462.00" waitSteps="964" rerouteNo="0" devices="tripinfo_1.42" vType="DEFAULT_VEHTYPE" vaporized=""/>
    <tripinfo id="1.43" depart="112.00" departLane="4/1to3/1_0" departPos="100.00" departSpeed="0.00" departDelay="69.07" arrival="1226.00" arrivalLane="1/1to0/1_0" arrivalPos="390.50" arrivalSpeed="10.00" duration="1114.00" routeLength="1462.00" waitSteps="963" rerouteNo="0" devices="tripinfo_1.43" vType="DEFAULT_VEHTYPE" vaporized=""/>
    <tripinfo id="1.44" depart="115.00" departLane="4/1to3/1_0" departPos="100.00" departSpeed="0.00" departDelay="71.19" arrival="1228.00" arrivalLane="1/1to0/1_0" arrivalPos="390.50" arrivalSpeed="10.00" duration="1113.00" routeLength="1462.00" waitSteps="962" rerouteNo="0" devices="tripinfo_1.44" vType="DEFAULT_VEHTYPE" vaporized=""/>
    <tripinfo id="1.45" depart="117.00" departLane="4/1to3/1_0" departPos="100.00" departSpeed="0.00" departDelay="72.31" arrival="1229.00" arrivalLane="1/1to0/1_0" arrivalPos="390.50" arrivalSpeed="10.00" duration="1112.00" routeLength="1462.00" waitSteps="961" rerouteNo="0" devices="tripinfo_1.45" vType="DEFAULT_VEHTYPE" vaporized=""/>
    <tripinfo id="1.46" depart="120.00" departLane="4/1to3/1_0" departPos="100.00" departSpeed="0.00" departDelay="74.43" arrival="1231.00" arrivalLane="1/1to0/1_0" arrivalPos="390.50" arrivalSpeed="10.00" duration="1111.00" routeLength="1462.00" waitSteps="961" rerouteNo="0" devices="tripinfo_1.46" vType="DEFAULT_VEHTYPE" vaporized=""/>
    <tripinfo id="1.47" depart="122.00" departLane="4/1to3/1_0" departPos="100.00" departSpeed="0.00" departDelay="75.55" arrival="1233.00" arrivalLane="1/1to0/1_0" arrivalPos="390.50" arrivalSpeed="10.00" duration="1111.00" routeLength="1462.00" waitSteps="960" rerouteNo="0" devices="tripinfo_1.47" vType="DEFAULT_VEHTYPE" vaporized=""/>
    <tripinfo id="1.48" depart="125.00" departLane="4/1to3/1_0" departPos="100.00" departSpeed="0.00" departDelay="77.66" arrival="1235.00" arrivalLane="1/1to0/1_0" arrivalPos="390.50" arrivalSpeed="10.00" duration="1110.00" routeLength="1462.00" waitSteps="959" rerouteNo="0" devices="tripinfo_1.48" vType="DEFAULT_VEHTYPE" vaporized=""/>
    <tripinfo id="1.49" depart="127.00" departLane="4/1to3/1_0" departPos="100.00" departSpeed="0.00" departDelay="78.78" arrival="1236.00" arrivalLane="1/1to0/1_0" arrivalPos="390.50" arrivalSpeed="10.00" duration="1109.00" routeLength="1462.00" waitSteps="958" rerouteNo="0" devices="tripinfo_1.49" vType="DEFAULT_VEHTYPE" vaporized=""/>
    <tripinfo id="1.50" depart="130.00" departLane="4/1to3/1_0" departPos="100.00" departSpeed="0.00" departDelay="80.90" arrival="1238.00" arrivalLane="1/1to0/1_0" arrivalPos="390.50" arrivalSpeed="10.00" duration="1108.00" routeLength="1462.00" waitSteps="958" rerouteNo="0" devices="tripinfo_1.50" vType="DEFAULT_VEHTYPE" vaporized=""/>
</tripinfos>
