<?xml version="1.0" encoding="UTF-8"?>

<!-- generated on 2022-02-27 21:36:01 by Eclipse SUMO sumo Version v1_12_0+0910-4d47041
<configuration xmlns:xsi="http://www.w3.org/2001/XMLSchema-instance" xsi:noNamespaceSchemaLocation="http://sumo.dlr.de/xsd/sumoConfiguration.xsd">

    <input>
        <net-file value="net.net.xml"/>
        <route-files value="input_routes.rou.xml"/>
        <additional-files value="input_additional.add.xml"/>
    </input>

    <output>
        <vehroute-output value="vehroutes.xml"/>
        <save-state.times value="20"/>
        <save-state.files value="state.xml"/>
    </output>

    <processing>
        <default.speeddev value="0"/>
    </processing>

    <report>
        <verbose value="true"/>
        <duration-log.disable value="true"/>
        <no-step-log value="true"/>
    </report>

</configuration>
-->

<snapshot xmlns:xsi="http://www.w3.org/2001/XMLSchema-instance" xsi:noNamespaceSchemaLocation="http://sumo.dlr.de/xsd/state_file.xsd" version="v1_12_0+0910-4d47041" time="20.00" type="micro">
    <route id="r0" state="1" edges="beg middle end"/>
    <delay number="1" begin="2" end="0" depart="0.00" time="0.00"/>
    <vType id="t0" sigma="0"/>
    <vehicle id="v0" type="t0" depart="0.00" route="r0" distance="207 0" speedFactor="1.00" state="1026 0 2 5.10 0 2.77 19000 0 0" pos="10.67 5.67 13.89" speed="13.89 13.89" angle="90.00" posLat="0.00" waitingTime="100000 0">
        <stop busStop="busstop" duration="20.00" parking="1"/>
        <device id="vehroute_v0" state="0 0.00 0.00 5.10 0"/>
    </vehicle>
    <vehicle id="v1" type="t0" depart="23.00" route="r0" distance="0 0" speedFactor="1.00" state="1026 9223372036854775807 0 -1.00 0 0.00 0 0 0" pos="0.00 0.00 0.00" speed="0.00 0.00" angle="90.00" posLat="0.00" waitingTime="100000 0">
        <stop busStop="busstop" duration="20.00" parking="1"/>
        <device id="vehroute_v1" state="-1 0.00 -1.00 -1.00 0"/>
    </vehicle>
    <lane id="end_0">
        <vehicles value="v0"/>
    </lane>
</snapshot>
