<?xml version="1.0" encoding="UTF-8"?>

<!-- generated on 2025-10-09T21:49:53.974585+01:00 by Eclipse SUMO sumo v1_24_0+1329-e45c39789b9
<sumoConfiguration xmlns:xsi="http://www.w3.org/2001/XMLSchema-instance" xsi:noNamespaceSchemaLocation="http://sumo.dlr.de/xsd/sumoConfiguration.xsd">

    <input>
        <net-file value="input_net3.net.xml"/>
        <route-files value="input_routes.rou.xml"/>
    </input>

    <output>
        <fcd-output value="fcd.xml"/>
        <vehroute-output value="vehroutes.xml"/>
    </output>

    <report>
        <no-step-log value="true"/>
    </report>

    <traci_server>
        <remote-port value="56669"/>
    </traci_server>

</sumoConfiguration>
-->

<fcd-export xmlns:xsi="http://www.w3.org/2001/XMLSchema-instance" xsi:noNamespaceSchemaLocation="http://sumo.dlr.de/xsd/fcd_file.xsd">
    <timestep time="0.00">
        <person id="p0" x="111.60" y="93.35" angle="0.04" type="DEFAULT_PEDTYPE" speed="13.35" pos="1.00" edge=":C_c1" slope="0.00"/>
    </timestep>
    <timestep time="1.00">
        <person id="p0" x="111.59" y="94.56" angle="359.53" type="DEFAULT_PEDTYPE" speed="1.21" pos="2.21" edge=":C_c1" slope="0.00"/>
    </timestep>
    <timestep time="2.00">
        <person id="p0" x="111.59" y="95.82" angle="0.00" type="DEFAULT_PEDTYPE" speed="1.26" pos="3.47" edge=":C_c1" slope="0.00"/>
    </timestep>
    <timestep time="3.00">
        <person id="p0" x="111.59" y="97.28" angle="0.00" type="DEFAULT_PEDTYPE" speed="1.46" pos="4.93" edge=":C_c1" slope="0.00"/>
    </timestep>
    <timestep time="4.00">
        <person id="p0" x="111.59" y="98.61" angle="0.00" type="DEFAULT_PEDTYPE" speed="1.33" pos="6.26" edge=":C_c1" slope="0.00"/>
    </timestep>
    <timestep time="5.00">
        <person id="p0" x="111.59" y="99.91" angle="0.00" type="DEFAULT_PEDTYPE" speed="1.30" pos="7.56" edge=":C_c1" slope="0.00"/>
    </timestep>
    <timestep time="6.00">
        <person id="p0" x="111.59" y="101.37" angle="0.00" type="DEFAULT_PEDTYPE" speed="1.46" pos="9.02" edge=":C_c1" slope="0.00"/>
    </timestep>
    <timestep time="7.00">
        <person id="p0" x="111.59" y="102.62" angle="0.00" type="DEFAULT_PEDTYPE" speed="1.25" pos="10.27" edge=":C_c1" slope="0.00"/>
    </timestep>
    <timestep time="8.00">
        <person id="p0" x="111.59" y="104.02" angle="0.00" type="DEFAULT_PEDTYPE" speed="1.40" pos="11.67" edge=":C_c1" slope="0.00"/>
    </timestep>
    <timestep time="9.00">
        <person id="p0" x="111.59" y="105.33" angle="0.00" type="DEFAULT_PEDTYPE" speed="1.31" pos="12.98" edge=":C_c1" slope="0.00"/>
    </timestep>
    <timestep time="10.00">
        <person id="p0" x="111.59" y="106.58" angle="0.00" type="DEFAULT_PEDTYPE" speed="1.25" pos="14.23" edge=":C_c1" slope="0.00"/>
    </timestep>
    <timestep time="11.00">
        <person id="p0" x="111.59" y="108.05" angle="0.00" type="DEFAULT_PEDTYPE" speed="1.47" pos="0.40" edge=":C_w1" slope="0.00"/>
    </timestep>
    <timestep time="12.00">
        <person id="p0" x="111.51" y="109.31" angle="344.47" type="DEFAULT_PEDTYPE" speed="1.27" pos="1.68" edge=":C_w1" slope="0.00"/>
    </timestep>
    <timestep time="13.00">
        <person id="p0" x="111.15" y="110.60" angle="344.47" type="DEFAULT_PEDTYPE" speed="1.33" pos="3.01" edge=":C_w1" slope="0.00"/>
    </timestep>
    <timestep time="14.00">
        <person id="p0" x="110.84" y="111.90" angle="0.00" type="DEFAULT_PEDTYPE" speed="1.34" pos="4.35" edge=":C_w1" slope="0.00"/>
    </timestep>
    <timestep time="15.00">
        <person id="p0" x="110.95" y="113.21" angle="0.00" type="DEFAULT_PEDTYPE" speed="1.31" pos="0.11" edge="CN" slope="0.00"/>
    </timestep>
    <timestep time="16.00">
        <person id="p0" x="110.95" y="114.60" angle="0.00" type="DEFAULT_PEDTYPE" speed="1.39" pos="1.50" edge="CN" slope="0.00"/>
    </timestep>
    <timestep time="17.00">
        <person id="p0" x="110.95" y="116.05" angle="0.00" type="DEFAULT_PEDTYPE" speed="1.45" pos="2.95" edge="CN" slope="0.00"/>
    </timestep>
    <timestep time="18.00">
        <person id="p0" x="110.95" y="117.27" angle="0.00" type="DEFAULT_PEDTYPE" speed="1.21" pos="4.17" edge="CN" slope="0.00"/>
    </timestep>
    <timestep time="19.00">
        <person id="p0" x="110.95" y="118.65" angle="0.00" type="DEFAULT_PEDTYPE" speed="1.38" pos="5.55" edge="CN" slope="0.00"/>
    </timestep>
    <timestep time="20.00">
        <person id="p0" x="110.95" y="119.92" angle="0.00" type="DEFAULT_PEDTYPE" speed="1.27" pos="6.82" edge="CN" slope="0.00"/>
    </timestep>
    <timestep time="21.00">
        <person id="p0" x="110.95" y="121.38" angle="0.00" type="DEFAULT_PEDTYPE" speed="1.46" pos="8.28" edge="CN" slope="0.00"/>
    </timestep>
    <timestep time="22.00">
        <person id="p0" x="110.95" y="122.70" angle="0.00" type="DEFAULT_PEDTYPE" speed="1.32" pos="9.60" edge="CN" slope="0.00"/>
    </timestep>
    <timestep time="23.00"/>
</fcd-export>
