<?xml version="1.0" encoding="UTF-8"?>

<!-- generated on 2025-04-22 10:44:58 by Eclipse SUMO sumo Version v1_22_0+1617-22b86256498
This data file and the accompanying materials
are made available under the terms of the Eclipse Public License v2.0
which accompanies this distribution, and is available at
http://www.eclipse.org/legal/epl-v20.html
This file may also be made available under the following Secondary
Licenses when the conditions for such availability set forth in the Eclipse
Public License 2.0 are satisfied: GNU General Public License, version 2
or later which is available at
https://www.gnu.org/licenses/old-licenses/gpl-2.0-standalone.html
SPDX-License-Identifier: EPL-2.0 OR GPL-2.0-or-later
<sumoConfiguration xmlns:xsi="http://www.w3.org/2001/XMLSchema-instance" xsi:noNamespaceSchemaLocation="http://sumo.dlr.de/xsd/sumoConfiguration.xsd">

    <input>
        <net-file value="three_split.net.xml"/>
        <additional-files value="input_routes.rou.xml"/>
    </input>

    <output>
        <write-license value="true"/>
        <emission-output.precision value="3"/>
        <tripinfo-output value="tripinfos.xml"/>
    </output>

    <time>
        <begin value="0"/>
    </time>

    <processing>
        <default.speeddev value="0"/>
    </processing>

    <report>
        <xml-validation value="never"/>
        <duration-log.disable value="true"/>
        <no-step-log value="true"/>
    </report>

    <emissions>
        <device.emissions.explicit value="0,2,4,6,8"/>
    </emissions>

</sumoConfiguration>
-->

<tripinfos xmlns:xsi="http://www.w3.org/2001/XMLSchema-instance" xsi:noNamespaceSchemaLocation="http://sumo.dlr.de/xsd/tripinfo_file.xsd">
    <tripinfo id="0" depart="0.00" departLane="beg_0" departPos="5.10" departSpeed="13.89" departDelay="0.00" arrival="20.00" arrivalLane="beg_0" arrivalPos="500.00" arrivalSpeed="26.91" duration="20.00" routeLength="494.90" waitingTime="0.00" waitingCount="0" stopTime="0.00" timeLoss="1.90" rerouteNo="0" devices="tripinfo_0 emissions_0" vType="DEFAULT_VEHTYPE" speedFactor="1.00" vaporized="">
        <emissions CO_abs="2317.929" CO2_abs="149814.196" HC_abs="15.557" PMx_abs="16.752" NOx_abs="62.470" fuel_abs="48567.060" electricity_abs="0"/>
    </tripinfo>
</tripinfos>
