<?xml version="1.0" encoding="UTF-8"?>

<!-- generated on 2025-04-17 22:36:23 by Eclipse SUMO sumo Version v1_22_0+1605-1e9ca90a14a
This data file and the accompanying materials
are made available under the terms of the Eclipse Public License v2.0
which accompanies this distribution, and is available at
http://www.eclipse.org/legal/epl-v20.html
This file may also be made available under the following Secondary
Licenses when the conditions for such availability set forth in the Eclipse
Public License 2.0 are satisfied: GNU General Public License, version 2
or later which is available at
https://www.gnu.org/licenses/old-licenses/gpl-2.0-standalone.html
SPDX-License-Identifier: EPL-2.0 OR GPL-2.0-or-later
<sumoConfiguration xmlns:xsi="http://www.w3.org/2001/XMLSchema-instance" xsi:noNamespaceSchemaLocation="http://sumo.dlr.de/xsd/sumoConfiguration.xsd">

    <input>
        <net-file value="net.net.xml"/>
        <route-files value="input_routes.rou.xml"/>
        <additional-files value="input_additional.add.xml"/>
    </input>

    <output>
        <write-license value="true"/>
        <battery-output value="battery.xml"/>
        <battery-output.precision value="4"/>
        <chargingstations-output value="chargingstations.xml"/>
        <tripinfo-output value="tripinfos.xml"/>
        <vehroute-output value="vehroutes.xml"/>
    </output>

    <processing>
        <default.speeddev value="0"/>
    </processing>

    <report>
        <xml-validation value="never"/>
        <duration-log.disable value="true"/>
        <no-step-log value="true"/>
    </report>

    <battery>
        <device.stationfinder.probability value="1"/>
    </battery>

</sumoConfiguration>
-->

<tripinfos xmlns:xsi="http://www.w3.org/2001/XMLSchema-instance" xsi:noNamespaceSchemaLocation="http://sumo.dlr.de/xsd/tripinfo_file.xsd">
    <tripinfo id="veh0" depart="0.00" departLane="E2D2_0" departPos="12.10" departSpeed="0.00" departDelay="0.00" arrival="329.00" arrivalLane="A2A3_0" arrivalPos="73.97" arrivalSpeed="0.00" duration="329.00" routeLength="2114.10" waitingTime="122.00" waitingCount="3" stopTime="1.00" timeLoss="151.57" rerouteNo="2" devices="vehroute_veh0 tripinfo_veh0 routing_veh0 stationfinder_veh0 battery_veh0" vType="ElectricVehicle1" speedFactor="1.00" vaporized="end">
        <battery depleted="0" actualBatteryCapacity="1045.77" totalEnergyConsumed="1361.97" totalEnergyRegenerated="102.24"/>
    </tripinfo>
</tripinfos>
