<?xml version="1.0" encoding="UTF-8"?>

<!-- generated on Sun Dec 22 14:43:53 2019 by Eclipse SUMO Version v1_4_0+0267-d7c1e17f62
<configuration xmlns:xsi="http://www.w3.org/2001/XMLSchema-instance" xsi:noNamespaceSchemaLocation="http://sumo.dlr.de/xsd/sumoConfiguration.xsd">

    <input>
        <net-file value="input_net.net.xml"/>
        <route-files value="input_routes.rou.xml"/>
    </input>

    <output>
        <vehroute-output value="vehroutes.xml"/>
        <save-state.times value="50"/>
        <save-state.files value="state.xml"/>
    </output>

    <report>
        <duration-log.disable value="true"/>
        <no-step-log value="true"/>
    </report>

</configuration>
-->

<snapshot xmlns:xsi="http://www.w3.org/2001/XMLSchema-instance" xsi:noNamespaceSchemaLocation="http://sumo.dlr.de/xsd/state_file.xsd" version="v1_4_0+0267-d7c1e17f62" time="50.00">
    <route id="!0" state="1" edges="0/1to1/1 3/1to4/1"/>
    <route id="!0.0!var#1" state="0" edges="0/1to1/1 1/1to2/1 2/1to3/1 3/1to4/1"/>
    <route id="!0.1!var#1" state="0" edges="0/1to1/1 1/1to2/1 2/1to3/1 3/1to4/1"/>
    <route id="!0.2!var#1" state="0" edges="0/1to1/1 1/1to2/1 2/1to3/1 3/1to4/1"/>
    <route id="!0.3!var#1" state="0" edges="0/1to1/1 1/1to2/1 2/1to3/1 3/1to4/1"/>
    <route id="!0.4!var#1" state="0" edges="0/1to1/1 1/1to2/1 2/1to3/1 3/1to4/1"/>
    <flowState id="0" index="5" reroute="1"/>
    <delay number="5" begin="5" end="0" depart="0.00" time="0.00"/>
    <vType id="DEFAULT_BIKETYPE" vClass="bicycle"/>
    <vType id="DEFAULT_CONTAINERTYPE" vClass="ignoring"/>
    <vType id="DEFAULT_PEDTYPE" vClass="pedestrian"/>
    <vType id="DEFAULT_VEHTYPE" sigma="0"/>
    <vehicle id="0.0" type="DEFAULT_VEHTYPE" depart="0.00" route="!0.0!var#1" speedFactor="1.06" state="0 1 5.10 0 49000" pos="56.80" speed="10.60" posLat="0.00">
        <device id="vehroute_0.0" state="0 0.00 0.00 5.10 1 !NULL 0 !0 device.rerouting"/>
        <device id="routing_0.0" state="0"/>
    </vehicle>
    <vehicle id="0.1" type="DEFAULT_VEHTYPE" depart="10.00" route="!0.1!var#1" speedFactor="0.94" state="10000 0 5.10 0 49000" pos="358.49" speed="9.38" posLat="0.00">
        <device id="vehroute_0.1" state="0 0.00 0.00 5.10 1 !NULL 10000 !0 device.rerouting"/>
        <device id="routing_0.1" state="0"/>
    </vehicle>
    <vehicle id="0.2" type="DEFAULT_VEHTYPE" depart="20.00" route="!0.2!var#1" speedFactor="1.01" state="20000 0 5.10 0 49000" pos="283.40" speed="10.10" posLat="0.00">
        <device id="vehroute_0.2" state="0 0.00 0.00 5.10 1 !NULL 20000 !0 device.rerouting"/>
        <device id="routing_0.2" state="0"/>
    </vehicle>
    <vehicle id="0.3" type="DEFAULT_VEHTYPE" depart="30.00" route="!0.3!var#1" speedFactor="1.08" state="30000 0 5.10 0 49000" pos="193.50" speed="10.83" posLat="0.00">
        <device id="vehroute_0.3" state="0 0.00 0.00 5.10 1 !NULL 30000 !0 device.rerouting"/>
        <device id="routing_0.3" state="0"/>
    </vehicle>
    <vehicle id="0.4" type="DEFAULT_VEHTYPE" depart="40.00" route="!0.4!var#1" speedFactor="1.03" state="40000 0 5.10 0 49000" pos="82.52" speed="10.30" posLat="0.00">
        <device id="vehroute_0.4" state="0 0.00 0.00 5.10 1 !NULL 40000 !0 device.rerouting"/>
        <device id="routing_0.4" state="0"/>
    </vehicle>
    <lane id="0/1to1/1_0">
        <vehicles value="0.4 0.3 0.2 0.1"/>
    </lane>
    <lane id="1/1to2/1_0">
        <vehicles value="0.0"/>
    </lane>
</snapshot>
