<?xml version="1.0" encoding="UTF-8"?>

<!-- generated on 2024-03-07 14:19:43 by Eclipse SUMO sumo Version v1_19_0+1185-ef359fe9789
This data file and the accompanying materials
are made available under the terms of the Eclipse Public License v2.0
which accompanies this distribution, and is available at
http://www.eclipse.org/legal/epl-v20.html
This file may also be made available under the following Secondary
Licenses when the conditions for such availability set forth in the Eclipse
Public License 2.0 are satisfied: GNU General Public License, version 2
or later which is available at
https://www.gnu.org/licenses/old-licenses/gpl-2.0-standalone.html
SPDX-License-Identifier: EPL-2.0 OR GPL-2.0-or-later
<configuration xmlns:xsi="http://www.w3.org/2001/XMLSchema-instance" xsi:noNamespaceSchemaLocation="http://sumo.dlr.de/xsd/sumoConfiguration.xsd">

    <input>
        <net-file value="net3.net.xml"/>
        <route-files value="input_trips.trips.xml"/>
    </input>

    <output>
        <write-license value="true"/>
        <vehroute-output value="vehroutes.xml"/>
    </output>

    <processing>
        <default.speeddev value="0"/>
    </processing>

    <report>
        <xml-validation value="never"/>
        <no-step-log value="true"/>
    </report>

</configuration>
-->

<routes xmlns:xsi="http://www.w3.org/2001/XMLSchema-instance" xsi:noNamespaceSchemaLocation="http://sumo.dlr.de/xsd/routes_file.xsd">
    <vehicle id="1" depart="3.00" arrival="129.00">
        <route edges="-24214693#0 -7216737#3 -7216737#2 -7216737#1 24152812#0 -5198586#4 -5198586#3 -5198586#2 -5198586#1 -5198586#0 27445015#3 27445015#4"/>
    </vehicle>

    <vehicle id="0" depart="0.00" arrival="136.00">
        <route edges="-24214693#0 -7727483#3 -7727483#2 -7727483#1 -7727483#0 7727482 27445015#0 27445015#1 27445015#2 27445015#3 5784968#4 5784968#5 27437972#1 27437972#2 27437972#3 7730464 27445015#1 27445015#2 27445015#3 27445015#4"/>
        <stop edge="27437972#1" endPos="249.08" duration="10.00"/>
    </vehicle>

</routes>
