<?xml version="1.0" encoding="UTF-8"?>

<!-- generated on 2026-03-14T09:43:53.667468+01:00 by Eclipse SUMO sumo v1_26_0+0588-d6d4e06ecd2
This data file and the accompanying materials
are made available under the terms of the Eclipse Public License v2.0
which accompanies this distribution, and is available at
http://www.eclipse.org/legal/epl-v20.html
This file may also be made available under the following Secondary
Licenses when the conditions for such availability set forth in the Eclipse
Public License 2.0 are satisfied: GNU General Public License, version 2
or later which is available at
https://www.gnu.org/licenses/old-licenses/gpl-2.0-standalone.html
SPDX-License-Identifier: EPL-2.0 OR GPL-2.0-or-later
<sumoConfiguration xmlns:xsi="http://www.w3.org/2001/XMLSchema-instance" xsi:noNamespaceSchemaLocation="http://sumo.dlr.de/xsd/sumoConfiguration.xsd">

    <input>
        <net-file value="net.net.xml"/>
        <route-files value="input_routes.rou.xml"/>
    </input>

    <output>
        <write-license value="true"/>
        <fcd-output value="fcd.xml"/>
        <fcd-output.attributes value="speed,pos,lane,edge,posLat,speedLat"/>
    </output>

    <processing>
        <lateral-resolution value="0.2"/>
        <default.speeddev value="0"/>
    </processing>

    <report>
        <xml-validation value="never"/>
        <no-step-log value="true"/>
    </report>

</sumoConfiguration>
-->

<fcd-export xmlns:xsi="http://www.w3.org/2001/XMLSchema-instance" xsi:noNamespaceSchemaLocation="http://sumo.dlr.de/xsd/fcd_file.xsd">
    <timestep time="0.00">
        <vehicle id="ego" speed="10.00" pos="6.00" lane="beg_1" posLat="0.00" speedLat="0.00"/>
        <vehicle id="other" speed="10.00" pos="10.00" lane="beg_0" posLat="0.00" speedLat="0.00"/>
    </timestep>
    <timestep time="1.00">
        <vehicle id="ego" speed="10.00" pos="16.00" lane="beg_1" posLat="0.00" speedLat="0.00"/>
        <vehicle id="other" speed="10.00" pos="20.00" lane="beg_0" posLat="0.00" speedLat="0.00"/>
    </timestep>
    <timestep time="2.00">
        <vehicle id="ego" speed="10.00" pos="26.00" lane="beg_1" posLat="0.00" speedLat="0.00"/>
        <vehicle id="other" speed="10.00" pos="30.00" lane="beg_0" posLat="0.00" speedLat="0.00"/>
    </timestep>
    <timestep time="3.00">
        <vehicle id="ego" speed="10.00" pos="36.00" lane="beg_1" posLat="0.00" speedLat="0.00"/>
        <vehicle id="other" speed="10.00" pos="40.00" lane="beg_0" posLat="0.00" speedLat="0.00"/>
    </timestep>
    <timestep time="4.00">
        <vehicle id="ego" speed="10.00" pos="46.00" lane="beg_1" posLat="0.00" speedLat="0.00"/>
        <vehicle id="other" speed="10.00" pos="50.00" lane="beg_0" posLat="0.00" speedLat="0.00"/>
    </timestep>
    <timestep time="5.00">
        <vehicle id="ego" speed="10.00" pos="56.00" lane="beg_1" posLat="0.00" speedLat="0.00"/>
        <vehicle id="other" speed="10.00" pos="60.00" lane="beg_0" posLat="0.00" speedLat="0.00"/>
    </timestep>
    <timestep time="6.00">
        <vehicle id="ego" speed="10.00" pos="66.00" lane="beg_1" posLat="0.00" speedLat="0.00"/>
        <vehicle id="other" speed="10.00" pos="70.00" lane="beg_0" posLat="0.00" speedLat="0.00"/>
    </timestep>
    <timestep time="7.00">
        <vehicle id="ego" speed="10.00" pos="76.00" lane="beg_1" posLat="0.00" speedLat="0.00"/>
        <vehicle id="other" speed="10.00" pos="80.00" lane="beg_0" posLat="0.00" speedLat="0.00"/>
    </timestep>
    <timestep time="8.00">
        <vehicle id="ego" speed="10.00" pos="86.00" lane="beg_1" posLat="0.00" speedLat="0.00"/>
        <vehicle id="other" speed="10.00" pos="90.00" lane="beg_0" posLat="0.00" speedLat="0.00"/>
    </timestep>
    <timestep time="9.00">
        <vehicle id="ego" speed="10.00" pos="96.00" lane="beg_1" posLat="0.00" speedLat="0.00"/>
        <vehicle id="other" speed="10.00" pos="100.00" lane="beg_0" posLat="0.00" speedLat="0.00"/>
    </timestep>
    <timestep time="10.00">
        <vehicle id="ego" speed="10.00" pos="106.00" lane="beg_1" posLat="0.00" speedLat="0.00"/>
        <vehicle id="other" speed="10.00" pos="110.00" lane="beg_0" posLat="0.00" speedLat="0.00"/>
    </timestep>
    <timestep time="11.00">
        <vehicle id="ego" speed="10.00" pos="116.00" lane="beg_1" posLat="0.00" speedLat="0.00"/>
        <vehicle id="other" speed="10.00" pos="120.00" lane="beg_0" posLat="0.00" speedLat="0.00"/>
    </timestep>
    <timestep time="12.00">
        <vehicle id="ego" speed="10.00" pos="126.00" lane="beg_1" posLat="0.00" speedLat="0.00"/>
        <vehicle id="other" speed="10.00" pos="130.00" lane="beg_0" posLat="0.00" speedLat="0.00"/>
    </timestep>
    <timestep time="13.00">
        <vehicle id="ego" speed="10.00" pos="136.00" lane="beg_1" posLat="0.00" speedLat="0.00"/>
        <vehicle id="other" speed="10.00" pos="140.00" lane="beg_0" posLat="0.00" speedLat="0.00"/>
    </timestep>
    <timestep time="14.00">
        <vehicle id="ego" speed="10.00" pos="146.00" lane="beg_1" posLat="0.00" speedLat="0.00"/>
        <vehicle id="other" speed="10.00" pos="150.00" lane="beg_0" posLat="0.00" speedLat="0.00"/>
    </timestep>
    <timestep time="15.00">
        <vehicle id="ego" speed="10.00" pos="156.00" lane="beg_1" posLat="0.00" speedLat="0.00"/>
        <vehicle id="other" speed="10.00" pos="160.00" lane="beg_0" posLat="0.00" speedLat="0.00"/>
    </timestep>
    <timestep time="16.00">
        <vehicle id="ego" speed="10.00" pos="166.00" lane="beg_1" posLat="0.00" speedLat="0.00"/>
        <vehicle id="other" speed="10.00" pos="170.00" lane="beg_0" posLat="0.00" speedLat="0.00"/>
    </timestep>
    <timestep time="17.00">
        <vehicle id="ego" speed="10.00" pos="176.00" lane="beg_1" posLat="0.00" speedLat="0.00"/>
        <vehicle id="other" speed="10.00" pos="180.00" lane="beg_0" posLat="0.00" speedLat="0.00"/>
    </timestep>
    <timestep time="18.00">
        <vehicle id="ego" speed="10.00" pos="186.00" lane="beg_1" posLat="0.00" speedLat="0.00"/>
        <vehicle id="other" speed="10.00" pos="190.00" lane="beg_0" posLat="0.00" speedLat="0.00"/>
    </timestep>
    <timestep time="19.00">
        <vehicle id="ego" speed="10.00" pos="196.00" lane="beg_1" posLat="0.00" speedLat="0.00"/>
    </timestep>
    <timestep time="20.00"/>
</fcd-export>
