<?xml version="1.0"?>

<!-- generated on 02/19/10 13:25:50 by SUMO sumo Version dev-SVN-r8292
<configuration>

    <input>
        <net-file value="three_split.net.xml"/>
        <additional-files value="input_routes.rou.xml"/>
    </input>

    <output>
        <vehroute-output value="vehroutes.xml"/>
    </output>

    <time>
        <begin value="0"/>
    </time>

    <report>
        <no-duration-log value="true"/>
        <no-step-log value="true"/>
    </report>

    <routing>
        <device.routing.probability value="1"/>
    </routing>

</configuration>
-->

<routes>
    <vehicle id="f1.0" depart="0" arrival="80">
        <replacedRoute replacedOnEdge="beg" replacedAtTime="0" edges="beg rend"/>
        <route edges="beg middle end rend"/>
   </vehicle>

    <vehicle id="f1.1" depart="20" arrival="100">
        <replacedRoute replacedOnEdge="beg" replacedAtTime="20" edges="beg rend"/>
        <route edges="beg middle end rend"/>
   </vehicle>

    <vehicle id="f1.2" depart="40" arrival="120">
        <replacedRoute replacedOnEdge="beg" replacedAtTime="40" edges="beg rend"/>
        <route edges="beg middle end rend"/>
   </vehicle>

    <vehicle id="f1.3" depart="60" arrival="140">
        <replacedRoute replacedOnEdge="beg" replacedAtTime="60" edges="beg rend"/>
        <route edges="beg middle end rend"/>
   </vehicle>

    <vehicle id="f1.4" depart="80" arrival="160">
        <replacedRoute replacedOnEdge="beg" replacedAtTime="80" edges="beg rend"/>
        <route edges="beg middle end rend"/>
   </vehicle>

    <vehicle id="f1.5" depart="100" arrival="181">
        <replacedRoute replacedOnEdge="beg" replacedAtTime="100" edges="beg rend"/>
        <route edges="beg middle end rend"/>
   </vehicle>

    <vehicle id="f1.6" depart="120" arrival="200">
        <replacedRoute replacedOnEdge="beg" replacedAtTime="120" edges="beg rend"/>
        <route edges="beg middle end rend"/>
   </vehicle>

    <vehicle id="f1.7" depart="140" arrival="221">
        <replacedRoute replacedOnEdge="beg" replacedAtTime="140" edges="beg rend"/>
        <route edges="beg middle end rend"/>
   </vehicle>

    <vehicle id="f1.8" depart="160" arrival="241">
        <replacedRoute replacedOnEdge="beg" replacedAtTime="160" edges="beg rend"/>
        <route edges="beg middle end rend"/>
   </vehicle>

    <vehicle id="f1.9" depart="180" arrival="261">
        <replacedRoute replacedOnEdge="beg" replacedAtTime="180" edges="beg rend"/>
        <route edges="beg middle end rend"/>
   </vehicle>

</routes>
