<?xml version="1.0" encoding="UTF-8"?>

<!-- generated on 2026-04-09T23:59:31.675476+01:00 by Eclipse SUMO sumo v1_26_0+1063-474b3a0336b
<sumoConfiguration xmlns:xsi="http://www.w3.org/2001/XMLSchema-instance" xsi:noNamespaceSchemaLocation="http://sumo.dlr.de/xsd/sumoConfiguration.xsd">

    <input>
        <net-file value="input_net.net.xml"/>
        <route-files value="input_routes.rou.xml"/>
    </input>

    <output>
        <human-readable-time value="true"/>
        <vehroute-output value="vehroutes.xml"/>
        <save-state.times value="25"/>
        <save-state.files value="state.xml"/>
    </output>

    <report>
        <duration-log.disable value="true"/>
        <no-step-log value="true"/>
    </report>

    <mesoscopic>
        <mesosim value="true"/>
    </mesoscopic>

</sumoConfiguration>
-->

<snapshot type="meso" version="v1_26_0+1063-474b3a0336b" time="00:00:25" xmlns:xsi="http://www.w3.org/2001/XMLSchema-instance" xsi:noNamespaceSchemaLocation="http://sumo.dlr.de/xsd/state_file.xsd">
    <route id="!0" state="0" edges="SC CW"/>
    <delay number="2" begin="3" end="1" depart="0.00" time="13.00" speedFactor="1.06" decel="4.50"/>
    <vType id="DEFAULT_VEHTYPE" sigma="0"/>
    <vehicle id="0.1" depart="00:00:10" route="!0" distance="179.2 0" speedFactor="0.9383" reroute="1" state="262304 10000 1 0 0 0 24284 17409 9223372036854774807 0 0">
        <device id="vehroute_0.1" state="13.03 0.00 0"/>
        <device id="routing_0.1" state="0 10000"/>
    </vehicle>
    <vehicle id="0.2" depart="00:00:20" route="!0" distance="0 0" speedFactor="1.0104" reroute="1" state="262304 20000 0 0 0 1 26384 20000 9223372036854774807 0 0">
        <device id="vehroute_0.2" state="14.03 0.00 0"/>
        <device id="routing_0.2" state="0 20000"/>
    </vehicle>
    <flowState id="0" begin="00:00:00" end="00:01:40" period="10" next="30.00" route="!0" done="3" index="3" reroute="1"/>
    <segment id=":C_13:0">
        <vehicles time="19348" blockTime="18813" value=""/>
    </segment>
    <segment id="CW:0">
        <vehicles time="12645" blockTime="18242" value="0.1"/>
    </segment>
    <segment id="SC:0">
        <vehicles time="-1" blockTime="-9223372036854775808" value=""/>
        <vehicles time="18544" blockTime="-9223372036854775808" value="0.2"/>
    </segment>
    <tlLogic id="C" programID="0" phase="0" duration="25000" active="1"/>
    <routingEngine last="25000" index="25">
        <edge id=":C_13" speed="9.28" pastSpeed="9.26 9.26 9.26 9.26 9.26 9.26 9.26 9.26 9.26 9.26 9.26 9.26 9.26 9.26 9.26 9.26 9.26 13.03 9.26 9.26 9.26 9.26 9.26 9.26 9.26 9.26 9.26 9.26 9.26 9.26 9.26 9.26 9.26 9.26 9.26 9.26 9.26 9.26 9.26 9.26 9.26 9.26 9.26 9.26 9.26 9.26 9.26 9.26 9.26 9.26 9.26 9.26 9.26 9.26 9.26 9.26 9.26 9.26 9.26 9.26 9.26 9.26 9.26 9.26 9.26 9.26 9.26 9.26 9.26 9.26 9.26 9.26 9.26 9.26 9.26 9.26 9.26 9.26 9.26 9.26 9.26 9.26 9.26 9.26 9.26 9.26 9.26 9.26 9.26 9.26 9.26 9.26 9.26 9.26 9.26 9.26 9.26 9.26 9.26 9.26 9.26 9.26 9.26 9.26 9.26 9.26 9.26 9.26 9.26 9.26 9.26 9.26 9.26 9.26 9.26 9.26 9.26 9.26 9.26 9.26 9.26 9.26 9.26 9.26 9.26 9.26 9.26 9.26 9.26 9.26 9.26 9.26 9.26 9.26 9.26 9.26 9.26 9.26 9.26 9.26 9.26 9.26 9.26 9.26 9.26 9.26 9.26 9.26 9.26 9.26 9.26 9.26 9.26 9.26 9.26 9.26 9.26 9.26 9.26 9.26 9.26 9.26 9.26 9.26 9.26 9.26 9.26 9.26 9.26 9.26 9.26 9.26 9.26 9.26 9.26 9.26 9.26 9.26 9.26 9.26"/>
        <edge id="CW" speed="13.88" pastSpeed="13.89 13.89 13.89 13.89 13.89 13.89 13.89 14.72 14.72 14.72 14.72 14.72 14.72 13.89 13.89 13.89 13.89 13.89 13.03 13.03 13.03 13.03 13.03 13.03 13.03 13.89 13.89 13.89 13.89 13.89 13.89 13.89 13.89 13.89 13.89 13.89 13.89 13.89 13.89 13.89 13.89 13.89 13.89 13.89 13.89 13.89 13.89 13.89 13.89 13.89 13.89 13.89 13.89 13.89 13.89 13.89 13.89 13.89 13.89 13.89 13.89 13.89 13.89 13.89 13.89 13.89 13.89 13.89 13.89 13.89 13.89 13.89 13.89 13.89 13.89 13.89 13.89 13.89 13.89 13.89 13.89 13.89 13.89 13.89 13.89 13.89 13.89 13.89 13.89 13.89 13.89 13.89 13.89 13.89 13.89 13.89 13.89 13.89 13.89 13.89 13.89 13.89 13.89 13.89 13.89 13.89 13.89 13.89 13.89 13.89 13.89 13.89 13.89 13.89 13.89 13.89 13.89 13.89 13.89 13.89 13.89 13.89 13.89 13.89 13.89 13.89 13.89 13.89 13.89 13.89 13.89 13.89 13.89 13.89 13.89 13.89 13.89 13.89 13.89 13.89 13.89 13.89 13.89 13.89 13.89 13.89 13.89 13.89 13.89 13.89 13.89 13.89 13.89 13.89 13.89 13.89 13.89 13.89 13.89 13.89 13.89 13.89 13.89 13.89 13.89 13.89 13.89 13.89 13.89 13.89 13.89 13.89 13.89 13.89 13.89 13.89 13.89 13.89 13.89 13.89"/>
        <edge id="SC" speed="13.89" pastSpeed="14.72 14.72 14.72 14.72 14.72 14.72 14.72 13.89 13.89 13.89 13.03 13.03 13.03 13.03 13.03 13.03 13.03 13.89 13.89 13.89 14.04 14.04 14.04 14.04 14.04 13.89 13.89 13.89 13.89 13.89 13.89 13.89 13.89 13.89 13.89 13.89 13.89 13.89 13.89 13.89 13.89 13.89 13.89 13.89 13.89 13.89 13.89 13.89 13.89 13.89 13.89 13.89 13.89 13.89 13.89 13.89 13.89 13.89 13.89 13.89 13.89 13.89 13.89 13.89 13.89 13.89 13.89 13.89 13.89 13.89 13.89 13.89 13.89 13.89 13.89 13.89 13.89 13.89 13.89 13.89 13.89 13.89 13.89 13.89 13.89 13.89 13.89 13.89 13.89 13.89 13.89 13.89 13.89 13.89 13.89 13.89 13.89 13.89 13.89 13.89 13.89 13.89 13.89 13.89 13.89 13.89 13.89 13.89 13.89 13.89 13.89 13.89 13.89 13.89 13.89 13.89 13.89 13.89 13.89 13.89 13.89 13.89 13.89 13.89 13.89 13.89 13.89 13.89 13.89 13.89 13.89 13.89 13.89 13.89 13.89 13.89 13.89 13.89 13.89 13.89 13.89 13.89 13.89 13.89 13.89 13.89 13.89 13.89 13.89 13.89 13.89 13.89 13.89 13.89 13.89 13.89 13.89 13.89 13.89 13.89 13.89 13.89 13.89 13.89 13.89 13.89 13.89 13.89 13.89 13.89 13.89 13.89 13.89 13.89 13.89 13.89 13.89 13.89 13.89 13.89"/>
    </routingEngine>
</snapshot>
