<?xml version="1.0" encoding="UTF-8"?>

<!-- generated on 04/10/19 12:57:46 by Eclipse SUMO Version v1_1_0+1379-f2e706eba2
<configuration xmlns:xsi="http://www.w3.org/2001/XMLSchema-instance" xsi:noNamespaceSchemaLocation="http://sumo.dlr.de/xsd/sumoConfiguration.xsd">

    <input>
        <net-file value="input_net.net.xml"/>
        <route-files value="input_routes.rou.xml"/>
    </input>

    <output>
        <human-readable-time value="true"/>
        <vehroute-output value="vehroutes.xml"/>
        <save-state.times value="50"/>
        <save-state.files value="state.xml"/>
    </output>

    <report>
        <duration-log.disable value="true"/>
        <no-step-log value="true"/>
    </report>

</configuration>
-->

<snapshot xmlns:xsi="http://www.w3.org/2001/XMLSchema-instance" xsi:noNamespaceSchemaLocation="http://sumo.dlr.de/xsd/state_file.xsd" version="v1_1_0+1379-f2e706eba2" time="00:00:50">
    <route id="!0" state="1" edges="SC CW"/>
    <flowState id="0" index="5" reroute="1"/>
    <delay number="1" begin="5" end="4" depart="0.00" time="71.00"/>
    <vType id="DEFAULT_BIKETYPE" vClass="bicycle"/>
    <vType id="DEFAULT_PEDTYPE" vClass="pedestrian"/>
    <vType id="DEFAULT_VEHTYPE" sigma="0"/>
    <vehicle id="0.4" type="DEFAULT_VEHTYPE" depart="00:00:40" route="!0" speedFactor="1.03" state="40000 0 5.10 0 49000" pos="87.80" speed="5.30" posLat="0.00">
        <device id="vehroute_0.4" state="0 0.00 0.00 5.10 0"/>
        <device id="routing_0.4" state="0"/>
    </vehicle>
    <lane id=":C_0_0">
        <vehicles value=""/>
    </lane>
    <lane id=":C_1_0">
        <vehicles value=""/>
    </lane>
    <lane id=":C_1_1">
        <vehicles value=""/>
    </lane>
    <lane id=":C_3_0">
        <vehicles value=""/>
    </lane>
    <lane id=":C_4_0">
        <vehicles value=""/>
    </lane>
    <lane id=":C_20_0">
        <vehicles value=""/>
    </lane>
    <lane id=":C_21_0">
        <vehicles value=""/>
    </lane>
    <lane id=":C_5_0">
        <vehicles value=""/>
    </lane>
    <lane id=":C_6_0">
        <vehicles value=""/>
    </lane>
    <lane id=":C_6_1">
        <vehicles value=""/>
    </lane>
    <lane id=":C_8_0">
        <vehicles value=""/>
    </lane>
    <lane id=":C_9_0">
        <vehicles value=""/>
    </lane>
    <lane id=":C_22_0">
        <vehicles value=""/>
    </lane>
    <lane id=":C_23_0">
        <vehicles value=""/>
    </lane>
    <lane id=":C_10_0">
        <vehicles value=""/>
    </lane>
    <lane id=":C_11_0">
        <vehicles value=""/>
    </lane>
    <lane id=":C_11_1">
        <vehicles value=""/>
    </lane>
    <lane id=":C_13_0">
        <vehicles value=""/>
    </lane>
    <lane id=":C_14_0">
        <vehicles value=""/>
    </lane>
    <lane id=":C_24_0">
        <vehicles value=""/>
    </lane>
    <lane id=":C_25_0">
        <vehicles value=""/>
    </lane>
    <lane id=":C_15_0">
        <vehicles value=""/>
    </lane>
    <lane id=":C_16_0">
        <vehicles value=""/>
    </lane>
    <lane id=":C_16_1">
        <vehicles value=""/>
    </lane>
    <lane id=":C_18_0">
        <vehicles value=""/>
    </lane>
    <lane id=":C_19_0">
        <vehicles value=""/>
    </lane>
    <lane id=":C_26_0">
        <vehicles value=""/>
    </lane>
    <lane id=":C_27_0">
        <vehicles value=""/>
    </lane>
    <lane id=":E_0_0">
        <vehicles value=""/>
    </lane>
    <lane id=":N_0_0">
        <vehicles value=""/>
    </lane>
    <lane id=":S_0_0">
        <vehicles value=""/>
    </lane>
    <lane id=":W_0_0">
        <vehicles value=""/>
    </lane>
    <lane id="CE_0">
        <vehicles value=""/>
    </lane>
    <lane id="CE_1">
        <vehicles value=""/>
    </lane>
    <lane id="CN_0">
        <vehicles value=""/>
    </lane>
    <lane id="CN_1">
        <vehicles value=""/>
    </lane>
    <lane id="CS_0">
        <vehicles value=""/>
    </lane>
    <lane id="CS_1">
        <vehicles value=""/>
    </lane>
    <lane id="CW_0">
        <vehicles value=""/>
    </lane>
    <lane id="CW_1">
        <vehicles value=""/>
    </lane>
    <lane id="EC_0">
        <vehicles value=""/>
    </lane>
    <lane id="EC_1">
        <vehicles value=""/>
    </lane>
    <lane id="NC_0">
        <vehicles value=""/>
    </lane>
    <lane id="NC_1">
        <vehicles value=""/>
    </lane>
    <lane id="SC_0">
        <vehicles value=""/>
    </lane>
    <lane id="SC_1">
        <vehicles value="0.4"/>
    </lane>
    <lane id="WC_0">
        <vehicles value=""/>
    </lane>
    <lane id="WC_1">
        <vehicles value=""/>
    </lane>
</snapshot>
