<?xml version="1.0" encoding="UTF-8"?>

<!-- generated on Wed Dec  9 15:26:51 2015 by SUMO Version dev-SVN-r19584D
<?xml version="1.0" encoding="UTF-8"?>

<configuration xmlns:xsi="http://www.w3.org/2001/XMLSchema-instance" xsi:noNamespaceSchemaLocation="http://sumo.dlr.de/xsd/sumoConfiguration.xsd">

    <input>
        <net-file value="net.net.xml"/>
        <route-files value="input_routes.rou.xml"/>
    </input>

    <output>
        <fcd-output value="fcd.xml"/>
        <tripinfo-output value="tripinfos.xml"/>
    </output>

    <report>
        <xml-validation value="never"/>
        <no-step-log value="true"/>
    </report>

</configuration>
-->

<fcd-export xmlns:xsi="http://www.w3.org/2001/XMLSchema-instance" xsi:noNamespaceSchemaLocation="http://sumo.dlr.de/xsd/fcd_file.xsd">
    <timestep time="0.00">
        <vehicle id="oncoming1" x="100.00" y="1.65" angle="270.00" type="DEFAULT_VEHTYPE" speed="0.00" pos="100.00" lane="-VODUGES_beg_0" slope="0.00"/>
        <vehicle id="oncoming2" x="200.00" y="1.65" angle="270.00" type="DEFAULT_VEHTYPE" speed="0.00" pos="0.00" lane="-VODUGES_beg_0" slope="0.00"/>
        <vehicle id="overtaking" x="0.00" y="-1.65" angle="90.00" type="DEFAULT_VEHTYPE" speed="0.00" pos="0.00" lane="VODUGES_beg_0" slope="0.00"/>
        <vehicle id="stopped" x="40.00" y="-1.65" angle="90.00" type="DEFAULT_VEHTYPE" speed="0.00" pos="40.00" lane="VODUGES_beg_0" slope="0.00"/>
    </timestep>
    <timestep time="1.00">
        <vehicle id="oncoming1" x="97.46" y="1.65" angle="270.00" type="DEFAULT_VEHTYPE" speed="2.54" pos="102.54" lane="-VODUGES_beg_0" slope="0.00"/>
        <vehicle id="oncoming2" x="198.04" y="1.65" angle="270.00" type="DEFAULT_VEHTYPE" speed="1.96" pos="1.96" lane="-VODUGES_beg_0" slope="0.00"/>
        <vehicle id="overtaking" x="1.67" y="-1.65" angle="90.00" type="DEFAULT_VEHTYPE" speed="1.67" pos="1.67" lane="VODUGES_beg_0" slope="0.00"/>
        <vehicle id="stopped" x="41.44" y="-1.65" angle="90.00" type="DEFAULT_VEHTYPE" speed="1.44" pos="41.44" lane="VODUGES_beg_0" slope="0.00"/>
    </timestep>
    <timestep time="2.00">
        <vehicle id="oncoming1" x="93.28" y="1.65" angle="270.00" type="DEFAULT_VEHTYPE" speed="4.17" pos="106.72" lane="-VODUGES_beg_0" slope="0.00"/>
        <vehicle id="oncoming2" x="193.80" y="1.65" angle="270.00" type="DEFAULT_VEHTYPE" speed="4.24" pos="6.20" lane="-VODUGES_beg_0" slope="0.00"/>
        <vehicle id="overtaking" x="5.89" y="-1.65" angle="90.00" type="DEFAULT_VEHTYPE" speed="4.22" pos="5.89" lane="VODUGES_beg_0" slope="0.00"/>
        <vehicle id="stopped" x="44.72" y="-1.65" angle="90.00" type="DEFAULT_VEHTYPE" speed="3.27" pos="44.72" lane="VODUGES_beg_0" slope="0.00"/>
    </timestep>
    <timestep time="3.00">
        <vehicle id="oncoming1" x="86.52" y="1.65" angle="270.00" type="DEFAULT_VEHTYPE" speed="6.77" pos="113.48" lane="-VODUGES_beg_0" slope="0.00"/>
        <vehicle id="oncoming2" x="187.84" y="1.65" angle="270.00" type="DEFAULT_VEHTYPE" speed="5.96" pos="12.16" lane="-VODUGES_beg_0" slope="0.00"/>
        <vehicle id="overtaking" x="11.74" y="-1.65" angle="90.00" type="DEFAULT_VEHTYPE" speed="5.85" pos="11.74" lane="VODUGES_beg_0" slope="0.00"/>
        <vehicle id="stopped" x="48.90" y="-1.65" angle="90.00" type="DEFAULT_VEHTYPE" speed="4.18" pos="48.90" lane="VODUGES_beg_0" slope="0.00"/>
    </timestep>
    <timestep time="4.00">
        <vehicle id="oncoming1" x="77.89" y="1.65" angle="270.00" type="DEFAULT_VEHTYPE" speed="8.63" pos="122.11" lane="-VODUGES_beg_0" slope="0.00"/>
        <vehicle id="oncoming2" x="179.61" y="1.65" angle="270.00" type="DEFAULT_VEHTYPE" speed="8.22" pos="20.39" lane="-VODUGES_beg_0" slope="0.00"/>
        <vehicle id="overtaking" x="19.60" y="-1.65" angle="90.00" type="DEFAULT_VEHTYPE" speed="7.86" pos="19.60" lane="VODUGES_beg_0" slope="0.00"/>
        <vehicle id="stopped" x="49.74" y="-1.65" angle="90.00" type="DEFAULT_VEHTYPE" speed="0.84" pos="49.74" lane="VODUGES_beg_0" slope="0.00"/>
    </timestep>
    <timestep time="5.00">
        <vehicle id="oncoming1" x="67.07" y="1.65" angle="270.00" type="DEFAULT_VEHTYPE" speed="10.81" pos="132.93" lane="-VODUGES_beg_0" slope="0.00"/>
        <vehicle id="oncoming2" x="169.68" y="1.65" angle="270.00" type="DEFAULT_VEHTYPE" speed="9.93" pos="30.32" lane="-VODUGES_beg_0" slope="0.00"/>
        <vehicle id="overtaking" x="28.92" y="-1.65" angle="90.00" type="DEFAULT_VEHTYPE" speed="9.32" pos="28.92" lane="VODUGES_beg_0" slope="0.00"/>
        <vehicle id="stopped" x="49.74" y="-1.65" angle="90.00" type="DEFAULT_VEHTYPE" speed="0.00" pos="49.74" lane="VODUGES_beg_0" slope="0.00"/>
    </timestep>
    <timestep time="6.00">
        <vehicle id="oncoming1" x="54.06" y="1.65" angle="270.00" type="DEFAULT_VEHTYPE" speed="13.01" pos="145.94" lane="-VODUGES_beg_0" slope="0.00"/>
        <vehicle id="oncoming2" x="157.97" y="1.65" angle="270.00" type="DEFAULT_VEHTYPE" speed="11.71" pos="42.03" lane="-VODUGES_beg_0" slope="0.00"/>
        <vehicle id="overtaking" x="37.17" y="-1.65" angle="90.00" type="DEFAULT_VEHTYPE" speed="8.24" pos="37.17" lane="VODUGES_beg_0" slope="0.00"/>
        <vehicle id="stopped" x="49.74" y="-1.65" angle="90.00" type="DEFAULT_VEHTYPE" speed="0.00" pos="49.74" lane="VODUGES_beg_0" slope="0.00"/>
    </timestep>
    <timestep time="7.00">
        <vehicle id="oncoming1" x="41.33" y="1.65" angle="270.00" type="DEFAULT_VEHTYPE" speed="12.74" pos="158.67" lane="-VODUGES_beg_0" slope="0.00"/>
        <vehicle id="oncoming2" x="144.60" y="1.65" angle="270.00" type="DEFAULT_VEHTYPE" speed="13.37" pos="55.40" lane="-VODUGES_beg_0" slope="0.00"/>
        <vehicle id="overtaking" x="40.91" y="-1.65" angle="90.00" type="DEFAULT_VEHTYPE" speed="3.74" pos="40.91" lane="VODUGES_beg_0" slope="0.00"/>
        <vehicle id="stopped" x="49.74" y="-1.65" angle="90.00" type="DEFAULT_VEHTYPE" speed="0.00" pos="49.74" lane="VODUGES_beg_0" slope="0.00"/>
    </timestep>
    <timestep time="8.00">
        <vehicle id="oncoming1" x="27.48" y="1.65" angle="270.00" type="DEFAULT_VEHTYPE" speed="13.85" pos="172.52" lane="-VODUGES_beg_0" slope="0.00"/>
        <vehicle id="oncoming2" x="131.10" y="1.65" angle="270.00" type="DEFAULT_VEHTYPE" speed="13.50" pos="68.90" lane="-VODUGES_beg_0" slope="0.00"/>
        <vehicle id="overtaking" x="42.08" y="1.65" angle="90.00" type="DEFAULT_VEHTYPE" speed="1.18" pos="157.92" lane="-VODUGES_beg_0" slope="0.00"/>
        <vehicle id="stopped" x="49.74" y="-1.65" angle="90.00" type="DEFAULT_VEHTYPE" speed="0.00" pos="49.74" lane="VODUGES_beg_0" slope="0.00"/>
    </timestep>
    <timestep time="9.00">
        <vehicle id="oncoming1" x="13.79" y="1.65" angle="270.00" type="DEFAULT_VEHTYPE" speed="13.68" pos="186.21" lane="-VODUGES_beg_0" slope="0.00"/>
        <vehicle id="oncoming2" x="117.25" y="1.65" angle="270.00" type="DEFAULT_VEHTYPE" speed="13.85" pos="82.75" lane="-VODUGES_beg_0" slope="0.00"/>
        <vehicle id="overtaking" x="44.62" y="1.65" angle="90.00" type="DEFAULT_VEHTYPE" speed="2.53" pos="155.38" lane="-VODUGES_beg_0" slope="0.00"/>
        <vehicle id="stopped" x="49.74" y="-1.65" angle="90.00" type="DEFAULT_VEHTYPE" speed="0.00" pos="49.74" lane="VODUGES_beg_0" slope="0.00"/>
    </timestep>
    <timestep time="10.00">
        <vehicle id="oncoming1" x="0.34" y="1.65" angle="270.00" type="DEFAULT_VEHTYPE" speed="13.46" pos="199.66" lane="-VODUGES_beg_0" slope="0.00"/>
        <vehicle id="oncoming2" x="103.52" y="1.65" angle="270.00" type="DEFAULT_VEHTYPE" speed="13.73" pos="96.48" lane="-VODUGES_beg_0" slope="0.00"/>
        <vehicle id="overtaking" x="49.58" y="1.65" angle="90.00" type="DEFAULT_VEHTYPE" speed="4.96" pos="150.42" lane="-VODUGES_beg_0" slope="0.00"/>
        <vehicle id="stopped" x="49.74" y="-1.65" angle="90.00" type="DEFAULT_VEHTYPE" speed="0.00" pos="49.74" lane="VODUGES_beg_0" slope="0.00"/>
    </timestep>
    <timestep time="11.00">
        <vehicle id="oncoming2" x="89.92" y="1.65" angle="270.00" type="DEFAULT_VEHTYPE" speed="13.60" pos="110.08" lane="-VODUGES_beg_0" slope="0.00"/>
        <vehicle id="overtaking" x="56.80" y="1.65" angle="90.00" type="DEFAULT_VEHTYPE" speed="7.22" pos="143.20" lane="-VODUGES_beg_0" slope="0.00"/>
        <vehicle id="stopped" x="49.74" y="-1.65" angle="90.00" type="DEFAULT_VEHTYPE" speed="0.00" pos="49.74" lane="VODUGES_beg_0" slope="0.00"/>
    </timestep>
    <timestep time="12.00">
        <vehicle id="oncoming2" x="76.35" y="1.65" angle="270.00" type="DEFAULT_VEHTYPE" speed="13.58" pos="123.65" lane="-VODUGES_beg_0" slope="0.00"/>
        <vehicle id="overtaking" x="65.88" y="-1.65" angle="90.00" type="DEFAULT_VEHTYPE" speed="9.08" pos="65.88" lane="VODUGES_beg_0" slope="0.00"/>
        <vehicle id="stopped" x="49.74" y="-1.65" angle="90.00" type="DEFAULT_VEHTYPE" speed="0.00" pos="49.74" lane="VODUGES_beg_0" slope="0.00"/>
    </timestep>
    <timestep time="13.00">
        <vehicle id="oncoming2" x="63.33" y="1.65" angle="270.00" type="DEFAULT_VEHTYPE" speed="13.02" pos="136.67" lane="-VODUGES_beg_0" slope="0.00"/>
        <vehicle id="overtaking" x="76.50" y="-1.65" angle="90.00" type="DEFAULT_VEHTYPE" speed="10.62" pos="76.50" lane="VODUGES_beg_0" slope="0.00"/>
        <vehicle id="stopped" x="49.74" y="-1.65" angle="90.00" type="DEFAULT_VEHTYPE" speed="0.00" pos="49.74" lane="VODUGES_beg_0" slope="0.00"/>
    </timestep>
    <timestep time="14.00">
        <vehicle id="oncoming2" x="50.34" y="1.65" angle="270.00" type="DEFAULT_VEHTYPE" speed="12.99" pos="149.66" lane="-VODUGES_beg_0" slope="0.00"/>
        <vehicle id="overtaking" x="88.79" y="-1.65" angle="90.00" type="DEFAULT_VEHTYPE" speed="12.29" pos="88.79" lane="VODUGES_beg_0" slope="0.00"/>
        <vehicle id="stopped" x="49.74" y="-1.65" angle="90.00" type="DEFAULT_VEHTYPE" speed="0.00" pos="49.74" lane="VODUGES_beg_0" slope="0.00"/>
    </timestep>
    <timestep time="15.00">
        <vehicle id="oncoming2" x="36.85" y="1.65" angle="270.00" type="DEFAULT_VEHTYPE" speed="13.49" pos="163.15" lane="-VODUGES_beg_0" slope="0.00"/>
        <vehicle id="overtaking" x="101.47" y="-1.65" angle="90.00" type="DEFAULT_VEHTYPE" speed="12.67" pos="101.47" lane="VODUGES_beg_0" slope="0.00"/>
        <vehicle id="stopped" x="49.74" y="-1.65" angle="90.00" type="DEFAULT_VEHTYPE" speed="0.00" pos="49.74" lane="VODUGES_beg_0" slope="0.00"/>
    </timestep>
    <timestep time="16.00">
        <vehicle id="oncoming2" x="23.17" y="1.65" angle="270.00" type="DEFAULT_VEHTYPE" speed="13.67" pos="176.83" lane="-VODUGES_beg_0" slope="0.00"/>
        <vehicle id="overtaking" x="114.72" y="-1.65" angle="90.00" type="DEFAULT_VEHTYPE" speed="13.25" pos="114.72" lane="VODUGES_beg_0" slope="0.00"/>
        <vehicle id="stopped" x="49.74" y="-1.65" angle="90.00" type="DEFAULT_VEHTYPE" speed="0.00" pos="49.74" lane="VODUGES_beg_0" slope="0.00"/>
    </timestep>
    <timestep time="17.00">
        <vehicle id="oncoming2" x="10.12" y="1.65" angle="270.00" type="DEFAULT_VEHTYPE" speed="13.06" pos="189.88" lane="-VODUGES_beg_0" slope="0.00"/>
        <vehicle id="overtaking" x="127.37" y="-1.65" angle="90.00" type="DEFAULT_VEHTYPE" speed="12.65" pos="127.37" lane="VODUGES_beg_0" slope="0.00"/>
        <vehicle id="stopped" x="49.74" y="-1.65" angle="90.00" type="DEFAULT_VEHTYPE" speed="0.00" pos="49.74" lane="VODUGES_beg_0" slope="0.00"/>
    </timestep>
    <timestep time="18.00">
        <vehicle id="overtaking" x="141.06" y="-1.65" angle="90.00" type="DEFAULT_VEHTYPE" speed="13.69" pos="141.06" lane="VODUGES_beg_0" slope="0.00"/>
        <vehicle id="stopped" x="49.74" y="-1.65" angle="90.00" type="DEFAULT_VEHTYPE" speed="0.00" pos="49.74" lane="VODUGES_beg_0" slope="0.00"/>
    </timestep>
    <timestep time="19.00">
        <vehicle id="overtaking" x="154.24" y="-1.65" angle="90.00" type="DEFAULT_VEHTYPE" speed="13.18" pos="154.24" lane="VODUGES_beg_0" slope="0.00"/>
        <vehicle id="stopped" x="49.74" y="-1.65" angle="90.00" type="DEFAULT_VEHTYPE" speed="0.00" pos="49.74" lane="VODUGES_beg_0" slope="0.00"/>
    </timestep>
    <timestep time="20.00">
        <vehicle id="overtaking" x="168.04" y="-1.65" angle="90.00" type="DEFAULT_VEHTYPE" speed="13.80" pos="168.04" lane="VODUGES_beg_0" slope="0.00"/>
        <vehicle id="stopped" x="49.74" y="-1.65" angle="90.00" type="DEFAULT_VEHTYPE" speed="0.00" pos="49.74" lane="VODUGES_beg_0" slope="0.00"/>
    </timestep>
    <timestep time="21.00">
        <vehicle id="overtaking" x="180.64" y="-1.65" angle="90.00" type="DEFAULT_VEHTYPE" speed="12.60" pos="180.64" lane="VODUGES_beg_0" slope="0.00"/>
        <vehicle id="stopped" x="49.74" y="-1.65" angle="90.00" type="DEFAULT_VEHTYPE" speed="0.00" pos="49.74" lane="VODUGES_beg_0" slope="0.00"/>
    </timestep>
    <timestep time="22.00">
        <vehicle id="overtaking" x="194.09" y="-1.65" angle="90.00" type="DEFAULT_VEHTYPE" speed="13.45" pos="194.09" lane="VODUGES_beg_0" slope="0.00"/>
        <vehicle id="stopped" x="49.74" y="-1.65" angle="90.00" type="DEFAULT_VEHTYPE" speed="0.00" pos="49.74" lane="VODUGES_beg_0" slope="0.00"/>
    </timestep>
    <timestep time="23.00">
        <vehicle id="stopped" x="49.74" y="-1.65" angle="90.00" type="DEFAULT_VEHTYPE" speed="0.00" pos="49.74" lane="VODUGES_beg_0" slope="0.00"/>
    </timestep>
    <timestep time="24.00">
        <vehicle id="stopped" x="49.74" y="-1.65" angle="90.00" type="DEFAULT_VEHTYPE" speed="0.00" pos="49.74" lane="VODUGES_beg_0" slope="0.00"/>
    </timestep>
    <timestep time="25.00">
        <vehicle id="stopped" x="49.74" y="-1.65" angle="90.00" type="DEFAULT_VEHTYPE" speed="0.00" pos="49.74" lane="VODUGES_beg_0" slope="0.00"/>
    </timestep>
    <timestep time="26.00">
        <vehicle id="stopped" x="49.74" y="-1.65" angle="90.00" type="DEFAULT_VEHTYPE" speed="0.00" pos="49.74" lane="VODUGES_beg_0" slope="0.00"/>
    </timestep>
    <timestep time="27.00">
        <vehicle id="stopped" x="49.74" y="-1.65" angle="90.00" type="DEFAULT_VEHTYPE" speed="0.00" pos="49.74" lane="VODUGES_beg_0" slope="0.00"/>
    </timestep>
    <timestep time="28.00">
        <vehicle id="stopped" x="49.74" y="-1.65" angle="90.00" type="DEFAULT_VEHTYPE" speed="0.00" pos="49.74" lane="VODUGES_beg_0" slope="0.00"/>
    </timestep>
    <timestep time="29.00">
        <vehicle id="stopped" x="49.74" y="-1.65" angle="90.00" type="DEFAULT_VEHTYPE" speed="0.00" pos="49.74" lane="VODUGES_beg_0" slope="0.00"/>
    </timestep>
    <timestep time="30.00">
        <vehicle id="stopped" x="49.74" y="-1.65" angle="90.00" type="DEFAULT_VEHTYPE" speed="0.00" pos="49.74" lane="VODUGES_beg_0" slope="0.00"/>
    </timestep>
    <timestep time="31.00">
        <vehicle id="stopped" x="49.74" y="-1.65" angle="90.00" type="DEFAULT_VEHTYPE" speed="0.00" pos="49.74" lane="VODUGES_beg_0" slope="0.00"/>
    </timestep>
    <timestep time="32.00">
        <vehicle id="stopped" x="49.74" y="-1.65" angle="90.00" type="DEFAULT_VEHTYPE" speed="0.00" pos="49.74" lane="VODUGES_beg_0" slope="0.00"/>
    </timestep>
    <timestep time="33.00">
        <vehicle id="stopped" x="49.74" y="-1.65" angle="90.00" type="DEFAULT_VEHTYPE" speed="0.00" pos="49.74" lane="VODUGES_beg_0" slope="0.00"/>
    </timestep>
    <timestep time="34.00">
        <vehicle id="stopped" x="49.74" y="-1.65" angle="90.00" type="DEFAULT_VEHTYPE" speed="0.00" pos="49.74" lane="VODUGES_beg_0" slope="0.00"/>
    </timestep>
    <timestep time="35.00">
        <vehicle id="stopped" x="49.74" y="-1.65" angle="90.00" type="DEFAULT_VEHTYPE" speed="0.00" pos="49.74" lane="VODUGES_beg_0" slope="0.00"/>
    </timestep>
    <timestep time="36.00">
        <vehicle id="stopped" x="49.74" y="-1.65" angle="90.00" type="DEFAULT_VEHTYPE" speed="0.00" pos="49.74" lane="VODUGES_beg_0" slope="0.00"/>
    </timestep>
    <timestep time="37.00">
        <vehicle id="stopped" x="49.74" y="-1.65" angle="90.00" type="DEFAULT_VEHTYPE" speed="0.00" pos="49.74" lane="VODUGES_beg_0" slope="0.00"/>
    </timestep>
    <timestep time="38.00">
        <vehicle id="stopped" x="49.74" y="-1.65" angle="90.00" type="DEFAULT_VEHTYPE" speed="0.00" pos="49.74" lane="VODUGES_beg_0" slope="0.00"/>
    </timestep>
    <timestep time="39.00">
        <vehicle id="stopped" x="49.74" y="-1.65" angle="90.00" type="DEFAULT_VEHTYPE" speed="0.00" pos="49.74" lane="VODUGES_beg_0" slope="0.00"/>
    </timestep>
    <timestep time="40.00">
        <vehicle id="stopped" x="49.74" y="-1.65" angle="90.00" type="DEFAULT_VEHTYPE" speed="0.00" pos="49.74" lane="VODUGES_beg_0" slope="0.00"/>
    </timestep>
    <timestep time="41.00">
        <vehicle id="stopped" x="49.74" y="-1.65" angle="90.00" type="DEFAULT_VEHTYPE" speed="0.00" pos="49.74" lane="VODUGES_beg_0" slope="0.00"/>
    </timestep>
    <timestep time="42.00">
        <vehicle id="stopped" x="49.74" y="-1.65" angle="90.00" type="DEFAULT_VEHTYPE" speed="0.00" pos="49.74" lane="VODUGES_beg_0" slope="0.00"/>
    </timestep>
    <timestep time="43.00">
        <vehicle id="stopped" x="49.74" y="-1.65" angle="90.00" type="DEFAULT_VEHTYPE" speed="0.00" pos="49.74" lane="VODUGES_beg_0" slope="0.00"/>
    </timestep>
    <timestep time="44.00">
        <vehicle id="stopped" x="49.74" y="-1.65" angle="90.00" type="DEFAULT_VEHTYPE" speed="0.00" pos="49.74" lane="VODUGES_beg_0" slope="0.00"/>
    </timestep>
    <timestep time="45.00">
        <vehicle id="stopped" x="49.74" y="-1.65" angle="90.00" type="DEFAULT_VEHTYPE" speed="0.00" pos="49.74" lane="VODUGES_beg_0" slope="0.00"/>
    </timestep>
    <timestep time="46.00">
        <vehicle id="stopped" x="49.74" y="-1.65" angle="90.00" type="DEFAULT_VEHTYPE" speed="0.00" pos="49.74" lane="VODUGES_beg_0" slope="0.00"/>
    </timestep>
    <timestep time="47.00">
        <vehicle id="stopped" x="49.74" y="-1.65" angle="90.00" type="DEFAULT_VEHTYPE" speed="0.00" pos="49.74" lane="VODUGES_beg_0" slope="0.00"/>
    </timestep>
    <timestep time="48.00">
        <vehicle id="stopped" x="49.74" y="-1.65" angle="90.00" type="DEFAULT_VEHTYPE" speed="0.00" pos="49.74" lane="VODUGES_beg_0" slope="0.00"/>
    </timestep>
    <timestep time="49.00">
        <vehicle id="stopped" x="49.74" y="-1.65" angle="90.00" type="DEFAULT_VEHTYPE" speed="0.00" pos="49.74" lane="VODUGES_beg_0" slope="0.00"/>
    </timestep>
    <timestep time="50.00">
        <vehicle id="stopped" x="49.74" y="-1.65" angle="90.00" type="DEFAULT_VEHTYPE" speed="0.00" pos="49.74" lane="VODUGES_beg_0" slope="0.00"/>
    </timestep>
    <timestep time="51.00">
        <vehicle id="stopped" x="49.74" y="-1.65" angle="90.00" type="DEFAULT_VEHTYPE" speed="0.00" pos="49.74" lane="VODUGES_beg_0" slope="0.00"/>
    </timestep>
    <timestep time="52.00">
        <vehicle id="stopped" x="49.74" y="-1.65" angle="90.00" type="DEFAULT_VEHTYPE" speed="0.00" pos="49.74" lane="VODUGES_beg_0" slope="0.00"/>
    </timestep>
    <timestep time="53.00">
        <vehicle id="stopped" x="49.74" y="-1.65" angle="90.00" type="DEFAULT_VEHTYPE" speed="0.00" pos="49.74" lane="VODUGES_beg_0" slope="0.00"/>
    </timestep>
    <timestep time="54.00">
        <vehicle id="stopped" x="49.74" y="-1.65" angle="90.00" type="DEFAULT_VEHTYPE" speed="0.00" pos="49.74" lane="VODUGES_beg_0" slope="0.00"/>
    </timestep>
    <timestep time="55.00">
        <vehicle id="stopped" x="49.74" y="-1.65" angle="90.00" type="DEFAULT_VEHTYPE" speed="0.00" pos="49.74" lane="VODUGES_beg_0" slope="0.00"/>
    </timestep>
    <timestep time="56.00">
        <vehicle id="stopped" x="49.74" y="-1.65" angle="90.00" type="DEFAULT_VEHTYPE" speed="0.00" pos="49.74" lane="VODUGES_beg_0" slope="0.00"/>
    </timestep>
    <timestep time="57.00">
        <vehicle id="stopped" x="49.74" y="-1.65" angle="90.00" type="DEFAULT_VEHTYPE" speed="0.00" pos="49.74" lane="VODUGES_beg_0" slope="0.00"/>
    </timestep>
    <timestep time="58.00">
        <vehicle id="stopped" x="49.74" y="-1.65" angle="90.00" type="DEFAULT_VEHTYPE" speed="0.00" pos="49.74" lane="VODUGES_beg_0" slope="0.00"/>
    </timestep>
    <timestep time="59.00">
        <vehicle id="stopped" x="49.74" y="-1.65" angle="90.00" type="DEFAULT_VEHTYPE" speed="0.00" pos="49.74" lane="VODUGES_beg_0" slope="0.00"/>
    </timestep>
    <timestep time="60.00">
        <vehicle id="stopped" x="49.74" y="-1.65" angle="90.00" type="DEFAULT_VEHTYPE" speed="0.00" pos="49.74" lane="VODUGES_beg_0" slope="0.00"/>
    </timestep>
    <timestep time="61.00">
        <vehicle id="stopped" x="49.74" y="-1.65" angle="90.00" type="DEFAULT_VEHTYPE" speed="0.00" pos="49.74" lane="VODUGES_beg_0" slope="0.00"/>
    </timestep>
    <timestep time="62.00">
        <vehicle id="stopped" x="49.74" y="-1.65" angle="90.00" type="DEFAULT_VEHTYPE" speed="0.00" pos="49.74" lane="VODUGES_beg_0" slope="0.00"/>
    </timestep>
    <timestep time="63.00">
        <vehicle id="stopped" x="49.74" y="-1.65" angle="90.00" type="DEFAULT_VEHTYPE" speed="0.00" pos="49.74" lane="VODUGES_beg_0" slope="0.00"/>
    </timestep>
    <timestep time="64.00">
        <vehicle id="stopped" x="49.74" y="-1.65" angle="90.00" type="DEFAULT_VEHTYPE" speed="0.00" pos="49.74" lane="VODUGES_beg_0" slope="0.00"/>
    </timestep>
    <timestep time="65.00">
        <vehicle id="stopped" x="49.74" y="-1.65" angle="90.00" type="DEFAULT_VEHTYPE" speed="0.00" pos="49.74" lane="VODUGES_beg_0" slope="0.00"/>
    </timestep>
    <timestep time="66.00">
        <vehicle id="stopped" x="49.74" y="-1.65" angle="90.00" type="DEFAULT_VEHTYPE" speed="0.00" pos="49.74" lane="VODUGES_beg_0" slope="0.00"/>
    </timestep>
    <timestep time="67.00">
        <vehicle id="stopped" x="49.74" y="-1.65" angle="90.00" type="DEFAULT_VEHTYPE" speed="0.00" pos="49.74" lane="VODUGES_beg_0" slope="0.00"/>
    </timestep>
    <timestep time="68.00">
        <vehicle id="stopped" x="49.74" y="-1.65" angle="90.00" type="DEFAULT_VEHTYPE" speed="0.00" pos="49.74" lane="VODUGES_beg_0" slope="0.00"/>
    </timestep>
    <timestep time="69.00">
        <vehicle id="stopped" x="49.74" y="-1.65" angle="90.00" type="DEFAULT_VEHTYPE" speed="0.00" pos="49.74" lane="VODUGES_beg_0" slope="0.00"/>
    </timestep>
    <timestep time="70.00">
        <vehicle id="stopped" x="49.74" y="-1.65" angle="90.00" type="DEFAULT_VEHTYPE" speed="0.00" pos="49.74" lane="VODUGES_beg_0" slope="0.00"/>
    </timestep>
    <timestep time="71.00">
        <vehicle id="stopped" x="49.74" y="-1.65" angle="90.00" type="DEFAULT_VEHTYPE" speed="0.00" pos="49.74" lane="VODUGES_beg_0" slope="0.00"/>
    </timestep>
    <timestep time="72.00">
        <vehicle id="stopped" x="49.74" y="-1.65" angle="90.00" type="DEFAULT_VEHTYPE" speed="0.00" pos="49.74" lane="VODUGES_beg_0" slope="0.00"/>
    </timestep>
    <timestep time="73.00">
        <vehicle id="stopped" x="49.74" y="-1.65" angle="90.00" type="DEFAULT_VEHTYPE" speed="0.00" pos="49.74" lane="VODUGES_beg_0" slope="0.00"/>
    </timestep>
    <timestep time="74.00">
        <vehicle id="stopped" x="49.74" y="-1.65" angle="90.00" type="DEFAULT_VEHTYPE" speed="0.00" pos="49.74" lane="VODUGES_beg_0" slope="0.00"/>
    </timestep>
    <timestep time="75.00">
        <vehicle id="stopped" x="49.74" y="-1.65" angle="90.00" type="DEFAULT_VEHTYPE" speed="0.00" pos="49.74" lane="VODUGES_beg_0" slope="0.00"/>
    </timestep>
    <timestep time="76.00">
        <vehicle id="stopped" x="49.74" y="-1.65" angle="90.00" type="DEFAULT_VEHTYPE" speed="0.00" pos="49.74" lane="VODUGES_beg_0" slope="0.00"/>
    </timestep>
    <timestep time="77.00">
        <vehicle id="stopped" x="49.74" y="-1.65" angle="90.00" type="DEFAULT_VEHTYPE" speed="0.00" pos="49.74" lane="VODUGES_beg_0" slope="0.00"/>
    </timestep>
    <timestep time="78.00">
        <vehicle id="stopped" x="49.74" y="-1.65" angle="90.00" type="DEFAULT_VEHTYPE" speed="0.00" pos="49.74" lane="VODUGES_beg_0" slope="0.00"/>
    </timestep>
    <timestep time="79.00">
        <vehicle id="stopped" x="49.74" y="-1.65" angle="90.00" type="DEFAULT_VEHTYPE" speed="0.00" pos="49.74" lane="VODUGES_beg_0" slope="0.00"/>
    </timestep>
    <timestep time="80.00">
        <vehicle id="stopped" x="49.74" y="-1.65" angle="90.00" type="DEFAULT_VEHTYPE" speed="0.00" pos="49.74" lane="VODUGES_beg_0" slope="0.00"/>
    </timestep>
    <timestep time="81.00">
        <vehicle id="stopped" x="49.74" y="-1.65" angle="90.00" type="DEFAULT_VEHTYPE" speed="0.00" pos="49.74" lane="VODUGES_beg_0" slope="0.00"/>
    </timestep>
    <timestep time="82.00">
        <vehicle id="stopped" x="49.74" y="-1.65" angle="90.00" type="DEFAULT_VEHTYPE" speed="0.00" pos="49.74" lane="VODUGES_beg_0" slope="0.00"/>
    </timestep>
    <timestep time="83.00">
        <vehicle id="stopped" x="49.74" y="-1.65" angle="90.00" type="DEFAULT_VEHTYPE" speed="0.00" pos="49.74" lane="VODUGES_beg_0" slope="0.00"/>
    </timestep>
    <timestep time="84.00">
        <vehicle id="stopped" x="49.74" y="-1.65" angle="90.00" type="DEFAULT_VEHTYPE" speed="0.00" pos="49.74" lane="VODUGES_beg_0" slope="0.00"/>
    </timestep>
    <timestep time="85.00">
        <vehicle id="stopped" x="49.74" y="-1.65" angle="90.00" type="DEFAULT_VEHTYPE" speed="0.00" pos="49.74" lane="VODUGES_beg_0" slope="0.00"/>
    </timestep>
    <timestep time="86.00">
        <vehicle id="stopped" x="49.74" y="-1.65" angle="90.00" type="DEFAULT_VEHTYPE" speed="0.00" pos="49.74" lane="VODUGES_beg_0" slope="0.00"/>
    </timestep>
    <timestep time="87.00">
        <vehicle id="stopped" x="49.74" y="-1.65" angle="90.00" type="DEFAULT_VEHTYPE" speed="0.00" pos="49.74" lane="VODUGES_beg_0" slope="0.00"/>
    </timestep>
    <timestep time="88.00">
        <vehicle id="stopped" x="49.74" y="-1.65" angle="90.00" type="DEFAULT_VEHTYPE" speed="0.00" pos="49.74" lane="VODUGES_beg_0" slope="0.00"/>
    </timestep>
    <timestep time="89.00">
        <vehicle id="stopped" x="49.74" y="-1.65" angle="90.00" type="DEFAULT_VEHTYPE" speed="0.00" pos="49.74" lane="VODUGES_beg_0" slope="0.00"/>
    </timestep>
    <timestep time="90.00">
        <vehicle id="stopped" x="49.74" y="-1.65" angle="90.00" type="DEFAULT_VEHTYPE" speed="0.00" pos="49.74" lane="VODUGES_beg_0" slope="0.00"/>
    </timestep>
    <timestep time="91.00">
        <vehicle id="stopped" x="49.74" y="-1.65" angle="90.00" type="DEFAULT_VEHTYPE" speed="0.00" pos="49.74" lane="VODUGES_beg_0" slope="0.00"/>
    </timestep>
    <timestep time="92.00">
        <vehicle id="stopped" x="49.74" y="-1.65" angle="90.00" type="DEFAULT_VEHTYPE" speed="0.00" pos="49.74" lane="VODUGES_beg_0" slope="0.00"/>
    </timestep>
    <timestep time="93.00">
        <vehicle id="stopped" x="49.74" y="-1.65" angle="90.00" type="DEFAULT_VEHTYPE" speed="0.00" pos="49.74" lane="VODUGES_beg_0" slope="0.00"/>
    </timestep>
    <timestep time="94.00">
        <vehicle id="stopped" x="49.74" y="-1.65" angle="90.00" type="DEFAULT_VEHTYPE" speed="0.00" pos="49.74" lane="VODUGES_beg_0" slope="0.00"/>
    </timestep>
    <timestep time="95.00">
        <vehicle id="stopped" x="49.74" y="-1.65" angle="90.00" type="DEFAULT_VEHTYPE" speed="0.00" pos="49.74" lane="VODUGES_beg_0" slope="0.00"/>
    </timestep>
    <timestep time="96.00">
        <vehicle id="stopped" x="49.74" y="-1.65" angle="90.00" type="DEFAULT_VEHTYPE" speed="0.00" pos="49.74" lane="VODUGES_beg_0" slope="0.00"/>
    </timestep>
    <timestep time="97.00">
        <vehicle id="stopped" x="49.74" y="-1.65" angle="90.00" type="DEFAULT_VEHTYPE" speed="0.00" pos="49.74" lane="VODUGES_beg_0" slope="0.00"/>
    </timestep>
    <timestep time="98.00">
        <vehicle id="stopped" x="49.74" y="-1.65" angle="90.00" type="DEFAULT_VEHTYPE" speed="0.00" pos="49.74" lane="VODUGES_beg_0" slope="0.00"/>
    </timestep>
    <timestep time="99.00">
        <vehicle id="stopped" x="49.74" y="-1.65" angle="90.00" type="DEFAULT_VEHTYPE" speed="0.00" pos="49.74" lane="VODUGES_beg_0" slope="0.00"/>
    </timestep>
    <timestep time="100.00">
        <vehicle id="stopped" x="49.74" y="-1.65" angle="90.00" type="DEFAULT_VEHTYPE" speed="0.00" pos="49.74" lane="VODUGES_beg_0" slope="0.00"/>
    </timestep>
    <timestep time="101.00">
        <vehicle id="stopped" x="49.74" y="-1.65" angle="90.00" type="DEFAULT_VEHTYPE" speed="0.00" pos="49.74" lane="VODUGES_beg_0" slope="0.00"/>
    </timestep>
    <timestep time="102.00">
        <vehicle id="stopped" x="49.74" y="-1.65" angle="90.00" type="DEFAULT_VEHTYPE" speed="0.00" pos="49.74" lane="VODUGES_beg_0" slope="0.00"/>
    </timestep>
    <timestep time="103.00">
        <vehicle id="stopped" x="49.74" y="-1.65" angle="90.00" type="DEFAULT_VEHTYPE" speed="0.00" pos="49.74" lane="VODUGES_beg_0" slope="0.00"/>
    </timestep>
    <timestep time="104.00">
        <vehicle id="stopped" x="49.74" y="-1.65" angle="90.00" type="DEFAULT_VEHTYPE" speed="0.00" pos="49.74" lane="VODUGES_beg_0" slope="0.00"/>
    </timestep>
    <timestep time="105.00">
        <vehicle id="stopped" x="50.00" y="-1.65" angle="90.00" type="DEFAULT_VEHTYPE" speed="0.25" pos="50.00" lane="VODUGES_beg_0" slope="0.00"/>
    </timestep>
    <timestep time="106.00">
        <vehicle id="stopped" x="52.22" y="-1.65" angle="90.00" type="DEFAULT_VEHTYPE" speed="2.22" pos="52.22" lane="VODUGES_beg_0" slope="0.00"/>
    </timestep>
    <timestep time="107.00">
        <vehicle id="stopped" x="55.86" y="-1.65" angle="90.00" type="DEFAULT_VEHTYPE" speed="3.64" pos="55.86" lane="VODUGES_beg_0" slope="0.00"/>
    </timestep>
    <timestep time="108.00">
        <vehicle id="stopped" x="61.57" y="-1.65" angle="90.00" type="DEFAULT_VEHTYPE" speed="5.71" pos="61.57" lane="VODUGES_beg_0" slope="0.00"/>
    </timestep>
    <timestep time="109.00">
        <vehicle id="stopped" x="69.72" y="-1.65" angle="90.00" type="DEFAULT_VEHTYPE" speed="8.16" pos="69.72" lane="VODUGES_beg_0" slope="0.00"/>
    </timestep>
    <timestep time="110.00">