<?xml version="1.0" encoding="UTF-8"?>

<!-- generated on Di 08 Nov 2016 16:08:21 CET by SUMO gui Version dev-SVN-r21650
<?xml version="1.0" encoding="UTF-8"?>

<configuration xmlns:xsi="http://www.w3.org/2001/XMLSchema-instance" xsi:noNamespaceSchemaLocation="http://sumo.dlr.de/xsd/sumo-gui.exeConfiguration.xsd">

    <input>
        <net-file value="net.net.xml"/>
        <route-files value="input_routes.rou.xml"/>
    </input>

    <output>
        <fcd-output value="fcd.xml"/>
    </output>

    <report>
        <xml-validation value="never"/>
        <no-step-log value="true"/>
    </report>

</configuration>
-->

<fcd-export xmlns:xsi="http://www.w3.org/2001/XMLSchema-instance" xsi:noNamespaceSchemaLocation="http://sumo.dlr.de/xsd/fcd_file.xsd">
    <timestep time="0.00">
        <vehicle id="veh1" x="101.65" y="-50.00" angle="0.00" type="1" speed="13.89" pos="0.00" lane="SC_0" slope="0.00"/>
    </timestep>
    <timestep time="1.00">
        <vehicle id="veh1" x="101.65" y="-36.11" angle="0.00" type="1" speed="13.89" pos="13.89" lane="SC_0" slope="0.00"/>
        <vehicle id="veh2" x="98.35" y="150.00" angle="180.00" type="1" speed="13.89" pos="0.00" lane="NC_0" slope="0.00"/>
    </timestep>
    <timestep time="2.00">
        <vehicle id="veh1" x="101.65" y="-22.22" angle="0.00" type="1" speed="13.89" pos="27.78" lane="SC_0" slope="0.00"/>
        <vehicle id="veh2" x="98.35" y="136.11" angle="180.00" type="1" speed="13.89" pos="13.89" lane="NC_0" slope="0.00"/>
    </timestep>
    <timestep time="3.00">
        <vehicle id="veh1" x="101.65" y="-8.33" angle="0.00" type="1" speed="13.89" pos="41.67" lane="SC_0" slope="0.00"/>
        <vehicle id="veh2" x="98.35" y="122.22" angle="180.00" type="1" speed="13.89" pos="27.78" lane="NC_0" slope="0.00"/>
    </timestep>
    <timestep time="4.00">
        <vehicle id="veh1" x="101.65" y="5.56" angle="0.00" type="1" speed="13.89" pos="55.56" lane="SC_0" slope="0.00"/>
        <vehicle id="veh2" x="98.35" y="108.33" angle="180.00" type="1" speed="13.89" pos="41.67" lane="NC_0" slope="0.00"/>
    </timestep>
    <timestep time="5.00">
        <vehicle id="veh1" x="101.65" y="19.45" angle="0.00" type="1" speed="13.89" pos="69.45" lane="SC_0" slope="0.00"/>
        <vehicle id="veh2" x="98.35" y="94.44" angle="180.00" type="1" speed="13.89" pos="55.56" lane="NC_0" slope="0.00"/>
    </timestep>
    <timestep time="6.00">
        <vehicle id="veh1" x="101.65" y="33.34" angle="0.00" type="1" speed="13.89" pos="83.34" lane="SC_0" slope="0.00"/>
        <vehicle id="veh2" x="98.35" y="80.55" angle="180.00" type="1" speed="13.89" pos="69.45" lane="NC_0" slope="0.00"/>
    </timestep>
    <timestep time="7.00">
        <vehicle id="veh1" x="101.65" y="43.54" angle="0.00" type="1" speed="10.20" pos="93.54" lane="SC_0" slope="0.00"/>
        <vehicle id="veh2" x="98.35" y="66.66" angle="180.00" type="1" speed="13.89" pos="83.34" lane="NC_0" slope="0.00"/>
    </timestep>
    <timestep time="8.00">
        <vehicle id="veh1" x="100.66" y="49.04" angle="348.33" type="1" speed="5.70" pos="3.98" lane=":C_8_0" slope="0.00"/>
        <vehicle id="veh2" x="98.35" y="52.77" angle="180.00" type="1" speed="13.89" pos="1.98" lane=":C_1_0" slope="0.00"/>
    </timestep>
    <timestep time="9.00">
        <vehicle id="veh1" x="99.95" y="50.11" angle="340.09" type="1" speed="1.30" pos="5.28" lane=":C_8_0" slope="0.00"/>
        <vehicle id="veh2" x="98.35" y="38.88" angle="180.00" type="1" speed="13.89" pos="6.37" lane="CS_0" slope="0.00"/>
    </timestep>
    <timestep time="10.00">
        <vehicle id="veh1" x="96.38" y="51.49" angle="298.70" type="1" speed="3.90" pos="3.90" lane=":C_13_0" slope="0.00"/>
        <vehicle id="veh2" x="98.35" y="24.99" angle="180.00" type="1" speed="13.89" pos="20.26" lane="CS_0" slope="0.00"/>
    </timestep>
    <timestep time="11.00">
        <vehicle id="veh1" x="89.90" y="51.65" angle="270.00" type="1" speed="6.50" pos="5.35" lane="CW_0" slope="0.00"/>
        <vehicle id="veh2" x="98.35" y="11.10" angle="180.00" type="1" speed="13.89" pos="34.15" lane="CS_0" slope="0.00"/>
    </timestep>
    <timestep time="12.00">
        <vehicle id="veh1" x="80.80" y="51.65" angle="270.00" type="1" speed="9.10" pos="14.45" lane="CW_0" slope="0.00"/>
        <vehicle id="veh2" x="98.35" y="-2.79" angle="180.00" type="1" speed="13.89" pos="48.04" lane="CS_0" slope="0.00"/>
    </timestep>
    <timestep time="13.00">
        <vehicle id="veh1" x="69.11" y="51.65" angle="270.00" type="1" speed="11.70" pos="26.14" lane="CW_0" slope="0.00"/>
        <vehicle id="veh2" x="98.35" y="-16.68" angle="180.00" type="1" speed="13.89" pos="61.93" lane="CS_0" slope="0.00"/>
    </timestep>
    <timestep time="14.00">
        <vehicle id="veh1" x="55.22" y="51.65" angle="270.00" type="1" speed="13.89" pos="40.03" lane="CW_0" slope="0.00"/>
    </timestep>
    <timestep time="15.00">
        <vehicle id="veh1" x="41.33" y="51.65" angle="270.00" type="1" speed="13.89" pos="53.92" lane="CW_0" slope="0.00"/>
    </timestep>
    <timestep time="16.00">
        <vehicle id="veh1" x="27.44" y="51.65" angle="270.00" type="1" speed="13.89" pos="67.81" lane="CW_0" slope="0.00"/>
    </timestep>
    <timestep time="17.00"/>
</fcd-export>
