<?xml version="1.0" encoding="UTF-8"?>

<!-- generated on Mon Mar  3 10:29:02 2014 by SUMO sumo Version dev-SVN-r15793
<?xml version="1.0" encoding="UTF-8"?>

<configuration xmlns:xsi="http://www.w3.org/2001/XMLSchema-instance" xsi:noNamespaceSchemaLocation="http://sumo-sim.org/xsd/sumoConfiguration.xsd">

    <input>
        <net-file value="net.net.xml"/>
        <additional-files value="input_routes.rou.xml,input_additional.add.xml,input_additional2.add.xml"/>
    </input>

    <time>
        <begin value="0"/>
        <end value="150"/>
    </time>

    <report>
        <xml-validation value="never"/>
        <no-duration-log value="true"/>
        <no-step-log value="true"/>
    </report>

</configuration>
-->

<meandata xmlns:xsi="http://www.w3.org/2001/XMLSchema-instance" xsi:noNamespaceSchemaLocation="http://sumo-sim.org/xsd/meandata_file.xsd">
    <interval begin="15.00" end="30.00" id="dump_15">
        <edge id="4/1to3/1">
            <lane id="4/1to3/1_0" sampledSeconds="30.00" noise="64.79" traveltime="40.00"/>
        </edge>
    </interval>
</meandata>
