<?xml version="1.0" encoding="UTF-8"?>

<!-- generated on 2026-03-14T10:07:04.974395+01:00 by Eclipse SUMO sumo v1_26_0+0590-07d0d1f31e9
This data file and the accompanying materials
are made available under the terms of the Eclipse Public License v2.0
which accompanies this distribution, and is available at
http://www.eclipse.org/legal/epl-v20.html
This file may also be made available under the following Secondary
Licenses when the conditions for such availability set forth in the Eclipse
Public License 2.0 are satisfied: GNU General Public License, version 2
or later which is available at
https://www.gnu.org/licenses/old-licenses/gpl-2.0-standalone.html
SPDX-License-Identifier: EPL-2.0 OR GPL-2.0-or-later
<sumoConfiguration xmlns:xsi="http://www.w3.org/2001/XMLSchema-instance" xsi:noNamespaceSchemaLocation="http://sumo.dlr.de/xsd/sumoConfiguration.xsd">

    <input>
        <net-file value="net.net.xml"/>
        <additional-files value="input_routes.rou.xml,input_additional2.add.xml"/>
    </input>

    <output>
        <write-license value="true"/>
        <netstate-dump value="rawdump.xml"/>
        <netstate-dump.empty-edges value="true"/>
        <fcd-output value="fcd.xml"/>
        <fcd-output.attributes value="speed,pos,lane,edge"/>
    </output>

    <time>
        <begin value="0"/>
        <end value="10"/>
    </time>

    <processing>
        <default.speeddev value="0"/>
    </processing>

    <report>
        <xml-validation value="never"/>
        <duration-log.disable value="true"/>
        <no-step-log value="true"/>
    </report>

    <mesoscopic>
        <mesosim value="true"/>
    </mesoscopic>

</sumoConfiguration>
-->

<fcd-export xmlns:xsi="http://www.w3.org/2001/XMLSchema-instance" xsi:noNamespaceSchemaLocation="http://sumo.dlr.de/xsd/fcd_file.xsd">
    <timestep time="0.00">
        <vehicle id="0" speed="10.00" pos="0.00" edge="4/1to3/1"/>
    </timestep>
    <timestep time="1.00">
        <vehicle id="0" speed="10.00" pos="0.00" edge="4/1to3/1"/>
    </timestep>
    <timestep time="2.00">
        <vehicle id="0" speed="10.00" pos="0.00" edge="4/1to3/1"/>
    </timestep>
    <timestep time="3.00">
        <vehicle id="0" speed="10.00" pos="0.00" edge="4/1to3/1"/>
    </timestep>
    <timestep time="4.00">
        <vehicle id="0" speed="10.00" pos="0.00" edge="4/1to3/1"/>
    </timestep>
    <timestep time="5.00">
        <vehicle id="0" speed="10.00" pos="0.00" edge="4/1to3/1"/>
        <vehicle id="1" speed="9.00" pos="0.00" edge="4/1to3/1"/>
    </timestep>
    <timestep time="6.00">
        <vehicle id="0" speed="10.00" pos="0.00" edge="4/1to3/1"/>
        <vehicle id="1" speed="9.00" pos="0.00" edge="4/1to3/1"/>
    </timestep>
    <timestep time="7.00">
        <vehicle id="0" speed="10.00" pos="0.00" edge="4/1to3/1"/>
        <vehicle id="1" speed="9.00" pos="0.00" edge="4/1to3/1"/>
    </timestep>
    <timestep time="8.00">
        <vehicle id="0" speed="10.00" pos="0.00" edge="4/1to3/1"/>
        <vehicle id="1" speed="9.00" pos="0.00" edge="4/1to3/1"/>
    </timestep>
    <timestep time="9.00">
        <vehicle id="0" speed="10.00" pos="0.00" edge="4/1to3/1"/>
        <vehicle id="1" speed="9.00" pos="0.00" edge="4/1to3/1"/>
    </timestep>
</fcd-export>
