<?xml version="1.0"?>

<!-- generated on 03/14/08 13:56:14 by SUMO sumo Version 0.9.7
<configuration>

   <input>
      <net-file>three_split.net.xml</net-file>
      <additional-files>input_routes.rou.xml,input_additional.add.xml</additional-files>
   </input>

   <output>
      <vehroute-output>vehroutes.xml</vehroute-output>
   </output>

   <processing>
      <no-duration-log>true</no-duration-log>
      <no-step-log>true</no-step-log>
   </processing>

</configuration>
-->

<vehicleroutes>
   <vehicle id="0" emittedAt="0" endedAt="77">
      <route>beg middle end rend</route>
   </vehicle>

   <vehicle id="1" emittedAt="20" endedAt="97">
      <route>beg middle end rend</route>
   </vehicle>

   <vehicle id="2" emittedAt="40" endedAt="117">
      <route>beg middle end rend</route>
   </vehicle>

   <vehicle id="3" emittedAt="60" endedAt="137">
      <route>beg middle end rend</route>
   </vehicle>

   <vehicle id="4" emittedAt="80" endedAt="157">
      <route>beg middle end rend</route>
   </vehicle>

   <vehicle id="5" emittedAt="100" endedAt="233">
      <route replacedOnEdge="beg"  replacedAtTime="100">beg middle end rend</route>

      <route>beg beg2right right right2end</route>
   </vehicle>

   <vehicle id="6" emittedAt="120" endedAt="252">
      <route replacedOnEdge="beg"  replacedAtTime="120">beg middle end rend</route>

      <route>beg beg2left left left2end</route>
   </vehicle>

   <vehicle id="7" emittedAt="140" endedAt="273">
      <route replacedOnEdge="beg"  replacedAtTime="140">beg middle end rend</route>

      <route>beg beg2right right right2end</route>
   </vehicle>

   <vehicle id="8" emittedAt="160" endedAt="292">
      <route replacedOnEdge="beg"  replacedAtTime="160">beg middle end rend</route>

      <route>beg beg2left left left2end</route>
   </vehicle>

   <vehicle id="9" emittedAt="180" endedAt="312">
      <route replacedOnEdge="beg"  replacedAtTime="180">beg middle end rend</route>

      <route>beg beg2left left left2end</route>
   </vehicle>

</vehicleroutes>
