<?xml version="1.0" encoding="UTF-8"?>

<!-- generated on 2025-06-13 16:39:35 by Eclipse SUMO sumo Version v1_23_1+0553-8550f059a99
This data file and the accompanying materials
are made available under the terms of the Eclipse Public License v2.0
which accompanies this distribution, and is available at
http://www.eclipse.org/legal/epl-v20.html
This file may also be made available under the following Secondary
Licenses when the conditions for such availability set forth in the Eclipse
Public License 2.0 are satisfied: GNU General Public License, version 2
or later which is available at
https://www.gnu.org/licenses/old-licenses/gpl-2.0-standalone.html
SPDX-License-Identifier: EPL-2.0 OR GPL-2.0-or-later
<sumoConfiguration xmlns:xsi="http://www.w3.org/2001/XMLSchema-instance" xsi:noNamespaceSchemaLocation="http://sumo.dlr.de/xsd/sumoConfiguration.xsd">

    <input>
        <net-file value="net.net.xml"/>
        <route-files value="input_routes.rou.xml"/>
    </input>

    <output>
        <write-license value="true"/>
        <fcd-output value="fcd.xml"/>
        <fcd-output.attributes value="lane,speed,acceleration"/>
    </output>

    <processing>
        <default.carfollowmodel value="KraussPS"/>
        <default.speeddev value="0"/>
    </processing>

    <report>
        <xml-validation value="never"/>
        <no-step-log value="true"/>
    </report>

</sumoConfiguration>
-->

<fcd-export xmlns:xsi="http://www.w3.org/2001/XMLSchema-instance" xsi:noNamespaceSchemaLocation="http://sumo.dlr.de/xsd/fcd_file.xsd">
    <timestep time="0.00">
        <vehicle id="ego" speed="0.00" lane="E0_0" acceleration="0.00"/>
    </timestep>
    <timestep time="1.00">
        <vehicle id="ego" speed="1.62" lane="E0_0" acceleration="1.62"/>
    </timestep>
    <timestep time="2.00">
        <vehicle id="ego" speed="3.25" lane="E0_0" acceleration="1.62"/>
    </timestep>
    <timestep time="3.00">
        <vehicle id="ego" speed="4.39" lane="E0_0" acceleration="1.15"/>
    </timestep>
    <timestep time="4.00">
        <vehicle id="ego" speed="4.39" lane="E0_0" acceleration="0.00"/>
    </timestep>
    <timestep time="5.00">
        <vehicle id="ego" speed="4.39" lane="E0_0" acceleration="-0.00"/>
    </timestep>
    <timestep time="6.00">
        <vehicle id="ego" speed="4.39" lane="E0_0" acceleration="0.00"/>
    </timestep>
    <timestep time="7.00">
        <vehicle id="ego" speed="4.39" lane="E0_0" acceleration="0.00"/>
    </timestep>
    <timestep time="8.00">
        <vehicle id="ego" speed="4.39" lane="E0_0" acceleration="-0.00"/>
    </timestep>
    <timestep time="9.00">
        <vehicle id="ego" speed="4.39" lane="E0_0" acceleration="-0.00"/>
    </timestep>
    <timestep time="10.00">
        <vehicle id="ego" speed="4.39" lane="E0_0" acceleration="0.00"/>
    </timestep>
    <timestep time="11.00">
        <vehicle id="ego" speed="4.39" lane="E0_0" acceleration="0.00"/>
    </timestep>
    <timestep time="12.00">
        <vehicle id="ego" speed="4.39" lane="E0_0" acceleration="0.00"/>
    </timestep>
    <timestep time="13.00">
        <vehicle id="ego" speed="4.39" lane="E0_0" acceleration="0.00"/>
    </timestep>
    <timestep time="14.00">
        <vehicle id="ego" speed="4.39" lane="E0_0" acceleration="-0.00"/>
    </timestep>
    <timestep time="15.00">
        <vehicle id="ego" speed="4.39" lane="E0_0" acceleration="0.00"/>
    </timestep>
    <timestep time="16.00">
        <vehicle id="ego" speed="4.39" lane="E0_0" acceleration="-0.00"/>
    </timestep>
    <timestep time="17.00">
        <vehicle id="ego" speed="4.39" lane="E0_0" acceleration="-0.00"/>
    </timestep>
    <timestep time="18.00">
        <vehicle id="ego" speed="4.39" lane="E0_0" acceleration="0.00"/>
    </timestep>
    <timestep time="19.00">
        <vehicle id="ego" speed="4.39" lane="E0_0" acceleration="0.00"/>
    </timestep>
    <timestep time="20.00">
        <vehicle id="ego" speed="4.39" lane="E0_0" acceleration="0.00"/>
    </timestep>
    <timestep time="21.00">
        <vehicle id="ego" speed="4.39" lane="E0_0" acceleration="0.00"/>
    </timestep>
    <timestep time="22.00">
        <vehicle id="ego" speed="4.39" lane="E0_0" acceleration="-0.00"/>
    </timestep>
    <timestep time="23.00">
        <vehicle id="ego" speed="4.39" lane="E1_0" acceleration="-0.00"/>
    </timestep>
    <timestep time="24.00">
        <vehicle id="ego" speed="4.82" lane="E1_0" acceleration="0.42"/>
    </timestep>
    <timestep time="25.00">
        <vehicle id="ego" speed="5.56" lane="E1_0" acceleration="0.74"/>
    </timestep>
    <timestep time="26.00">
        <vehicle id="ego" speed="5.56" lane="E1_0" acceleration="0.00"/>
    </timestep>
    <timestep time="27.00">
        <vehicle id="ego" speed="5.56" lane="E1_0" acceleration="0.00"/>
    </timestep>
    <timestep time="28.00">
        <vehicle id="ego" speed="5.56" lane="E1_0" acceleration="0.00"/>
    </timestep>
    <timestep time="29.00">
        <vehicle id="ego" speed="5.56" lane="E1_0" acceleration="0.00"/>
    </timestep>
    <timestep time="30.00">
        <vehicle id="ego" speed="5.56" lane="E1_0" acceleration="0.00"/>
    </timestep>
    <timestep time="31.00">
        <vehicle id="ego" speed="5.56" lane="E1_0" acceleration="0.00"/>
    </timestep>
    <timestep time="32.00">
        <vehicle id="ego" speed="5.56" lane="E1_0" acceleration="0.00"/>
    </timestep>
    <timestep time="33.00">
        <vehicle id="ego" speed="5.56" lane="E1_0" acceleration="0.00"/>
    </timestep>
    <timestep time="34.00">
        <vehicle id="ego" speed="5.56" lane="E1_0" acceleration="0.00"/>
    </timestep>
    <timestep time="35.00">
        <vehicle id="ego" speed="5.56" lane="E1_0" acceleration="0.00"/>
    </timestep>
    <timestep time="36.00">
        <vehicle id="ego" speed="5.56" lane="E1_0" acceleration="0.00"/>
    </timestep>
    <timestep time="37.00">
        <vehicle id="ego" speed="5.56" lane="E1_0" acceleration="0.00"/>
    </timestep>
    <timestep time="38.00">
        <vehicle id="ego" speed="5.56" lane="E1_0" acceleration="0.00"/>
    </timestep>
    <timestep time="39.00">
        <vehicle id="ego" speed="5.56" lane="E1_0" acceleration="0.00"/>
    </timestep>
    <timestep time="40.00">
        <vehicle id="ego" speed="5.56" lane="E1_0" acceleration="0.00"/>
    </timestep>
    <timestep time="41.00">
        <vehicle id="ego" speed="5.56" lane="E2_0" acceleration="0.00"/>
    </timestep>
    <timestep time="42.00">
        <vehicle id="ego" speed="5.75" lane="E2_0" acceleration="0.19"/>
    </timestep>
    <timestep time="43.00">
        <vehicle id="ego" speed="6.52" lane="E2_0" acceleration="0.77"/>
    </timestep>
    <timestep time="44.00">
        <vehicle id="ego" speed="6.52" lane="E2_0" acceleration="0.00"/>
    </timestep>
    <timestep time="45.00">
        <vehicle id="ego" speed="6.52" lane="E2_0" acceleration="0.00"/>
    </timestep>
    <timestep time="46.00">
        <vehicle id="ego" speed="6.52" lane="E2_0" acceleration="0.00"/>
    </timestep>
    <timestep time="47.00">
        <vehicle id="ego" speed="6.52" lane="E2_0" acceleration="-0.00"/>
    </timestep>
    <timestep time="48.00">
        <vehicle id="ego" speed="6.52" lane="E2_0" acceleration="0.00"/>
    </timestep>
    <timestep time="49.00">
        <vehicle id="ego" speed="6.52" lane="E2_0" acceleration="-0.00"/>
    </timestep>
    <timestep time="50.00">
        <vehicle id="ego" speed="6.52" lane="E2_0" acceleration="-0.00"/>
    </timestep>
    <timestep time="51.00">
        <vehicle id="ego" speed="6.52" lane="E2_0" acceleration="0.00"/>
    </timestep>
    <timestep time="52.00">
        <vehicle id="ego" speed="6.52" lane="E2_0" acceleration="-0.00"/>
    </timestep>
    <timestep time="53.00">
        <vehicle id="ego" speed="6.52" lane="E2_0" acceleration="-0.00"/>
    </timestep>
    <timestep time="54.00">
        <vehicle id="ego" speed="6.52" lane="E2_0" acceleration="0.00"/>
    </timestep>
    <timestep time="55.00">
        <vehicle id="ego" speed="6.52" lane="E2_0" acceleration="-0.00"/>
    </timestep>
    <timestep time="56.00">
        <vehicle id="ego" speed="6.52" lane="E2_0" acceleration="0.00"/>
    </timestep>
    <timestep time="57.00"/>
</fcd-export>
