<?xml version="1.0" encoding="UTF-8"?>

<!-- generated on 2022-11-24 12:55:00 by Eclipse SUMO sumo Version v1_15_0+0560-283e46e
This data file and the accompanying materials
are made available under the terms of the Eclipse Public License v2.0
which accompanies this distribution, and is available at
http://www.eclipse.org/legal/epl-v20.html
This file may also be made available under the following Secondary
Licenses when the conditions for such availability set forth in the Eclipse
Public License 2.0 are satisfied: GNU General Public License, version 2
or later which is available at
https://www.gnu.org/licenses/old-licenses/gpl-2.0-standalone.html
SPDX-License-Identifier: EPL-2.0 OR GPL-2.0-or-later
<configuration xmlns:xsi="http://www.w3.org/2001/XMLSchema-instance" xsi:noNamespaceSchemaLocation="http://sumo.dlr.de/xsd/sumoConfiguration.xsd">

    <input>
        <net-file value="net.net.xml"/>
        <route-files value="input_routes.rou.xml"/>
    </input>

    <output>
        <write-license value="true"/>
        <netstate-dump value="rawdump.xml"/>
        <fcd-output value="fcd.xml"/>
        <fcd-output.signals value="true"/>
        <fcd-output.acceleration value="true"/>
        <lanechange-output value="lanechanges.xml"/>
        <lanechange-output.xy value="true"/>
    </output>

    <time>
        <step-length value="0.5"/>
    </time>

    <processing>
        <lanechange.duration value="3"/>
        <default.speeddev value="0"/>
    </processing>

    <report>
        <xml-validation value="never"/>
        <duration-log.disable value="true"/>
        <no-step-log value="true"/>
    </report>

</configuration>
-->

<lanechanges>
    <change id="v0" type="DEFAULT_VEHTYPE" time="15.00" from="1si_0" to="1si_1" dir="1" speed="13.89" pos="179.75" reason="" leaderGap="None" leaderSecureGap="None" leaderSpeed="None" followerGap="None" followerSecureGap="None" followerSpeed="None" origLeaderGap="None" origLeaderSecureGap="None" origLeaderSpeed="None" x="422.01" y="490.15"/>
</lanechanges>
