<?xml version="1.0" encoding="UTF-8"?>

<!-- generated on 05/02/13 14:15:22 by SUMO sumo Version 0.17.0
<?xml version="1.0" encoding="UTF-8"?>

<configuration xmlns:xsi="http://www.w3.org/2001/XMLSchema-instance" xsi:noNamespaceSchemaLocation="http://sumo-sim.org/xsd/sumoConfiguration.xsd">

    <input>
        <net-file value="net.net.xml"/>
        <route-files value="input_routes.rou.xml"/>
        <additional-files value="input_additional.add.xml,input_additional2.add.xml"/>
    </input>

    <time>
        <begin value="0"/>
        <end value="1000"/>
    </time>

    <report>
        <no-duration-log value="true"/>
        <no-step-log value="true"/>
    </report>

</configuration>
-->

<meandata xmlns:xsi="http://www.w3.org/2001/XMLSchema-instance" xsi:noNamespaceSchemaLocation="http://sumo-sim.org/xsd/meandata_file.xsd">
    <interval begin="0.00" end="25.00" id="dump_25">
        <edge id="beg" sampledSeconds="42.00" traveltime="29.52" density="3.37" occupancy="1.01" waitingTime="0.00" speed="16.89" departed="3" arrived="0" entered="0" left="0" laneChangedFrom="0" laneChangedTo="0"/>
    </interval>
    <interval begin="25.00" end="50.00" id="dump_25">
        <edge id="beg" sampledSeconds="66.32" traveltime="26.45" density="5.32" occupancy="1.60" waitingTime="0.00" speed="18.85" departed="2" arrived="0" entered="0" left="3" laneChangedFrom="0" laneChangedTo="0"/>
        <edge id="middle" sampledSeconds="34.05" traveltime="464.99" density="1.37" occupancy="0.41" waitingTime="0.00" speed="2.13" departed="0" arrived="0" entered="3" left="0" laneChangedFrom="0" laneChangedTo="0"/>
    </interval>
    <interval begin="50.00" end="75.00" id="dump_25">
        <edge id="beg" sampledSeconds="67.65" traveltime="27.48" density="5.43" occupancy="1.63" waitingTime="0.00" speed="18.14" departed="3" arrived="0" entered="0" left="2" laneChangedFrom="0" laneChangedTo="0"/>
        <edge id="middle" sampledSeconds="97.27" traveltime="453.48" density="3.93" occupancy="1.18" waitingTime="0.00" speed="2.18" departed="0" arrived="0" entered="2" left="0" laneChangedFrom="0" laneChangedTo="0"/>
    </interval>
    <interval begin="75.00" end="100.00" id="dump_25">
        <edge id="beg" sampledSeconds="68.35" traveltime="27.18" density="5.48" occupancy="1.65" waitingTime="0.00" speed="18.34" departed="2" arrived="0" entered="0" left="3" laneChangedFrom="0" laneChangedTo="0"/>
        <edge id="middle" sampledSeconds="156.93" traveltime="460.29" density="6.34" occupancy="1.90" waitingTime="0.00" speed="2.15" departed="0" arrived="0" entered="3" left="0" laneChangedFrom="0" laneChangedTo="0"/>
    </interval>
    <interval begin="100.00" end="125.00" id="dump_25">
        <edge id="beg" sampledSeconds="64.77" traveltime="25.28" density="5.20" occupancy="1.56" waitingTime="0.00" speed="19.72" departed="3" arrived="0" entered="0" left="2" laneChangedFrom="0" laneChangedTo="0"/>
        <edge id="middle" sampledSeconds="226.91" traveltime="46.26" density="9.16" occupancy="2.75" waitingTime="0.00" speed="21.41" departed="0" arrived="0" entered="2" left="0" laneChangedFrom="0" laneChangedTo="0"/>
    </interval>
    <interval begin="125.00" end="150.00" id="dump_25">
        <edge id="beg" sampledSeconds="61.75" traveltime="25.14" density="4.95" occupancy="1.49" waitingTime="0.00" speed="19.83" departed="2" arrived="0" entered="0" left="3" laneChangedFrom="0" laneChangedTo="0"/>
        <edge id="end" sampledSeconds="43.02" traveltime="28.40" density="3.45" occupancy="1.04" waitingTime="0.00" speed="17.55" departed="0" arrived="0" entered="6" left="0" laneChangedFrom="0" laneChangedTo="0"/>
        <edge id="middle" sampledSeconds="245.21" traveltime="42.22" density="9.90" occupancy="2.97" waitingTime="0.00" speed="23.46" departed="0" arrived="0" entered="3" left="6" laneChangedFrom="0" laneChangedTo="0"/>
    </interval>
    <interval begin="150.00" end="175.00" id="dump_25">
        <edge id="beg" sampledSeconds="64.63" traveltime="24.82" density="5.19" occupancy="1.56" waitingTime="0.00" speed="20.09" departed="3" arrived="0" entered="0" left="2" laneChangedFrom="0" laneChangedTo="0"/>
        <edge id="end" sampledSeconds="177.90" traveltime="21.29" density="14.27" occupancy="4.28" waitingTime="0.00" speed="23.42" departed="0" arrived="0" entered="6" left="7" laneChangedFrom="0" laneChangedTo="0"/>
        <edge id="middle" sampledSeconds="109.40" traveltime="41.72" density="4.42" occupancy="1.33" waitingTime="0.00" speed="23.74" departed="0" arrived="0" entered="2" left="6" laneChangedFrom="0" laneChangedTo="0"/>
        <edge id="rend" sampledSeconds="63.04" traveltime="18.43" density="5.04" occupancy="1.51" waitingTime="0.00" speed="27.13" departed="0" arrived="0" entered="7" left="0" laneChangedFrom="0" laneChangedTo="0"/>
    </interval>
    <interval begin="175.00" end="200.00" id="dump_25">
        <edge id="beg" sampledSeconds="60.85" traveltime="24.91" density="4.88" occupancy="1.46" waitingTime="0.00" speed="20.01" departed="2" arrived="0" entered="0" left="3" laneChangedFrom="0" laneChangedTo="0"/>
        <edge id="end" sampledSeconds="73.61" traveltime="20.20" density="5.91" occupancy="1.77" waitingTime="0.00" speed="24.68" departed="0" arrived="0" entered="3" left="6" laneChangedFrom="0" laneChangedTo="0"/>
        <edge id="middle" sampledSeconds="82.32" traveltime="32.06" density="3.32" occupancy="1.00" waitingTime="0.00" speed="30.89" departed="0" arrived="0" entered="3" left="3" laneChangedFrom="0" laneChangedTo="0"/>
        <edge id="rend" sampledSeconds="146.87" traveltime="18.40" density="11.75" occupancy="3.52" waitingTime="0.00" speed="27.17" departed="0" arrived="9" entered="6" left="0" laneChangedFrom="0" laneChangedTo="0"/>
    </interval>
    <interval begin="200.00" end="225.00" id="dump_25">
        <edge id="beg" sampledSeconds="64.42" traveltime="25.13" density="5.17" occupancy="1.55" waitingTime="0.00" speed="19.84" departed="3" arrived="0" entered="0" left="2" laneChangedFrom="0" laneChangedTo="0"/>
        <edge id="end" sampledSeconds="55.88" traveltime="22.13" density="4.48" occupancy="1.35" waitingTime="0.00" speed="22.53" departed="0" arrived="0" entered="2" left="2" laneChangedFrom="0" laneChangedTo="0"/>
        <edge id="middle" sampledSeconds="77.82" traveltime="31.66" density="3.14" occupancy="0.94" waitingTime="0.00" speed="31.28" departed="0" arrived="0" entered="2" left="2" laneChangedFrom="0" laneChangedTo="0"/>
        <edge id="rend" sampledSeconds="48.83" traveltime="18.47" density="3.91" occupancy="1.17" waitingTime="0.00" speed="27.07" departed="0" arrived="4" entered="2" left="0" laneChangedFrom="0" laneChangedTo="0"/>
    </interval>
    <interval begin="225.00" end="250.00" id="dump_25">
        <edge id="beg" sampledSeconds="61.31" traveltime="24.78" density="4.92" occupancy="1.48" waitingTime="0.00" speed="20.12" departed="2" arrived="0" entered="0" left="3" laneChangedFrom="0" laneChangedTo="0"/>
        <edge id="end" sampledSeconds="54.05" traveltime="21.37" density="4.34" occupancy="1.30" waitingTime="0.00" speed="23.33" departed="0" arrived="0" entered="3" left="2" laneChangedFrom="0" laneChangedTo="0"/>
        <edge id="middle" sampledSeconds="80.73" traveltime="31.74" density="3.26" occupancy="0.98" waitingTime="0.00" speed="31.21" departed="0" arrived="0" entered="3" left="3" laneChangedFrom="0" laneChangedTo="0"/>
        <edge id="rend" sampledSeconds="49.21" traveltime="18.44" density="3.94" occupancy="1.18" waitingTime="0.00" speed="27.12" departed="0" arrived="3" entered="2" left="0" laneChangedFrom="0" laneChangedTo="0"/>
    </interval>
    <interval begin="250.00" end="275.00" id="dump_25">
        <edge id="beg" sampledSeconds="64.34" traveltime="25.47" density="5.16" occupancy="1.55" waitingTime="0.00" speed="19.58" departed="3" arrived="0" entered="0" left="2" laneChangedFrom="0" laneChangedTo="0"/>
        <edge id="end" sampledSeconds="54.71" traveltime="21.88" density="4.39" occupancy="1.32" waitingTime="0.00" speed="22.78" departed="0" arrived="0" entered="2" left="3" laneChangedFrom="0" laneChangedTo="0"/>
        <edge id="middle" sampledSeconds="77.71" traveltime="31.75" density="3.14" occupancy="0.94" waitingTime="0.00" speed="31.20" departed="0" arrived="0" entered="2" left="2" laneChangedFrom="0" laneChangedTo="0"/>
        <edge id="rend" sampledSeconds="46.09" traveltime="18.44" density="3.69" occupancy="1.11" waitingTime="0.00" speed="27.12" departed="0" arrived="2" entered="3" left="0" laneChangedFrom="0" laneChangedTo="0"/>
    </interval>
    <interval begin="275.00" end="300.00" id="dump_25">
        <edge id="beg" sampledSeconds="61.80" traveltime="24.49" density="4.96" occupancy="1.49" waitingTime="0.00" speed="20.35" departed="2" arrived="0" entered="0" left="3" laneChangedFrom="0" laneChangedTo="0"/>
        <edge id="end" sampledSeconds="52.90" traveltime="21.28" density="4.24" occupancy="1.27" waitingTime="0.00" speed="23.42" departed="0" arrived="0" entered="3" left="2" laneChangedFrom="0" laneChangedTo="0"/>
        <edge id="middle" sampledSeconds="81.32" traveltime="32.06" density="3.28" occupancy="0.99" waitingTime="0.00" speed="30.89" departed="0" arrived="0" entered="3" left="3" laneChangedFrom="0" laneChangedTo="0"/>
        <edge id="rend" sampledSeconds="47.09" traveltime="18.46" density="3.77" occupancy="1.13" waitingTime="0.00" speed="27.08" departed="0" arrived="3" entered="2" left="0" laneChangedFrom="0" laneChangedTo="0"/>
    </interval>
    <interval begin="300.00" end="325.00" id="dump_25">
        <edge id="beg" sampledSeconds="21.77" traveltime="19.41" density="1.75" occupancy="0.52" waitingTime="0.00" speed="25.68" departed="0" arrived="0" entered="0" left="2" laneChangedFrom="0" laneChangedTo="0"/>
        <edge id="end" sampledSeconds="53.97" traveltime="21.69" density="4.33" occupancy="1.30" waitingTime="0.00" speed="22.99" departed="0" arrived="0" entered="2" left="3" laneChangedFrom="0" laneChangedTo="0"/>
        <edge id="middle" sampledSeconds="79.42" traveltime="31.43" density="3.21" occupancy="0.96" waitingTime="0.00" speed="31.51" departed="0" arrived="0" entered="2" left="2" laneChangedFrom="0" laneChangedTo="0"/>
        <edge id="rend" sampledSeconds="46.18" traveltime="18.39" density="3.69" occupancy="1.11" waitingTime="0.00" speed="27.19" departed="0" arrived="2" entered="3" left="0" laneChangedFrom="0" laneChangedTo="0"/>
    </interval>
    <interval begin="325.00" end="350.00" id="dump_25">
        <edge id="end" sampledSeconds="55.99" traveltime="21.32" density="4.49" occupancy="1.35" waitingTime="0.00" speed="23.38" departed="0" arrived="0" entered="3" left="2" laneChangedFrom="0" laneChangedTo="0"/>
        <edge id="middle" sampledSeconds="38.67" traveltime="36.95" density="1.56" occupancy="0.47" waitingTime="0.00" speed="26.81" departed="0" arrived="0" entered="0" left="3" laneChangedFrom="0" laneChangedTo="0"/>
        <edge id="rend" sampledSeconds="45.47" traveltime="18.41" density="3.64" occupancy="1.09" waitingTime="0.00" speed="27.16" departed="0" arrived="3" entered="2" left="0" laneChangedFrom="0" laneChangedTo="0"/>
    </interval>
    <interval begin="350.00" end="375.00" id="dump_25">
        <edge id="end" sampledSeconds="29.93" traveltime="19.81" density="2.40" occupancy="0.72" waitingTime="0.00" speed="25.16" departed="0" arrived="0" entered="0" left="3" laneChangedFrom="0" laneChangedTo="0"/>
        <edge id="rend" sampledSeconds="47.71" traveltime="18.37" density="3.82" occupancy="1.15" waitingTime="0.00" speed="27.21" departed="0" arrived="2" entered="3" left="0" laneChangedFrom="0" laneChangedTo="0"/>
    </interval>
    <interval begin="375.00" end="400.00" id="dump_25">
        <edge id="rend" sampledSeconds="16.04" traveltime="18.39" density="1.28" occupancy="0.38" waitingTime="0.00" speed="27.19" departed="0" arrived="2" entered="0" left="0" laneChangedFrom="0" laneChangedTo="0"/>
    </interval>
    <interval begin="400.00" end="425.00" id="dump_25"/>
    <interval begin="425.00" end="450.00" id="dump_25"/>
    <interval begin="450.00" end="475.00" id="dump_25"/>
    <interval begin="475.00" end="500.00" id="dump_25"/>
    <interval begin="500.00" end="525.00" id="dump_25"/>
    <interval begin="525.00" end="550.00" id="dump_25"/>
    <interval begin="550.00" end="575.00" id="dump_25"/>
    <interval begin="575.00" end="600.00" id="dump_25"/>
    <interval begin="600.00" end="625.00" id="dump_25"/>
    <interval begin="625.00" end="650.00" id="dump_25"/>
    <interval begin="650.00" end="675.00" id="dump_25"/>
    <interval begin="675.00" end="700.00" id="dump_25"/>
    <interval begin="700.00" end="725.00" id="dump_25"/>
    <interval begin="725.00" end="750.00" id="dump_25"/>
    <interval begin="750.00" end="775.00" id="dump_25"/>
    <interval begin="775.00" end="800.00" id="dump_25"/>
    <interval begin="800.00" end="825.00" id="dump_25"/>
    <interval begin="825.00" end="850.00" id="dump_25"/>
    <interval begin="850.00" end="875.00" id="dump_25"/>
    <interval begin="875.00" end="900.00" id="dump_25"/>
    <interval begin="900.00" end="925.00" id="dump_25"/>
    <interval begin="925.00" end="950.00" id="dump_25"/>
    <interval begin="950.00" end="975.00" id="dump_25"/>
    <interval begin="975.00" end="1000.00" id="dump_25"/>
</meandata>
