<?xml version="1.0"?>

<!-- generated on 01/05/11 14:54:21 by SUMO sumo Version dev-SVN-r9525
<?xml version="1.0" encoding="iso-8859-1"?>

<configuration xmlns:xsi="http://www.w3.org/2001/XMLSchema-instance" xsi:noNamespaceSchemaLocation="http://sumo.sf.net/xsd/sumoConfiguration.xsd">

    <input>
        <net-file value="three_split.net.xml"/>
        <additional-files value="input_routes.rou.xml,input_additional.add.xml"/>
    </input>

    <output>
        <tripinfo-output value="tripinfos.xml"/>
    </output>

    <report>
        <no-duration-log value="true"/>
        <no-step-log value="true"/>
    </report>

</configuration>
-->

<tripinfos>
    <tripinfo id="emitter_0.00_0" depart="0.00" departLane="beg_0" departPos="100.00" departSpeed="0.00" departDelay="0.00" arrival="76.00" arrivalLane="rend_0" arrivalPos="9.35" arrivalSpeed="27.75" duration="76.00" routeLength="1890.35" waitSteps="0" rerouteNo="0" devices="tripinfo_emitter_0.00_0" vtype="t1" vaporized=""/>
    <tripinfo id="emitter_1.00_1" depart="2.00" departLane="beg_0" departPos="100.00" departSpeed="0.00" departDelay="1.00" arrival="195.00" arrivalLane="rend_0" arrivalPos="9.00" arrivalSpeed="10.00" duration="193.00" routeLength="1890.00" waitSteps="0" rerouteNo="0" devices="tripinfo_emitter_1.00_1" vtype="t2" vaporized=""/>
    <tripinfo id="emitter_2.00_2" depart="4.00" departLane="beg_0" departPos="100.00" departSpeed="0.00" departDelay="2.00" arrival="196.00" arrivalLane="rend_0" arrivalPos="0.08" arrivalSpeed="11.57" duration="192.00" routeLength="1881.08" waitSteps="0" rerouteNo="0" devices="tripinfo_emitter_2.00_2" vtype="t1" vaporized=""/>
    <tripinfo id="emitter_3.00_3" depart="7.00" departLane="beg_0" departPos="100.00" departSpeed="0.00" departDelay="4.00" arrival="199.00" arrivalLane="rend_0" arrivalPos="1.31" arrivalSpeed="10.00" duration="192.00" routeLength="1882.31" waitSteps="0" rerouteNo="0" devices="tripinfo_emitter_3.00_3" vtype="t2" vaporized=""/>
    <tripinfo id="emitter_4.00_4" depart="9.00" departLane="beg_0" departPos="100.00" departSpeed="0.00" departDelay="5.00" arrival="201.00" arrivalLane="rend_0" arrivalPos="5.85" arrivalSpeed="13.73" duration="192.00" routeLength="1886.85" waitSteps="0" rerouteNo="0" devices="tripinfo_emitter_4.00_4" vtype="t1" vaporized=""/>
    <tripinfo id="emitter_5.00_5" depart="12.00" departLane="beg_0" departPos="100.00" departSpeed="0.00" departDelay="7.00" arrival="205.00" arrivalLane="rend_0" arrivalPos="4.70" arrivalSpeed="10.00" duration="193.00" routeLength="1885.70" waitSteps="0" rerouteNo="0" devices="tripinfo_emitter_5.00_5" vtype="t2" vaporized=""/>
    <tripinfo id="emitter_6.00_6" depart="15.00" departLane="beg_0" departPos="100.00" departSpeed="0.00" departDelay="9.00" arrival="207.00" arrivalLane="rend_0" arrivalPos="6.78" arrivalSpeed="12.64" duration="192.00" routeLength="1887.78" waitSteps="0" rerouteNo="0" devices="tripinfo_emitter_6.00_6" vtype="t1" vaporized=""/>
    <tripinfo id="emitter_7.00_7" depart="17.00" departLane="beg_0" departPos="100.00" departSpeed="0.00" departDelay="10.00" arrival="210.00" arrivalLane="rend_0" arrivalPos="2.05" arrivalSpeed="10.00" duration="193.00" routeLength="1883.05" waitSteps="0" rerouteNo="0" devices="tripinfo_emitter_7.00_7" vtype="t2" vaporized=""/>
    <tripinfo id="emitter_8.00_8" depart="20.00" departLane="beg_0" departPos="100.00" departSpeed="0.00" departDelay="12.00" arrival="212.00" arrivalLane="rend_0" arrivalPos="5.50" arrivalSpeed="13.28" duration="192.00" routeLength="1886.50" waitSteps="0" rerouteNo="0" devices="tripinfo_emitter_8.00_8" vtype="t1" vaporized=""/>
    <tripinfo id="emitter_9.00_9" depart="23.00" departLane="beg_0" departPos="100.00" departSpeed="0.00" departDelay="14.00" arrival="216.00" arrivalLane="rend_0" arrivalPos="8.91" arrivalSpeed="10.00" duration="193.00" routeLength="1889.91" waitSteps="0" rerouteNo="0" devices="tripinfo_emitter_9.00_9" vtype="t2" vaporized=""/>
</tripinfos>
