<?xml version="1.0"?>

<!-- generated on 05/07/09 12:22:07 by SUMO sumo Version dev-SVN-r7121
<configuration>

   <input>
      <net-file>net.net.xml</net-file>
      <route-files>input_routes.rou.xml</route-files>
      <additional-files>input_additional2.add.xml</additional-files>
   </input>

   <output>
      <netstate-dump>rawdump.xml</netstate-dump>
   </output>

   <time>
      <begin>0</begin>
      <end>100</end>
   </time>

   <processing>
      <no-duration-log>true</no-duration-log>
      <no-step-log>true</no-step-log>
   </processing>

</configuration>
-->

<sumo-netstate>
   <timestep time="0">
   </timestep>
   <timestep time="1">
   </timestep>
   <timestep time="2">
   </timestep>
   <timestep time="3">
   </timestep>
   <timestep time="4">
   </timestep>
   <timestep time="5">
   </timestep>
   <timestep time="6">
   </timestep>
   <timestep time="7">
   </timestep>
   <timestep time="8">
   </timestep>
   <timestep time="9">
   </timestep>
   <timestep time="10">
   </timestep>
   <timestep time="11">
   </timestep>
   <timestep time="12">
   </timestep>
   <timestep time="13">
   </timestep>
   <timestep time="14">
   </timestep>
   <timestep time="15">
   </timestep>
   <timestep time="16">
   </timestep>
   <timestep time="17">
   </timestep>
   <timestep time="18">
   </timestep>
   <timestep time="19">
   </timestep>
   <timestep time="20">
   </timestep>
   <timestep time="21">
   </timestep>
   <timestep time="22">
   </timestep>
   <timestep time="23">
   </timestep>
   <timestep time="24">
   </timestep>
   <timestep time="25">
   </timestep>
   <timestep time="26">
   </timestep>
   <timestep time="27">
   </timestep>
   <timestep time="28">
   </timestep>
   <timestep time="29">
   </timestep>
   <timestep time="30">
   </timestep>
   <timestep time="31">
   </timestep>
   <timestep time="32">
   </timestep>
   <timestep time="33">
   </timestep>
   <timestep time="34">
   </timestep>
   <timestep time="35">
   </timestep>
   <timestep time="36">
   </timestep>
   <timestep time="37">
   </timestep>
   <timestep time="38">
   </timestep>
   <timestep time="39">
   </timestep>
   <timestep time="40">
   </timestep>
   <timestep time="41">
   </timestep>
   <timestep time="42">
   </timestep>
   <timestep time="43">
   </timestep>
   <timestep time="44">
   </timestep>
   <timestep time="45">
   </timestep>
   <timestep time="46">
   </timestep>
   <timestep time="47">
   </timestep>
   <timestep time="48">
   </timestep>
   <timestep time="49">
   </timestep>
   <timestep time="50">
   </timestep>
   <timestep time="51">
   </timestep>
   <timestep time="52">
   </timestep>
   <timestep time="53">
   </timestep>
   <timestep time="54">
   </timestep>
   <timestep time="55">
   </timestep>
   <timestep time="56">
   </timestep>
   <timestep time="57">
   </timestep>
   <timestep time="58">
   </timestep>
   <timestep time="59">
   </timestep>
   <timestep time="60">
   </timestep>
   <timestep time="61">
   </timestep>
   <timestep time="62">
   </timestep>
   <timestep time="63">
   </timestep>
   <timestep time="64">
   </timestep>
   <timestep time="65">
   </timestep>
   <timestep time="66">
   </timestep>
   <timestep time="67">
   </timestep>
   <timestep time="68">
   </timestep>
   <timestep time="69">
   </timestep>
   <timestep time="70">
   </timestep>
   <timestep time="71">
   </timestep>
   <timestep time="72">
   </timestep>
   <timestep time="73">
   </timestep>
   <timestep time="74">
   </timestep>
   <timestep time="75">
   </timestep>
   <timestep time="76">
   </timestep>
   <timestep time="77">
   </timestep>
   <timestep time="78">
   </timestep>
   <timestep time="79">
   </timestep>
   <timestep time="80">
   </timestep>
   <timestep time="81">
   </timestep>
   <timestep time="82">
   </timestep>
   <timestep time="83">
   </timestep>
   <timestep time="84">
   </timestep>
   <timestep time="85">
   </timestep>
   <timestep time="86">
   </timestep>
   <timestep time="87">
   </timestep>
   <timestep time="88">
   </timestep>
   <timestep time="89">
   </timestep>
   <timestep time="90">
   </timestep>
   <timestep time="91">
   </timestep>
   <timestep time="92">
   </timestep>
   <timestep time="93">
   </timestep>
   <timestep time="94">
   </timestep>
   <timestep time="95">
   </timestep>
   <timestep time="96">
   </timestep>
   <timestep time="97">
   </timestep>
   <timestep time="98">
   </timestep>
   <timestep time="99">
   </timestep>
</sumo-netstate>
