<?xml version="1.0" encoding="UTF-8"?>

<!-- generated on 2022-09-08 08:39:24 by Eclipse SUMO sumo Version v1_14_1+0895-7e3b16c
This data file and the accompanying materials
are made available under the terms of the Eclipse Public License v2.0
which accompanies this distribution, and is available at
http://www.eclipse.org/legal/epl-v20.html
This file may also be made available under the following Secondary
Licenses when the conditions for such availability set forth in the Eclipse
Public License 2.0 are satisfied: GNU General Public License, version 2
or later which is available at
https://www.gnu.org/licenses/old-licenses/gpl-2.0-standalone.html
SPDX-License-Identifier: EPL-2.0 OR GPL-2.0-or-later
<configuration xmlns:xsi="http://www.w3.org/2001/XMLSchema-instance" xsi:noNamespaceSchemaLocation="http://sumo.dlr.de/xsd/sumoConfiguration.xsd">

    <input>
        <net-file value="net.net.xml"/>
        <route-files value="input_routes.rou.xml"/>
        <additional-files value="input_additional.add.xml"/>
    </input>

    <output>
        <write-license value="true"/>
        <tripinfo-output value="tripinfos.xml"/>
        <vehroute-output value="vehroutes.xml"/>
    </output>

    <processing>
        <default.speeddev value="0"/>
        <pedestrian.model value="nonInteracting"/>
    </processing>

    <report>
        <xml-validation value="never"/>
        <duration-log.disable value="true"/>
        <no-step-log value="true"/>
    </report>

    <mesoscopic>
        <mesosim value="true"/>
    </mesoscopic>

</configuration>
-->

<tripinfos xmlns:xsi="http://www.w3.org/2001/XMLSchema-instance" xsi:noNamespaceSchemaLocation="http://sumo.dlr.de/xsd/tripinfo_file.xsd">
    <tripinfo id="p0_0" depart="0.00" departLane="" departPos="0.00" departSpeed="27.80" departDelay="0.00" arrival="36.00" arrivalLane="" arrivalPos="450.00" arrivalSpeed="27.80" duration="36.00" routeLength="948.55" waitingTime="0.00" waitingCount="0" stopTime="0.00" timeLoss="0.00" rerouteNo="0" devices="vehroute_p0_0 tripinfo_p0_0 person_p0_0" vType="DEFAULT_VEHTYPE" speedFactor="1.00" vaporized=""/>
    <tripinfo id="train.0" depart="0.00" departLane="" departPos="0.00" departSpeed="13.89" departDelay="0.00" arrival="111.00" arrivalLane="" arrivalPos="1529.03" arrivalSpeed="13.89" duration="111.00" routeLength="1529.03" waitingTime="0.00" waitingCount="0" stopTime="0.00" timeLoss="0.00" rerouteNo="0" devices="vehroute_train.0 tripinfo_train.0" vType="train" speedFactor="1.00" vaporized=""/>
    <tripinfo id="train.1" depart="300.00" departLane="" departPos="0.00" departSpeed="13.89" departDelay="0.00" arrival="411.00" arrivalLane="" arrivalPos="1529.03" arrivalSpeed="13.89" duration="111.00" routeLength="1529.03" waitingTime="0.00" waitingCount="0" stopTime="0.00" timeLoss="0.00" rerouteNo="0" devices="vehroute_train.1 tripinfo_train.1 person_train.1" vType="train" speedFactor="1.00" vaporized=""/>
    <personinfo id="p0" depart="0.00" type="DEFAULT_PEDTYPE" speedFactor="1.00">
        <ride waitingTime="0.00" vehicle="p0_0" depart="0.00" arrival="36.00" arrivalPos="450.00" duration="36.00" routeLength="894.79" timeLoss="0.00"/>
        <access stop="beg2left" depart="36.00" arrival="163.00" duration="127.00" routeLength="177.33"/>
        <ride waitingTime="158.12" vehicle="train.1" depart="321.12" arrival="390.00" arrivalPos="1242.34" duration="68.88" routeLength="955.64" timeLoss="0.00"/>
        <access stop="left2end" depart="390.00" arrival="407.00" duration="17.00" routeLength="24.54"/>
        <walk depart="407.00" departPos="250.00" arrival="764.00" arrivalPos="249.28" duration="357.00" routeLength="493.08" timeLoss="1.99" maxSpeed="1.39"/>
    </personinfo>
</tripinfos>
