<?xml version="1.0" encoding="UTF-8"?>

<!-- generated on 2025-11-13T16:37:57.690120+01:00 by Eclipse SUMO sumo v1_25_0+0021-e81defdd359
<sumoConfiguration xmlns:xsi="http://www.w3.org/2001/XMLSchema-instance" xsi:noNamespaceSchemaLocation="http://sumo.dlr.de/xsd/sumoConfiguration.xsd">

    <input>
        <net-file value="004/../input_net.net.xml"/>
        <route-files value="004/input_routes_004.rou.xml.gz"/>
        <additional-files value="004/../edgedata.add.xml"/>
    </input>

    <output>
        <output-prefix value="004/"/>
        <summary-output value="004/../summary_004.xml"/>
        <tripinfo-output value="004/../tripinfo_004.xml"/>
    </output>

    <time>
        <begin value="0"/>
    </time>

    <processing>
        <route-steps value="200"/>
        <no-internal-links value="False"/>
        <time-to-teleport value="300"/>
        <time-to-teleport.highways value="0"/>
        <eager-insert value="False"/>
    </processing>

    <report>
        <verbose value="true"/>
        <no-warnings value="False"/>
        <log value="004/../iteration_004.sumo.log"/>
        <duration-log.disable value="true"/>
        <duration-log.statistics value="true"/>
        <no-step-log value="true"/>
    </report>

    <random_number>
        <random value="False"/>
    </random_number>

</sumoConfiguration>
-->

<tripinfos xmlns:xsi="http://www.w3.org/2001/XMLSchema-instance" xsi:noNamespaceSchemaLocation="http://sumo.dlr.de/xsd/tripinfo_file.xsd">
    <tripinfo id="flow_0.2" depart="8.00" departLane="start_1" departPos="5.10" departSpeed="14.03" departDelay="0.80" arrival="93.00" arrivalLane="end_0" arrivalPos="115.32" arrivalSpeed="13.44" duration="85.00" routeLength="1028.10" waitingTime="18.00" waitingCount="1" stopTime="0.00" timeLoss="36.74" rerouteNo="0" devices="tripinfo_flow_0.2" vType="DEFAULT_VEHTYPE" speedFactor="1.01" vaporized=""/>
    <tripinfo id="flow_0.5" depart="18.00" departLane="start_1" departPos="5.10" departSpeed="11.54" departDelay="0.00" arrival="102.00" arrivalLane="end_0" arrivalPos="115.32" arrivalSpeed="11.26" duration="84.00" routeLength="1028.10" waitingTime="6.00" waitingCount="1" stopTime="0.00" timeLoss="25.70" rerouteNo="0" devices="tripinfo_flow_0.5" vType="DEFAULT_VEHTYPE" speedFactor="0.83" vaporized=""/>
    <tripinfo id="flow_0.7" depart="26.00" departLane="start_1" departPos="5.10" departSpeed="12.31" departDelay="0.80" arrival="105.00" arrivalLane="end_0" arrivalPos="115.32" arrivalSpeed="11.18" duration="79.00" routeLength="1028.10" waitingTime="2.00" waitingCount="1" stopTime="0.00" timeLoss="24.18" rerouteNo="0" devices="tripinfo_flow_0.7" vType="DEFAULT_VEHTYPE" speedFactor="0.89" vaporized=""/>
    <tripinfo id="flow_0.10" depart="36.00" departLane="start_1" departPos="5.10" departSpeed="15.15" departDelay="0.00" arrival="107.00" arrivalLane="end_0" arrivalPos="115.32" arrivalSpeed="14.65" duration="71.00" routeLength="1028.10" waitingTime="0.00" waitingCount="0" stopTime="0.00" timeLoss="26.87" rerouteNo="0" devices="tripinfo_flow_0.10" vType="DEFAULT_VEHTYPE" speedFactor="1.09" vaporized=""/>
    <tripinfo id="flow_0.3" depart="11.00" departLane="start_0" departPos="5.10" departSpeed="15.04" departDelay="0.20" arrival="109.00" arrivalLane="end_0" arrivalPos="115.32" arrivalSpeed="14.77" duration="98.00" routeLength="996.05" waitingTime="12.00" waitingCount="1" stopTime="0.00" timeLoss="27.61" rerouteNo="0" devices="tripinfo_flow_0.3" vType="DEFAULT_VEHTYPE" speedFactor="1.08" vaporized=""/>
    <tripinfo id="flow_0.4" depart="15.00" departLane="start_0" departPos="5.10" departSpeed="14.31" departDelay="0.60" arrival="110.00" arrivalLane="end_0" arrivalPos="115.32" arrivalSpeed="13.76" duration="95.00" routeLength="996.05" waitingTime="7.00" waitingCount="1" stopTime="0.00" timeLoss="21.67" rerouteNo="0" devices="tripinfo_flow_0.4" vType="DEFAULT_VEHTYPE" speedFactor="1.03" vaporized=""/>
    <tripinfo id="flow_0.0" depart="0.00" departLane="start_1" departPos="5.10" departSpeed="14.72" departDelay="0.00" arrival="114.00" arrivalLane="end_1" arrivalPos="115.32" arrivalSpeed="13.61" duration="114.00" routeLength="995.93" waitingTime="25.00" waitingCount="1" stopTime="0.00" timeLoss="41.66" rerouteNo="0" devices="tripinfo_flow_0.0" vType="DEFAULT_VEHTYPE" speedFactor="1.06" vaporized=""/>
    <tripinfo id="flow_0.1" depart="4.00" departLane="start_1" departPos="5.10" departSpeed="13.03" departDelay="0.40" arrival="123.00" arrivalLane="end_1" arrivalPos="115.32" arrivalSpeed="12.18" duration="119.00" routeLength="995.93" waitingTime="19.00" waitingCount="1" stopTime="0.00" timeLoss="37.16" rerouteNo="0" devices="tripinfo_flow_0.1" vType="DEFAULT_VEHTYPE" speedFactor="0.94" vaporized=""/>
    <tripinfo id="flow_0.6" depart="22.00" departLane="start_1" departPos="5.10" departSpeed="14.53" departDelay="0.40" arrival="125.00" arrivalLane="end_1" arrivalPos="115.32" arrivalSpeed="13.40" duration="103.00" routeLength="995.93" waitingTime="5.00" waitingCount="1" stopTime="0.00" timeLoss="29.81" rerouteNo="0" devices="tripinfo_flow_0.6" vType="DEFAULT_VEHTYPE" speedFactor="1.05" vaporized=""/>
    <tripinfo id="flow_0.9" depart="33.00" departLane="start_1" departPos="5.10" departSpeed="11.90" departDelay="0.60" arrival="141.00" arrivalLane="end_1" arrivalPos="115.32" arrivalSpeed="11.26" duration="108.00" routeLength="995.93" waitingTime="0.00" waitingCount="0" stopTime="0.00" timeLoss="18.59" rerouteNo="0" devices="tripinfo_flow_0.9" vType="DEFAULT_VEHTYPE" speedFactor="0.86" vaporized=""/>
    <tripinfo id="flow_0.11" depart="40.00" departLane="start_1" departPos="5.10" departSpeed="14.26" departDelay="0.40" arrival="143.00" arrivalLane="end_1" arrivalPos="115.32" arrivalSpeed="13.01" duration="103.00" routeLength="995.93" waitingTime="0.00" waitingCount="0" stopTime="0.00" timeLoss="28.00" rerouteNo="0" devices="tripinfo_flow_0.11" vType="DEFAULT_VEHTYPE" speedFactor="1.03" vaporized=""/>
    <tripinfo id="flow_0.8" depart="29.00" departLane="start_0" departPos="5.10" departSpeed="13.03" departDelay="0.20" arrival="145.00" arrivalLane="end_0" arrivalPos="115.32" arrivalSpeed="12.50" duration="116.00" routeLength="996.05" waitingTime="17.00" waitingCount="1" stopTime="0.00" timeLoss="35.34" rerouteNo="0" devices="tripinfo_flow_0.8" vType="DEFAULT_VEHTYPE" speedFactor="0.94" vaporized=""/>
    <tripinfo id="flow_0.12" depart="44.00" departLane="start_0" departPos="5.10" departSpeed="14.54" departDelay="0.80" arrival="147.00" arrivalLane="end_0" arrivalPos="115.32" arrivalSpeed="14.13" duration="103.00" routeLength="996.05" waitingTime="11.00" waitingCount="1" stopTime="0.00" timeLoss="30.54" rerouteNo="0" devices="tripinfo_flow_0.12" vType="DEFAULT_VEHTYPE" speedFactor="1.05" vaporized=""/>
    <tripinfo id="flow_0.13" depart="47.00" departLane="start_0" departPos="5.10" departSpeed="15.60" departDelay="0.20" arrival="148.00" arrivalLane="end_0" arrivalPos="115.32" arrivalSpeed="14.61" duration="101.00" routeLength="996.05" waitingTime="8.00" waitingCount="1" stopTime="0.00" timeLoss="33.94" rerouteNo="0" devices="tripinfo_flow_0.13" vType="DEFAULT_VEHTYPE" speedFactor="1.12" vaporized=""/>
    <tripinfo id="flow_0.15" depart="54.00" departLane="start_1" departPos="5.10" departSpeed="12.87" departDelay="0.00" arrival="151.00" arrivalLane="end_0" arrivalPos="115.32" arrivalSpeed="12.36" duration="97.00" routeLength="1028.10" waitingTime="19.00" waitingCount="1" stopTime="0.00" timeLoss="44.90" rerouteNo="0" devices="tripinfo_flow_0.15" vType="DEFAULT_VEHTYPE" speedFactor="0.93" vaporized=""/>
    <tripinfo id="flow_0.16" depart="58.00" departLane="start_1" departPos="5.10" departSpeed="12.20" departDelay="0.40" arrival="154.00" arrivalLane="end_0" arrivalPos="115.32" arrivalSpeed="11.59" duration="96.00" routeLength="1028.10" waitingTime="16.00" waitingCount="1" stopTime="0.00" timeLoss="39.64" rerouteNo="0" devices="tripinfo_flow_0.16" vType="DEFAULT_VEHTYPE" speedFactor="0.88" vaporized=""/>
    <tripinfo id="flow_0.20" depart="72.00" departLane="start_1" departPos="5.10" departSpeed="14.14" departDelay="0.00" arrival="156.00" arrivalLane="end_0" arrivalPos="115.32" arrivalSpeed="13.74" duration="84.00" routeLength="1028.10" waitingTime="7.00" waitingCount="1" stopTime="0.00" timeLoss="35.79" rerouteNo="0" devices="tripinfo_flow_0.20" vType="DEFAULT_VEHTYPE" speedFactor="1.02" vaporized=""/>
    <tripinfo id="flow_0.14" depart="51.00" departLane="start_0" departPos="5.10" departSpeed="13.77" departDelay="0.60" arrival="157.00" arrivalLane="end_0" arrivalPos="115.32" arrivalSpeed="13.30" duration="106.00" routeLength="996.05" waitingTime="12.00" waitingCount="1" stopTime="0.00" timeLoss="29.77" rerouteNo="0" devices="tripinfo_flow_0.14" vType="DEFAULT_VEHTYPE" speedFactor="0.99" vaporized=""/>
    <tripinfo id="flow_0.18" depart="65.00" departLane="start_0" departPos="5.10" departSpeed="13.00" departDelay="0.20" arrival="159.00" arrivalLane="end_0" arrivalPos="115.32" arrivalSpeed="12.60" duration="94.00" routeLength="996.05" waitingTime="0.00" waitingCount="0" stopTime="0.00" timeLoss="13.49" rerouteNo="0" devices="tripinfo_flow_0.18" vType="DEFAULT_VEHTYPE" speedFactor="0.94" vaporized=""/>
    <tripinfo id="flow_0.21" depart="76.00" departLane="start_0" departPos="5.10" departSpeed="14.03" departDelay="0.40" arrival="162.00" arrivalLane="end_0" arrivalPos="115.32" arrivalSpeed="13.49" duration="86.00" routeLength="996.05" waitingTime="0.00" waitingCount="0" stopTime="0.00" timeLoss="10.73" rerouteNo="0" devices="tripinfo_flow_0.21" vType="DEFAULT_VEHTYPE" speedFactor="1.01" vaporized=""/>
    <tripinfo id="flow_0.17" depart="62.00" departLane="start_1" departPos="5.10" departSpeed="13.08" departDelay="0.80" arrival="178.00" arrivalLane="end_1" arrivalPos="115.32" arrivalSpeed="12.69" duration="116.00" routeLength="995.93" waitingTime="16.00" waitingCount="1" stopTime="0.00" timeLoss="34.85" rerouteNo="0" devices="tripinfo_flow_0.17" vType="DEFAULT_VEHTYPE" speedFactor="0.94" vaporized=""/>
    <tripinfo id="flow_0.19" depart="69.00" departLane="start_1" departPos="5.10" departSpeed="16.09" departDelay="0.60" arrival="180.00" arrivalLane="end_1" arrivalPos="115.32" arrivalSpeed="14.93" duration="111.00" routeLength="995.93" waitingTime="12.00" waitingCount="1" stopTime="0.00" timeLoss="44.35" rerouteNo="0" devices="tripinfo_flow_0.19" vType="DEFAULT_VEHTYPE" speedFactor="1.16" vaporized=""/>
    <tripinfo id="flow_0.23" depart="83.00" departLane="start_1" departPos="5.10" departSpeed="12.36" departDelay="0.20" arrival="187.00" arrivalLane="end_1" arrivalPos="115.32" arrivalSpeed="12.30" duration="104.00" routeLength="995.93" waitingTime="0.00" waitingCount="0" stopTime="0.00" timeLoss="18.41" rerouteNo="0" devices="tripinfo_flow_0.23" vType="DEFAULT_VEHTYPE" speedFactor="0.89" vaporized=""/>
    <tripinfo id="flow_0.24" depart="87.00" departLane="start_1" departPos="5.10" departSpeed="11.47" departDelay="0.60" arrival="195.00" arrivalLane="end_1" arrivalPos="115.32" arrivalSpeed="10.53" duration="108.00" routeLength="995.93" waitingTime="0.00" waitingCount="0" stopTime="0.00" timeLoss="14.89" rerouteNo="0" devices="tripinfo_flow_0.24" vType="DEFAULT_VEHTYPE" speedFactor="0.83" vaporized=""/>
    <tripinfo id="flow_0.22" depart="80.00" departLane="start_0" departPos="5.10" departSpeed="13.54" departDelay="0.80" arrival="197.00" arrivalLane="end_0" arrivalPos="115.32" arrivalSpeed="12.66" duration="117.00" routeLength="996.05" waitingTime="19.00" waitingCount="1" stopTime="0.00" timeLoss="39.29" rerouteNo="0" devices="tripinfo_flow_0.22" vType="DEFAULT_VEHTYPE" speedFactor="0.97" vaporized=""/>
    <tripinfo id="flow_0.25" depart="90.00" departLane="start_1" departPos="5.10" departSpeed="12.12" departDelay="0.00" arrival="197.00" arrivalLane="end_1" arrivalPos="115.32" arrivalSpeed="11.05" duration="107.00" routeLength="995.93" waitingTime="0.00" waitingCount="0" stopTime="0.00" timeLoss="18.77" rerouteNo="0" devices="tripinfo_flow_0.25" vType="DEFAULT_VEHTYPE" speedFactor="0.87" vaporized=""/>
    <tripinfo id="flow_0.26" depart="94.00" departLane="start_1" departPos="5.10" departSpeed="12.74" departDelay="0.40" arrival="198.00" arrivalLane="end_1" arrivalPos="115.32" arrivalSpeed="12.05" duration="104.00" routeLength="995.93" waitingTime="0.00" waitingCount="0" stopTime="0.00" timeLoss="20.77" rerouteNo="0" devices="tripinfo_flow_0.26" vType="DEFAULT_VEHTYPE" speedFactor="0.92" vaporized=""/>
    <tripinfo id="flow_0.27" depart="98.00" departLane="start_0" departPos="5.10" departSpeed="13.18" departDelay="0.80" arrival="199.00" arrivalLane="end_0" arrivalPos="115.32" arrivalSpeed="12.05" duration="101.00" routeLength="996.05" waitingTime="4.00" waitingCount="1" stopTime="0.00" timeLoss="21.39" rerouteNo="0" devices="tripinfo_flow_0.27" vType="DEFAULT_VEHTYPE" speedFactor="0.95" vaporized=""/>
    <tripinfo id="flow_0.29" depart="105.00" departLane="start_1" departPos="5.10" departSpeed="12.94" departDelay="0.60" arrival="201.00" arrivalLane="end_0" arrivalPos="115.32" arrivalSpeed="12.03" duration="96.00" routeLength="1028.10" waitingTime="20.00" waitingCount="1" stopTime="0.00" timeLoss="42.58" rerouteNo="0" devices="tripinfo_flow_0.29" vType="DEFAULT_VEHTYPE" speedFactor="0.93" vaporized=""/>
    <tripinfo id="flow_0.30" depart="108.00" departLane="start_1" departPos="5.10" departSpeed="16.37" departDelay="0.00" arrival="202.00" arrivalLane="end_0" arrivalPos="115.32" arrivalSpeed="15.68" duration="94.00" routeLength="1028.10" waitingTime="20.00" waitingCount="1" stopTime="0.00" timeLoss="52.76" rerouteNo="0" devices="tripinfo_flow_0.30" vType="DEFAULT_VEHTYPE" speedFactor="1.18" vaporized=""/>
    <tripinfo id="flow_0.33" depart="119.00" departLane="start_1" departPos="5.10" departSpeed="16.28" departDelay="0.20" arrival="204.00" arrivalLane="end_0" arrivalPos="115.32" arrivalSpeed="15.20" duration="85.00" routeLength="1028.10" waitingTime="12.00" waitingCount="1" stopTime="0.00" timeLoss="43.51" rerouteNo="0" devices="tripinfo_flow_0.33" vType="DEFAULT_VEHTYPE" speedFactor="1.17" vaporized=""/>
    <tripinfo id="flow_0.35" depart="126.00" departLane="start_1" departPos="5.10" departSpeed="14.16" departDelay="0.00" arrival="206.00" arrivalLane="end_0" arrivalPos="115.32" arrivalSpeed="14.01" duration="80.00" routeLength="1028.10" waitingTime="9.00" waitingCount="1" stopTime="0.00" timeLoss="31.93" rerouteNo="0" devices="tripinfo_flow_0.35" vType="DEFAULT_VEHTYPE" speedFactor="1.02" vaporized=""/>
    <tripinfo id="flow_0.38" depart="137.00" departLane="start_1" departPos="5.10" departSpeed="15.31" departDelay="0.20" arrival="208.00" arrivalLane="end_0" arrivalPos="115.32" arrivalSpeed="14.64" duration="71.00" routeLength="1028.10" waitingTime="1.00" waitingCount="1" stopTime="0.00" timeLoss="26.55" rerouteNo="0" devices="tripinfo_flow_0.38" vType="DEFAULT_VEHTYPE" speedFactor="1.10" vaporized=""/>
    <tripinfo id="flow_0.39" depart="141.00" departLane="start_1" departPos="5.10" departSpeed="12.51" departDelay="0.60" arrival="214.00" arrivalLane="end_0" arrivalPos="115.32" arrivalSpeed="12.35" duration="73.00" routeLength="1028.10" waitingTime="0.00" waitingCount="0" stopTime="0.00" timeLoss="19.51" rerouteNo="0" devices="tripinfo_flow_0.39" vType="DEFAULT_VEHTYPE" speedFactor="0.90" vaporized=""/>
    <tripinfo id="flow_0.32" depart="116.00" departLane="start_1" departPos="5.10" departSpeed="13.96" departDelay="0.80" arrival="226.00" arrivalLane="end_1" arrivalPos="115.32" arrivalSpeed="12.86" duration="110.00" routeLength="995.93" waitingTime="14.00" waitingCount="1" stopTime="0.00" timeLoss="33.28" rerouteNo="0" devices="tripinfo_flow_0.32" vType="DEFAULT_VEHTYPE" speedFactor="1.01" vaporized=""/>
    <tripinfo id="flow_0.34" depart="123.00" departLane="start_1" departPos="5.10" departSpeed="13.82" departDelay="0.60" arrival="229.00" arrivalLane="end_1" arrivalPos="115.32" arrivalSpeed="12.57" duration="106.00" routeLength="995.93" waitingTime="10.00" waitingCount="1" stopTime="0.00" timeLoss="29.62" rerouteNo="0" devices="tripinfo_flow_0.34" vType="DEFAULT_VEHTYPE" speedFactor="0.99" vaporized=""/>
    <tripinfo id="flow_0.36" depart="130.00" departLane="start_1" departPos="5.10" departSpeed="13.52" departDelay="0.40" arrival="235.00" arrivalLane="end_1" arrivalPos="115.32" arrivalSpeed="12.64" duration="105.00" routeLength="995.93" waitingTime="5.00" waitingCount="1" stopTime="0.00" timeLoss="26.04" rerouteNo="0" devices="tripinfo_flow_0.36" vType="DEFAULT_VEHTYPE" speedFactor="0.97" vaporized=""/>
    <tripinfo id="flow_0.28" depart="101.00" departLane="start_0" departPos="5.10" departSpeed="15.72" departDelay="0.20" arrival="247.00" arrivalLane="end_0" arrivalPos="115.32" arrivalSpeed="15.11" duration="146.00" routeLength="996.05" waitingTime="48.00" waitingCount="2" stopTime="0.00" timeLoss="79.32" rerouteNo="0" devices="tripinfo_flow_0.28" vType="DEFAULT_VEHTYPE" speedFactor="1.13" vaporized=""/>
    <tripinfo id="flow_0.31" depart="112.00" departLane="start_0" departPos="5.10" departSpeed="16.03" departDelay="0.40" arrival="249.00" arrivalLane="end_0" arrivalPos="115.32" arrivalSpeed="15.77" duration="137.00" routeLength="996.05" waitingTime="46.00" waitingCount="2" stopTime="0.00" timeLoss="71.33" rerouteNo="0" devices="tripinfo_flow_0.31" vType="DEFAULT_VEHTYPE" speedFactor="1.15" vaporized=""/>
    <tripinfo id="flow_0.37" depart="134.00" departLane="start_0" departPos="5.10" departSpeed="16.39" departDelay="0.80" arrival="251.00" arrivalLane="end_0" arrivalPos="115.32" arrivalSpeed="15.54" duration="117.00" routeLength="996.05" waitingTime="27.00" waitingCount="2" stopTime="0.00" timeLoss="52.27" rerouteNo="0" devices="tripinfo_flow_0.37" vType="DEFAULT_VEHTYPE" speedFactor="1.18" vaporized=""/>
    <tripinfo id="flow_0.40" depart="144.00" departLane="start_0" departPos="5.10" departSpeed="14.31" departDelay="0.00" arrival="254.00" arrivalLane="end_0" arrivalPos="115.32" arrivalSpeed="13.87" duration="110.00" routeLength="996.05" waitingTime="15.00" waitingCount="1" stopTime="0.00" timeLoss="35.90" rerouteNo="0" devices="tripinfo_flow_0.40" vType="DEFAULT_VEHTYPE" speedFactor="1.03" vaporized=""/>
    <tripinfo id="flow_0.45" depart="162.00" departLane="start_0" departPos="5.10" departSpeed="15.11" departDelay="0.00" arrival="255.00" arrivalLane="end_0" arrivalPos="115.32" arrivalSpeed="14.37" duration="93.00" routeLength="996.05" waitingTime="5.00" waitingCount="1" stopTime="0.00" timeLoss="23.73" rerouteNo="0" devices="tripinfo_flow_0.45" vType="DEFAULT_VEHTYPE" speedFactor="1.09" vaporized=""/>
    <tripinfo id="flow_0.42" depart="152.00" departLane="start_1" departPos="5.10" departSpeed="15.17" departDelay="0.80" arrival="257.00" arrivalLane="end_0" arrivalPos="115.32" arrivalSpeed="14.06" duration="105.00" routeLength="1028.10" waitingTime="28.00" waitingCount="1" stopTime="0.00" timeLoss="59.85" rerouteNo="0" devices="tripinfo_flow_0.42" vType="DEFAULT_VEHTYPE" speedFactor="1.09" vaporized=""/>
    <tripinfo id="flow_0.43" depart="155.00" departLane="start_1" departPos="5.10" departSpeed="14.42" departDelay="0.20" arrival="259.00" arrivalLane="end_0" arrivalPos="115.32" arrivalSpeed="14.05" duration="104.00" routeLength="1028.10" waitingTime="27.00" waitingCount="1" stopTime="0.00" timeLoss="57.01" rerouteNo="0" devices="tripinfo_flow_0.43" vType="DEFAULT_VEHTYPE" speedFactor="1.04" vaporized=""/>
    <tripinfo id="flow_0.44" depart="159.00" departLane="start_1" departPos="5.10" departSpeed="14.49" departDelay="0.60" arrival="260.00" arrivalLane="end_0" arrivalPos="115.32" arrivalSpeed="14.34" duration="101.00" routeLength="1028.10" waitingTime="24.00" waitingCount="1" stopTime="0.00" timeLoss="54.64" rerouteNo="0" devices="tripinfo_flow_0.44" vType="DEFAULT_VEHTYPE" speedFactor="1.04" vaporized=""/>
    <tripinfo id="flow_0.46" depart="166.00" departLane="start_1" departPos="5.10" departSpeed="13.85" departDelay="0.40" arrival="262.00" arrivalLane="end_0" arrivalPos="115.32" arrivalSpeed="13.74" duration="96.00" routeLength="1028.10" waitingTime="18.00" waitingCount="1" stopTime="0.00" timeLoss="47.68" rerouteNo="0" devices="tripinfo_flow_0.46" vType="DEFAULT_VEHTYPE" speedFactor="1.00" vaporized=""/>
    <tripinfo id="flow_0.48" depart="173.00" departLane="start_1" departPos="5.10" departSpeed="12.18" departDelay="0.20" arrival="266.00" arrivalLane="end_0" arrivalPos="115.32" arrivalSpeed="11.51" duration="93.00" routeLength="1028.10" waitingTime="11.00" waitingCount="1" stopTime="0.00" timeLoss="37.88" rerouteNo="0" devices="tripinfo_flow_0.48" vType="DEFAULT_VEHTYPE" speedFactor="0.88" vaporized=""/>
    <tripinfo id="flow_0.51" depart="184.00" departLane="start_0" departPos="5.10" departSpeed="16.24" departDelay="0.40" arrival="267.00" arrivalLane="end_0" arrivalPos="115.32" arrivalSpeed="14.86" duration="83.00" routeLength="996.05" waitingTime="0.00" waitingCount="0" stopTime="0.00" timeLoss="18.60" rerouteNo="0" devices="tripinfo_flow_0.51" vType="DEFAULT_VEHTYPE" speedFactor="1.17" vaporized=""/>
    <tripinfo id="flow_0.41" depart="148.00" departLane="start_1" departPos="5.10" departSpeed="13.29" departDelay="0.40" arrival="275.00" arrivalLane="end_1" arrivalPos="115.32" arrivalSpeed="12.20" duration="127.00" routeLength="995.93" waitingTime="28.00" waitingCount="1" stopTime="0.00" timeLoss="46.43" rerouteNo="0" devices="tripinfo_flow_0.41" vType="DEFAULT_VEHTYPE" speedFactor="0.96" vaporized=""/>
    <tripinfo id="flow_0.47" depart="170.00" departLane="start_1" departPos="5.10" departSpeed="12.51" departDelay="0.80" arrival="290.00" arrivalLane="end_1" arrivalPos="115.32" arrivalSpeed="12.06" duration="120.00" routeLength="995.93" waitingTime="15.00" waitingCount="1" stopTime="0.00" timeLoss="35.40" rerouteNo="0" devices="tripinfo_flow_0.47" vType="DEFAULT_VEHTYPE" speedFactor="0.90" vaporized=""/>
    <tripinfo id="flow_0.49" depart="177.00" departLane="start_1" departPos="5.10" departSpeed="11.81" departDelay="0.60" arrival="300.00" arrivalLane="end_1" arrivalPos="115.32" arrivalSpeed="11.19" duration="123.00" routeLength="995.93" waitingTime="10.00" waitingCount="1" stopTime="0.00" timeLoss="32.63" rerouteNo="0" devices="tripinfo_flow_0.49" vType="DEFAULT_VEHTYPE" speedFactor="0.85" vaporized=""/>
    <tripinfo id="flow_0.55" depart="198.00" departLane="start_0" departPos="5.10" departSpeed="13.83" departDelay="0.00" arrival="300.00" arrivalLane="end_0" arrivalPos="115.32" arrivalSpeed="13.39" duration="102.00" routeLength="996.05" waitingTime="7.00" waitingCount="1" stopTime="0.00" timeLoss="25.86" rerouteNo="0" devices="tripinfo_flow_0.55" vType="DEFAULT_VEHTYPE" speedFactor="1.00" vaporized=""/>
    <tripinfo id="flow_0.50" depart="180.00" departLane="start_1" departPos="5.10" departSpeed="11.87" departDelay="0.00" arrival="302.00" arrivalLane="end_1" arrivalPos="115.32" arrivalSpeed="11.01" duration="122.00" routeLength="995.93" waitingTime="7.00" waitingCount="1" stopTime="0.00" timeLoss="32.03" rerouteNo="0" devices="tripinfo_flow_0.50" vType="DEFAULT_VEHTYPE" speedFactor="0.85" vaporized=""/>
    <tripinfo id="flow_0.56" depart="202.00" departLane="start_0" departPos="5.10" departSpeed="12.49" departDelay="0.40" arrival="303.00" arrivalLane="end_0" arrivalPos="115.32" arrivalSpeed="11.96" duration="101.00" routeLength="996.05" waitingTime="0.00" waitingCount="0" stopTime="0.00" timeLoss="16.74" rerouteNo="0" devices="tripinfo_flow_0.56" vType="DEFAULT_VEHTYPE" speedFactor="0.90" vaporized=""/>
    <tripinfo id="flow_0.57" depart="206.00" departLane="start_0" departPos="5.10" departSpeed="15.87" departDelay="0.80" arrival="304.00" arrivalLane="end_0" arrivalPos="115.32" arrivalSpeed="13.36" duration="98.00" routeLength="996.05" waitingTime="0.00" waitingCount="0" stopTime="0.00" timeLoss="32.14" rerouteNo="0" devices="tripinfo_flow_0.57" vType="DEFAULT_VEHTYPE" speedFactor="1.14" vaporized=""/>
    <tripinfo id="flow_0.58" depart="209.00" departLane="start_1" departPos="5.10" departSpeed="14.22" departDelay="0.20" arrival="306.00" arrivalLane="end_0" arrivalPos="115.32" arrivalSpeed="13.40" duration="97.00" routeLength="1028.10" waitingTime="27.00" waitingCount="1" stopTime="0.00" timeLoss="49.16" rerouteNo="0" devices="tripinfo_flow_0.58" vType="DEFAULT_VEHTYPE" speedFactor="1.02" vaporized=""/>
    <tripinfo id="flow_0.60" depart="216.00" departLane="start_1" departPos="5.10" departSpeed="15.04" departDelay="0.00" arrival="308.00" arrivalLane="end_0" arrivalPos="115.32" arrivalSpeed="14.93" duration="92.00" routeLength="1028.10" waitingTime="22.00" waitingCount="1" stopTime="0.00" timeLoss="48.02" rerouteNo="0" devices="tripinfo_flow_0.60" vType="DEFAULT_VEHTYPE" speedFactor="1.08" vaporized=""/>
    <tripinfo id="flow_0.62" depart="224.00" departLane="start_1" departPos="5.10" departSpeed="14.11" departDelay="0.80" arrival="313.00" arrivalLane="end_0" arrivalPos="115.32" arrivalSpeed="13.15" duration="89.00" routeLength="1028.10" waitingTime="17.00" waitingCount="1" stopTime="0.00" timeLoss="41.28" rerouteNo="0" devices="tripinfo_flow_0.62" vType="DEFAULT_VEHTYPE" speedFactor="1.02" vaporized=""/>
    <tripinfo id="flow_0.63" depart="227.00" departLane="start_1" departPos="5.10" departSpeed="13.71" departDelay="0.20" arrival="316.00" arrivalLane="end_0" arrivalPos="115.32" arrivalSpeed="13.54" duration="89.00" routeLength="1028.10" waitingTime="14.00" waitingCount="1" stopTime="0.00" timeLoss="39.46" rerouteNo="0" devices="tripinfo_flow_0.63" vType="DEFAULT_VEHTYPE" speedFactor="0.99" vaporized=""/>
    <tripinfo id="flow_0.52" depart="188.00" departLane="start_1" departPos="5.10" departSpeed="14.12" departDelay="0.80" arrival="323.00" arrivalLane="end_1" arrivalPos="115.32" arrivalSpeed="13.70" duration="135.00" routeLength="995.93" waitingTime="32.00" waitingCount="2" stopTime="0.00" timeLoss="60.06" rerouteNo="0" devices="tripinfo_flow_0.52" vType="DEFAULT_VEHTYPE" speedFactor="1.02" vaporized=""/>
    <tripinfo id="flow_0.53" depart="191.00" departLane="start_1" departPos="5.10" departSpeed="15.22" departDelay="0.20" arrival="325.00" arrivalLane="end_1" arrivalPos="115.32" arrivalSpeed="15.04" duration="134.00" routeLength="995.93" waitingTime="29.00" waitingCount="2" stopTime="0.00" timeLoss="63.93" rerouteNo="0" devices="tripinfo_flow_0.53" vType="DEFAULT_VEHTYPE" speedFactor="1.10" vaporized=""/>
    <tripinfo id="flow_0.54" depart="195.00" departLane="start_1" departPos="5.10" departSpeed="13.93" departDelay="0.60" arrival="330.00" arrivalLane="end_1" arrivalPos="115.32" arrivalSpeed="12.73" duration="135.00" routeLength="995.93" waitingTime="28.00" waitingCount="1" stopTime="0.00" timeLoss="58.08" rerouteNo="0" devices="tripinfo_flow_0.54" vType="DEFAULT_VEHTYPE" speedFactor="1.00" vaporized=""/>
    <tripinfo id="flow_0.59" depart="213.00" departLane="start_1" departPos="5.10" departSpeed="13.47" departDelay="0.60" arrival="336.00" arrivalLane="end_1" arrivalPos="115.32" arrivalSpeed="12.68" duration="123.00" routeLength="995.93" waitingTime="23.00" waitingCount="1" stopTime="0.00" timeLoss="43.79" rerouteNo="0" devices="tripinfo_flow_0.59" vType="DEFAULT_VEHTYPE" speedFactor="0.97" vaporized=""/>
    <tripinfo id="flow_0.61" depart="220.00" departLane="start_1" departPos="5.10" departSpeed="15.55" departDelay="0.40" arrival="338.00" arrivalLane="end_1" arrivalPos="115.32" arrivalSpeed="14.68" duration="118.00" routeLength="995.93" waitingTime="20.00" waitingCount="1" stopTime="0.00" timeLoss="49.25" rerouteNo="0" devices="tripinfo_flow_0.61" vType="DEFAULT_VEHTYPE" speedFactor="1.12" vaporized=""/>
    <tripinfo id="flow_0.65" depart="234.00" departLane="start_0" departPos="5.10" departSpeed="12.26" departDelay="0.00" arrival="354.00" arrivalLane="end_0" arrivalPos="115.32" arrivalSpeed="11.67" duration="120.00" routeLength="996.05" waitingTime="16.00" waitingCount="1" stopTime="0.00" timeLoss="33.91" rerouteNo="0" devices="tripinfo_flow_0.65" vType="DEFAULT_VEHTYPE" speedFactor="0.88" vaporized=""/>
    <tripinfo id="flow_0.70" depart="252.00" departLane="start_0" departPos="5.10" departSpeed="14.21" departDelay="0.00" arrival="355.00" arrivalLane="end_0" arrivalPos="115.32" arrivalSpeed="13.90" duration="103.00" routeLength="996.05" waitingTime="11.00" waitingCount="1" stopTime="0.00" timeLoss="28.98" rerouteNo="0" devices="tripinfo_flow_0.70" vType="DEFAULT_VEHTYPE" speedFactor="1.02" vaporized=""/>
    <tripinfo id="flow_0.71" depart="256.00" departLane="start_0" departPos="5.10" departSpeed="13.51" departDelay="0.40" arrival="357.00" arrivalLane="end_0" arrivalPos="115.32" arrivalSpeed="12.47" duration="101.00" routeLength="996.05" waitingTime="4.00" waitingCount="1" stopTime="0.00" timeLoss="23.34" rerouteNo="0" devices="tripinfo_flow_0.71" vType="DEFAULT_VEHTYPE" speedFactor="0.97" vaporized=""/>
    <tripinfo id="flow_0.64" depart="231.00" departLane="start_1" departPos="5.10" departSpeed="13.02" departDelay="0.60" arrival="359.00" arrivalLane="end_0" arrivalPos="115.32" arrivalSpeed="12.62" duration="128.00" routeLength="1028.10" waitingTime="40.00" waitingCount="2" stopTime="0.00" timeLoss="75.95" rerouteNo="0" devices="tripinfo_flow_0.64" vType="DEFAULT_VEHTYPE" speedFactor="0.94" vaporized=""/>
    <tripinfo id="flow_0.67" depart="242.00" departLane="start_1" departPos="5.10" departSpeed="12.70" departDelay="0.80" arrival="361.00" arrivalLane="end_0" arrivalPos="115.32" arrivalSpeed="12.69" duration="119.00" routeLength="1028.10" waitingTime="29.00" waitingCount="2" stopTime="0.00" timeLoss="65.75" rerouteNo="0" devices="tripinfo_flow_0.67" vType="DEFAULT_VEHTYPE" speedFactor="0.91" vaporized=""/>