<?xml version="1.0" encoding="UTF-8"?>

<!-- generated on 2026-04-09T16:38:03.112067+01:00 by Eclipse SUMO sumo v1_26_0+1034-8d7c6592743
<sumoConfiguration xmlns:xsi="http://www.w3.org/2001/XMLSchema-instance" xsi:noNamespaceSchemaLocation="http://sumo.dlr.de/xsd/sumoConfiguration.xsd">

    <input>
        <net-file value="net.net.xml"/>
        <route-files value="input_trips.trips.xml"/>
    </input>

    <output>
        <vehroute-output value="vehroutes.xml"/>
        <vehroute-output.cost value="true"/>
    </output>

    <routing>
        <device.rerouting.period value="120"/>
        <device.rerouting.adaptation-steps value="60"/>
        <device.rerouting.adaptation-interval value="3"/>
        <device.rerouting.threshold.constant value="10"/>
    </routing>

    <report>
        <duration-log.statistics value="true"/>
        <no-step-log value="true"/>
    </report>

    <mesoscopic>
        <mesosim value="true"/>
    </mesoscopic>

</sumoConfiguration>
-->

<routes xmlns:xsi="http://www.w3.org/2001/XMLSchema-instance" xsi:noNamespaceSchemaLocation="http://sumo.dlr.de/xsd/routes_file.xsd">
    <vehicle id="10" depart="40.00" arrival="202.00">
        <route cost="182.48" savings="0.00" edges="-1784 1784 -1892 -829 833 2386 -2370 1903 2058 2438"/>
    </vehicle>

    <vehicle id="6" depart="24.00" arrival="222.00">
        <route cost="217.78" savings="0.00" edges="-2669 -1780 -1627 -814 -658 -278 -262 264 493 1338 1575 1623"/>
    </vehicle>

    <vehicle id="17" depart="68.00" arrival="228.00">
        <route cost="159.45" savings="0.00" edges="-1892 -829 833 2386 -2370 1903 2058"/>
    </vehicle>

    <vehicle id="2" depart="8.00" arrival="245.00">
        <route cost="246.01" savings="0.00" edges="-21 5 222 240 254 278 652 662 833 2386 -2370 1903"/>
    </vehicle>

    <vehicle id="4" depart="16.00" arrival="260.00">
        <route cost="265.99" savings="0.00" edges="-222 222 240 254 278 652 662 833 2386 -2370 1903 2058 2438"/>
    </vehicle>

    <vehicle id="13" depart="52.00" arrival="260.00">
        <route cost="241.97" savings="0.00" edges="-2440 -2438 -2058 2066 -2175 -1605 1611 -1613 -1575 -1314 1312 1342"/>
    </vehicle>

    <vehicle id="11" depart="44.00" arrival="265.00">
        <route cost="217.56" savings="0.00" edges="-1780 1784 -1892 -829 833 2386 -2370 1903 2072 -2440"/>
    </vehicle>

    <vehicle id="0" depart="0.00" arrival="268.00">
        <route cost="303.49" savings="0.00" edges="1617 -1617 -1575 -1338 -493 -264 -250 -232 -222 36 1329 -1458"/>
    </vehicle>

    <vehicle id="3" depart="12.00" arrival="282.00">
        <route cost="306.72" savings="0.00" edges="-1586 -1454 -833 -662 -652 -278 -254 -240 -228 -197 205 320 -320"/>
    </vehicle>

    <vehicle id="19" depart="76.00" arrival="308.00">
        <route cost="274.06" savings="0.00" edges="-51 45 -3 5 222 240 254 278 652 662 833 1454 1586 2427"/>
    </vehicle>

    <vehicle id="16" depart="64.00" arrival="309.00">
        <route cost="246.28" savings="0.00" edges="-2472 -1782 1784 -1892 -829 833 2386 -2370 2319 2321 2365 -2405"/>
    </vehicle>

    <vehicle id="18" depart="72.00" arrival="319.00">
        <route cost="262.49" savings="0.00" edges="2450 -2450 -2072 2066 -2175 -1605 1611 -1613 1623 1917 2196"/>
    </vehicle>

    <vehicle id="35" depart="140.00" arrival="325.00">
        <route cost="199.23" savings="0.00" edges="-814 -658 -278 -254 -240 -228 -197 205 320"/>
    </vehicle>

    <vehicle id="21" depart="84.00" arrival="327.00">
        <route cost="251.66" savings="0.00" edges="240 254 278 652 662 833 2386 -2370 1903 2072 -2440"/>
    </vehicle>

    <vehicle id="22" depart="88.00" arrival="327.00">
        <route cost="250.54" savings="0.00" edges="212 -205 197 228 240 254 278 658 814 1627 1782 2472"/>
    </vehicle>

    <vehicle id="12" depart="48.00" arrival="329.00">
        <route cost="307.63" savings="0.00" edges="-2688 -2442 -2438 -2058 -1903 2370 -2386 -833 -662 -652 658 828 1941 -2436 2436"/>
    </vehicle>

    <vehicle id="1" depart="4.00" arrival="333.00">
        <route cost="340.02" savings="0.00" edges="-2614 2588 -2454 -2411 -2386 -833 -662 -652 -278 -254 -240 -222 -5 9 802 951"/>
    </vehicle>

    <vehicle id="31" depart="124.00" arrival="341.00">
        <route cost="265.15" savings="0.00" edges="-1617 -1575 -1338 -493 -264 -250 -232 -222 -5 9 39 47 -47"/>
    </vehicle>

    <vehicle id="28" depart="112.00" arrival="344.00">
        <route cost="257.19" savings="0.00" edges="1579 -1454 -833 -662 -652 -278 -254 -240 -228 -215 214"/>
    </vehicle>

    <vehicle id="9" depart="36.00" arrival="351.00">
        <route cost="330.19" savings="0.00" edges="-2335 -2194 -2187 2188 -1931 -1650 -1342 -1316 -274 -250 -232 -222 36 1329 1468"/>
    </vehicle>

    <vehicle id="27" depart="108.00" arrival="352.00">
        <route cost="266.22" savings="0.00" edges="664 -664 -652 -278 -254 -240 -222 -5 9 39 51 330"/>
    </vehicle>

    <vehicle id="14" depart="56.00" arrival="356.00">
        <route cost="291.29" savings="0.00" edges="-792 -51 45 -3 5 222 240 254 278 652 662 833 2386 2411"/>
    </vehicle>

    <vehicle id="36" depart="144.00" arrival="362.00">
        <route cost="227.43" savings="0.00" edges="-1887 1941 -2436 -2403 -1466 -1329 55 -47 51 330"/>
    </vehicle>

    <vehicle id="30" depart="120.00" arrival="363.00">
        <route cost="239.08" savings="0.00" edges="-1329 -36 222 240 254 278 652 662 833 2386 2411 2454"/>
    </vehicle>

    <vehicle id="44" depart="176.00" arrival="364.00">
        <route cost="208.67" savings="0.00" edges="-2194 -2187 2188 -1931 -1650 -1342 -1316 -274 262 278 658 814 1627"/>
    </vehicle>

    <vehicle id="33" depart="132.00" arrival="372.00">
        <route cost="294.15" savings="0.00" edges="-2322 2322 -2196 -1917 -1623 1613 -1611 1605 2175 -2066 2058 2438 2442"/>
    </vehicle>

    <vehicle id="37" depart="148.00" arrival="376.00">
        <route cost="238.87" savings="0.00" edges="-67 -3 5 222 240 254 278 652 662 833 2386 -2370 2319 -2183"/>
    </vehicle>

    <vehicle id="15" depart="60.00" arrival="385.00">
        <route cost="337.99" savings="0.00" edges="-39 -9 5 222 240 254 278 652 662 833 2386 2411 2454 -2588 2588"/>
    </vehicle>

    <vehicle id="51" depart="204.00" arrival="388.00">
        <route cost="223.03" savings="0.00" edges="2408 -2438 -2058 -1903 2370 -2386 -833 -662 -540 301 -264 -250"/>
    </vehicle>

    <vehicle id="32" depart="128.00" arrival="389.00">
        <route cost="272.35" savings="0.00" edges="2326 -2194 -2187 2188 -1931 -1650 -1342 -1316 -274 262 278 658 828 1941 -2436"/>
    </vehicle>

    <vehicle id="29" depart="116.00" arrival="398.00">
        <route cost="289.73" savings="0.00" edges="-339 -320 -205 197 228 240 254 278 652 662 833 2386"/>
    </vehicle>

    <vehicle id="34" depart="136.00" arrival="410.00">
        <route cost="296.06" savings="0.00" edges="2614 -2614 2588 -2454 -2411 -2386 -833 -662 -652 -278 -254 -240 -222"/>
    </vehicle>

    <vehicle id="20" depart="80.00" arrival="413.00">
        <route cost="350.61" savings="0.00" edges="-2656 2588 -2454 -2411 -2386 -833 -662 -652 -278 -254 -240 -228 -197 205 320 333"/>
    </vehicle>

    <vehicle id="42" depart="168.00" arrival="415.00">
        <route cost="268.30" savings="0.00" edges="-1579 -831 -662 -652 -278 -254 -240 -228 -197 205 320 333"/>
    </vehicle>

    <vehicle id="24" depart="96.00" arrival="419.00">
        <route cost="333.95" savings="0.00" edges="2408 -2438 -2058 -1903 2370 -2386 -833 -662 -652 -278 -254 -240 -222 -5 3"/>
    </vehicle>

    <vehicle id="39" depart="156.00" arrival="421.00">
        <route cost="269.03" savings="0.00" edges="-262 264 -301 540 662 833 2386 -2370 1903 2058 2438 2442"/>
    </vehicle>

    <vehicle id="5" depart="20.00" arrival="422.00">
        <route cost="409.58" savings="0.00" edges="212 -205 197 228 240 254 278 652 662 833 2386 -2370 1903 2058 2405"/>
    </vehicle>

    <vehicle id="43" depart="172.00" arrival="422.00">
        <route cost="279.11" savings="0.00" edges="-1649 -1613 -1575 -1338 -493 -264 -250 -232 -222 36 -36"/>
    </vehicle>

    <vehicle id="52" depart="208.00" arrival="423.00">
        <route cost="214.12" savings="0.00" edges="-1941 -828 -658 652 662 833 2386 2411 2454 -2588"/>
    </vehicle>

    <vehicle id="50" depart="200.00" arrival="425.00">
        <route cost="239.41" savings="0.00" edges="-831 833 1320 -1309 1338 1575 1623 1917 2194 -2326"/>
    </vehicle>

    <vehicle id="23" depart="92.00" arrival="428.00">
        <route cost="347.50" savings="0.00" edges="-2403 2403 2436 -1941 -828 -658 652 662 833 2386 -2370 1903 2072 -2440"/>
    </vehicle>

    <vehicle id="62" depart="248.00" arrival="431.00">
        <route cost="188.72" savings="0.00" edges="-1892 -664 -540 301 493 1338 1575 1617"/>
    </vehicle>

    <vehicle id="7" depart="28.00" arrival="432.00">
        <route cost="408.14" savings="0.00" edges="792 -937 1458 1466 2403 2436 -1941 -828 -658 652 662 833 2386 -2370 1903 2058"/>
    </vehicle>

    <vehicle id="57" depart="228.00" arrival="432.00">
        <route cost="249.78" savings="0.00" edges="2066 -2321 -2319 2370 -2386 -833 -662 -652 -278 -254 -240 -222 222"/>
    </vehicle>

    <vehicle id="56" depart="224.00" arrival="437.00">
        <route cost="215.21" savings="0.00" edges="1458 1466 2403 2436 -1941 -828 -658 652 664"/>
    </vehicle>

    <vehicle id="40" depart="160.00" arrival="443.00">
        <route cost="292.88" savings="0.00" edges="-1090 -951 -802 -9 5 222 240 254 278 652 662 833 2386 -2370 2319 2321 -2066"/>
    </vehicle>

    <vehicle id="53" depart="212.00" arrival="445.00">
        <route cost="266.06" savings="0.00" edges="-1613 -1575 -1338 -493 -264 -250 -232 -222 -5 9 39 47 -55"/>
    </vehicle>

    <vehicle id="41" depart="164.00" arrival="446.00">
        <route cost="295.54" savings="0.00" edges="-2691 -2614 2588 -2454 -2411 -2386 -833 -662 -540 301 460 481 1312 1342"/>
    </vehicle>

    <vehicle id="68" depart="272.00" arrival="451.00">
        <route cost="203.43" savings="0.00" edges="-2192 -1917 -1623 -1575 -1338 -493 -264 262 278 658 -658"/>
    </vehicle>

    <vehicle id="47" depart="188.00" arrival="452.00">
        <route cost="270.73" savings="0.00" edges="2472 -2472 -1782 1784 -1892 -829 833 2386 -2370 1903 2058 2438 2442"/>
    </vehicle>

    <vehicle id="8" depart="32.00" arrival="453.00">
        <route cost="432.05" savings="0.00" edges="214 -205 197 228 240 254 278 652 662 833 2386 2411 2454 -2588 2614 -2614"/>
    </vehicle>

    <vehicle id="60" depart="240.00" arrival="460.00">
        <route cost="247.97" savings="0.00" edges="-2196 -1917 -1623 -1575 -1338 -493 -264 262 278 658 814 1627 1780"/>
    </vehicle>

    <vehicle id="73" depart="292.00" arrival="474.00">
        <route cost="203.21" savings="0.00" edges="1935 -814 -658 -278 -262 264 493 1338 1575 1617 1667"/>
    </vehicle>

    <vehicle id="46" depart="184.00" arrival="476.00">
        <route cost="281.08" savings="0.00" edges="-1903 2370 -2386 -833 -662 -652 -278 -254 -240 -222 -5 9 802 951 1090"/>
    </vehicle>

    <vehicle id="55" depart="220.00" arrival="476.00">
        <route cost="264.98" savings="0.00" edges="2440 -2072 2066 -2175 -1605 1611 -1613 1623 1917 2196 2342"/>
    </vehicle>

    <vehicle id="25" depart="100.00" arrival="484.00">
        <route cost="400.96" savings="0.00" edges="-937 -790 -47 -39 -9 5 222 232 250 264 493 1309 1337 1605 1905"/>
    </vehicle>

    <vehicle id="71" depart="284.00" arrival="499.00">
        <route cost="227.62" savings="0.00" edges="-2194 -1917 -1623 1613 -1611 1605 2175 -2066 2058 2438 2442 2688"/>
    </vehicle>

    <vehicle id="77" depart="308.00" arrival="504.00">
        <route cost="204.02" savings="0.00" edges="2405 -2365 -2321 -2319 2370 -2386 -833 829 1892 1935 1627"/>
    </vehicle>

    <vehicle id="54" depart="216.00" arrival="505.00">
        <route cost="303.15" savings="0.00" edges="21 228 240 254 278 652 662 833 2386 -2370 1903 2058 2438 -2438"/>
    </vehicle>

    <vehicle id="58" depart="232.00" arrival="507.00">
        <route cost="285.10" savings="0.00" edges="-2411 -2386 -833 -662 -652 -278 -254 -240 -222 -5 9 39 47 -55"/>
    </vehicle>

    <vehicle id="61" depart="244.00" arrival="508.00">
        <route cost="289.08" savings="0.00" edges="228 240 254 278 652 662 833 2386 2411 2454 -2588 2614 2695"/>
    </vehicle>

    <vehicle id="38" depart="152.00" arrival="513.00">
        <route cost="357.15" savings="0.00" edges="802 -802 -9 5 222 240 254 278 652 662 833 2386 -2370 1903 2058 2438 2442 2686"/>
    </vehicle>

    <vehicle id="26" depart="104.00" arrival="514.00">
        <route cost="422.68" savings="0.00" edges="205 -205 197 228 240 254 278 652 662 833 2386 -2370 1903 2058 2438 2442 2686"/>
    </vehicle>

    <vehicle id="76" depart="304.00" arrival="516.00">
        <route cost="230.02" savings="0.00" edges="-1941 -828 -658 652 662 833 2386 -2370 2319 2321 -2321"/>
    </vehicle>

    <vehicle id="82" depart="328.00" arrival="517.00">
        <route cost="200.67" savings="0.00" edges="-662 -540 301 493 1338 1575 1623 1917 2194 2341"/>
    </vehicle>

    <vehicle id="88" depart="352.00" arrival="527.00">
        <route cost="177.59" savings="0.00" edges="-1935 -1892 -829 833 2386 -2370 1903 2058 2405"/>
    </vehicle>

    <vehicle id="63" depart="252.00" arrival="529.00">
        <route cost="287.06" savings="0.00" edges="-36 222 240 254 278 652 662 833 2386 -2370 1903 -1903"/>
    </vehicle>

    <vehicle id="45" depart="180.00" arrival="530.00">
        <route cost="361.38" savings="0.00" edges="2454 -2454 -2411 -2386 -833 -662 -652 -278 -254 -240 -222 -5 3 -45 51 792 -937"/>
    </vehicle>

    <vehicle id="81" depart="324.00" arrival="531.00">
        <route cost="220.26" savings="0.00" edges="-51 45 -3 5 222 240 254 278 652 664 -829"/>
    </vehicle>

    <vehicle id="49" depart="196.00" arrival="532.00">
        <route cost="352.49" savings="0.00" edges="1623 -1623 -1575 -1338 -493 -264 -250 -232 -222 -5 9 39 47 790 1458"/>
    </vehicle>

    <vehicle id="98" depart="392.00" arrival="536.00">
        <route cost="166.24" savings="0.00" edges="-2058 -1903 2370 -2386 -833 -662 -540 -290"/>
    </vehicle>

    <vehicle id="48" depart="192.00" arrival="540.00">
        <route cost="374.27" savings="0.00" edges="-333 -320 -205 197 228 240 254 278 652 662 833 2386 2411 2454 -2454"/>
    </vehicle>

    <vehicle id="78" depart="312.00" arrival="547.00">
        <route cost="240.14" savings="0.00" edges="1605 2183 -2319 2370 -2386 -833 -662 -652 658 828 1941 -2436 -2403"/>
    </vehicle>

    <vehicle id="87" depart="348.00" arrival="550.00">
        <route cost="220.72" savings="0.00" edges="-2691 -2614 2588 -2454 -2411 -2386 -833 -662 -652 -278"/>
    </vehicle>

    <vehicle id="69" depart="276.00" arrival="552.00">
        <route cost="284.65" savings="0.00" edges="-47 -39 -9 5 222 240 254 278 652 662 833 2386 -2370 2319 2321 -2066"/>
    </vehicle>

    <vehicle id="74" depart="296.00" arrival="553.00">
        <route cost="265.26" savings="0.00" edges="-2326 -2192 -1917 -1623 1613 -1611 1599 2370 2411 2454 -2588"/>
    </vehicle>

    <vehicle id="84" depart="336.00" arrival="561.00">
        <route cost="276.47" savings="0.00" edges="1586 -1586 -1454 -833 -662 -652 -278 -254 -240 -228 -197 205"/>
    </vehicle>

    <vehicle id="94" depart="376.00" arrival="561.00">
        <route cost="213.22" savings="0.00" edges="2438 -2438 -2058 -1903 2370 -2386 -833 -662 -652 -278 -254"/>
    </vehicle>

    <vehicle id="59" depart="236.00" arrival="566.00">
        <route cost="348.17" savings="0.00" edges="1649 -1659 -1617 -1575 -1338 -493 -264 -250 -232 -222 36 1329 -1458 -790"/>
    </vehicle>

    <vehicle id="70" depart="280.00" arrival="566.00">
        <route cost="307.67" savings="0.00" edges="1907 -1675 -1617 -1575 -1338 -493 -264 -250 -232 -222 36 1329 1466 1595"/>
    </vehicle>

    <vehicle id="90" depart="360.00" arrival="572.00">
        <route cost="233.64" savings="0.00" edges="2194 -2194 -1917 -1623 -1575 -1338 -493 -301 540 664 1892 1935"/>
    </vehicle>

    <vehicle id="80" depart="320.00" arrival="576.00">
        <route cost="267.49" savings="0.00" edges="-2175 -1605 -1337 -1320 -833 -662 -652 658 828 1943 2424"/>
    </vehicle>

    <vehicle id="67" depart="268.00" arrival="580.00">
        <route cost="326.64" savings="0.00" edges="2403 2436 -1941 -828 -658 -278 -262 264 493 1338 1575 1617 -1617"/>
    </vehicle>

    <vehicle id="72" depart="288.00" arrival="580.00">
        <route cost="298.53" savings="0.00" edges="-2440 -2438 -2058 -1903 2370 -2386 -833 -662 -652 -278 -254 -240 -222 -5"/>
    </vehicle>

    <vehicle id="95" depart="380.00" arrival="589.00">
        <route cost="237.04" savings="0.00" edges="254 -262 274 1316 1342 1650 1931 -2188 2187 2194 2333 -2333"/>
    </vehicle>

    <vehicle id="66" depart="264.00" arrival="596.00">
        <route cost="343.87" savings="0.00" edges="-2663 -2333 -2194 -2187 2188 -1931 -1650 -1342 -1316 -274 262 278 658 828 1943 2424"/>
    </vehicle>

    <vehicle id="64" depart="256.00" arrival="601.00">
        <route cost="350.26" savings="0.00" edges="-802 -9 5 222 240 254 278 652 662 833 2386 -2370 1903 2058 2438 2442 2688"/>
    </vehicle>

    <vehicle id="75" depart="300.00" arrival="605.00">
        <route cost="315.31" savings="0.00" edges="2450 2588 -2454 -2411 -2386 -833 -662 -652 -278 -254 -240 -222 -5 9 39 47"/>
    </vehicle>

    <vehicle id="93" depart="372.00" arrival="611.00">
        <route cost="243.63" savings="0.00" edges="-2669 -1780 1784 -1892 -829 833 2386 2411 2454 -2588 -2450"/>
    </vehicle>

    <vehicle id="96" depart="384.00" arrival="614.00">
        <route cost="237.97" savings="0.00" edges="-937 -790 -47 -39 -9 5 222 240 254 290 540"/>
    </vehicle>

    <vehicle id="103" depart="412.00" arrival="615.00">
        <route cost="213.54" savings="0.00" edges="-1649 -1613 -1575 -1338 -493 -264 -250 -232 -222"/>
    </vehicle>

    <vehicle id="109" depart="436.00" arrival="619.00">
        <route cost="183.47" savings="0.00" edges="-831 833 2386 -2370 2319 -2183 1905 1907"/>
    </vehicle>

    <vehicle id="83" depart="332.00" arrival="627.00">
        <route cost="304.08" savings="0.00" edges="201 215 228 240 254 278 652 662 833 2386 -2370 2319 2321"/>
    </vehicle>

    <vehicle id="91" depart="364.00" arrival="628.00">
        <route cost="267.85" savings="0.00" edges="222 240 254 278 652 662 833 2386 -2370 1903 2058 2438"/>
    </vehicle>

    <vehicle id="89" depart="356.00" arrival="629.00">
        <route cost="286.35" savings="0.00" edges="-2438 -2058 -1903 2370 -2386 -833 -662 -652 -278 -254 -240 -222 -5 3 -45"/>
    </vehicle>

    <vehicle id="99" depart="396.00" arrival="635.00">
        <route cost="257.84" savings="0.00" edges="1659 -1649 -1613 -1575 -1338 -493 -264 -250 -232 -222 -5 9"/>
    </vehicle>

    <vehicle id="65" depart="260.00" arrival="648.00">
        <route cost="400.82" savings="0.00" edges="-2688 -2442 -2438 -2058 -1903 2370 -2386 -833 -662 -652 -278 -254 -240 -228 -197 197"/>
    </vehicle>

    <vehicle id="100" depart="400.00" arrival="663.00">
        <route cost="294.84" savings="0.00" edges="21 228 240 254 278 652 662 833 2386 -2370 1903 2058 2405"/>
    </vehicle>

    <vehicle id="79" depart="316.00" arrival="668.00">
        <route cost="335.48" savings="0.00" edges="-2072 -1903 2370 -2386 -833 -662 -652 -278 -254 -240 -228 -197 205 320"/>
    </vehicle>

    <vehicle id="106" depart="424.00" arrival="671.00">
        <route cost="260.48" savings="0.00" edges="-790 -47 -39 -9 5 222 232 250 274 1316 1342 1650 1931 -2188 -1915"/>
    </vehicle>

    <vehicle id="101" depart="404.00" arrival="679.00">
        <route cost="279.28" savings="0.00" edges="1458 1466 2403 2436 -1941 -828 -658 652 662 833 1454 1586 2427"/>
    </vehicle>

    <vehicle id="115" depart="460.00" arrival="679.00">
        <route cost="219.81" savings="0.00" edges="-2365 -2321 -2319 2370 -2386 -833 -662 -652 658 828"/>
    </vehicle>

    <vehicle id="97" depart="388.00" arrival="683.00">
        <route cost="309.88" savings="0.00" edges="-1649 -1613 -1575 -1338 -493 -264 262 278 658 828 1941 -2436 -2403"/>
    </vehicle>

    <vehicle id="86" depart="344.00" arrival="685.00">
        <route cost="350.14" savings="0.00" edges="2175 -2321 -2319 2370 -2386 -833 -662 -652 -278 -254 -240 -228 -197 205 320"/>
    </vehicle>

    <vehicle id="85" depart="340.00" arrival="686.00">
        <route cost="357.00" savings="0.00" edges="-2690 -2442 -2438 -2058 -1903 2370 -2386 -833 -662 -652 -278 -254 -240 -222 -5 3 -45"/>
    </vehicle>

    <vehicle id="102" depart="408.00" arrival="692.00">
        <route cost="298.27" savings="0.00" edges="1329 -1329 -36 222 232 250 264 493 1338 1575 1617 1675 -1907"/>
    </vehicle>

    <vehicle id="108" depart="432.00" arrival="700.00">
        <route cost="299.54" savings="0.00" edges="2333 -2333 -2194 -1917 -1623 1613 -1611 1605 2175 -2066 2058 2438 2442 2686 -2691"/>
    </vehicle>

    <vehicle id="122" depart="488.00" arrival="700.00">
        <route cost="237.05" savings="0.00" edges="1675 -1675 -1617 -1575 -1338 -493 -264 -250 248"/>
    </vehicle>

    <vehicle id="117" depart="468.00" arrival="702.00">
        <route cost="246.71" savings="0.00" edges="-2427 -1586 -1454 1320 -1309 1338 1575 1623 1917 2196"/>
    </vehicle>

    <vehicle id="141" depart="564.00" arrival="705.00">
        <route cost="166.38" savings="0.00" edges="1887 -1782 1784 -1892 -829 833 2386 -2370 2319"/>
    </vehicle>

    <vehicle id="116" depart="464.00" arrival="708.00">
        <route cost="285.14" savings="0.00" edges="-1320 -833 -662 -652 -278 -254 -240 -228 -197 205 320 339"/>
    </vehicle>

    <vehicle id="125" depart="500.00" arrival="709.00">
        <route cost="264.80" savings="0.00" edges="1586 -1586 -1454 1320 -1309 1338 1575 1623 1917 2194 2333 -2333"/>
    </vehicle>

    <vehicle id="118" depart="472.00" arrival="714.00">
        <route cost="247.36" savings="0.00" edges="-1579 -831 -662 -652 -278 -254 -240 -228 -215 214"/>
    </vehicle>

    <vehicle id="119" depart="476.00" arrival="716.00">
        <route cost="270.86" savings="0.00" edges="-2669 -1780 -1627 -814 -658 -278 -262 274 1316 1342 1650 1931 -2188 2187 -1917"/>
    </vehicle>

    <vehicle id="121" depart="484.00" arrival="725.00">
        <route cost="280.86" savings="0.00" edges="2472 -2472 -1782 1784 -1892 -829 833 2386 -2370 1903 2058 2438 2442 -2442"/>
    </vehicle>

    <vehicle id="114" depart="456.00" arrival="729.00">
        <route cost="325.86" savings="0.00" edges="951 -951 -802 -9 5 222 232 250 264 493 1338 1575 1617 1675 -1675"/>
    </vehicle>

    <vehicle id="92" depart="368.00" arrival="731.00">
        <route cost="373.79" savings="0.00" edges="36 -36 222 240 254 278 652 662 833 2386 -2370 1903 2058 2438"/>
    </vehicle>

    <vehicle id="112" depart="448.00" arrival="740.00">
        <route cost="339.94" savings="0.00" edges="2614 -2614 2588 -2454 -2411 -2386 -833 -662 -652 -278 -254 -240 -222 -5 3 -45"/>
    </vehicle>

    <vehicle id="137" depart="548.00" arrival="742.00">
        <route cost="203.34" savings="0.00" edges="-2405 -2058 2066 -2175 -1605 1611 -1613 -1575 -1314 1312 -1316"/>
    </vehicle>

    <vehicle id="104" depart="416.00" arrival="745.00">
        <route cost="342.44" savings="0.00" edges="-45 -39 -9 5 222 232 250 264 493 1338 1575 1623 1917 2194 2333 2663"/>
    </vehicle>

    <vehicle id="105" depart="420.00" arrival="745.00">
        <route cost="336.21" savings="0.00" edges="-228 228 240 254 278 652 662 833 2386 -2370 1903 2072 -2072"/>
    </vehicle>

    <vehicle id="140" depart="560.00" arrival="748.00">
        <route cost="216.48" savings="0.00" edges="-2454 -2411 -2370 -1599 1611 -1613 1623 1917 2194 -2194"/>
    </vehicle>

    <vehicle id="130" depart="520.00" arrival="764.00">
        <route cost="273.90" savings="0.00" edges="1675 -1675 -1617 -1575 -1338 -493 -264 -250 -232 -222 -5 3 67"/>
    </vehicle>

    <vehicle id="107" depart="428.00" arrival="771.00">
        <route cost="366.29" savings="0.00" edges="-2442 -2438 -2058 -1903 2370 -2386 -833 -662 -652 -278 -254 -240 -222 -5 9 39 47 -55"/>
    </vehicle>

    <vehicle id="135" depart="540.00" arrival="776.00">
        <route cost="249.09" savings="0.00" edges="-1650 -1342 -1312 1314 1575 1613 -1611 1605 2175 -2066 2072 -2440"/>
    </vehicle>

    <vehicle id="138" depart="552.00" arrival="783.00">
        <route cost="240.22" savings="0.00" edges="-2192 -1917 -1623 1613 -1611 1605 2175 -2066 2058 2438 2442 -2442"/>
    </vehicle>

    <vehicle id="128" depart="512.00" arrival="784.00">
        <route cost="304.50" savings="0.00" edges="-45 -39 -9 5 222 240 254 278 652 662 833 2386 -2370 1903 2058"/>
    </vehicle>

    <vehicle id="145" depart="580.00" arrival="789.00">
        <route cost="260.98" savings="0.00" edges="-5 5 222 232 250 264 493 1309 1337 1605 1905"/>
    </vehicle>

    <vehicle id="111" depart="444.00" arrival="790.00">
        <route cost="356.69" savings="0.00" edges="-2691 -2614 2588 -2454 -2411 -2386 -833 -662 -652 658 828 1941 -2436 -2403"/>
    </vehicle>

    <vehicle id="133" depart="532.00" arrival="805.00">
        <route cost="296.70" savings="0.00" edges="215 228 240 254 278 652 662 833 2386 2411 2454 -2588 2656"/>
    </vehicle>

    <vehicle id="156" depart="624.00" arrival="811.00">
        <route cost="228.76" savings="0.00" edges="-2695 -2614 -2450 -2072 2066 -2175 1905 -1659 1667 -1911"/>
    </vehicle>

    <vehicle id="124" depart="496.00" arrival="818.00">
        <route cost="341.65" savings="0.00" edges="-2686 -2442 -2438 -2058 -1903 2370 -2386 -833 -662 -652 -278 -254 -240 -222 -5 3 -45 -39"/>
    </vehicle>

    <vehicle id="149" depart="596.00" arrival="818.00">
        <route cost="234.67" savings="0.00" edges="-205 197 228 240 254 278 652 662 833 1454"/>
    </vehicle>

    <vehicle id="136" depart="544.00" arrival="819.00">
        <route cost="286.78" savings="0.00" edges="-1090 -951 -802 -9 5 222 240 254 278 652 662 833 2386 -2370 1903"/>
    </vehicle>

    <vehicle id="120" depart="480.00" arrival="829.00">
        <route cost="361.21" savings="0.00" edges="-2438 -2058 -1903 2370 -2386 -833 -662 -652 -278 -254 -240 -222 -5 9 39 47 -55"/>
    </vehicle>

    <vehicle id="123" depart="492.00" arrival="831.00">
        <route cost="365.36" savings="0.00" edges="39 45 -3 5 222 240 254 278 652 662 833 2386 -2370 1903 2058 2438 2442 2690"/>
    </vehicle>

    <vehicle id="159" depart="636.00" arrival="838.00">
        <route cost="243.45" savings="0.00" edges="1917 -1917 -1623 1613 -1611 1605 2175 -2066 2072 2450 2614"/>
    </vehicle>

    <vehicle id="132" depart="528.00" arrival="839.00">
        <route cost="318.15" savings="0.00" edges="2411 -2411 -2386 -833 -662 -652 -278 -254 -240 -222 -5 9 39 47 768"/>
    </vehicle>

    <vehicle id="113" depart="452.00" arrival="845.00">
        <route cost="419.86" savings="0.00" edges="-339 -320 -205 197 228 240 254 278 652 662 833 2386 2411 2454 -2588 2614 2691"/>
    </vehicle>

    <vehicle id="148" depart="592.00" arrival="845.00">
        <route cost="262.49" savings="0.00" edges="-333 -330 792 -937 1458 1466 2403 2436 -1941 1887 -1887"/>
    </vehicle>

    <vehicle id="134" depart="536.00" arrival="852.00">
        <route cost="403.35" savings="0.00" edges="-212 -51 45 -3 5 222 240 254 278 652 662 833 2386 2411 2454 -2588 2614 -2614"/>
    </vehicle>

    <vehicle id="110" depart="440.00" arrival="853.00">
        <route cost="429.35" savings="0.00" edges="2691 -2686 -2442 -2438 -2058 -1903 2370 -2386 -833 -662 -652 -278 -254 -240 -228 -215 -201"/>
    </vehicle>

    <vehicle id="151" depart="604.00" arrival="854.00">
        <route cost="273.19" savings="0.00" edges="1667 -1667 -1617 -1575 -1338 -493 -264 262 278 658 828 1941 -2436"/>
    </vehicle>

    <vehicle id="155" depart="620.00" arrival="859.00">
        <route cost="280.23" savings="0.00" edges="-1466 -1329 -36 222 232 250 264 493 1338 1575 1623 1917 2194 2333"/>
    </vehicle>

    <vehicle id="127" depart="508.00" arrival="862.00">
        <route cost="365.95" savings="0.00" edges="1329 1466 2403 2436 -1941 -828 -658 652 662 833 2386 -2370 1903 2058 2438 -2438"/>
    </vehicle>

    <vehicle id="165" depart="660.00" arrival="864.00">
        <route cost="204.79" savings="0.00" edges="-2472 -1782 1784 -1892 -829 833 2386 -2370 2319 2321 -2066"/>
    </vehicle>

    <vehicle id="158" depart="632.00" arrival="869.00">
        <route cost="247.38" savings="0.00" edges="-2440 -2438 -2058 2066 -2175 -1605 1611 -1613 1623 1917 2194 -2194"/>
    </vehicle>

    <vehicle id="164" depart="656.00" arrival="869.00">
        <route cost="231.26" savings="0.00" edges="-1312 1314 1575 1613 -1611 1605 2175 -2066 2072 2450 2614"/>
    </vehicle>

    <vehicle id="168" depart="672.00" arrival="870.00">
        <route cost="180.39" savings="0.00" edges="652 662 833 2386 -2370 1903 2058 2438 -2408"/>
    </vehicle>

    <vehicle id="147" depart="588.00" arrival="876.00">
        <route cost="303.75" savings="0.00" edges="2424 2436 -1941 -828 -658 -278 -262 264 493 1338 1575 1623 1911 -1667"/>
    </vehicle>

    <vehicle id="131" depart="524.00" arrival="877.00">
        <route cost="386.17" savings="0.00" edges="792 -937 1458 1466 2403 2436 -1941 -828 -658 652 662 833 2386 2411 2454 -2588 -2450"/>
    </vehicle>

    <vehicle id="129" depart="516.00" arrival="881.00">
        <route cost="367.95" savings="0.00" edges="-2656 2588 -2454 -2411 -2386 -833 -662 -652 -278 -254 -240 -228 -197 205 320 -320"/>
    </vehicle>

    <vehicle id="146" depart="584.00" arrival="890.00">
        <route cost="313.78" savings="0.00" edges="197 228 240 254 278 652 662 833 2386 2411 2454 -2588"/>
    </vehicle>

    <vehicle id="163" depart="652.00" arrival="899.00">