<?xml version="1.0" encoding="UTF-8"?>

<!-- generated on 2026-04-27T08:32:06.382146+01:00 by Eclipse SUMO sumo v1_26_0+1394-caecdcd6687
<sumoConfiguration xmlns:xsi="http://www.w3.org/2001/XMLSchema-instance" xsi:noNamespaceSchemaLocation="http://sumo.dlr.de/xsd/sumoConfiguration.xsd">

    <input>
        <net-file value="net.net.xml"/>
        <route-files value="input_trips.trips.xml"/>
    </input>

    <output>
        <vehroute-output value="vehroutes.xml"/>
        <vehroute-output.cost value="true"/>
    </output>

    <routing>
        <routing-algorithm value="astar"/>
        <device.rerouting.period value="120"/>
        <device.rerouting.adaptation-steps value="60"/>
        <device.rerouting.adaptation-interval value="3"/>
        <device.rerouting.threshold.constant value="10"/>
    </routing>

    <report>
        <duration-log.statistics value="true"/>
        <no-step-log value="true"/>
    </report>

</sumoConfiguration>
-->

<routes xmlns:xsi="http://www.w3.org/2001/XMLSchema-instance" xsi:noNamespaceSchemaLocation="http://sumo.dlr.de/xsd/routes_file.xsd">
    <vehicle id="6" depart="24.00" arrival="359.00">
        <route cost="217.57" savings="0.00" edges="-2669 -1780 -1627 -814 -658 -278 -262 264 493 1338 1575 1623"/>
    </vehicle>

    <vehicle id="13" depart="52.00" arrival="361.00">
        <route cost="241.52" savings="0.00" edges="-2440 -2438 -2058 2066 -2175 -1605 1611 -1613 -1575 -1314 1312 1342"/>
    </vehicle>

    <vehicle id="16" depart="64.00" arrival="366.00">
        <route cost="246.28" savings="0.00" edges="-2472 -1782 1784 -1892 -829 833 2386 -2370 2319 2321 2365 -2405"/>
    </vehicle>

    <vehicle id="2" depart="8.00" arrival="370.00">
        <route cost="245.98" savings="0.00" edges="-21 5 222 240 254 278 652 662 833 2386 -2370 1903"/>
    </vehicle>

    <vehicle id="22" depart="88.00" arrival="373.00">
        <route cost="253.21" savings="0.00" edges="212 -205 197 228 240 254 278 658 814 1627 1782 2472"/>
    </vehicle>

    <vehicle id="35" depart="140.00" arrival="378.00">
        <route cost="201.28" savings="0.00" edges="-814 -658 -278 -254 -240 -228 -197 205 320"/>
    </vehicle>

    <vehicle id="17" depart="68.00" arrival="382.00">
        <route cost="159.45" savings="0.00" edges="-1892 -829 833 2386 -2370 1903 2058"/>
    </vehicle>

    <vehicle id="0" depart="0.00" arrival="396.00">
        <route cost="303.04" savings="0.00" edges="1617 -1617 -1575 -1338 -493 -264 -250 -232 -222 36 1329 -1458"/>
    </vehicle>

    <vehicle id="3" depart="12.00" arrival="400.00">
        <route cost="306.29" savings="0.00" edges="-1586 -1454 -833 -662 -652 -278 -254 -240 -228 -197 205 320 -320"/>
    </vehicle>

    <vehicle id="10" depart="40.00" arrival="407.00">
        <route cost="182.41" savings="0.00" edges="-1784 1784 -1892 -829 833 2386 -2370 1903 2058 2438"/>
    </vehicle>

    <vehicle id="4" depart="16.00" arrival="409.00">
        <route cost="265.91" savings="0.00" edges="-222 222 240 254 278 652 662 833 2386 -2370 1903 2058 2438"/>
    </vehicle>

    <vehicle id="11" depart="44.00" arrival="426.00">
        <route cost="217.49" savings="0.00" edges="-1780 1784 -1892 -829 833 2386 -2370 1903 2072 -2440"/>
    </vehicle>

    <vehicle id="19" depart="76.00" arrival="440.00">
        <route cost="274.43" savings="0.00" edges="-51 45 -3 5 222 240 254 278 652 662 833 1454 1586 2427"/>
    </vehicle>

    <vehicle id="14" depart="56.00" arrival="443.00">
        <route cost="291.29" savings="0.00" edges="-792 -51 45 -3 5 222 240 254 278 652 662 833 2386 2411"/>
    </vehicle>

    <vehicle id="31" depart="124.00" arrival="450.00">
        <route cost="265.66" savings="0.00" edges="-1617 -1575 -1338 -493 -264 -250 -232 -222 -5 9 39 47 -47"/>
    </vehicle>

    <vehicle id="30" depart="120.00" arrival="451.00">
        <route cost="239.70" savings="0.00" edges="-1329 -36 222 240 254 278 652 662 833 2386 2411 2454"/>
    </vehicle>

    <vehicle id="62" depart="248.00" arrival="452.00">
        <route cost="188.74" savings="0.00" edges="-1892 -664 -540 301 493 1338 1575 1617"/>
    </vehicle>

    <vehicle id="12" depart="48.00" arrival="463.00">
        <route cost="307.46" savings="0.00" edges="-2688 -2442 -2438 -2058 -1903 2370 -2386 -833 -662 -652 658 828 1941 -2436 2436"/>
    </vehicle>

    <vehicle id="28" depart="112.00" arrival="464.00">
        <route cost="259.27" savings="0.00" edges="1579 -1454 -833 -662 -652 -278 -254 -240 -228 -215 214"/>
    </vehicle>

    <vehicle id="1" depart="4.00" arrival="469.00">
        <route cost="340.02" savings="0.00" edges="-2614 2588 -2454 -2411 -2386 -833 -662 -652 -278 -254 -240 -222 -5 9 802 951"/>
    </vehicle>

    <vehicle id="52" depart="208.00" arrival="480.00">
        <route cost="216.12" savings="0.00" edges="-1941 -828 -658 652 662 833 2386 2411 2454 -2588"/>
    </vehicle>

    <vehicle id="9" depart="36.00" arrival="483.00">
        <route cost="330.19" savings="0.00" edges="-2335 -2194 -2187 2188 -1931 -1650 -1342 -1316 -274 -250 -232 -222 36 1329 1468"/>
    </vehicle>

    <vehicle id="37" depart="148.00" arrival="487.00">
        <route cost="241.47" savings="0.00" edges="-67 -3 5 222 240 254 278 652 662 833 2386 -2370 2319 -2183"/>
    </vehicle>

    <vehicle id="18" depart="72.00" arrival="491.00">
        <route cost="262.49" savings="0.00" edges="2450 -2450 -2072 2066 -2175 -1605 1611 -1613 1623 1917 2196"/>
    </vehicle>

    <vehicle id="29" depart="116.00" arrival="497.00">
        <route cost="289.73" savings="0.00" edges="-339 -320 -205 197 228 240 254 278 652 662 833 2386"/>
    </vehicle>

    <vehicle id="34" depart="136.00" arrival="501.00">
        <route cost="299.05" savings="0.00" edges="2614 -2614 2588 -2454 -2411 -2386 -833 -662 -652 -278 -254 -240 -222"/>
    </vehicle>

    <vehicle id="21" depart="84.00" arrival="514.00">
        <route cost="252.04" savings="0.00" edges="240 254 278 652 662 833 2386 -2370 1903 2072 -2440"/>
    </vehicle>

    <vehicle id="43" depart="172.00" arrival="518.00">
        <route cost="282.34" savings="0.00" edges="-1649 -1613 -1575 -1338 -493 -264 -250 -232 -222 36 -36"/>
    </vehicle>

    <vehicle id="24" depart="96.00" arrival="526.00">
        <route cost="333.95" savings="0.00" edges="2408 -2438 -2058 -1903 2370 -2386 -833 -662 -652 -278 -254 -240 -222 -5 3"/>
    </vehicle>

    <vehicle id="27" depart="108.00" arrival="527.00">
        <route cost="266.22" savings="0.00" edges="664 -664 -652 -278 -254 -240 -222 -5 9 39 51 330"/>
    </vehicle>

    <vehicle id="36" depart="144.00" arrival="527.00">
        <route cost="227.43" savings="0.00" edges="-1887 1941 -2436 -2403 -1466 -1329 55 -47 51 330"/>
    </vehicle>

    <vehicle id="56" depart="224.00" arrival="532.00">
        <route cost="215.21" savings="0.00" edges="1458 1466 2403 2436 -1941 -828 -658 652 664"/>
    </vehicle>

    <vehicle id="68" depart="272.00" arrival="536.00">
        <route cost="206.59" savings="0.00" edges="-2192 -2187 2188 -1931 -1650 -1342 -1316 -274 262 278 658 -658"/>
    </vehicle>

    <vehicle id="15" depart="60.00" arrival="537.00">
        <route cost="337.99" savings="0.00" edges="-39 -9 5 222 240 254 278 652 662 833 2386 2411 2454 -2588 2588"/>
    </vehicle>

    <vehicle id="44" depart="176.00" arrival="540.00">
        <route cost="210.35" savings="0.00" edges="-2194 -2187 2188 -1931 -1650 -1342 -1316 -274 262 278 658 814 1627"/>
    </vehicle>

    <vehicle id="42" depart="168.00" arrival="562.00">
        <route cost="270.93" savings="0.00" edges="-1579 -831 -662 -652 -278 -254 -240 -228 -197 205 320 333"/>
    </vehicle>

    <vehicle id="51" depart="204.00" arrival="565.00">
        <route cost="230.14" savings="0.00" edges="2408 -2438 -2058 -1903 2370 -2386 -833 -662 -540 301 -264 -250"/>
    </vehicle>

    <vehicle id="41" depart="164.00" arrival="566.00">
        <route cost="296.83" savings="0.00" edges="-2691 -2614 2588 -2454 -2411 -2386 -833 -662 -540 301 460 481 1312 1342"/>
    </vehicle>

    <vehicle id="20" depart="80.00" arrival="569.00">
        <route cost="351.17" savings="0.00" edges="-2656 2588 -2454 -2411 -2386 -833 -662 -652 -278 -254 -240 -228 -197 205 320 333"/>
    </vehicle>

    <vehicle id="46" depart="189.00" arrival="569.00">
        <route cost="286.58" savings="0.00" edges="-1903 2370 -2386 -833 -662 -652 -278 -254 -240 -222 -5 9 802 951 1090"/>
    </vehicle>

    <vehicle id="50" depart="200.00" arrival="569.00">
        <route cost="239.41" savings="0.00" edges="-831 833 1320 -1309 1338 1575 1623 1917 2194 -2326"/>
    </vehicle>

    <vehicle id="5" depart="20.00" arrival="579.00">
        <route cost="409.58" savings="0.00" edges="212 -205 197 228 240 254 278 652 662 833 2386 -2370 1903 2058 2405"/>
    </vehicle>

    <vehicle id="23" depart="92.00" arrival="585.00">
        <routeDistribution>
            <route cost="347.50" savings="0.00" replacedOnEdge="-2370" replacedOnIndex="10" reason="device.rerouting" replacedAtTime="452.00" probability="0" edges="-2403 2403 2436 -1941 -828 -658 652 662 833 2386 -2370 1903 2072 -2440"/>
            <route cost="152.87" savings="31.43" edges="-2403 2403 2436 -1941 -828 -658 652 662 833 2386 -2370 2319 2321 -2066 2072 -2440"/>
        </routeDistribution>
    </vehicle>

    <vehicle id="57" depart="228.00" arrival="592.00">
        <route cost="262.63" savings="0.00" edges="2066 -2321 -2319 2370 -2386 -833 -662 -652 -278 -254 -240 -222 222"/>
    </vehicle>

    <vehicle id="32" depart="128.00" arrival="597.00">
        <route cost="272.19" savings="0.00" edges="2326 -2194 -2187 2188 -1931 -1650 -1342 -1316 -274 262 278 658 828 1941 -2436"/>
    </vehicle>

    <vehicle id="60" depart="240.00" arrival="601.00">
        <route cost="250.72" savings="0.00" edges="-2196 -2187 2188 -1931 -1650 -1342 -1316 -274 262 278 658 814 1627 1780"/>
    </vehicle>

    <vehicle id="73" depart="292.00" arrival="603.00">
        <route cost="217.82" savings="0.00" edges="1935 -814 -658 -278 -262 264 493 1338 1575 1617 1667"/>
    </vehicle>

    <vehicle id="40" depart="160.00" arrival="608.00">
        <route cost="297.40" savings="0.00" edges="-1090 -951 -802 -9 5 222 240 254 278 652 662 833 2386 -2370 2319 2321 -2066"/>
    </vehicle>

    <vehicle id="55" depart="220.00" arrival="608.00">
        <route cost="271.99" savings="0.00" edges="2440 -2072 2066 -2175 -1605 1611 -1613 1623 1917 2196 2342"/>
    </vehicle>

    <vehicle id="33" depart="132.00" arrival="611.00">
        <route cost="293.50" savings="0.00" edges="-2322 2322 -2196 -1917 -1623 1613 -1611 1605 2175 -2066 2058 2438 2442"/>
    </vehicle>

    <vehicle id="47" depart="188.00" arrival="620.00">
        <routeDistribution>
            <route cost="272.58" savings="0.00" replacedOnEdge="-2370" replacedOnIndex="8" reason="device.rerouting" replacedAtTime="428.00" probability="0" edges="2472 -2472 -1782 1784 -1892 -829 833 2386 -2370 1903 2058 2438 2442"/>
            <route cost="150.12" savings="11.24" edges="2472 -2472 -1782 1784 -1892 -829 833 2386 -2370 2319 2321 -2066 2058 2438 2442"/>
        </routeDistribution>
    </vehicle>

    <vehicle id="76" depart="304.00" arrival="620.00">
        <route cost="243.53" savings="0.00" edges="-1941 -828 -658 652 662 833 2386 -2370 2319 2321 -2321"/>
    </vehicle>

    <vehicle id="90" depart="360.00" arrival="623.00">
        <route cost="247.90" savings="0.00" edges="2194 -2194 -2187 2188 -1931 -1625 -481 -460 -301 540 664 1892 1935"/>
    </vehicle>

    <vehicle id="88" depart="352.00" arrival="628.00">
        <routeDistribution>
            <route cost="198.22" savings="0.00" replacedOnEdge="2386" replacedOnIndex="4" reason="device.rerouting" replacedAtTime="472.00" probability="0" edges="-1935 -1892 -829 833 2386 -2370 1903 2058 2405"/>
            <route cost="112.96" savings="35.68" edges="-1935 -1892 -829 833 2386 -2370 2319 2321 -2066 2058 2405"/>
        </routeDistribution>
    </vehicle>

    <vehicle id="53" depart="212.00" arrival="637.00">
        <route cost="270.34" savings="0.00" edges="-1613 -1575 -1338 -493 -264 -250 -232 -222 -5 9 39 47 -55"/>
    </vehicle>

    <vehicle id="7" depart="28.00" arrival="642.00">
        <routeDistribution>
            <route cost="409.22" savings="0.00" replacedOnEdge="-2370" replacedOnIndex="14" reason="device.rerouting" replacedAtTime="508.00" probability="0" edges="792 -792 -51 45 -3 5 222 240 254 278 652 662 833 2386 -2370 1903 2058"/>
            <route cost="109.21" savings="26.28" edges="792 -792 -51 45 -3 5 222 240 254 278 652 662 833 2386 -2370 2319 2321 -2066 2058"/>
        </routeDistribution>
    </vehicle>

    <vehicle id="98" depart="392.00" arrival="642.00">
        <route cost="182.03" savings="0.00" edges="-2058 -1903 2370 -2386 -833 -662 -540 -290"/>
    </vehicle>

    <vehicle id="45" depart="180.00" arrival="644.00">
        <route cost="369.02" savings="0.00" edges="2454 -2454 -2411 -2386 -833 -662 -652 -278 -254 -240 -222 -5 3 -45 51 792 -937"/>
    </vehicle>

    <vehicle id="58" depart="232.00" arrival="645.00">
        <route cost="299.63" savings="0.00" edges="-2411 -2386 -833 -662 -652 -278 -254 -240 -222 -5 9 39 47 -55"/>
    </vehicle>

    <vehicle id="103" depart="412.00" arrival="647.00">
        <route cost="217.80" savings="0.00" edges="-1649 -1613 -1575 -1338 -493 -264 -250 -232 -222"/>
    </vehicle>

    <vehicle id="8" depart="32.00" arrival="648.00">
        <route cost="432.05" savings="0.00" edges="214 -205 197 228 240 254 278 652 662 833 2386 2411 2454 -2588 2614 -2614"/>
    </vehicle>

    <vehicle id="48" depart="192.00" arrival="650.00">
        <route cost="374.27" savings="0.00" edges="-333 -320 -205 197 228 240 254 278 652 662 833 2386 2411 2454 -2454"/>
    </vehicle>

    <vehicle id="84" depart="336.00" arrival="651.00">
        <route cost="300.30" savings="0.00" edges="1586 -1586 -1454 -833 -662 -540 -290 -254 -240 -222 -5 9 189 205"/>
    </vehicle>

    <vehicle id="80" depart="320.00" arrival="655.00">
        <route cost="274.29" savings="0.00" edges="-2175 -1605 -1337 -1320 -833 -662 -652 658 828 1943 2424"/>
    </vehicle>

    <vehicle id="54" depart="216.00" arrival="661.00">
        <routeDistribution>
            <route cost="310.77" savings="0.00" replacedOnEdge="662" replacedOnIndex="6" reason="device.rerouting" replacedAtTime="456.00" probability="0" edges="21 228 240 254 278 652 662 833 2386 -2370 1903 2058 2438 -2438"/>
            <route cost="175.15" savings="36.31" edges="21 228 240 254 278 652 662 833 2386 -2370 2319 2321 2365 2408 -2438"/>
        </routeDistribution>
    </vehicle>

    <vehicle id="77" depart="308.00" arrival="663.00">
        <route cost="210.37" savings="0.00" edges="2405 -2365 -2321 -2319 2370 -2386 -833 829 1892 1935 1627"/>
    </vehicle>

    <vehicle id="82" depart="328.00" arrival="671.00">
        <route cost="204.32" savings="0.00" edges="-662 -540 301 493 1338 1575 1623 1917 2194 2341"/>
    </vehicle>

    <vehicle id="94" depart="376.00" arrival="678.00">
        <route cost="237.62" savings="0.00" edges="2438 -2438 -2058 -1903 2370 -2386 -833 -662 -540 -290 -254"/>
    </vehicle>

    <vehicle id="49" depart="196.00" arrival="679.00">
        <route cost="352.49" savings="0.00" edges="1623 -1623 -1575 -1338 -493 -264 -250 -232 -222 -5 9 39 47 790 1458"/>
    </vehicle>

    <vehicle id="87" depart="348.00" arrival="679.00">
        <route cost="250.25" savings="0.00" edges="-2691 -2614 2588 -2454 -2411 -2386 -833 -662 -652 -278"/>
    </vehicle>

    <vehicle id="70" depart="280.00" arrival="686.00">
        <route cost="313.62" savings="0.00" edges="1907 -1675 -1617 -1575 -1338 -493 -264 -250 -232 -222 36 1329 1466 1595"/>
    </vehicle>

    <vehicle id="72" depart="288.00" arrival="694.00">
        <route cost="311.59" savings="0.00" edges="-2440 -2438 -2058 -1903 2370 -2386 -833 -662 -652 -278 -254 -240 -222 -5"/>
    </vehicle>

    <vehicle id="99" depart="396.00" arrival="698.00">
        <route cost="270.57" savings="0.00" edges="1659 -1649 -1613 -1575 -1338 -493 -264 -250 -232 -222 -5 9"/>
    </vehicle>

    <vehicle id="93" depart="372.00" arrival="699.00">
        <route cost="244.00" savings="0.00" edges="-2669 -1780 1784 -1892 -829 833 2386 2411 2454 -2588 -2450"/>
    </vehicle>

    <vehicle id="81" depart="324.00" arrival="700.00">
        <route cost="235.94" savings="0.00" edges="-51 45 -3 5 222 232 250 264 -301 540 664 -829"/>
    </vehicle>

    <vehicle id="96" depart="384.00" arrival="700.00">
        <route cost="254.40" savings="0.00" edges="-937 -790 -47 45 -3 5 222 232 250 264 -301 540"/>
    </vehicle>

    <vehicle id="74" depart="296.00" arrival="707.00">
        <route cost="266.99" savings="0.00" edges="-2326 -2192 -1917 -1623 1613 -1611 1599 2370 2411 2454 -2588"/>
    </vehicle>

    <vehicle id="39" depart="156.00" arrival="709.00">
        <routeDistribution>
            <route cost="269.03" savings="0.00" replacedOnEdge="-2370" replacedOnIndex="7" reason="device.rerouting" replacedAtTime="516.00" probability="0" edges="-262 264 -301 540 662 833 2386 -2370 1903 2058 2438 2442"/>
            <route cost="149.29" savings="27.11" edges="-262 264 -301 540 662 833 2386 -2370 2319 2321 -2066 2058 2438 2442"/>
        </routeDistribution>
    </vehicle>

    <vehicle id="89" depart="356.00" arrival="712.00">
        <route cost="310.54" savings="0.00" edges="-2438 -2058 -1903 2370 -2386 -833 -662 -540 -290 -254 -240 -222 -5 3 -45"/>
    </vehicle>

    <vehicle id="66" depart="264.00" arrival="715.00">
        <route cost="348.74" savings="0.00" edges="-2663 -2333 -2194 -2187 2188 -1931 -1650 -1342 -1316 -274 262 278 658 828 1943 2424"/>
    </vehicle>

    <vehicle id="61" depart="247.00" arrival="716.00">
        <route cost="299.06" savings="0.00" edges="228 232 250 264 -301 540 662 833 2386 2411 2454 -2588 2614 2695"/>
    </vehicle>

    <vehicle id="67" depart="268.00" arrival="716.00">
        <route cost="334.81" savings="0.00" edges="2403 2436 -1941 -828 -658 -278 -262 264 493 1338 1575 1617 -1617"/>
    </vehicle>

    <vehicle id="71" depart="284.00" arrival="717.00">
        <route cost="235.06" savings="0.00" edges="-2194 -1917 -1623 1613 -1611 1605 2175 -2066 2058 2438 2442 2688"/>
    </vehicle>

    <vehicle id="59" depart="236.00" arrival="720.00">
        <route cost="349.72" savings="0.00" edges="1649 -1659 -1617 -1575 -1338 -493 -264 -250 -232 -222 36 1329 -1458 -790"/>
    </vehicle>

    <vehicle id="25" depart="100.00" arrival="723.00">
        <route cost="400.96" savings="0.00" edges="-937 -790 -47 -39 -9 5 222 232 250 264 493 1309 1337 1605 1905"/>
    </vehicle>

    <vehicle id="38" depart="152.00" arrival="729.00">
        <routeDistribution>
            <route cost="360.61" savings="0.00" replacedOnEdge="-2370" replacedOnIndex="12" reason="device.rerouting" replacedAtTime="512.00" probability="0" edges="802 -802 -9 5 222 240 254 278 652 662 833 2386 -2370 1903 2058 2438 2442 2686"/>
            <route cost="158.88" savings="30.65" edges="802 -802 -9 5 222 240 254 278 652 662 833 2386 -2370 2319 2321 -2066 2058 2438 2442 2686"/>
        </routeDistribution>
    </vehicle>

    <vehicle id="63" depart="252.00" arrival="729.00">
        <routeDistribution>
            <route cost="299.93" savings="0.00" replacedOnEdge="662" replacedOnIndex="6" reason="device.rerouting" replacedAtTime="492.00" probability="0" edges="-36 222 240 254 278 652 662 833 2386 -2370 1903 -1903"/>
            <route cost="179.11" savings="44.11" edges="-36 222 240 254 278 652 662 833 2386 -2370 2319 2321 -2066 -1903"/>
        </routeDistribution>
    </vehicle>

    <vehicle id="97" depart="388.00" arrival="730.00">
        <route cost="312.55" savings="0.00" edges="-1649 -1613 -1575 -1338 -493 -264 262 278 658 828 1941 -2436 -2403"/>
    </vehicle>

    <vehicle id="78" depart="312.00" arrival="732.00">
        <route cost="253.87" savings="0.00" edges="1605 2183 -2319 2370 -2386 -833 -662 -652 658 828 1941 -2436 -2403"/>
    </vehicle>

    <vehicle id="26" depart="104.00" arrival="736.00">
        <routeDistribution>
            <route cost="422.68" savings="0.00" replacedOnEdge="662" replacedOnIndex="8" reason="device.rerouting" replacedAtTime="464.00" probability="0" edges="205 -205 197 228 240 254 278 652 662 833 2386 -2370 1903 2058 2438 2442 2686"/>
            <route cost="216.16" savings="31.28" edges="205 -205 197 228 240 254 278 652 662 833 2386 -2370 2319 2321 -2066 2058 2438 2442 2686"/>
        </routeDistribution>
    </vehicle>

    <vehicle id="116" depart="464.00" arrival="745.00">
        <route cost="312.38" savings="0.00" edges="-1320 -833 -662 -540 -290 -254 -240 -228 -197 205 320 339"/>
    </vehicle>

    <vehicle id="109" depart="436.00" arrival="749.00">
        <route cost="185.60" savings="0.00" edges="-831 833 1320 1337 1605 1905 1907"/>
    </vehicle>

    <vehicle id="95" depart="380.00" arrival="761.00">
        <route cost="252.55" savings="0.00" edges="254 -262 274 1316 1342 1650 1931 -2188 2187 2194 2333 -2333"/>
    </vehicle>

    <vehicle id="106" depart="424.00" arrival="761.00">
        <route cost="275.45" savings="0.00" edges="-790 -47 45 -3 5 222 232 250 274 1316 1342 1650 1931 -2188 -1915"/>
    </vehicle>

    <vehicle id="83" depart="332.00" arrival="767.00">
        <route cost="325.15" savings="0.00" edges="201 215 228 232 250 264 -301 540 662 833 2386 -2370 2319 2321"/>
    </vehicle>

    <vehicle id="91" depart="364.00" arrival="767.00">
        <routeDistribution>
            <route cost="298.23" savings="0.00" replacedOnEdge="652" replacedOnIndex="4" reason="device.rerouting" replacedAtTime="484.00" probability="0" edges="222 240 254 278 652 662 833 2386 -2370 1903 2058 2438"/>
            <route cost="216.75" savings="33.19" edges="222 240 254 278 652 664 -829 833 2386 -2370 2319 2321 -2066 2058 2438"/>
        </routeDistribution>
    </vehicle>

    <vehicle id="115" depart="460.00" arrival="767.00">
        <route cost="229.35" savings="0.00" edges="-2365 -2321 -2319 2370 -2386 -833 -662 -652 658 828"/>
    </vehicle>

    <vehicle id="75" depart="300.00" arrival="782.00">
        <route cost="332.82" savings="0.00" edges="2450 2588 -2454 -2411 -2386 -833 -662 -652 -278 -254 -240 -222 -5 9 39 47"/>
    </vehicle>

    <vehicle id="117" depart="468.00" arrival="786.00">
        <route cost="254.03" savings="0.00" edges="-2427 -1586 -1454 1320 -1309 1338 1575 1623 1917 2196"/>
    </vehicle>

    <vehicle id="79" depart="316.00" arrival="793.00">
        <route cost="384.21" savings="0.00" edges="-2072 -1903 2370 -2386 -833 -662 -652 -278 -254 -240 -222 -5 9 189 205 320"/>
    </vehicle>

    <vehicle id="122" depart="488.00" arrival="801.00">
        <route cost="247.41" savings="0.00" edges="1675 -1675 -1617 -1575 -1338 -493 -264 -250 248"/>
    </vehicle>

    <vehicle id="64" depart="256.00" arrival="808.00">
        <routeDistribution>
            <route cost="360.93" savings="0.00" replacedOnEdge="652" replacedOnIndex="7" reason="device.rerouting" replacedAtTime="496.00" probability="0" edges="-802 -9 5 222 240 254 278 652 662 833 2386 -2370 1903 2058 2438 2442 2688"/>
            <route cost="251.55" savings="41.59" edges="-802 -9 5 222 240 254 278 652 664 -829 833 2386 -2370 2319 2321 -2066 2058 2438 2442 2688"/>
        </routeDistribution>
    </vehicle>

    <vehicle id="65" depart="260.00" arrival="811.00">
        <route cost="417.91" savings="0.00" edges="-2688 -2442 -2438 -2058 -1903 2370 -2386 -833 -662 -652 -278 -254 -240 -228 -197 197"/>
    </vehicle>

    <vehicle id="118" depart="472.00" arrival="818.00">
        <route cost="271.91" savings="0.00" edges="-1579 -831 -662 -540 -290 -254 -240 -228 -215 214"/>
    </vehicle>

    <vehicle id="69" depart="276.00" arrival="821.00">
        <route cost="310.77" savings="0.00" edges="-47 -39 -9 5 222 232 250 264 493 1309 1337 1605 2175 -2066"/>
    </vehicle>

    <vehicle id="141" depart="564.00" arrival="824.00">
        <route cost="188.97" savings="0.00" edges="1887 -1782 1784 -1892 -829 833 2386 -2370 2319"/>
    </vehicle>

    <vehicle id="102" depart="408.00" arrival="825.00">
        <route cost="304.68" savings="0.00" edges="1329 -1329 -36 222 232 250 264 493 1338 1575 1617 1675 -1907"/>
    </vehicle>

    <vehicle id="114" depart="456.00" arrival="827.00">
        <route cost="347.00" savings="0.00" edges="951 -951 -802 -9 5 222 232 250 264 493 1338 1575 1617 1675 -1675"/>
    </vehicle>

    <vehicle id="104" depart="416.00" arrival="855.00">
        <routeDistribution>
            <route cost="347.75" savings="0.00" replacedOnEdge="232" replacedOnIndex="5" reason="device.rerouting" replacedAtTime="536.00" probability="0" edges="-45 -39 -9 5 222 232 250 264 493 1338 1575 1623 1917 2194 2333 2663"/>
            <route cost="254.74" savings="13.40" edges="-45 -39 -9 5 222 232 250 274 1316 1342 1650 1931 -2188 2187 2194 2333 2663"/>
        </routeDistribution>
    </vehicle>

    <vehicle id="125" depart="500.00" arrival="857.00">
        <route cost="278.54" savings="0.00" edges="1586 -1586 -1454 1320 -1309 1338 1575 1623 1917 2194 2333 -2333"/>
    </vehicle>

    <vehicle id="121" depart="484.00" arrival="869.00">
        <routeDistribution>
            <route cost="316.24" savings="0.00" replacedOnEdge="-2370" replacedOnIndex="8" reason="device.rerouting" replacedAtTime="724.00" probability="0" edges="2472 -2472 -1782 1784 -1892 -829 833 2386 -2370 2319 2321 -2066 2058 2438 2442 -2442"/>
            <route cost="141.78" savings="11.65" edges="2472 -2472 -1782 1784 -1892 -829 833 2386 -2370 2319 2321 2365 2408 2442 -2442"/>
        </routeDistribution>
    </vehicle>

    <vehicle id="156" depart="624.00" arrival="870.00">
        <route cost="237.09" savings="0.00" edges="-2695 -2614 -2450 -2072 2066 -2175 1905 -1659 1667 -1911"/>
    </vehicle>

    <vehicle id="130" depart="520.00" arrival="878.00">
        <route cost="288.76" savings="0.00" edges="1675 -1675 -1617 -1575 -1338 -493 -264 -250 -232 -222 -5 3 67"/>
    </vehicle>

    <vehicle id="101" depart="404.00" arrival="882.00">
        <routeDistribution>
            <route cost="305.61" savings="0.00" replacedOnEdge="1466" replacedOnIndex="1" reason="device.rerouting" replacedAtTime="524.00" probability="0" edges="1458 1466 2403 2436 -1941 -828 -658 652 662 833 1454 1586 2427"/>
            <route cost="261.72" savings="25.85" edges="1458 1466 2403 2436 -1941 1887 -1782 1784 -1892 -829 833 1454 1586 2427"/>
        </routeDistribution>
    </vehicle>

    <vehicle id="108" depart="432.00" arrival="889.00">
        <routeDistribution>
            <route cost="317.00" savings="0.00" replacedOnEdge="2175" replacedOnIndex="8" reason="device.rerouting" replacedAtTime="672.00" probability="0" edges="2333 -2333 -2194 -1917 -1623 1613 -1611 1605 2175 -2066 2058 2438 2442 2686 -2691"/>
            <route cost="158.14" savings="10.13" edges="2333 -2333 -2194 -1917 -1623 1613 -1611 1605 2175 2365 2408 2442 2686 -2691"/>
        </routeDistribution>
    </vehicle>

    <vehicle id="112" depart="448.00" arrival="891.00">
        <route cost="372.50" savings="0.00" edges="2614 -2614 2588 -2454 -2411 -2386 -833 -662 -540 -290 -254 -240 -222 -5 3 -45"/>
    </vehicle>

    <vehicle id="137" depart="548.00" arrival="892.00">
        <route cost="211.50" savings="0.00" edges="-2405 -2058 2066 -2175 -1605 1611 -1613 -1575 -1314 1312 -1316"/>
    </vehicle>

    <vehicle id="100" depart="400.00" arrival="897.00">
        <route cost="329.00" savings="0.00" edges="21 228 232 250 264 493 1309 1337 1605 2175 -2066 2058 2405"/>
    </vehicle>

    <vehicle id="85" depart="340.00" arrival="899.00">
        <route cost="378.73" savings="0.00" edges="-2690 -2442 -2438 -2058 -1903 2370 -2386 -833 -662 -652 -278 -254 -240 -222 -5 3 -45"/>
    </vehicle>

    <vehicle id="119" depart="476.00" arrival="900.00">
        <route cost="288.69" savings="0.00" edges="-2669 -1780 -1627 -814 -658 -278 -262 274 1316 1342 1650 1931 -2188 2187 -1917"/>
    </vehicle>

    <vehicle id="105" depart="420.00" arrival="902.00">
        <routeDistribution>
            <route cost="389.12" savings="0.00" replacedOnEdge="232" replacedOnIndex="2" reason="device.rerouting" replacedAtTime="540.00" probability="0" edges="-228 228 232 250 264 -301 540 662 833 2386 2411 2454 -2588 -2450 -2072"/>
            <route cost="309.50" savings="26.86" edges="-228 228 232 250 264 -301 540 664 -829 833 2386 2411 2454 -2588 -2450 -2072"/>
        </routeDistribution>
    </vehicle>

    <vehicle id="86" depart="344.00" arrival="919.00">
        <routeDistribution>
            <route cost="377.14" savings="0.00" replacedOnEdge="-254" replacedOnIndex="9" reason="device.rerouting" replacedAtTime="704.00" probability="0" edges="2175 -2321 -2319 2370 -2386 -833 -662 -652 -278 -254 -240 -222 -5 9 189 205 320"/>
            <route cost="143.19" savings="12.84" edges="2175 -2321 -2319 2370 -2386 -833 -662 -652 -278 -254 -240 -228 -197 205 320"/>
        </routeDistribution>
    </vehicle>

    <vehicle id="135" depart="540.00" arrival="919.00">
        <route cost="272.28" savings="0.00" edges="-1650 -1342 -1312 1314 1575 1613 -1611 1605 2175 -2066 2072 -2440"/>
    </vehicle>

    <vehicle id="140" depart="560.00" arrival="922.00">
        <route cost="252.95" savings="0.00" edges="-2454 -2411 -2370 -1599 1611 -1613 1623 1917 2194 -2194"/>
    </vehicle>

    <vehicle id="111" depart="444.00" arrival="932.00">
        <route cost="366.36" savings="0.00" edges="-2691 -2614 2588 -2454 -2411 -2386 -833 -662 -652 658 828 1941 -2436 -2403"/>
    </vehicle>

    <vehicle id="92" depart="368.00" arrival="939.00">
        <routeDistribution>