<?xml version="1.0" encoding="UTF-8"?>

<!-- generated on Wed Sep  4 18:08:36 2013 by SUMO sumo Version dev-SVN-r14576
<?xml version="1.0" encoding="UTF-8"?>

<configuration xmlns:xsi="http://www.w3.org/2001/XMLSchema-instance" xsi:noNamespaceSchemaLocation="http://sumo-sim.org/xsd/sumoConfiguration.xsd">

    <input>
        <net-file value="net.net.xml"/>
        <route-files value="input_routes.rou.xml"/>
        <additional-files value="input_additional.add.xml"/>
    </input>

    <output>
        <fcd-output value="fcd.xml"/>
    </output>

    <time>
        <step-length value="0.5"/>
    </time>

    <processing>
        <lanechange.duration value="10"/>
    </processing>

    <report>
        <no-duration-log value="true"/>
        <no-step-log value="true"/>
    </report>

</configuration>
-->

<fcd-export>
    <timestep time="0.00">
        <vehicle id="v0" x="256.60" y="491.75" angle="90.00" type="DEFAULT_VEHTYPE" speed="0.00" pos="5.10" lane="1si_0" slope="0.00"/>
    </timestep>
    <timestep time="0.50">
        <vehicle id="v0" x="257.25" y="491.75" angle="90.00" type="DEFAULT_VEHTYPE" speed="1.30" pos="5.75" lane="1si_0" slope="0.00"/>
    </timestep>
    <timestep time="1.00">
        <vehicle id="v0" x="258.55" y="491.75" angle="90.00" type="DEFAULT_VEHTYPE" speed="2.60" pos="7.05" lane="1si_0" slope="0.00"/>
    </timestep>
    <timestep time="1.50">
        <vehicle id="v0" x="260.50" y="491.75" angle="90.00" type="DEFAULT_VEHTYPE" speed="3.90" pos="9.00" lane="1si_0" slope="0.00"/>
    </timestep>
    <timestep time="2.00">
        <vehicle id="v0" x="263.10" y="491.75" angle="90.00" type="DEFAULT_VEHTYPE" speed="5.20" pos="11.60" lane="1si_0" slope="0.00"/>
    </timestep>
    <timestep time="2.50">
        <vehicle id="v0" x="266.35" y="491.75" angle="90.00" type="DEFAULT_VEHTYPE" speed="6.50" pos="14.85" lane="1si_0" slope="0.00"/>
    </timestep>
    <timestep time="3.00">
        <vehicle id="v0" x="270.25" y="491.75" angle="90.00" type="DEFAULT_VEHTYPE" speed="7.80" pos="18.75" lane="1si_0" slope="0.00"/>
    </timestep>
    <timestep time="3.50">
        <vehicle id="v0" x="274.80" y="491.75" angle="90.00" type="DEFAULT_VEHTYPE" speed="9.10" pos="23.30" lane="1si_0" slope="0.00"/>
    </timestep>
    <timestep time="4.00">
        <vehicle id="v0" x="280.00" y="491.75" angle="90.00" type="DEFAULT_VEHTYPE" speed="10.40" pos="28.50" lane="1si_0" slope="0.00"/>
    </timestep>
    <timestep time="4.50">
        <vehicle id="v0" x="285.85" y="491.75" angle="90.00" type="DEFAULT_VEHTYPE" speed="11.70" pos="34.35" lane="1si_0" slope="0.00"/>
    </timestep>
    <timestep time="5.00">
        <vehicle id="v0" x="292.35" y="491.75" angle="90.00" type="DEFAULT_VEHTYPE" speed="13.00" pos="40.85" lane="1si_0" slope="0.00"/>
    </timestep>
    <timestep time="5.50">
        <vehicle id="v0" x="299.30" y="491.75" angle="90.00" type="DEFAULT_VEHTYPE" speed="13.89" pos="47.80" lane="1si_0" slope="0.00"/>
    </timestep>
    <timestep time="6.00">
        <vehicle id="v0" x="306.24" y="491.75" angle="90.00" type="DEFAULT_VEHTYPE" speed="13.89" pos="54.74" lane="1si_0" slope="0.00"/>
    </timestep>
    <timestep time="6.50">
        <vehicle id="v0" x="313.19" y="491.75" angle="90.00" type="DEFAULT_VEHTYPE" speed="13.89" pos="61.69" lane="1si_0" slope="0.00"/>
    </timestep>
    <timestep time="7.00">
        <vehicle id="v0" x="320.13" y="491.75" angle="90.00" type="DEFAULT_VEHTYPE" speed="13.89" pos="68.63" lane="1si_0" slope="0.00"/>
    </timestep>
    <timestep time="7.50">
        <vehicle id="v0" x="327.07" y="491.75" angle="90.00" type="DEFAULT_VEHTYPE" speed="13.89" pos="75.57" lane="1si_0" slope="0.00"/>
    </timestep>
    <timestep time="8.00">
        <vehicle id="v0" x="334.02" y="491.75" angle="90.00" type="DEFAULT_VEHTYPE" speed="13.89" pos="82.52" lane="1si_0" slope="0.00"/>
    </timestep>
    <timestep time="8.50">
        <vehicle id="v0" x="340.96" y="491.75" angle="90.00" type="DEFAULT_VEHTYPE" speed="13.89" pos="89.46" lane="1si_0" slope="0.00"/>
    </timestep>
    <timestep time="9.00">
        <vehicle id="v0" x="347.91" y="491.75" angle="90.00" type="DEFAULT_VEHTYPE" speed="13.89" pos="96.41" lane="1si_0" slope="0.00"/>
    </timestep>
    <timestep time="9.50">
        <vehicle id="v0" x="354.86" y="491.75" angle="90.00" type="DEFAULT_VEHTYPE" speed="13.89" pos="103.35" lane="1si_0" slope="0.00"/>
    </timestep>
    <timestep time="10.00">
        <vehicle id="v0" x="361.80" y="491.75" angle="90.00" type="DEFAULT_VEHTYPE" speed="13.89" pos="110.30" lane="1si_0" slope="0.00"/>
    </timestep>
    <timestep time="10.50">
        <vehicle id="v0" x="368.75" y="491.75" angle="90.00" type="DEFAULT_VEHTYPE" speed="13.89" pos="117.24" lane="1si_0" slope="0.00"/>
    </timestep>
    <timestep time="11.00">
        <vehicle id="v0" x="375.69" y="491.75" angle="90.00" type="DEFAULT_VEHTYPE" speed="13.89" pos="124.19" lane="1si_0" slope="0.00"/>
    </timestep>
    <timestep time="11.50">
        <vehicle id="v0" x="382.63" y="491.75" angle="90.00" type="DEFAULT_VEHTYPE" speed="13.89" pos="131.13" lane="1si_0" slope="0.00"/>
    </timestep>
    <timestep time="12.00">
        <vehicle id="v0" x="389.58" y="491.75" angle="90.00" type="DEFAULT_VEHTYPE" speed="13.89" pos="138.08" lane="1si_0" slope="0.00"/>
    </timestep>
    <timestep time="12.50">
        <vehicle id="v0" x="396.52" y="491.75" angle="90.00" type="DEFAULT_VEHTYPE" speed="13.89" pos="145.02" lane="1si_0" slope="0.00"/>
    </timestep>
    <timestep time="13.00">
        <vehicle id="v0" x="403.47" y="491.75" angle="90.00" type="DEFAULT_VEHTYPE" speed="13.89" pos="151.97" lane="1si_0" slope="0.00"/>
    </timestep>
    <timestep time="13.50">
        <vehicle id="v0" x="410.41" y="491.92" angle="90.30" type="DEFAULT_VEHTYPE" speed="13.89" pos="158.91" lane="1si_0" slope="0.00"/>
    </timestep>
    <timestep time="14.00">
        <vehicle id="v0" x="417.36" y="492.08" angle="90.60" type="DEFAULT_VEHTYPE" speed="13.89" pos="165.86" lane="1si_0" slope="0.00"/>
    </timestep>
    <timestep time="14.50">
        <vehicle id="v0" x="424.30" y="492.25" angle="90.90" type="DEFAULT_VEHTYPE" speed="13.89" pos="172.80" lane="1si_0" slope="0.00"/>
    </timestep>
    <timestep time="15.00">
        <vehicle id="v0" x="431.25" y="492.41" angle="91.20" type="DEFAULT_VEHTYPE" speed="13.89" pos="179.75" lane="1si_0" slope="0.00"/>
    </timestep>
    <timestep time="15.50">
        <vehicle id="v0" x="438.19" y="492.57" angle="91.50" type="DEFAULT_VEHTYPE" speed="13.89" pos="186.69" lane="1si_0" slope="0.00"/>
    </timestep>
    <timestep time="16.00">
        <vehicle id="v0" x="445.14" y="492.74" angle="91.80" type="DEFAULT_VEHTYPE" speed="13.89" pos="193.64" lane="1si_0" slope="0.00"/>
    </timestep>
    <timestep time="16.50">
        <vehicle id="v0" x="452.08" y="492.91" angle="92.10" type="DEFAULT_VEHTYPE" speed="13.89" pos="200.58" lane="1si_0" slope="0.00"/>
    </timestep>
    <timestep time="17.00">
        <vehicle id="v0" x="458.87" y="493.07" angle="92.40" type="DEFAULT_VEHTYPE" speed="13.58" pos="207.37" lane="1si_0" slope="0.00"/>
    </timestep>
    <timestep time="17.50">
        <vehicle id="v0" x="464.77" y="493.24" angle="92.70" type="DEFAULT_VEHTYPE" speed="11.80" pos="213.27" lane="1si_0" slope="0.00"/>
    </timestep>
    <timestep time="18.00">
        <vehicle id="v0" x="469.82" y="493.40" angle="93.00" type="DEFAULT_VEHTYPE" speed="10.08" pos="218.32" lane="1si_0" slope="0.00"/>
    </timestep>
    <timestep time="18.50">
        <vehicle id="v0" x="474.03" y="493.56" angle="92.70" type="DEFAULT_VEHTYPE" speed="8.43" pos="222.53" lane="1si_1" slope="0.00"/>
    </timestep>
    <timestep time="19.00">
        <vehicle id="v0" x="477.12" y="493.73" angle="92.40" type="DEFAULT_VEHTYPE" speed="6.18" pos="225.62" lane="1si_1" slope="0.00"/>
    </timestep>
    <timestep time="19.50">
        <vehicle id="v0" x="479.09" y="493.89" angle="92.10" type="DEFAULT_VEHTYPE" speed="3.93" pos="227.59" lane="1si_1" slope="0.00"/>
    </timestep>
    <timestep time="20.00">
        <vehicle id="v0" x="480.46" y="494.06" angle="91.80" type="DEFAULT_VEHTYPE" speed="2.73" pos="228.96" lane="1si_1" slope="0.00"/>
    </timestep>
    <timestep time="20.50">
        <vehicle id="v0" x="481.82" y="494.23" angle="91.50" type="DEFAULT_VEHTYPE" speed="2.73" pos="230.32" lane="1si_1" slope="0.00"/>
    </timestep>
    <timestep time="21.00">
        <vehicle id="v0" x="483.19" y="494.39" angle="91.20" type="DEFAULT_VEHTYPE" speed="2.73" pos="231.69" lane="1si_1" slope="0.00"/>
    </timestep>
    <timestep time="21.50">
        <vehicle id="v0" x="484.55" y="494.56" angle="90.90" type="DEFAULT_VEHTYPE" speed="2.73" pos="233.05" lane="1si_1" slope="0.00"/>
    </timestep>
    <timestep time="22.00">
        <vehicle id="v0" x="485.92" y="494.72" angle="90.60" type="DEFAULT_VEHTYPE" speed="2.73" pos="234.42" lane="1si_1" slope="0.00"/>
    </timestep>
    <timestep time="22.50">
        <vehicle id="v0" x="487.28" y="494.88" angle="90.30" type="DEFAULT_VEHTYPE" speed="2.73" pos="235.78" lane="1si_1" slope="0.00"/>
    </timestep>
    <timestep time="23.00">
        <vehicle id="v0" x="488.65" y="495.05" angle="90.00" type="DEFAULT_VEHTYPE" speed="2.73" pos="237.15" lane="1si_1" slope="0.00"/>
    </timestep>
    <timestep time="23.50">
        <vehicle id="v0" x="513.37" y="498.35" angle="96.79" type="DEFAULT_VEHTYPE" speed="4.03" pos="2.02" lane="2o_0" slope="0.00"/>
    </timestep>
    <timestep time="24.00">
        <vehicle id="v0" x="516.03" y="498.35" angle="96.79" type="DEFAULT_VEHTYPE" speed="5.33" pos="4.68" lane="2o_0" slope="0.00"/>
    </timestep>
    <timestep time="24.50">
        <vehicle id="v0" x="519.35" y="498.35" angle="90.00" type="DEFAULT_VEHTYPE" speed="6.63" pos="8.00" lane="2o_0" slope="0.00"/>
    </timestep>
    <timestep time="25.00">
        <vehicle id="v0" x="523.31" y="498.35" angle="90.00" type="DEFAULT_VEHTYPE" speed="7.93" pos="11.96" lane="2o_0" slope="0.00"/>
    </timestep>
    <timestep time="25.50">
        <vehicle id="v0" x="527.93" y="498.35" angle="90.00" type="DEFAULT_VEHTYPE" speed="9.23" pos="16.58" lane="2o_0" slope="0.00"/>
    </timestep>
    <timestep time="26.00">
        <vehicle id="v0" x="533.19" y="498.35" angle="90.00" type="DEFAULT_VEHTYPE" speed="10.53" pos="21.84" lane="2o_0" slope="0.00"/>
    </timestep>
    <timestep time="26.50">
        <vehicle id="v0" x="538.75" y="498.35" angle="90.00" type="DEFAULT_VEHTYPE" speed="11.11" pos="27.40" lane="2o_0" slope="0.00"/>
    </timestep>
    <timestep time="27.00">
        <vehicle id="v0" x="544.30" y="498.35" angle="90.00" type="DEFAULT_VEHTYPE" speed="11.11" pos="32.95" lane="2o_0" slope="0.00"/>
    </timestep>
    <timestep time="27.50">
        <vehicle id="v0" x="549.86" y="498.35" angle="90.00" type="DEFAULT_VEHTYPE" speed="11.11" pos="38.51" lane="2o_0" slope="0.00"/>
    </timestep>
    <timestep time="28.00">
        <vehicle id="v0" x="555.41" y="498.35" angle="90.00" type="DEFAULT_VEHTYPE" speed="11.11" pos="44.06" lane="2o_0" slope="0.00"/>
    </timestep>
    <timestep time="28.50">
        <vehicle id="v0" x="560.97" y="498.35" angle="90.00" type="DEFAULT_VEHTYPE" speed="11.11" pos="49.62" lane="2o_0" slope="0.00"/>
    </timestep>
    <timestep time="29.00">
        <vehicle id="v0" x="566.52" y="498.35" angle="90.00" type="DEFAULT_VEHTYPE" speed="11.11" pos="55.17" lane="2o_0" slope="0.00"/>
    </timestep>
    <timestep time="29.50">
        <vehicle id="v0" x="572.08" y="498.35" angle="90.00" type="DEFAULT_VEHTYPE" speed="11.11" pos="60.73" lane="2o_0" slope="0.00"/>
    </timestep>
    <timestep time="30.00">
        <vehicle id="v0" x="577.63" y="498.35" angle="90.00" type="DEFAULT_VEHTYPE" speed="11.11" pos="66.28" lane="2o_0" slope="0.00"/>
    </timestep>
    <timestep time="30.50">
        <vehicle id="v0" x="583.19" y="498.35" angle="90.00" type="DEFAULT_VEHTYPE" speed="11.11" pos="71.84" lane="2o_0" slope="0.00"/>
    </timestep>
    <timestep time="31.00">
        <vehicle id="v0" x="588.74" y="498.35" angle="90.00" type="DEFAULT_VEHTYPE" speed="11.11" pos="77.39" lane="2o_0" slope="0.00"/>
    </timestep>
    <timestep time="31.50">
        <vehicle id="v0" x="594.30" y="498.35" angle="90.00" type="DEFAULT_VEHTYPE" speed="11.11" pos="82.95" lane="2o_0" slope="0.00"/>
    </timestep>
    <timestep time="32.00">
        <vehicle id="v0" x="599.85" y="498.35" angle="90.00" type="DEFAULT_VEHTYPE" speed="11.11" pos="88.50" lane="2o_0" slope="0.00"/>
    </timestep>
    <timestep time="32.50">
        <vehicle id="v0" x="605.41" y="498.35" angle="90.00" type="DEFAULT_VEHTYPE" speed="11.11" pos="94.06" lane="2o_0" slope="0.00"/>
    </timestep>
    <timestep time="33.00">
        <vehicle id="v0" x="610.96" y="498.35" angle="90.00" type="DEFAULT_VEHTYPE" speed="11.11" pos="99.61" lane="2o_0" slope="0.00"/>
    </timestep>
    <timestep time="33.50">
        <vehicle id="v0" x="616.52" y="498.35" angle="90.00" type="DEFAULT_VEHTYPE" speed="11.11" pos="105.17" lane="2o_0" slope="0.00"/>
    </timestep>
    <timestep time="34.00">
        <vehicle id="v0" x="622.07" y="498.35" angle="90.00" type="DEFAULT_VEHTYPE" speed="11.11" pos="110.72" lane="2o_0" slope="0.00"/>
    </timestep>
    <timestep time="34.50">
        <vehicle id="v0" x="627.63" y="498.35" angle="90.00" type="DEFAULT_VEHTYPE" speed="11.11" pos="116.28" lane="2o_0" slope="0.00"/>
    </timestep>
    <timestep time="35.00">
        <vehicle id="v0" x="633.18" y="498.35" angle="90.00" type="DEFAULT_VEHTYPE" speed="11.11" pos="121.83" lane="2o_0" slope="0.00"/>
    </timestep>
    <timestep time="35.50">
        <vehicle id="v0" x="638.74" y="498.35" angle="90.00" type="DEFAULT_VEHTYPE" speed="11.11" pos="127.39" lane="2o_0" slope="0.00"/>
    </timestep>
    <timestep time="36.00">
        <vehicle id="v0" x="644.29" y="498.35" angle="90.00" type="DEFAULT_VEHTYPE" speed="11.11" pos="132.94" lane="2o_0" slope="0.00"/>
    </timestep>
    <timestep time="36.50">
        <vehicle id="v0" x="649.85" y="498.35" angle="90.00" type="DEFAULT_VEHTYPE" speed="11.11" pos="138.50" lane="2o_0" slope="0.00"/>
    </timestep>
    <timestep time="37.00">
        <vehicle id="v0" x="655.40" y="498.35" angle="90.00" type="DEFAULT_VEHTYPE" speed="11.11" pos="144.05" lane="2o_0" slope="0.00"/>
    </timestep>
    <timestep time="37.50">
        <vehicle id="v0" x="660.96" y="498.35" angle="90.00" type="DEFAULT_VEHTYPE" speed="11.11" pos="149.61" lane="2o_0" slope="0.00"/>
    </timestep>
    <timestep time="38.00">
        <vehicle id="v0" x="666.51" y="498.35" angle="90.00" type="DEFAULT_VEHTYPE" speed="11.11" pos="155.16" lane="2o_0" slope="0.00"/>
    </timestep>
    <timestep time="38.50">
        <vehicle id="v0" x="672.07" y="498.35" angle="90.00" type="DEFAULT_VEHTYPE" speed="11.11" pos="160.72" lane="2o_0" slope="0.00"/>
    </timestep>
    <timestep time="39.00">
        <vehicle id="v0" x="677.62" y="498.35" angle="90.00" type="DEFAULT_VEHTYPE" speed="11.11" pos="166.27" lane="2o_0" slope="0.00"/>
    </timestep>
    <timestep time="39.50">
        <vehicle id="v0" x="683.18" y="498.35" angle="90.00" type="DEFAULT_VEHTYPE" speed="11.11" pos="171.83" lane="2o_0" slope="0.00"/>
    </timestep>
    <timestep time="40.00">
        <vehicle id="v0" x="688.73" y="498.35" angle="90.00" type="DEFAULT_VEHTYPE" speed="11.11" pos="177.38" lane="2o_0" slope="0.00"/>
    </timestep>
    <timestep time="40.50">
        <vehicle id="v0" x="694.29" y="498.35" angle="90.00" type="DEFAULT_VEHTYPE" speed="11.11" pos="182.94" lane="2o_0" slope="0.00"/>
    </timestep>
    <timestep time="41.00">
        <vehicle id="v0" x="699.84" y="498.35" angle="90.00" type="DEFAULT_VEHTYPE" speed="11.11" pos="188.49" lane="2o_0" slope="0.00"/>
    </timestep>
    <timestep time="41.50">
        <vehicle id="v0" x="705.40" y="498.35" angle="90.00" type="DEFAULT_VEHTYPE" speed="11.11" pos="194.05" lane="2o_0" slope="0.00"/>
    </timestep>
    <timestep time="42.00">
        <vehicle id="v0" x="710.95" y="498.35" angle="90.00" type="DEFAULT_VEHTYPE" speed="11.11" pos="199.60" lane="2o_0" slope="0.00"/>
    </timestep>
    <timestep time="42.50">
        <vehicle id="v0" x="716.51" y="498.35" angle="90.00" type="DEFAULT_VEHTYPE" speed="11.11" pos="205.16" lane="2o_0" slope="0.00"/>
    </timestep>
    <timestep time="43.00">
        <vehicle id="v0" x="722.06" y="498.35" angle="90.00" type="DEFAULT_VEHTYPE" speed="11.11" pos="210.71" lane="2o_0" slope="0.00"/>
    </timestep>
    <timestep time="43.50">
        <vehicle id="v0" x="727.62" y="498.35" angle="90.00" type="DEFAULT_VEHTYPE" speed="11.11" pos="216.27" lane="2o_0" slope="0.00"/>
    </timestep>
    <timestep time="44.00">
        <vehicle id="v0" x="733.17" y="498.35" angle="90.00" type="DEFAULT_VEHTYPE" speed="11.11" pos="221.82" lane="2o_0" slope="0.00"/>
    </timestep>
    <timestep time="44.50">
        <vehicle id="v0" x="738.73" y="498.35" angle="90.00" type="DEFAULT_VEHTYPE" speed="11.11" pos="227.38" lane="2o_0" slope="0.00"/>
    </timestep>
    <timestep time="45.00">
        <vehicle id="v0" x="744.28" y="498.35" angle="90.00" type="DEFAULT_VEHTYPE" speed="11.11" pos="232.93" lane="2o_0" slope="0.00"/>
    </timestep>
    <timestep time="45.50">
        <vehicle id="v0" x="749.84" y="498.35" angle="90.00" type="DEFAULT_VEHTYPE" speed="11.11" pos="238.49" lane="2o_0" slope="0.00"/>
    </timestep>
    <timestep time="46.00">
        <vehicle id="v0" x="755.39" y="498.35" angle="90.00" type="DEFAULT_VEHTYPE" speed="11.11" pos="244.04" lane="2o_0" slope="0.00"/>
    </timestep>
    <timestep time="46.50">
        <vehicle id="v0" x="760.95" y="498.35" angle="90.00" type="DEFAULT_VEHTYPE" speed="11.11" pos="249.60" lane="2o_0" slope="0.00"/>
    </timestep>
    <timestep time="47.00">
        <vehicle id="v0" x="766.50" y="498.35" angle="90.00" type="DEFAULT_VEHTYPE" speed="11.11" pos="255.15" lane="2o_0" slope="0.00"/>
    </timestep>
    <timestep time="47.50">
        <vehicle id="v0" x="772.06" y="498.35" angle="90.00" type="DEFAULT_VEHTYPE" speed="11.11" pos="260.71" lane="2o_0" slope="0.00"/>
    </timestep>
    <timestep time="48.00">
        <vehicle id="v0" x="777.61" y="498.35" angle="90.00" type="DEFAULT_VEHTYPE" speed="11.11" pos="266.26" lane="2o_0" slope="0.00"/>
    </timestep>
    <timestep time="48.50">
        <vehicle id="v0" x="783.17" y="498.35" angle="90.00" type="DEFAULT_VEHTYPE" speed="11.11" pos="271.82" lane="2o_0" slope="0.00"/>
    </timestep>
    <timestep time="49.00">
        <vehicle id="v0" x="788.72" y="498.35" angle="90.00" type="DEFAULT_VEHTYPE" speed="11.11" pos="277.37" lane="2o_0" slope="0.00"/>
    </timestep>
    <timestep time="49.50">
        <vehicle id="v0" x="794.28" y="498.35" angle="90.00" type="DEFAULT_VEHTYPE" speed="11.11" pos="282.93" lane="2o_0" slope="0.00"/>
    </timestep>
    <timestep time="50.00">
        <vehicle id="v0" x="799.83" y="498.35" angle="90.00" type="DEFAULT_VEHTYPE" speed="11.11" pos="288.48" lane="2o_0" slope="0.00"/>
    </timestep>
    <timestep time="50.50">
        <vehicle id="v0" x="805.39" y="498.35" angle="90.00" type="DEFAULT_VEHTYPE" speed="11.11" pos="294.04" lane="2o_0" slope="0.00"/>
    </timestep>
    <timestep time="51.00">
        <vehicle id="v0" x="810.94" y="498.35" angle="90.00" type="DEFAULT_VEHTYPE" speed="11.11" pos="299.59" lane="2o_0" slope="0.00"/>
    </timestep>
    <timestep time="51.50">
        <vehicle id="v0" x="816.50" y="498.35" angle="90.00" type="DEFAULT_VEHTYPE" speed="11.11" pos="305.15" lane="2o_0" slope="0.00"/>
    </timestep>
    <timestep time="52.00">
        <vehicle id="v0" x="822.05" y="498.35" angle="90.00" type="DEFAULT_VEHTYPE" speed="11.11" pos="310.70" lane="2o_0" slope="0.00"/>
    </timestep>
    <timestep time="52.50">
        <vehicle id="v0" x="827.61" y="498.35" angle="90.00" type="DEFAULT_VEHTYPE" speed="11.11" pos="316.26" lane="2o_0" slope="0.00"/>
    </timestep>
    <timestep time="53.00">
        <vehicle id="v0" x="833.16" y="498.35" angle="90.00" type="DEFAULT_VEHTYPE" speed="11.11" pos="321.81" lane="2o_0" slope="0.00"/>
    </timestep>
    <timestep time="53.50">
        <vehicle id="v0" x="838.72" y="498.35" angle="90.00" type="DEFAULT_VEHTYPE" speed="11.11" pos="327.37" lane="2o_0" slope="0.00"/>
    </timestep>
    <timestep time="54.00">
        <vehicle id="v0" x="844.27" y="498.35" angle="90.00" type="DEFAULT_VEHTYPE" speed="11.11" pos="332.92" lane="2o_0" slope="0.00"/>
    </timestep>
    <timestep time="54.50">
        <vehicle id="v0" x="849.83" y="498.35" angle="90.00" type="DEFAULT_VEHTYPE" speed="11.11" pos="338.48" lane="2o_0" slope="0.00"/>
    </timestep>
    <timestep time="55.00">
        <vehicle id="v0" x="855.38" y="498.35" angle="90.00" type="DEFAULT_VEHTYPE" speed="11.11" pos="344.03" lane="2o_0" slope="0.00"/>
    </timestep>
    <timestep time="55.50">
        <vehicle id="v0" x="860.94" y="498.35" angle="90.00" type="DEFAULT_VEHTYPE" speed="11.11" pos="349.59" lane="2o_0" slope="0.00"/>
    </timestep>
    <timestep time="56.00">
        <vehicle id="v0" x="866.49" y="498.35" angle="90.00" type="DEFAULT_VEHTYPE" speed="11.11" pos="355.14" lane="2o_0" slope="0.00"/>
    </timestep>
    <timestep time="56.50">
        <vehicle id="v0" x="872.05" y="498.35" angle="90.00" type="DEFAULT_VEHTYPE" speed="11.11" pos="360.70" lane="2o_0" slope="0.00"/>
    </timestep>
    <timestep time="57.00">
        <vehicle id="v0" x="877.60" y="498.35" angle="90.00" type="DEFAULT_VEHTYPE" speed="11.11" pos="366.25" lane="2o_0" slope="0.00"/>
    </timestep>
    <timestep time="57.50">
        <vehicle id="v0" x="883.16" y="498.35" angle="90.00" type="DEFAULT_VEHTYPE" speed="11.11" pos="371.81" lane="2o_0" slope="0.00"/>
    </timestep>
    <timestep time="58.00">
        <vehicle id="v0" x="888.71" y="498.35" angle="90.00" type="DEFAULT_VEHTYPE" speed="11.11" pos="377.36" lane="2o_0" slope="0.00"/>
    </timestep>
    <timestep time="58.50">
        <vehicle id="v0" x="894.27" y="498.35" angle="90.00" type="DEFAULT_VEHTYPE" speed="11.11" pos="382.92" lane="2o_0" slope="0.00"/>
    </timestep>
    <timestep time="59.00">
        <vehicle id="v0" x="899.82" y="498.35" angle="90.00" type="DEFAULT_VEHTYPE" speed="11.11" pos="388.47" lane="2o_0" slope="0.00"/>
    </timestep>
    <timestep time="59.50">
        <vehicle id="v0" x="905.38" y="498.35" angle="90.00" type="DEFAULT_VEHTYPE" speed="11.11" pos="394.03" lane="2o_0" slope="0.00"/>
    </timestep>
    <timestep time="60.00">
        <vehicle id="v0" x="910.93" y="498.35" angle="90.00" type="DEFAULT_VEHTYPE" speed="11.11" pos="399.58" lane="2o_0" slope="0.00"/>
    </timestep>
    <timestep time="60.50">
        <vehicle id="v0" x="916.49" y="498.35" angle="90.00" type="DEFAULT_VEHTYPE" speed="11.11" pos="405.14" lane="2o_0" slope="0.00"/>
    </timestep>
    <timestep time="61.00">
        <vehicle id="v0" x="922.04" y="498.35" angle="90.00" type="DEFAULT_VEHTYPE" speed="11.11" pos="410.69" lane="2o_0" slope="0.00"/>
    </timestep>
    <timestep time="61.50">
        <vehicle id="v0" x="927.60" y="498.35" angle="90.00" type="DEFAULT_VEHTYPE" speed="11.11" pos="416.25" lane="2o_0" slope="0.00"/>
    </timestep>
    <timestep time="62.00">
        <vehicle id="v0" x="933.15" y="498.35" angle="90.00" type="DEFAULT_VEHTYPE" speed="11.11" pos="421.80" lane="2o_0" slope="0.00"/>
    </timestep>
    <timestep time="62.50">
        <vehicle id="v0" x="938.71" y="498.35" angle="90.00" type="DEFAULT_VEHTYPE" speed="11.11" pos="427.36" lane="2o_0" slope="0.00"/>
    </timestep>
    <timestep time="63.00">
        <vehicle id="v0" x="944.26" y="498.35" angle="90.00" type="DEFAULT_VEHTYPE" speed="11.11" pos="432.91" lane="2o_0" slope="0.00"/>
    </timestep>
    <timestep time="63.50">
        <vehicle id="v0" x="949.82" y="498.35" angle="90.00" type="DEFAULT_VEHTYPE" speed="11.11" pos="438.47" lane="2o_0" slope="0.00"/>
    </timestep>
    <timestep time="64.00">
        <vehicle id="v0" x="955.37" y="498.35" angle="90.00" type="DEFAULT_VEHTYPE" speed="11.11" pos="444.02" lane="2o_0" slope="0.00"/>
    </timestep>
    <timestep time="64.50">
        <vehicle id="v0" x="960.93" y="498.35" angle="90.00" type="DEFAULT_VEHTYPE" speed="11.11" pos="449.58" lane="2o_0" slope="0.00"/>
    </timestep>
    <timestep time="65.00">
        <vehicle id="v0" x="966.48" y="498.35" angle="90.00" type="DEFAULT_VEHTYPE" speed="11.11" pos="455.13" lane="2o_0" slope="0.00"/>
    </timestep>
    <timestep time="65.50">
        <vehicle id="v0" x="972.04" y="498.35" angle="90.00" type="DEFAULT_VEHTYPE" speed="11.11" pos="460.69" lane="2o_0" slope="0.00"/>
    </timestep>
    <timestep time="66.00">
        <vehicle id="v0" x="977.59" y="498.35" angle="90.00" type="DEFAULT_VEHTYPE" speed="11.11" pos="466.24" lane="2o_0" slope="0.00"/>
    </timestep>
    <timestep time="66.50">
        <vehicle id="v0" x="983.15" y="498.35" angle="90.00" type="DEFAULT_VEHTYPE" speed="11.11" pos="471.80" lane="2o_0" slope="0.00"/>
    </timestep>
    <timestep time="67.00">
        <vehicle id="v0" x="988.70" y="498.35" angle="90.00" type="DEFAULT_VEHTYPE" speed="11.11" pos="477.35" lane="2o_0" slope="0.00"/>
    </timestep>
    <timestep time="67.50">
        <vehicle id="v0" x="994.26" y="498.35" angle="90.00" type="DEFAULT_VEHTYPE" speed="11.11" pos="482.91" lane="2o_0" slope="0.00"/>
    </timestep>
    <timestep time="68.00">
        <vehicle id="v0" x="999.81" y="498.35" angle="90.00" type="DEFAULT_VEHTYPE" speed="11.11" pos="488.46" lane="2o_0" slope="0.00"/>
    </timestep>
    <timestep time="68.50"/>
</fcd-export>
