<?xml version="1.0" encoding="UTF-8"?>

<!-- generated on 03/05/14 13:21:23 by SUMO sumo Version dev-SVN-r15814
<?xml version="1.0" encoding="UTF-8"?>

<configuration xmlns:xsi="http://www.w3.org/2001/XMLSchema-instance" xsi:noNamespaceSchemaLocation="http://sumo.dlr.de/xsd/sumoConfiguration.xsd">

    <input>
        <net-file value="net.net.xml"/>
        <route-files value="input_routes.rou.xml"/>
        <additional-files value="input_additional.add.xml"/>
    </input>

    <output>
        <fcd-output value="fcd.xml"/>
    </output>

    <time>
        <step-length value="0.5"/>
    </time>

    <processing>
        <lanechange.duration value="10"/>
    </processing>

    <report>
        <xml-validation value="never"/>
        <no-duration-log value="true"/>
        <no-step-log value="true"/>
    </report>

</configuration>
-->

<fcd-export xmlns:xsi="http://www.w3.org/2001/XMLSchema-instance" xsi:noNamespaceSchemaLocation="http://sumo.dlr.de/xsd/fcd_file.xsd">
    <timestep time="0.00">
        <vehicle id="v0" x="256.34" y="491.75" angle="90.00" type="DEFAULT_VEHTYPE" speed="0.00" pos="5.10" lane="1si_0" slope="0.00"/>
    </timestep>
    <timestep time="0.50">
        <vehicle id="v0" x="256.95" y="491.75" angle="90.00" type="DEFAULT_VEHTYPE" speed="1.30" pos="5.75" lane="1si_0" slope="0.00"/>
    </timestep>
    <timestep time="1.00">
        <vehicle id="v0" x="258.19" y="491.75" angle="90.00" type="DEFAULT_VEHTYPE" speed="2.60" pos="7.05" lane="1si_0" slope="0.00"/>
    </timestep>
    <timestep time="1.50">
        <vehicle id="v0" x="260.04" y="491.75" angle="90.00" type="DEFAULT_VEHTYPE" speed="3.90" pos="9.00" lane="1si_0" slope="0.00"/>
    </timestep>
    <timestep time="2.00">
        <vehicle id="v0" x="262.50" y="491.75" angle="90.00" type="DEFAULT_VEHTYPE" speed="5.20" pos="11.60" lane="1si_0" slope="0.00"/>
    </timestep>
    <timestep time="2.50">
        <vehicle id="v0" x="265.59" y="491.75" angle="90.00" type="DEFAULT_VEHTYPE" speed="6.50" pos="14.85" lane="1si_0" slope="0.00"/>
    </timestep>
    <timestep time="3.00">
        <vehicle id="v0" x="269.29" y="491.75" angle="90.00" type="DEFAULT_VEHTYPE" speed="7.80" pos="18.75" lane="1si_0" slope="0.00"/>
    </timestep>
    <timestep time="3.50">
        <vehicle id="v0" x="273.60" y="491.75" angle="90.00" type="DEFAULT_VEHTYPE" speed="9.10" pos="23.30" lane="1si_0" slope="0.00"/>
    </timestep>
    <timestep time="4.00">
        <vehicle id="v0" x="278.54" y="491.92" angle="90.30" type="DEFAULT_VEHTYPE" speed="10.40" pos="28.50" lane="1si_0" slope="0.00"/>
    </timestep>
    <timestep time="4.50">
        <vehicle id="v0" x="284.08" y="492.08" angle="90.60" type="DEFAULT_VEHTYPE" speed="11.70" pos="34.35" lane="1si_0" slope="0.00"/>
    </timestep>
    <timestep time="5.00">
        <vehicle id="v0" x="290.25" y="492.25" angle="90.90" type="DEFAULT_VEHTYPE" speed="13.00" pos="40.85" lane="1si_0" slope="0.00"/>
    </timestep>
    <timestep time="5.50">
        <vehicle id="v0" x="296.84" y="492.41" angle="91.20" type="DEFAULT_VEHTYPE" speed="13.89" pos="47.80" lane="1si_0" slope="0.00"/>
    </timestep>
    <timestep time="6.00">
        <vehicle id="v0" x="303.43" y="492.57" angle="91.50" type="DEFAULT_VEHTYPE" speed="13.89" pos="54.74" lane="1si_0" slope="0.00"/>
    </timestep>
    <timestep time="6.50">
        <vehicle id="v0" x="310.01" y="492.74" angle="91.80" type="DEFAULT_VEHTYPE" speed="13.89" pos="61.69" lane="1si_0" slope="0.00"/>
    </timestep>
    <timestep time="7.00">
        <vehicle id="v0" x="316.60" y="492.91" angle="92.10" type="DEFAULT_VEHTYPE" speed="13.89" pos="68.63" lane="1si_0" slope="0.00"/>
    </timestep>
    <timestep time="7.50">
        <vehicle id="v0" x="323.19" y="493.07" angle="92.40" type="DEFAULT_VEHTYPE" speed="13.89" pos="75.57" lane="1si_0" slope="0.00"/>
    </timestep>
    <timestep time="8.00">
        <vehicle id="v0" x="329.78" y="493.24" angle="92.70" type="DEFAULT_VEHTYPE" speed="13.89" pos="82.52" lane="1si_0" slope="0.00"/>
    </timestep>
    <timestep time="8.50">
        <vehicle id="v0" x="336.37" y="493.40" angle="93.00" type="DEFAULT_VEHTYPE" speed="13.89" pos="89.46" lane="1si_0" slope="0.00"/>
    </timestep>
    <timestep time="9.00">
        <vehicle id="v0" x="342.95" y="493.57" angle="92.70" type="DEFAULT_VEHTYPE" speed="13.89" pos="96.41" lane="1si_1" slope="0.00"/>
    </timestep>
    <timestep time="9.50">
        <vehicle id="v0" x="349.54" y="493.73" angle="92.40" type="DEFAULT_VEHTYPE" speed="13.89" pos="103.35" lane="1si_1" slope="0.00"/>
    </timestep>
    <timestep time="10.00">
        <vehicle id="v0" x="356.13" y="493.89" angle="92.10" type="DEFAULT_VEHTYPE" speed="13.89" pos="110.30" lane="1si_1" slope="0.00"/>
    </timestep>
    <timestep time="10.50">
        <vehicle id="v0" x="362.72" y="494.06" angle="91.80" type="DEFAULT_VEHTYPE" speed="13.89" pos="117.24" lane="1si_1" slope="0.00"/>
    </timestep>
    <timestep time="11.00">
        <vehicle id="v0" x="369.31" y="494.23" angle="91.50" type="DEFAULT_VEHTYPE" speed="13.89" pos="124.19" lane="1si_1" slope="0.00"/>
    </timestep>
    <timestep time="11.50">
        <vehicle id="v0" x="375.89" y="494.39" angle="91.20" type="DEFAULT_VEHTYPE" speed="13.89" pos="131.13" lane="1si_1" slope="0.00"/>
    </timestep>
    <timestep time="12.00">
        <vehicle id="v0" x="382.48" y="494.56" angle="90.90" type="DEFAULT_VEHTYPE" speed="13.89" pos="138.08" lane="1si_1" slope="0.00"/>
    </timestep>
    <timestep time="12.50">
        <vehicle id="v0" x="389.07" y="494.72" angle="90.60" type="DEFAULT_VEHTYPE" speed="13.89" pos="145.02" lane="1si_1" slope="0.00"/>
    </timestep>
    <timestep time="13.00">
        <vehicle id="v0" x="395.66" y="494.88" angle="90.30" type="DEFAULT_VEHTYPE" speed="13.89" pos="151.97" lane="1si_1" slope="0.00"/>
    </timestep>
    <timestep time="13.50">
        <vehicle id="v0" x="402.25" y="495.05" angle="90.00" type="DEFAULT_VEHTYPE" speed="13.89" pos="158.91" lane="1si_1" slope="0.00"/>
    </timestep>
    <timestep time="14.00">
        <vehicle id="v0" x="408.83" y="495.05" angle="90.00" type="DEFAULT_VEHTYPE" speed="13.89" pos="165.86" lane="1si_1" slope="0.00"/>
    </timestep>
    <timestep time="14.50">
        <vehicle id="v0" x="415.42" y="495.05" angle="90.00" type="DEFAULT_VEHTYPE" speed="13.89" pos="172.80" lane="1si_1" slope="0.00"/>
    </timestep>
    <timestep time="15.00">
        <vehicle id="v0" x="422.01" y="495.05" angle="90.00" type="DEFAULT_VEHTYPE" speed="13.89" pos="179.75" lane="1si_1" slope="0.00"/>
    </timestep>
    <timestep time="15.50">
        <vehicle id="v0" x="428.60" y="495.05" angle="90.00" type="DEFAULT_VEHTYPE" speed="13.89" pos="186.69" lane="1si_1" slope="0.00"/>
    </timestep>
    <timestep time="16.00">
        <vehicle id="v0" x="435.19" y="495.05" angle="90.00" type="DEFAULT_VEHTYPE" speed="13.89" pos="193.64" lane="1si_1" slope="0.00"/>
    </timestep>
    <timestep time="16.50">
        <vehicle id="v0" x="441.77" y="495.05" angle="90.00" type="DEFAULT_VEHTYPE" speed="13.89" pos="200.58" lane="1si_1" slope="0.00"/>
    </timestep>
    <timestep time="17.00">
        <vehicle id="v0" x="448.36" y="495.05" angle="90.00" type="DEFAULT_VEHTYPE" speed="13.89" pos="207.53" lane="1si_1" slope="0.00"/>
    </timestep>
    <timestep time="17.50">
        <vehicle id="v0" x="454.95" y="495.05" angle="90.00" type="DEFAULT_VEHTYPE" speed="13.89" pos="214.47" lane="1si_1" slope="0.00"/>
    </timestep>
    <timestep time="18.00">
        <vehicle id="v0" x="461.54" y="495.05" angle="90.00" type="DEFAULT_VEHTYPE" speed="13.89" pos="221.42" lane="1si_1" slope="0.00"/>
    </timestep>
    <timestep time="18.50">
        <vehicle id="v0" x="467.69" y="495.05" angle="90.00" type="DEFAULT_VEHTYPE" speed="12.96" pos="227.90" lane="1si_1" slope="0.00"/>
    </timestep>
    <timestep time="19.00">
        <vehicle id="v0" x="472.94" y="495.05" angle="90.00" type="DEFAULT_VEHTYPE" speed="11.08" pos="233.44" lane="1si_1" slope="0.00"/>
    </timestep>
    <timestep time="19.50">
        <vehicle id="v0" x="477.32" y="495.05" angle="90.00" type="DEFAULT_VEHTYPE" speed="9.24" pos="238.06" lane="1si_1" slope="0.00"/>
    </timestep>
    <timestep time="20.00">
        <vehicle id="v0" x="480.85" y="495.05" angle="90.00" type="DEFAULT_VEHTYPE" speed="7.44" pos="241.78" lane="1si_1" slope="0.00"/>
    </timestep>
    <timestep time="20.50">
        <vehicle id="v0" x="483.58" y="495.05" angle="90.00" type="DEFAULT_VEHTYPE" speed="5.75" pos="244.65" lane="1si_1" slope="0.00"/>
    </timestep>
    <timestep time="21.00">
        <vehicle id="v0" x="485.59" y="495.05" angle="90.00" type="DEFAULT_VEHTYPE" speed="4.25" pos="246.78" lane="1si_1" slope="0.00"/>
    </timestep>
    <timestep time="21.50">
        <vehicle id="v0" x="488.22" y="495.05" angle="90.00" type="DEFAULT_VEHTYPE" speed="5.55" pos="249.55" lane="1si_1" slope="0.00"/>
    </timestep>
    <timestep time="22.00">
        <vehicle id="v0" x="514.26" y="498.35" angle="96.84" type="DEFAULT_VEHTYPE" speed="6.85" pos="2.97" lane="2o_0" slope="0.00"/>
    </timestep>
    <timestep time="22.50">
        <vehicle id="v0" x="518.24" y="498.35" angle="90.00" type="DEFAULT_VEHTYPE" speed="8.15" pos="7.05" lane="2o_0" slope="0.00"/>
    </timestep>
    <timestep time="23.00">
        <vehicle id="v0" x="522.86" y="498.35" angle="90.00" type="DEFAULT_VEHTYPE" speed="9.45" pos="11.77" lane="2o_0" slope="0.00"/>
    </timestep>
    <timestep time="23.50">
        <vehicle id="v0" x="528.11" y="498.35" angle="90.00" type="DEFAULT_VEHTYPE" speed="10.75" pos="17.15" lane="2o_0" slope="0.00"/>
    </timestep>
    <timestep time="24.00">
        <vehicle id="v0" x="533.54" y="498.35" angle="90.00" type="DEFAULT_VEHTYPE" speed="11.11" pos="22.70" lane="2o_0" slope="0.00"/>
    </timestep>
    <timestep time="24.50">
        <vehicle id="v0" x="538.97" y="498.35" angle="90.00" type="DEFAULT_VEHTYPE" speed="11.11" pos="28.26" lane="2o_0" slope="0.00"/>
    </timestep>
    <timestep time="25.00">
        <vehicle id="v0" x="544.39" y="498.35" angle="90.00" type="DEFAULT_VEHTYPE" speed="11.11" pos="33.81" lane="2o_0" slope="0.00"/>
    </timestep>
    <timestep time="25.50">
        <vehicle id="v0" x="549.82" y="498.35" angle="90.00" type="DEFAULT_VEHTYPE" speed="11.11" pos="39.37" lane="2o_0" slope="0.00"/>
    </timestep>
    <timestep time="26.00">
        <vehicle id="v0" x="555.25" y="498.35" angle="90.00" type="DEFAULT_VEHTYPE" speed="11.11" pos="44.92" lane="2o_0" slope="0.00"/>
    </timestep>
    <timestep time="26.50">
        <vehicle id="v0" x="560.68" y="498.35" angle="90.00" type="DEFAULT_VEHTYPE" speed="11.11" pos="50.48" lane="2o_0" slope="0.00"/>
    </timestep>
    <timestep time="27.00">
        <vehicle id="v0" x="566.11" y="498.35" angle="90.00" type="DEFAULT_VEHTYPE" speed="11.11" pos="56.03" lane="2o_0" slope="0.00"/>
    </timestep>
    <timestep time="27.50">
        <vehicle id="v0" x="571.54" y="498.35" angle="90.00" type="DEFAULT_VEHTYPE" speed="11.11" pos="61.59" lane="2o_0" slope="0.00"/>
    </timestep>
    <timestep time="28.00">
        <vehicle id="v0" x="576.97" y="498.35" angle="90.00" type="DEFAULT_VEHTYPE" speed="11.11" pos="67.14" lane="2o_0" slope="0.00"/>
    </timestep>
    <timestep time="28.50">
        <vehicle id="v0" x="582.40" y="498.35" angle="90.00" type="DEFAULT_VEHTYPE" speed="11.11" pos="72.70" lane="2o_0" slope="0.00"/>
    </timestep>
    <timestep time="29.00">
        <vehicle id="v0" x="587.83" y="498.35" angle="90.00" type="DEFAULT_VEHTYPE" speed="11.11" pos="78.25" lane="2o_0" slope="0.00"/>
    </timestep>
    <timestep time="29.50">
        <vehicle id="v0" x="593.25" y="498.35" angle="90.00" type="DEFAULT_VEHTYPE" speed="11.11" pos="83.81" lane="2o_0" slope="0.00"/>
    </timestep>
    <timestep time="30.00">
        <vehicle id="v0" x="598.68" y="498.35" angle="90.00" type="DEFAULT_VEHTYPE" speed="11.11" pos="89.36" lane="2o_0" slope="0.00"/>
    </timestep>
    <timestep time="30.50">
        <vehicle id="v0" x="604.11" y="498.35" angle="90.00" type="DEFAULT_VEHTYPE" speed="11.11" pos="94.92" lane="2o_0" slope="0.00"/>
    </timestep>
    <timestep time="31.00">
        <vehicle id="v0" x="609.54" y="498.35" angle="90.00" type="DEFAULT_VEHTYPE" speed="11.11" pos="100.47" lane="2o_0" slope="0.00"/>
    </timestep>
    <timestep time="31.50">
        <vehicle id="v0" x="614.97" y="498.35" angle="90.00" type="DEFAULT_VEHTYPE" speed="11.11" pos="106.03" lane="2o_0" slope="0.00"/>
    </timestep>
    <timestep time="32.00">
        <vehicle id="v0" x="620.40" y="498.35" angle="90.00" type="DEFAULT_VEHTYPE" speed="11.11" pos="111.58" lane="2o_0" slope="0.00"/>
    </timestep>
    <timestep time="32.50">
        <vehicle id="v0" x="625.83" y="498.35" angle="90.00" type="DEFAULT_VEHTYPE" speed="11.11" pos="117.14" lane="2o_0" slope="0.00"/>
    </timestep>
    <timestep time="33.00">
        <vehicle id="v0" x="631.26" y="498.35" angle="90.00" type="DEFAULT_VEHTYPE" speed="11.11" pos="122.69" lane="2o_0" slope="0.00"/>
    </timestep>
    <timestep time="33.50">
        <vehicle id="v0" x="636.69" y="498.35" angle="90.00" type="DEFAULT_VEHTYPE" speed="11.11" pos="128.25" lane="2o_0" slope="0.00"/>
    </timestep>
    <timestep time="34.00">
        <vehicle id="v0" x="642.11" y="498.35" angle="90.00" type="DEFAULT_VEHTYPE" speed="11.11" pos="133.80" lane="2o_0" slope="0.00"/>
    </timestep>
    <timestep time="34.50">
        <vehicle id="v0" x="647.54" y="498.35" angle="90.00" type="DEFAULT_VEHTYPE" speed="11.11" pos="139.36" lane="2o_0" slope="0.00"/>
    </timestep>
    <timestep time="35.00">
        <vehicle id="v0" x="652.97" y="498.35" angle="90.00" type="DEFAULT_VEHTYPE" speed="11.11" pos="144.91" lane="2o_0" slope="0.00"/>
    </timestep>
    <timestep time="35.50">
        <vehicle id="v0" x="658.40" y="498.35" angle="90.00" type="DEFAULT_VEHTYPE" speed="11.11" pos="150.47" lane="2o_0" slope="0.00"/>
    </timestep>
    <timestep time="36.00">
        <vehicle id="v0" x="663.83" y="498.35" angle="90.00" type="DEFAULT_VEHTYPE" speed="11.11" pos="156.02" lane="2o_0" slope="0.00"/>
    </timestep>
    <timestep time="36.50">
        <vehicle id="v0" x="669.26" y="498.35" angle="90.00" type="DEFAULT_VEHTYPE" speed="11.11" pos="161.58" lane="2o_0" slope="0.00"/>
    </timestep>
    <timestep time="37.00">
        <vehicle id="v0" x="674.69" y="498.35" angle="90.00" type="DEFAULT_VEHTYPE" speed="11.11" pos="167.13" lane="2o_0" slope="0.00"/>
    </timestep>
    <timestep time="37.50">
        <vehicle id="v0" x="680.12" y="498.35" angle="90.00" type="DEFAULT_VEHTYPE" speed="11.11" pos="172.69" lane="2o_0" slope="0.00"/>
    </timestep>
    <timestep time="38.00">
        <vehicle id="v0" x="685.55" y="498.35" angle="90.00" type="DEFAULT_VEHTYPE" speed="11.11" pos="178.24" lane="2o_0" slope="0.00"/>
    </timestep>
    <timestep time="38.50">
        <vehicle id="v0" x="690.97" y="498.35" angle="90.00" type="DEFAULT_VEHTYPE" speed="11.11" pos="183.80" lane="2o_0" slope="0.00"/>
    </timestep>
    <timestep time="39.00">
        <vehicle id="v0" x="696.40" y="498.35" angle="90.00" type="DEFAULT_VEHTYPE" speed="11.11" pos="189.35" lane="2o_0" slope="0.00"/>
    </timestep>
    <timestep time="39.50">
        <vehicle id="v0" x="701.83" y="498.35" angle="90.00" type="DEFAULT_VEHTYPE" speed="11.11" pos="194.91" lane="2o_0" slope="0.00"/>
    </timestep>
    <timestep time="40.00">
        <vehicle id="v0" x="707.26" y="498.35" angle="90.00" type="DEFAULT_VEHTYPE" speed="11.11" pos="200.46" lane="2o_0" slope="0.00"/>
    </timestep>
    <timestep time="40.50">
        <vehicle id="v0" x="712.69" y="498.35" angle="90.00" type="DEFAULT_VEHTYPE" speed="11.11" pos="206.02" lane="2o_0" slope="0.00"/>
    </timestep>
    <timestep time="41.00">
        <vehicle id="v0" x="718.12" y="498.35" angle="90.00" type="DEFAULT_VEHTYPE" speed="11.11" pos="211.57" lane="2o_0" slope="0.00"/>
    </timestep>
    <timestep time="41.50">
        <vehicle id="v0" x="723.55" y="498.35" angle="90.00" type="DEFAULT_VEHTYPE" speed="11.11" pos="217.13" lane="2o_0" slope="0.00"/>
    </timestep>
    <timestep time="42.00">
        <vehicle id="v0" x="728.98" y="498.35" angle="90.00" type="DEFAULT_VEHTYPE" speed="11.11" pos="222.68" lane="2o_0" slope="0.00"/>
    </timestep>
    <timestep time="42.50">
        <vehicle id="v0" x="734.41" y="498.35" angle="90.00" type="DEFAULT_VEHTYPE" speed="11.11" pos="228.24" lane="2o_0" slope="0.00"/>
    </timestep>
    <timestep time="43.00">
        <vehicle id="v0" x="739.83" y="498.35" angle="90.00" type="DEFAULT_VEHTYPE" speed="11.11" pos="233.79" lane="2o_0" slope="0.00"/>
    </timestep>
    <timestep time="43.50">
        <vehicle id="v0" x="745.26" y="498.35" angle="90.00" type="DEFAULT_VEHTYPE" speed="11.11" pos="239.35" lane="2o_0" slope="0.00"/>
    </timestep>
    <timestep time="44.00">
        <vehicle id="v0" x="750.69" y="498.35" angle="90.00" type="DEFAULT_VEHTYPE" speed="11.11" pos="244.90" lane="2o_0" slope="0.00"/>
    </timestep>
    <timestep time="44.50">
        <vehicle id="v0" x="756.12" y="498.35" angle="90.00" type="DEFAULT_VEHTYPE" speed="11.11" pos="250.46" lane="2o_0" slope="0.00"/>
    </timestep>
    <timestep time="45.00">
        <vehicle id="v0" x="761.55" y="498.35" angle="90.00" type="DEFAULT_VEHTYPE" speed="11.11" pos="256.01" lane="2o_0" slope="0.00"/>
    </timestep>
    <timestep time="45.50">
        <vehicle id="v0" x="766.98" y="498.35" angle="90.00" type="DEFAULT_VEHTYPE" speed="11.11" pos="261.57" lane="2o_0" slope="0.00"/>
    </timestep>
    <timestep time="46.00">
        <vehicle id="v0" x="772.41" y="498.35" angle="90.00" type="DEFAULT_VEHTYPE" speed="11.11" pos="267.12" lane="2o_0" slope="0.00"/>
    </timestep>
    <timestep time="46.50">
        <vehicle id="v0" x="777.84" y="498.35" angle="90.00" type="DEFAULT_VEHTYPE" speed="11.11" pos="272.68" lane="2o_0" slope="0.00"/>
    </timestep>
    <timestep time="47.00">
        <vehicle id="v0" x="783.27" y="498.35" angle="90.00" type="DEFAULT_VEHTYPE" speed="11.11" pos="278.23" lane="2o_0" slope="0.00"/>
    </timestep>
    <timestep time="47.50">
        <vehicle id="v0" x="788.69" y="498.35" angle="90.00" type="DEFAULT_VEHTYPE" speed="11.11" pos="283.79" lane="2o_0" slope="0.00"/>
    </timestep>
    <timestep time="48.00">
        <vehicle id="v0" x="794.12" y="498.35" angle="90.00" type="DEFAULT_VEHTYPE" speed="11.11" pos="289.34" lane="2o_0" slope="0.00"/>
    </timestep>
    <timestep time="48.50">
        <vehicle id="v0" x="799.55" y="498.35" angle="90.00" type="DEFAULT_VEHTYPE" speed="11.11" pos="294.90" lane="2o_0" slope="0.00"/>
    </timestep>
    <timestep time="49.00">
        <vehicle id="v0" x="804.98" y="498.35" angle="90.00" type="DEFAULT_VEHTYPE" speed="11.11" pos="300.45" lane="2o_0" slope="0.00"/>
    </timestep>
    <timestep time="49.50">
        <vehicle id="v0" x="810.41" y="498.35" angle="90.00" type="DEFAULT_VEHTYPE" speed="11.11" pos="306.01" lane="2o_0" slope="0.00"/>
    </timestep>
    <timestep time="50.00">
        <vehicle id="v0" x="815.84" y="498.35" angle="90.00" type="DEFAULT_VEHTYPE" speed="11.11" pos="311.56" lane="2o_0" slope="0.00"/>
    </timestep>
    <timestep time="50.50">
        <vehicle id="v0" x="821.27" y="498.35" angle="90.00" type="DEFAULT_VEHTYPE" speed="11.11" pos="317.12" lane="2o_0" slope="0.00"/>
    </timestep>
    <timestep time="51.00">
        <vehicle id="v0" x="826.70" y="498.35" angle="90.00" type="DEFAULT_VEHTYPE" speed="11.11" pos="322.67" lane="2o_0" slope="0.00"/>
    </timestep>
    <timestep time="51.50">
        <vehicle id="v0" x="832.13" y="498.35" angle="90.00" type="DEFAULT_VEHTYPE" speed="11.11" pos="328.23" lane="2o_0" slope="0.00"/>
    </timestep>
    <timestep time="52.00">
        <vehicle id="v0" x="837.56" y="498.35" angle="90.00" type="DEFAULT_VEHTYPE" speed="11.11" pos="333.78" lane="2o_0" slope="0.00"/>
    </timestep>
    <timestep time="52.50">
        <vehicle id="v0" x="842.98" y="498.35" angle="90.00" type="DEFAULT_VEHTYPE" speed="11.11" pos="339.34" lane="2o_0" slope="0.00"/>
    </timestep>
    <timestep time="53.00">
        <vehicle id="v0" x="848.41" y="498.35" angle="90.00" type="DEFAULT_VEHTYPE" speed="11.11" pos="344.89" lane="2o_0" slope="0.00"/>
    </timestep>
    <timestep time="53.50">
        <vehicle id="v0" x="853.84" y="498.35" angle="90.00" type="DEFAULT_VEHTYPE" speed="11.11" pos="350.45" lane="2o_0" slope="0.00"/>
    </timestep>
    <timestep time="54.00">
        <vehicle id="v0" x="859.27" y="498.35" angle="90.00" type="DEFAULT_VEHTYPE" speed="11.11" pos="356.00" lane="2o_0" slope="0.00"/>
    </timestep>
    <timestep time="54.50">
        <vehicle id="v0" x="864.70" y="498.35" angle="90.00" type="DEFAULT_VEHTYPE" speed="11.11" pos="361.56" lane="2o_0" slope="0.00"/>
    </timestep>
    <timestep time="55.00">
        <vehicle id="v0" x="870.13" y="498.35" angle="90.00" type="DEFAULT_VEHTYPE" speed="11.11" pos="367.11" lane="2o_0" slope="0.00"/>
    </timestep>
    <timestep time="55.50">
        <vehicle id="v0" x="875.56" y="498.35" angle="90.00" type="DEFAULT_VEHTYPE" speed="11.11" pos="372.67" lane="2o_0" slope="0.00"/>
    </timestep>
    <timestep time="56.00">
        <vehicle id="v0" x="880.99" y="498.35" angle="90.00" type="DEFAULT_VEHTYPE" speed="11.11" pos="378.22" lane="2o_0" slope="0.00"/>
    </timestep>
    <timestep time="56.50">
        <vehicle id="v0" x="886.42" y="498.35" angle="90.00" type="DEFAULT_VEHTYPE" speed="11.11" pos="383.78" lane="2o_0" slope="0.00"/>
    </timestep>
    <timestep time="57.00">
        <vehicle id="v0" x="891.84" y="498.35" angle="90.00" type="DEFAULT_VEHTYPE" speed="11.11" pos="389.33" lane="2o_0" slope="0.00"/>
    </timestep>
    <timestep time="57.50">
        <vehicle id="v0" x="897.27" y="498.35" angle="90.00" type="DEFAULT_VEHTYPE" speed="11.11" pos="394.89" lane="2o_0" slope="0.00"/>
    </timestep>
    <timestep time="58.00">
        <vehicle id="v0" x="902.70" y="498.35" angle="90.00" type="DEFAULT_VEHTYPE" speed="11.11" pos="400.44" lane="2o_0" slope="0.00"/>
    </timestep>
    <timestep time="58.50">
        <vehicle id="v0" x="908.13" y="498.35" angle="90.00" type="DEFAULT_VEHTYPE" speed="11.11" pos="406.00" lane="2o_0" slope="0.00"/>
    </timestep>
    <timestep time="59.00">
        <vehicle id="v0" x="913.56" y="498.35" angle="90.00" type="DEFAULT_VEHTYPE" speed="11.11" pos="411.55" lane="2o_0" slope="0.00"/>
    </timestep>
    <timestep time="59.50">
        <vehicle id="v0" x="918.99" y="498.35" angle="90.00" type="DEFAULT_VEHTYPE" speed="11.11" pos="417.11" lane="2o_0" slope="0.00"/>
    </timestep>
    <timestep time="60.00">
        <vehicle id="v0" x="924.42" y="498.35" angle="90.00" type="DEFAULT_VEHTYPE" speed="11.11" pos="422.66" lane="2o_0" slope="0.00"/>
    </timestep>
    <timestep time="60.50">
        <vehicle id="v0" x="929.85" y="498.35" angle="90.00" type="DEFAULT_VEHTYPE" speed="11.11" pos="428.22" lane="2o_0" slope="0.00"/>
    </timestep>
    <timestep time="61.00">
        <vehicle id="v0" x="935.28" y="498.35" angle="90.00" type="DEFAULT_VEHTYPE" speed="11.11" pos="433.77" lane="2o_0" slope="0.00"/>
    </timestep>
    <timestep time="61.50">
        <vehicle id="v0" x="940.70" y="498.35" angle="90.00" type="DEFAULT_VEHTYPE" speed="11.11" pos="439.33" lane="2o_0" slope="0.00"/>
    </timestep>
    <timestep time="62.00">
        <vehicle id="v0" x="946.13" y="498.35" angle="90.00" type="DEFAULT_VEHTYPE" speed="11.11" pos="444.88" lane="2o_0" slope="0.00"/>
    </timestep>
    <timestep time="62.50">
        <vehicle id="v0" x="951.56" y="498.35" angle="90.00" type="DEFAULT_VEHTYPE" speed="11.11" pos="450.44" lane="2o_0" slope="0.00"/>
    </timestep>
    <timestep time="63.00">
        <vehicle id="v0" x="956.99" y="498.35" angle="90.00" type="DEFAULT_VEHTYPE" speed="11.11" pos="455.99" lane="2o_0" slope="0.00"/>
    </timestep>
    <timestep time="63.50">
        <vehicle id="v0" x="962.42" y="498.35" angle="90.00" type="DEFAULT_VEHTYPE" speed="11.11" pos="461.55" lane="2o_0" slope="0.00"/>
    </timestep>
    <timestep time="64.00">
        <vehicle id="v0" x="967.85" y="498.35" angle="90.00" type="DEFAULT_VEHTYPE" speed="11.11" pos="467.10" lane="2o_0" slope="0.00"/>
    </timestep>
    <timestep time="64.50">
        <vehicle id="v0" x="973.28" y="498.35" angle="90.00" type="DEFAULT_VEHTYPE" speed="11.11" pos="472.66" lane="2o_0" slope="0.00"/>
    </timestep>
    <timestep time="65.00">
        <vehicle id="v0" x="978.71" y="498.35" angle="90.00" type="DEFAULT_VEHTYPE" speed="11.11" pos="478.21" lane="2o_0" slope="0.00"/>
    </timestep>
    <timestep time="65.50">
        <vehicle id="v0" x="984.14" y="498.35" angle="90.00" type="DEFAULT_VEHTYPE" speed="11.11" pos="483.77" lane="2o_0" slope="0.00"/>
    </timestep>
    <timestep time="66.00">
        <vehicle id="v0" x="989.56" y="498.35" angle="90.00" type="DEFAULT_VEHTYPE" speed="11.11" pos="489.32" lane="2o_0" slope="0.00"/>
    </timestep>
    <timestep time="66.50">
        <vehicle id="v0" x="994.99" y="498.35" angle="90.00" type="DEFAULT_VEHTYPE" speed="11.11" pos="494.88" lane="2o_0" slope="0.00"/>
    </timestep>
    <timestep time="67.00"/>
</fcd-export>
