<?xml version="1.0" encoding="UTF-8"?>

<!-- generated on 2026-03-04T15:24:12.614684+01:00 by Eclipse SUMO sumo v1_26_0+0449-f6a569ae817
This data file and the accompanying materials
are made available under the terms of the Eclipse Public License v2.0
which accompanies this distribution, and is available at
http://www.eclipse.org/legal/epl-v20.html
This file may also be made available under the following Secondary
Licenses when the conditions for such availability set forth in the Eclipse
Public License 2.0 are satisfied: GNU General Public License, version 2
or later which is available at
https://www.gnu.org/licenses/old-licenses/gpl-2.0-standalone.html
SPDX-License-Identifier: EPL-2.0 OR GPL-2.0-or-later
<sumoConfiguration xmlns:xsi="http://www.w3.org/2001/XMLSchema-instance" xsi:noNamespaceSchemaLocation="http://sumo.dlr.de/xsd/sumoConfiguration.xsd">

    <input>
        <net-file value="net.net.xml"/>
        <route-files value="input_routes.rou.xml"/>
    </input>

    <output>
        <write-license value="true"/>
        <tripinfo-output value="tripinfos.xml"/>
        <railsignal-block-output value="railsignal_blocks.xml"/>
    </output>

    <processing>
        <collision.action value="warn"/>
        <collision.check-junctions value="true"/>
        <time-to-teleport.railsignal-deadlock value="200"/>
        <default.speeddev value="0"/>
    </processing>

    <report>
        <xml-validation value="never"/>
        <duration-log.disable value="true"/>
        <no-step-log value="true"/>
    </report>

</sumoConfiguration>
-->

<tripinfos xmlns:xsi="http://www.w3.org/2001/XMLSchema-instance" xsi:noNamespaceSchemaLocation="http://sumo.dlr.de/xsd/tripinfo_file.xsd">
    <tripinfo id="t_0" depart="0.00" departLane="E5_0" departPos="22.10" departSpeed="0.00" departDelay="0.00" arrival="33.00" arrivalLane="E4_0" arrivalPos="96.90" arrivalSpeed="13.75" duration="33.00" routeLength="276.80" waitingTime="0.00" waitingCount="0" stopTime="0.00" timeLoss="12.44" rerouteNo="1" devices="tripinfo_t_0 routing_t_0" vType="tram" speedFactor="1.00" vaporized=""/>
    <tripinfo id="t_1" depart="50.00" departLane="E5_0" departPos="22.10" departSpeed="0.00" departDelay="0.00" arrival="214.00" arrivalLane="E2_0" arrivalPos="1900.00" arrivalSpeed="13.89" duration="164.00" routeLength="2178.10" waitingTime="0.00" waitingCount="0" stopTime="0.00" timeLoss="6.45" rerouteNo="1" devices="tripinfo_t_1 routing_t_1" vType="tram" speedFactor="1.00" vaporized=""/>
    <tripinfo id="t_2" depart="57.00" departLane="E3_0" departPos="22.10" departSpeed="0.00" departDelay="0.00" arrival="228.00" arrivalLane="E4_0" arrivalPos="96.90" arrivalSpeed="13.89" duration="171.00" routeLength="177.90" waitingTime="143.00" waitingCount="1" stopTime="0.00" timeLoss="158.14" rerouteNo="0" devices="tripinfo_t_2 routing_t_2" vType="tram" speedFactor="1.00" vaporized=""/>
</tripinfos>
