<?xml version="1.0" encoding="UTF-8"?>

<!-- generated on Tue Dec  1 16:04:11 2020 by Eclipse SUMO sumo Version 1.8.0
This data file and the accompanying materials
are made available under the terms of the Eclipse Public License v2.0
which accompanies this distribution, and is available at
http://www.eclipse.org/legal/epl-v20.html
SPDX-License-Identifier: EPL-2.0
<configuration xmlns:xsi="http://www.w3.org/2001/XMLSchema-instance" xsi:noNamespaceSchemaLocation="http://sumo.dlr.de/xsd/sumoConfiguration.xsd">

    <input>
        <net-file value="net.net.xml"/>
        <route-files value="input_routes.rou.xml"/>
    </input>

    <output>
        <write-license value="true"/>
        <tripinfo-output value="tripinfos.xml"/>
        <tripinfo-output.write-unfinished value="true"/>
    </output>

    <processing>
        <default.speeddev value="0"/>
    </processing>

    <report>
        <xml-validation value="never"/>
        <xml-validation.routes value="never"/>
        <duration-log.disable value="true"/>
        <no-step-log value="true"/>
    </report>

</configuration>
-->

<tripinfos xmlns:xsi="http://www.w3.org/2001/XMLSchema-instance" xsi:noNamespaceSchemaLocation="http://sumo.dlr.de/xsd/tripinfo_file.xsd">
    <personinfo id="0" depart="1.00" type="DEFAULT_PEDTYPE">
        <ride waitingTime="64.00" vehicle="taxi" depart="65.00" arrival="169.00" arrivalPos="5.00" duration="104.00" routeLength="1195.00" timeLoss="17.97"/>
    </personinfo>
    <tripinfo id="taxi" depart="1.00" departLane="A1B1_1" departPos="5.10" departSpeed="0.00" departDelay="0.00" arrival="-1.00" arrivalLane="" arrivalPos="-1.00" arrivalSpeed="-1.00" duration="229.00" routeLength="1199.90" waitingTime="5.00" waitingCount="2" stopTime="120.00" timeLoss="22.62" rerouteNo="2" devices="tripinfo_taxi routing_taxi taxi_taxi person_taxi" vType="taxi" speedFactor="1.00" vaporized="">
        <taxi customers="1" occupiedDistance="1195.00" occupiedTime="106.00"/>
    </tripinfo>
</tripinfos>
