<?xml version="1.0" encoding="UTF-8"?>

<!-- generated on Mon Mar 30 15:08:01 2020 by Eclipse SUMO Version v1_5_0+1011-3e02c63d25
This data file and the accompanying materials
are made available under the terms of the Eclipse Public License v2.0
which accompanies this distribution, and is available at
http://www.eclipse.org/legal/epl-v20.html
SPDX-License-Identifier: EPL-2.0
<configuration xmlns:xsi="http://www.w3.org/2001/XMLSchema-instance" xsi:noNamespaceSchemaLocation="http://sumo.dlr.de/xsd/sumoConfiguration.xsd">

    <input>
        <net-file value="three_split.net.xml"/>
        <additional-files value="input_routes.rou.xml"/>
    </input>

    <output>
        <write-license value="true"/>
        <summary-output value="summary.xml"/>
    </output>

    <time>
        <begin value="50"/>
        <end value="100"/>
    </time>

    <processing>
        <default.speeddev value="0"/>
    </processing>

    <report>
        <xml-validation value="never"/>
        <duration-log.disable value="true"/>
        <no-step-log value="true"/>
    </report>

</configuration>
-->

<summary xmlns:xsi="http://www.w3.org/2001/XMLSchema-instance" xsi:noNamespaceSchemaLocation="http://sumo.dlr.de/xsd/summary_file.xsd">
    <step time="50.00" loaded="8" inserted="1" running="1" waiting="0" ended="0" arrived="0" collisions="0" teleports="0" halting="1" meanWaitingTime="0.00" meanTravelTime="-1.00" meanSpeed="0.00" meanSpeedRelative="0.00"/>
    <step time="51.00" loaded="8" inserted="1" running="1" waiting="1" ended="0" arrived="0" collisions="0" teleports="0" halting="0" meanWaitingTime="0.00" meanTravelTime="-1.00" meanSpeed="2.60" meanSpeedRelative="0.09"/>
    <step time="52.00" loaded="8" inserted="2" running="2" waiting="0" ended="0" arrived="0" collisions="0" teleports="0" halting="1" meanWaitingTime="1.00" meanTravelTime="-1.00" meanSpeed="2.60" meanSpeedRelative="0.09"/>
    <step time="53.00" loaded="8" inserted="2" running="2" waiting="0" ended="0" arrived="0" collisions="0" teleports="0" halting="0" meanWaitingTime="1.00" meanTravelTime="-1.00" meanSpeed="4.40" meanSpeedRelative="0.16"/>
    <step time="54.00" loaded="8" inserted="2" running="2" waiting="0" ended="0" arrived="0" collisions="0" teleports="0" halting="0" meanWaitingTime="1.00" meanTravelTime="-1.00" meanSpeed="7.00" meanSpeedRelative="0.25"/>
    <step time="55.00" loaded="8" inserted="2" running="2" waiting="0" ended="0" arrived="0" collisions="0" teleports="0" halting="0" meanWaitingTime="1.00" meanTravelTime="-1.00" meanSpeed="9.60" meanSpeedRelative="0.35"/>
    <step time="56.00" loaded="8" inserted="2" running="2" waiting="0" ended="0" arrived="0" collisions="0" teleports="0" halting="0" meanWaitingTime="1.00" meanTravelTime="-1.00" meanSpeed="12.20" meanSpeedRelative="0.44"/>
    <step time="57.00" loaded="8" inserted="2" running="2" waiting="0" ended="0" arrived="0" collisions="0" teleports="0" halting="0" meanWaitingTime="1.00" meanTravelTime="-1.00" meanSpeed="14.80" meanSpeedRelative="0.53"/>
    <step time="58.00" loaded="8" inserted="2" running="2" waiting="0" ended="0" arrived="0" collisions="0" teleports="0" halting="0" meanWaitingTime="1.00" meanTravelTime="-1.00" meanSpeed="17.40" meanSpeedRelative="0.63"/>
    <step time="59.00" loaded="8" inserted="2" running="2" waiting="0" ended="0" arrived="0" collisions="0" teleports="0" halting="0" meanWaitingTime="1.00" meanTravelTime="-1.00" meanSpeed="20.00" meanSpeedRelative="0.72"/>
    <step time="60.00" loaded="8" inserted="2" running="2" waiting="0" ended="0" arrived="0" collisions="0" teleports="0" halting="0" meanWaitingTime="1.00" meanTravelTime="-1.00" meanSpeed="22.60" meanSpeedRelative="0.81"/>
    <step time="61.00" loaded="8" inserted="2" running="2" waiting="0" ended="0" arrived="0" collisions="0" teleports="0" halting="0" meanWaitingTime="1.00" meanTravelTime="-1.00" meanSpeed="24.80" meanSpeedRelative="0.89"/>
    <step time="62.00" loaded="8" inserted="2" running="2" waiting="0" ended="0" arrived="0" collisions="0" teleports="0" halting="0" meanWaitingTime="1.00" meanTravelTime="-1.00" meanSpeed="26.10" meanSpeedRelative="0.94"/>
    <step time="63.00" loaded="8" inserted="2" running="2" waiting="0" ended="0" arrived="0" collisions="0" teleports="0" halting="0" meanWaitingTime="1.00" meanTravelTime="-1.00" meanSpeed="27.40" meanSpeedRelative="0.99"/>
    <step time="64.00" loaded="8" inserted="2" running="2" waiting="0" ended="0" arrived="0" collisions="0" teleports="0" halting="0" meanWaitingTime="1.00" meanTravelTime="-1.00" meanSpeed="27.80" meanSpeedRelative="1.00"/>
    <step time="65.00" loaded="8" inserted="2" running="2" waiting="0" ended="0" arrived="0" collisions="0" teleports="0" halting="0" meanWaitingTime="1.00" meanTravelTime="-1.00" meanSpeed="27.80" meanSpeedRelative="1.00"/>
    <step time="66.00" loaded="8" inserted="2" running="2" waiting="0" ended="0" arrived="0" collisions="0" teleports="0" halting="0" meanWaitingTime="1.00" meanTravelTime="-1.00" meanSpeed="27.80" meanSpeedRelative="1.00"/>
    <step time="67.00" loaded="8" inserted="2" running="2" waiting="0" ended="0" arrived="0" collisions="0" teleports="0" halting="0" meanWaitingTime="1.00" meanTravelTime="-1.00" meanSpeed="27.80" meanSpeedRelative="1.00"/>
    <step time="68.00" loaded="8" inserted="2" running="2" waiting="0" ended="0" arrived="0" collisions="0" teleports="0" halting="0" meanWaitingTime="1.00" meanTravelTime="-1.00" meanSpeed="27.80" meanSpeedRelative="1.00"/>
    <step time="69.00" loaded="8" inserted="2" running="2" waiting="0" ended="0" arrived="0" collisions="0" teleports="0" halting="0" meanWaitingTime="1.00" meanTravelTime="-1.00" meanSpeed="27.80" meanSpeedRelative="1.00"/>
    <step time="70.00" loaded="8" inserted="2" running="2" waiting="0" ended="0" arrived="0" collisions="0" teleports="0" halting="0" meanWaitingTime="1.00" meanTravelTime="-1.00" meanSpeed="27.80" meanSpeedRelative="1.00"/>
    <step time="71.00" loaded="8" inserted="2" running="2" waiting="0" ended="0" arrived="0" collisions="0" teleports="0" halting="0" meanWaitingTime="1.00" meanTravelTime="-1.00" meanSpeed="27.80" meanSpeedRelative="1.00"/>
    <step time="72.00" loaded="8" inserted="2" running="2" waiting="0" ended="0" arrived="0" collisions="0" teleports="0" halting="0" meanWaitingTime="1.00" meanTravelTime="-1.00" meanSpeed="27.80" meanSpeedRelative="1.00"/>
    <step time="73.00" loaded="8" inserted="2" running="2" waiting="0" ended="0" arrived="0" collisions="0" teleports="0" halting="0" meanWaitingTime="1.00" meanTravelTime="-1.00" meanSpeed="27.80" meanSpeedRelative="1.00"/>
    <step time="74.00" loaded="8" inserted="2" running="2" waiting="0" ended="0" arrived="0" collisions="0" teleports="0" halting="0" meanWaitingTime="1.00" meanTravelTime="-1.00" meanSpeed="27.80" meanSpeedRelative="1.00"/>
    <step time="75.00" loaded="8" inserted="2" running="2" waiting="0" ended="0" arrived="0" collisions="0" teleports="0" halting="0" meanWaitingTime="1.00" meanTravelTime="-1.00" meanSpeed="27.80" meanSpeedRelative="1.00"/>
    <step time="76.00" loaded="8" inserted="2" running="2" waiting="0" ended="0" arrived="0" collisions="0" teleports="0" halting="0" meanWaitingTime="1.00" meanTravelTime="-1.00" meanSpeed="27.80" meanSpeedRelative="1.00"/>
    <step time="77.00" loaded="8" inserted="2" running="2" waiting="0" ended="0" arrived="0" collisions="0" teleports="0" halting="0" meanWaitingTime="1.00" meanTravelTime="-1.00" meanSpeed="27.80" meanSpeedRelative="1.00"/>
    <step time="78.00" loaded="8" inserted="2" running="2" waiting="0" ended="0" arrived="0" collisions="0" teleports="0" halting="0" meanWaitingTime="1.00" meanTravelTime="-1.00" meanSpeed="27.80" meanSpeedRelative="1.00"/>
    <step time="79.00" loaded="8" inserted="2" running="2" waiting="0" ended="0" arrived="0" collisions="0" teleports="0" halting="0" meanWaitingTime="1.00" meanTravelTime="-1.00" meanSpeed="27.80" meanSpeedRelative="1.00"/>
    <step time="80.00" loaded="8" inserted="2" running="2" waiting="0" ended="0" arrived="0" collisions="0" teleports="0" halting="0" meanWaitingTime="1.00" meanTravelTime="-1.00" meanSpeed="27.80" meanSpeedRelative="1.00"/>
    <step time="81.00" loaded="8" inserted="2" running="2" waiting="0" ended="0" arrived="0" collisions="0" teleports="0" halting="0" meanWaitingTime="1.00" meanTravelTime="-1.00" meanSpeed="27.80" meanSpeedRelative="1.00"/>
    <step time="82.00" loaded="8" inserted="2" running="2" waiting="0" ended="0" arrived="0" collisions="0" teleports="0" halting="0" meanWaitingTime="1.00" meanTravelTime="-1.00" meanSpeed="27.80" meanSpeedRelative="1.00"/>
    <step time="83.00" loaded="8" inserted="2" running="2" waiting="0" ended="0" arrived="0" collisions="0" teleports="0" halting="0" meanWaitingTime="1.00" meanTravelTime="-1.00" meanSpeed="27.80" meanSpeedRelative="1.00"/>
    <step time="84.00" loaded="8" inserted="2" running="2" waiting="0" ended="0" arrived="0" collisions="0" teleports="0" halting="0" meanWaitingTime="1.00" meanTravelTime="-1.00" meanSpeed="27.80" meanSpeedRelative="1.00"/>
    <step time="85.00" loaded="8" inserted="2" running="2" waiting="0" ended="0" arrived="0" collisions="0" teleports="0" halting="0" meanWaitingTime="1.00" meanTravelTime="-1.00" meanSpeed="27.80" meanSpeedRelative="1.00"/>
    <step time="86.00" loaded="8" inserted="2" running="2" waiting="0" ended="0" arrived="0" collisions="0" teleports="0" halting="0" meanWaitingTime="1.00" meanTravelTime="-1.00" meanSpeed="27.80" meanSpeedRelative="1.00"/>
    <step time="87.00" loaded="8" inserted="2" running="2" waiting="0" ended="0" arrived="0" collisions="0" teleports="0" halting="0" meanWaitingTime="1.00" meanTravelTime="-1.00" meanSpeed="27.80" meanSpeedRelative="1.00"/>
    <step time="88.00" loaded="8" inserted="2" running="2" waiting="0" ended="0" arrived="0" collisions="0" teleports="0" halting="0" meanWaitingTime="1.00" meanTravelTime="-1.00" meanSpeed="27.80" meanSpeedRelative="1.00"/>
    <step time="89.00" loaded="8" inserted="2" running="2" waiting="0" ended="0" arrived="0" collisions="0" teleports="0" halting="0" meanWaitingTime="1.00" meanTravelTime="-1.00" meanSpeed="27.80" meanSpeedRelative="1.00"/>
    <step time="90.00" loaded="8" inserted="2" running="2" waiting="0" ended="0" arrived="0" collisions="0" teleports="0" halting="0" meanWaitingTime="1.00" meanTravelTime="-1.00" meanSpeed="27.80" meanSpeedRelative="1.00"/>
    <step time="91.00" loaded="8" inserted="2" running="2" waiting="0" ended="0" arrived="0" collisions="0" teleports="0" halting="0" meanWaitingTime="1.00" meanTravelTime="-1.00" meanSpeed="27.80" meanSpeedRelative="1.00"/>
    <step time="92.00" loaded="8" inserted="2" running="2" waiting="0" ended="0" arrived="0" collisions="0" teleports="0" halting="0" meanWaitingTime="1.00" meanTravelTime="-1.00" meanSpeed="27.80" meanSpeedRelative="1.00"/>
    <step time="93.00" loaded="8" inserted="2" running="2" waiting="0" ended="0" arrived="0" collisions="0" teleports="0" halting="0" meanWaitingTime="1.00" meanTravelTime="-1.00" meanSpeed="27.80" meanSpeedRelative="1.00"/>
    <step time="94.00" loaded="8" inserted="2" running="2" waiting="0" ended="0" arrived="0" collisions="0" teleports="0" halting="0" meanWaitingTime="1.00" meanTravelTime="-1.00" meanSpeed="27.80" meanSpeedRelative="1.00"/>
    <step time="95.00" loaded="8" inserted="2" running="2" waiting="0" ended="0" arrived="0" collisions="0" teleports="0" halting="0" meanWaitingTime="1.00" meanTravelTime="-1.00" meanSpeed="27.80" meanSpeedRelative="1.00"/>
    <step time="96.00" loaded="8" inserted="2" running="2" waiting="0" ended="0" arrived="0" collisions="0" teleports="0" halting="0" meanWaitingTime="1.00" meanTravelTime="-1.00" meanSpeed="27.80" meanSpeedRelative="1.00"/>
    <step time="97.00" loaded="8" inserted="2" running="2" waiting="0" ended="0" arrived="0" collisions="0" teleports="0" halting="0" meanWaitingTime="1.00" meanTravelTime="-1.00" meanSpeed="27.80" meanSpeedRelative="1.00"/>
    <step time="98.00" loaded="8" inserted="2" running="2" waiting="0" ended="0" arrived="0" collisions="0" teleports="0" halting="0" meanWaitingTime="1.00" meanTravelTime="-1.00" meanSpeed="27.80" meanSpeedRelative="1.00"/>
    <step time="99.00" loaded="8" inserted="2" running="2" waiting="0" ended="0" arrived="0" collisions="0" teleports="0" halting="0" meanWaitingTime="1.00" meanTravelTime="-1.00" meanSpeed="27.80" meanSpeedRelative="1.00"/>
</summary>
