<?xml version="1.0" encoding="UTF-8"?>

<!-- generated on 2025-04-22 20:30:18 by Eclipse SUMO sumo Version v1_22_0+1646-d8cbcaf97a5
This data file and the accompanying materials
are made available under the terms of the Eclipse Public License v2.0
which accompanies this distribution, and is available at
http://www.eclipse.org/legal/epl-v20.html
This file may also be made available under the following Secondary
Licenses when the conditions for such availability set forth in the Eclipse
Public License 2.0 are satisfied: GNU General Public License, version 2
or later which is available at
https://www.gnu.org/licenses/old-licenses/gpl-2.0-standalone.html
SPDX-License-Identifier: EPL-2.0 OR GPL-2.0-or-later
<sumoConfiguration xmlns:xsi="http://www.w3.org/2001/XMLSchema-instance" xsi:noNamespaceSchemaLocation="http://sumo.dlr.de/xsd/sumoConfiguration.xsd">

    <input>
        <net-file value="net.net.xml"/>
        <additional-files value="input_routes.rou.xml,input_additional.add.xml,input_additional2.add.xml"/>
    </input>

    <output>
        <write-license value="true"/>
    </output>

    <time>
        <begin value="0"/>
        <end value="150"/>
    </time>

    <processing>
        <default.speeddev value="0"/>
    </processing>

    <report>
        <xml-validation value="never"/>
        <duration-log.disable value="true"/>
        <no-step-log value="true"/>
    </report>

    <mesoscopic>
        <mesosim value="true"/>
    </mesoscopic>

</sumoConfiguration>
-->

<meandata xmlns:xsi="http://www.w3.org/2001/XMLSchema-instance" xsi:noNamespaceSchemaLocation="http://sumo.dlr.de/xsd/meandata_file.xsd">
    <interval begin="15.00" end="30.00" id="dump_15">
        <edge id="4/1to3/1" sampledSeconds="30.00" CO_abs="91.770000" CO2_abs="53904.000000" HC_abs="0.639600" PMx_abs="8.306820" NOx_abs="19.996500" fuel_abs="17475.300000" electricity_abs="0"
            CO_normed="55.062000" CO2_normed="32342.400000" HC_normed="0.383760" PMx_normed="4.984092" NOx_normed="11.997900" fuel_normed="10485.180000" electricity_normed="0"
            traveltime="40.00" CO_perVeh="122.360000" CO2_perVeh="71872.000000" HC_perVeh="0.852800" PMx_perVeh="11.075760" NOx_perVeh="26.662000" fuel_perVeh="23300.400000" electricity_perVeh="0"/>
    </interval>
    <interval begin="45.00" end="60.00" id="dump_15">
        <edge id="3/1to2/1" sampledSeconds="29.00" CO_abs="88.711000" CO2_abs="52107.200000" HC_abs="0.618280" PMx_abs="8.029926" NOx_abs="19.329950" fuel_abs="16892.790000" electricity_abs="0"
            CO_normed="53.226600" CO2_normed="31264.320000" HC_normed="0.370968" PMx_normed="4.817956" NOx_normed="11.597970" fuel_normed="10135.674000" electricity_normed="0"
            traveltime="40.00" CO_perVeh="122.360000" CO2_perVeh="71872.000000" HC_perVeh="0.852800" PMx_perVeh="11.075760" NOx_perVeh="26.662000" fuel_perVeh="23300.400000" electricity_perVeh="0"/>
        <edge id="4/1to3/1" sampledSeconds="1.00" CO_abs="3.059000" CO2_abs="1796.800000" HC_abs="0.021320" PMx_abs="0.276894" NOx_abs="0.666550" fuel_abs="582.510000" electricity_abs="0"
            CO_normed="1.835400" CO2_normed="1078.080000" HC_normed="0.012792" PMx_normed="0.166136" NOx_normed="0.399930" fuel_normed="349.506000" electricity_normed="0"
            traveltime="40.00" CO_perVeh="122.360000" CO2_perVeh="71872.000000" HC_perVeh="0.852800" PMx_perVeh="11.075760" NOx_perVeh="26.662000" fuel_perVeh="23300.400000" electricity_perVeh="0"/>
    </interval>
</meandata>
