<?xml version="1.0" encoding="UTF-8"?>

<!-- generated on 2024-11-18 13:22:54 by Eclipse SUMO sumo Version v1_21_0+0828-d5417e58085
This data file and the accompanying materials
are made available under the terms of the Eclipse Public License v2.0
which accompanies this distribution, and is available at
http://www.eclipse.org/legal/epl-v20.html
This file may also be made available under the following Secondary
Licenses when the conditions for such availability set forth in the Eclipse
Public License 2.0 are satisfied: GNU General Public License, version 2
or later which is available at
https://www.gnu.org/licenses/old-licenses/gpl-2.0-standalone.html
SPDX-License-Identifier: EPL-2.0 OR GPL-2.0-or-later
<sumoConfiguration xmlns:xsi="http://www.w3.org/2001/XMLSchema-instance" xsi:noNamespaceSchemaLocation="http://sumo.dlr.de/xsd/sumoConfiguration.xsd">

    <input>
        <net-file value="net.net.xml"/>
        <route-files value="input_routes.rou.xml"/>
    </input>

    <output>
        <write-license value="true"/>
        <fcd-output value="fcd.xml"/>
    </output>

    <processing>
        <default.speeddev value="0"/>
    </processing>

    <report>
        <xml-validation value="never"/>
        <duration-log.disable value="true"/>
        <no-step-log value="true"/>
    </report>

</sumoConfiguration>
-->

<fcd-export xmlns:xsi="http://www.w3.org/2001/XMLSchema-instance" xsi:noNamespaceSchemaLocation="http://sumo.dlr.de/xsd/fcd_file.xsd">
    <timestep time="0.00">
        <vehicle id="v0" x="441.95" y="495.05" angle="90.00" type="t0" speed="16.00" pos="441.95" lane="1fi_0" slope="0.00"/>
    </timestep>
    <timestep time="1.00">
        <vehicle id="v0" x="457.95" y="498.35" angle="90.00" type="t0" speed="16.00" pos="457.95" lane="1fi_1" slope="0.00"/>
    </timestep>
    <timestep time="2.00">
        <vehicle id="v0" x="472.70" y="498.35" angle="90.00" type="t0" speed="14.75" pos="472.70" lane="1fi_1" slope="0.00"/>
    </timestep>
    <timestep time="3.00">
        <vehicle id="v0" x="482.95" y="498.35" angle="90.00" type="t0" speed="10.25" pos="482.95" lane="1fi_1" slope="0.00"/>
    </timestep>
    <timestep time="4.00">
        <vehicle id="v0" x="488.70" y="498.35" angle="90.00" type="t0" speed="5.75" pos="488.70" lane="1fi_1" slope="0.00"/>
    </timestep>
    <timestep time="5.00">
        <vehicle id="v0" x="489.95" y="498.35" angle="90.00" type="t0" speed="1.25" pos="489.95" lane="1fi_1" slope="0.00"/>
    </timestep>
    <timestep time="6.00">
        <vehicle id="v0" x="489.95" y="498.35" angle="90.00" type="t0" speed="0.00" pos="489.95" lane="1fi_1" slope="0.00"/>
    </timestep>
    <timestep time="7.00">
        <vehicle id="v0" x="492.55" y="498.35" angle="90.00" type="t0" speed="2.60" pos="0.60" lane=":0_13_0" slope="0.00"/>
    </timestep>
    <timestep time="8.00">
        <vehicle id="v0" x="497.75" y="498.35" angle="90.00" type="t0" speed="5.20" pos="5.80" lane=":0_13_0" slope="0.00"/>
    </timestep>
    <timestep time="9.00">
        <vehicle id="v0" x="505.55" y="498.35" angle="90.00" type="t0" speed="7.80" pos="13.60" lane=":0_13_0" slope="0.00"/>
    </timestep>
    <timestep time="10.00">
        <vehicle id="v0" x="515.95" y="498.35" angle="90.00" type="t0" speed="10.40" pos="7.90" lane="2o_0" slope="0.00"/>
    </timestep>
    <timestep time="11.00"/>
</fcd-export>
