<?xml version="1.0" encoding="UTF-8"?>

<!-- generated on Wed Feb  8 16:35:58 2017 by SUMO Version dev-SVN-r22880
<?xml version="1.0" encoding="UTF-8"?>

<configuration xmlns:xsi="http://www.w3.org/2001/XMLSchema-instance" xsi:noNamespaceSchemaLocation="http://sumo.dlr.de/xsd/sumoConfiguration.xsd">

    <input>
        <net-file value="net.net.xml"/>
        <additional-files value="input_additional.add.xml,input_additional2.add.xml"/>
    </input>

    <output>
        <netstate-dump value="rawdump.xml"/>
    </output>

    <processing>
        <pedestrian.model value="striping"/>
        <pedestrian.striping.dawdling value="0"/>
    </processing>

    <report>
        <xml-validation value="never"/>
        <no-step-log value="true"/>
    </report>

</configuration>
-->

<netstate xmlns:xsi="http://www.w3.org/2001/XMLSchema-instance" xsi:noNamespaceSchemaLocation="http://sumo.dlr.de/xsd/netstate_file.xsd">
    <timestep time="0.00"/>
    <timestep time="1.00"/>
    <timestep time="2.00"/>
    <timestep time="3.00"/>
    <timestep time="4.00"/>
    <timestep time="5.00"/>
    <timestep time="6.00"/>
    <timestep time="7.00"/>
    <timestep time="8.00"/>
    <timestep time="9.00"/>
    <timestep time="10.00">
        <edge id="CS">
            <person id="p0" pos="20.00" angle="0.00" stage="walking"/>
        </edge>
    </timestep>
    <timestep time="11.00">
        <edge id="CS">
            <person id="p0" pos="18.61" angle="0.00" stage="walking"/>
        </edge>
    </timestep>
    <timestep time="12.00">
        <edge id="CS">
            <person id="p0" pos="17.22" angle="0.00" stage="walking"/>
        </edge>
    </timestep>
    <timestep time="13.00">
        <edge id="CS">
            <person id="p0" pos="15.83" angle="0.00" stage="walking"/>
        </edge>
    </timestep>
    <timestep time="14.00">
        <edge id="CS">
            <person id="p0" pos="14.44" angle="0.00" stage="walking"/>
        </edge>
    </timestep>
    <timestep time="15.00">
        <edge id="CS">
            <person id="p0" pos="13.06" angle="0.00" stage="walking"/>
        </edge>
    </timestep>
    <timestep time="16.00">
        <edge id="CS">
            <person id="p0" pos="11.67" angle="0.00" stage="walking"/>
        </edge>
    </timestep>
    <timestep time="17.00">
        <edge id="CS">
            <person id="p0" pos="10.28" angle="0.00" stage="walking"/>
        </edge>
    </timestep>
    <timestep time="18.00">
        <edge id="CS">
            <person id="p0" pos="8.89" angle="0.00" stage="walking"/>
        </edge>
    </timestep>
    <timestep time="19.00">
        <edge id="CS">
            <person id="p0" pos="7.50" angle="0.00" stage="walking"/>
        </edge>
    </timestep>
    <timestep time="20.00">
        <edge id="CS">
            <person id="p0" pos="6.11" angle="0.00" stage="walking"/>
        </edge>
    </timestep>
    <timestep time="21.00">
        <edge id="CS">
            <person id="p0" pos="4.72" angle="0.00" stage="walking"/>
        </edge>
    </timestep>
    <timestep time="22.00">
        <edge id="CS">
            <person id="p0" pos="3.33" angle="0.00" stage="walking"/>
        </edge>
    </timestep>
    <timestep time="23.00">
        <edge id="CS">
            <person id="p0" pos="1.94" angle="0.00" stage="walking"/>
        </edge>
    </timestep>
    <timestep time="24.00">
        <edge id="CS">
            <person id="p0" pos="0.56" angle="0.00" stage="walking"/>
        </edge>
    </timestep>
    <timestep time="25.00">
        <edge id=":C_w3">
            <person id="p0" pos="3.68" angle="0.00" stage="walking"/>
        </edge>
    </timestep>
    <timestep time="26.00">
        <edge id=":C_w3">
            <person id="p0" pos="2.29" angle="60.21" stage="walking"/>
        </edge>
    </timestep>
    <timestep time="27.00">
        <edge id=":C_w3">
            <person id="p0" pos="0.91" angle="90.00" stage="walking"/>
        </edge>
    </timestep>
    <timestep time="28.00">
        <edge id=":C_w3">
            <person id="p0" pos="0.00" angle="90.00" stage="walking"/>
        </edge>
    </timestep>
    <timestep time="29.00">
        <edge id=":C_w3">
            <person id="p0" pos="0.00" angle="90.00" stage="walking"/>
        </edge>
    </timestep>
    <timestep time="30.00">
        <edge id=":C_w3">
            <person id="p0" pos="0.00" angle="90.00" stage="walking"/>
        </edge>
    </timestep>
    <timestep time="31.00">
        <edge id=":C_w3">
            <person id="p0" pos="0.00" angle="90.00" stage="walking"/>
        </edge>
    </timestep>
    <timestep time="32.00">
        <edge id=":C_w3">
            <person id="p0" pos="0.00" angle="90.00" stage="walking"/>
        </edge>
    </timestep>
    <timestep time="33.00">
        <edge id=":C_w3">
            <person id="p0" pos="0.00" angle="90.00" stage="walking"/>
        </edge>
    </timestep>
    <timestep time="34.00">
        <edge id=":C_w3">
            <person id="p0" pos="0.00" angle="90.00" stage="walking"/>
        </edge>
    </timestep>
    <timestep time="35.00">
        <edge id=":C_w3">
            <person id="p0" pos="0.00" angle="90.00" stage="walking"/>
        </edge>
    </timestep>
    <timestep time="36.00">
        <edge id=":C_w3">
            <person id="p0" pos="0.00" angle="90.00" stage="walking"/>
        </edge>
    </timestep>
    <timestep time="37.00">
        <edge id=":C_w3">
            <person id="p0" pos="0.00" angle="90.00" stage="walking"/>
        </edge>
    </timestep>
    <timestep time="38.00">
        <edge id=":C_w3">
            <person id="p0" pos="0.00" angle="90.00" stage="walking"/>
        </edge>
    </timestep>
    <timestep time="39.00">
        <edge id=":C_w3">
            <person id="p0" pos="0.00" angle="90.00" stage="walking"/>
        </edge>
    </timestep>
    <timestep time="40.00">
        <edge id=":C_w3">
            <person id="p0" pos="0.00" angle="90.00" stage="walking"/>
        </edge>
    </timestep>
    <timestep time="41.00">
        <edge id=":C_w3">
            <person id="p0" pos="0.00" angle="90.00" stage="walking"/>
        </edge>
    </timestep>
    <timestep time="42.00">
        <edge id=":C_w3">
            <person id="p0" pos="0.00" angle="90.00" stage="walking"/>
        </edge>
    </timestep>
    <timestep time="43.00">
        <edge id=":C_w3">
            <person id="p0" pos="0.00" angle="90.00" stage="walking"/>
        </edge>
    </timestep>
    <timestep time="44.00">
        <edge id=":C_w3">
            <person id="p0" pos="0.00" angle="90.00" stage="walking"/>
        </edge>
    </timestep>
    <timestep time="45.00">
        <edge id=":C_c3">
            <person id="p0" pos="13.91" angle="0.00" stage="walking"/>
        </edge>
    </timestep>
    <timestep time="46.00">
        <edge id=":C_c3">
            <person id="p0" pos="12.52" angle="0.00" stage="walking"/>
        </edge>
    </timestep>
    <timestep time="47.00">
        <edge id=":C_c3">
            <person id="p0" pos="11.13" angle="0.00" stage="walking"/>
        </edge>
    </timestep>
    <timestep time="48.00">
        <edge id=":C_c3">
            <person id="p0" pos="9.74" angle="0.00" stage="walking"/>
        </edge>
    </timestep>
    <timestep time="49.00">
        <edge id=":C_c3">
            <person id="p0" pos="8.36" angle="0.00" stage="walking"/>
        </edge>
    </timestep>
    <timestep time="50.00">
        <edge id=":C_c3">
            <person id="p0" pos="6.97" angle="0.00" stage="walking"/>
        </edge>
    </timestep>
    <timestep time="51.00">
        <edge id=":C_c3">
            <person id="p0" pos="5.58" angle="0.00" stage="walking"/>
        </edge>
    </timestep>
    <timestep time="52.00">
        <edge id=":C_c3">
            <person id="p0" pos="4.19" angle="0.00" stage="walking"/>
        </edge>
    </timestep>
    <timestep time="53.00">
        <edge id=":C_c3">
            <person id="p0" pos="2.80" angle="0.00" stage="walking"/>
        </edge>
    </timestep>
    <timestep time="54.00">
        <edge id=":C_c3">
            <person id="p0" pos="1.41" angle="0.00" stage="walking"/>
        </edge>
    </timestep>
    <timestep time="55.00">
        <edge id=":C_c3">
            <person id="p0" pos="0.02" angle="0.00" stage="walking"/>
        </edge>
    </timestep>
    <timestep time="56.00">
        <edge id=":C_w0">
            <person id="p0" pos="4.48" angle="54.24" stage="walking"/>
        </edge>
    </timestep>
    <timestep time="57.00">
        <edge id=":C_w0">
            <person id="p0" pos="3.09" angle="54.24" stage="walking"/>
        </edge>
    </timestep>
    <timestep time="58.00">
        <edge id=":C_w0">
            <person id="p0" pos="1.70" angle="54.24" stage="walking"/>
        </edge>
    </timestep>
    <timestep time="59.00">
        <edge id=":C_w0">
            <person id="p0" pos="0.31" angle="90.00" stage="walking"/>
        </edge>
    </timestep>
    <timestep time="60.00">
        <edge id=":C_w0">
            <person id="p0" pos="0.00" angle="90.00" stage="walking"/>
        </edge>
    </timestep>
    <timestep time="61.00">
        <edge id=":C_w0">
            <person id="p0" pos="0.00" angle="90.00" stage="walking"/>
        </edge>
    </timestep>
    <timestep time="62.00">
        <edge id=":C_w0">
            <person id="p0" pos="0.00" angle="90.00" stage="walking"/>
        </edge>
    </timestep>
    <timestep time="63.00">
        <edge id=":C_w0">
            <person id="p0" pos="0.00" angle="90.00" stage="walking"/>
        </edge>
    </timestep>
    <timestep time="64.00">
        <edge id=":C_w0">
            <person id="p0" pos="0.00" angle="90.00" stage="walking"/>
        </edge>
    </timestep>
    <timestep time="65.00">
        <edge id=":C_w0">
            <person id="p0" pos="0.00" angle="90.00" stage="walking"/>
        </edge>
    </timestep>
    <timestep time="66.00">
        <edge id=":C_w0">
            <person id="p0" pos="0.00" angle="90.00" stage="walking"/>
        </edge>
    </timestep>
    <timestep time="67.00">
        <edge id=":C_w0">
            <person id="p0" pos="0.00" angle="90.00" stage="walking"/>
        </edge>
    </timestep>
    <timestep time="68.00">
        <edge id=":C_w0">
            <person id="p0" pos="0.00" angle="90.00" stage="walking"/>
        </edge>
    </timestep>
    <timestep time="69.00">
        <edge id=":C_w0">
            <person id="p0" pos="0.00" angle="90.00" stage="walking"/>
        </edge>
    </timestep>
    <timestep time="70.00">
        <edge id=":C_w0">
            <person id="p0" pos="0.00" angle="90.00" stage="walking"/>
        </edge>
    </timestep>
    <timestep time="71.00">
        <edge id=":C_w0">
            <person id="p0" pos="0.00" angle="90.00" stage="walking"/>
        </edge>
    </timestep>
    <timestep time="72.00">
        <edge id=":C_w0">
            <person id="p0" pos="0.00" angle="90.00" stage="walking"/>
        </edge>
    </timestep>
    <timestep time="73.00">
        <edge id=":C_w0">
            <person id="p0" pos="0.00" angle="90.00" stage="walking"/>
        </edge>
    </timestep>
    <timestep time="74.00">
        <edge id=":C_w0">
            <person id="p0" pos="0.00" angle="90.00" stage="walking"/>
        </edge>
    </timestep>
    <timestep time="75.00">
        <edge id=":C_w0">
            <person id="p0" pos="0.00" angle="90.00" stage="walking"/>
        </edge>
    </timestep>
    <timestep time="76.00">
        <edge id=":C_w0">
            <person id="p0" pos="0.00" angle="90.00" stage="walking"/>
        </edge>
    </timestep>
    <timestep time="77.00">
        <edge id=":C_w0">
            <person id="p0" pos="0.00" angle="90.00" stage="walking"/>
        </edge>
    </timestep>
    <timestep time="78.00">
        <edge id=":C_w0">
            <person id="p0" pos="0.00" angle="90.00" stage="walking"/>
        </edge>
    </timestep>
    <timestep time="79.00">
        <edge id=":C_w0">
            <person id="p0" pos="0.00" angle="90.00" stage="walking"/>
        </edge>
    </timestep>
    <timestep time="80.00">
        <edge id=":C_w0">
            <person id="p0" pos="0.00" angle="90.00" stage="walking"/>
        </edge>
    </timestep>
    <timestep time="81.00">
        <edge id=":C_w0">
            <person id="p0" pos="0.00" angle="90.00" stage="walking"/>
        </edge>
    </timestep>
    <timestep time="82.00">
        <edge id=":C_w0">
            <person id="p0" pos="0.00" angle="90.00" stage="walking"/>
        </edge>
    </timestep>
    <timestep time="83.00">
        <edge id=":C_w0">
            <person id="p0" pos="0.00" angle="90.00" stage="walking"/>
        </edge>
    </timestep>
    <timestep time="84.00">
        <edge id=":C_w0">
            <person id="p0" pos="0.00" angle="90.00" stage="walking"/>
        </edge>
    </timestep>
    <timestep time="85.00">
        <edge id=":C_w0">
            <person id="p0" pos="0.00" angle="90.00" stage="walking"/>
        </edge>
    </timestep>
    <timestep time="86.00">
        <edge id=":C_w0">
            <person id="p0" pos="0.00" angle="90.00" stage="walking"/>
        </edge>
    </timestep>
    <timestep time="87.00">
        <edge id=":C_w0">
            <person id="p0" pos="0.00" angle="90.00" stage="walking"/>
        </edge>
    </timestep>
    <timestep time="88.00">
        <edge id=":C_w0">
            <person id="p0" pos="0.00" angle="90.00" stage="walking"/>
        </edge>
    </timestep>
    <timestep time="89.00">
        <edge id=":C_w0">
            <person id="p0" pos="0.00" angle="90.00" stage="walking"/>
        </edge>
    </timestep>
    <timestep time="90.00">
        <edge id=":C_c0">
            <person id="p0" pos="13.91" angle="90.00" stage="walking"/>
        </edge>
    </timestep>
    <timestep time="91.00">
        <edge id=":C_c0">
            <person id="p0" pos="12.52" angle="90.00" stage="walking"/>
        </edge>
    </timestep>
    <timestep time="92.00">
        <edge id=":C_c0">
            <person id="p0" pos="11.13" angle="90.00" stage="walking"/>
        </edge>
    </timestep>
    <timestep time="93.00">
        <edge id=":C_c0">
            <person id="p0" pos="9.74" angle="90.00" stage="walking"/>
        </edge>
    </timestep>
    <timestep time="94.00">
        <edge id=":C_c0">
            <person id="p0" pos="8.36" angle="90.00" stage="walking"/>
        </edge>
    </timestep>
    <timestep time="95.00">
        <edge id=":C_c0">
            <person id="p0" pos="6.97" angle="90.00" stage="walking"/>
        </edge>
    </timestep>
    <timestep time="96.00">
        <edge id=":C_c0">
            <person id="p0" pos="5.58" angle="90.00" stage="walking"/>
        </edge>
    </timestep>
    <timestep time="97.00">
        <edge id=":C_c0">
            <person id="p0" pos="4.19" angle="90.00" stage="walking"/>
        </edge>
    </timestep>
    <timestep time="98.00">
        <edge id=":C_c0">
            <person id="p0" pos="2.80" angle="90.00" stage="walking"/>
        </edge>
    </timestep>
    <timestep time="99.00">
        <edge id=":C_c0">
            <person id="p0" pos="1.41" angle="90.00" stage="walking"/>
        </edge>
    </timestep>
    <timestep time="100.00">
        <edge id=":C_c0">
            <person id="p0" pos="0.02" angle="90.00" stage="walking"/>
        </edge>
    </timestep>
    <timestep time="101.00">
        <edge id=":C_w1">
            <person id="p0" pos="3.15" angle="60.21" stage="walking"/>
        </edge>
    </timestep>
    <timestep time="102.00">
        <edge id=":C_w1">
            <person id="p0" pos="1.76" angle="60.21" stage="walking"/>
        </edge>
    </timestep>
    <timestep time="103.00">
        <edge id=":C_w1">
            <person id="p0" pos="0.37" angle="0.00" stage="walking"/>
        </edge>
    </timestep>
    <timestep time="104.00">
        <edge id="CN">
            <person id="p0" pos="1.02" angle="0.00" stage="walking"/>
        </edge>
    </timestep>
    <timestep time="105.00">
        <edge id="CN">
            <person id="p0" pos="2.41" angle="0.00" stage="walking"/>
        </edge>
    </timestep>
    <timestep time="106.00">
        <edge id="CN">
            <person id="p0" pos="3.79" angle="0.00" stage="walking"/>
        </edge>
    </timestep>
    <timestep time="107.00">
        <edge id="CN">
            <person id="p0" pos="5.18" angle="0.00" stage="walking"/>
        </edge>
    </timestep>
    <timestep time="108.00">
        <edge id="CN">
            <person id="p0" pos="6.57" angle="0.00" stage="walking"/>
        </edge>
    </timestep>
    <timestep time="109.00">
        <edge id="CN">
            <person id="p0" pos="7.96" angle="0.00" stage="walking"/>
        </edge>
    </timestep>
    <timestep time="110.00">
        <edge id="CN">
            <person id="p0" pos="9.35" angle="0.00" stage="walking"/>
        </edge>
    </timestep>
    <timestep time="111.00">
        <edge id="CN">
            <person id="p0" pos="10.74" angle="0.00" stage="walking"/>
        </edge>
    </timestep>
    <timestep time="112.00">
        <edge id="CN">
            <person id="p0" pos="12.13" angle="0.00" stage="walking"/>
        </edge>
    </timestep>
    <timestep time="113.00">
        <edge id="CN">
            <person id="p0" pos="13.52" angle="0.00" stage="walking"/>
        </edge>
    </timestep>
    <timestep time="114.00">
        <edge id="CN">
            <person id="p0" pos="14.91" angle="0.00" stage="walking"/>
        </edge>
    </timestep>
    <timestep time="115.00">
        <edge id="CN">
            <person id="p0" pos="16.29" angle="0.00" stage="walking"/>
        </edge>
    </timestep>
    <timestep time="116.00">
        <edge id="CN">
            <person id="p0" pos="17.68" angle="0.00" stage="walking"/>
        </edge>
    </timestep>
    <timestep time="117.00">
        <edge id="CN">
            <person id="p0" pos="19.07" angle="0.00" stage="walking"/>
        </edge>
    </timestep>
    <timestep time="118.00"/>
</netstate>
