<?xml version="1.0"?>

<!-- generated on 04/17/08 12:06:17 by SUMO sumo Version 0.9.7
<configuration>

   <input>
      <net-file>three_split.net.xml</net-file>
      <additional-files>input_routes.rou.xml,input_additional.add.xml</additional-files>
   </input>

   <output>
      <vehroute-output>vehroutes.xml</vehroute-output>
   </output>

   <processing>
      <no-duration-log>true</no-duration-log>
      <no-step-log>true</no-step-log>
   </processing>

</configuration>
-->

<routes>
   <vehicle id="emitter_0_0" depart="0" arrival="161">
      <replaced_route replacedOnEdge="beg"  replacedAtTime="0">beg middle end rend</replaced_route>

      <route>beg beg2left left left2end end</route>
   </vehicle>

   <vehicle id="emitter_20_1" depart="20" arrival="182">
      <replaced_route replacedOnEdge="beg"  replacedAtTime="20">beg middle end rend</replaced_route>

      <route>beg beg2right right right2end end</route>
   </vehicle>

   <vehicle id="emitter_40_2" depart="40" arrival="202">
      <replaced_route replacedOnEdge="beg"  replacedAtTime="40">beg middle end rend</replaced_route>

      <route>beg beg2right right right2end end</route>
   </vehicle>

   <vehicle id="emitter_60_3" depart="60" arrival="221">
      <replaced_route replacedOnEdge="beg"  replacedAtTime="60">beg middle end rend</replaced_route>

      <route>beg beg2left left left2end end</route>
   </vehicle>

   <vehicle id="emitter_80_4" depart="80" arrival="242">
      <replaced_route replacedOnEdge="beg"  replacedAtTime="80">beg middle end rend</replaced_route>

      <route>beg beg2right right right2end end</route>
   </vehicle>

   <vehicle id="emitter_100_5" depart="100" arrival="261">
      <replaced_route replacedOnEdge="beg"  replacedAtTime="100">beg middle end rend</replaced_route>

      <route>beg beg2left left left2end end</route>
   </vehicle>

   <vehicle id="emitter_120_6" depart="120" arrival="282">
      <replaced_route replacedOnEdge="beg"  replacedAtTime="120">beg middle end rend</replaced_route>

      <route>beg beg2right right right2end end</route>
   </vehicle>

   <vehicle id="emitter_140_7" depart="140" arrival="302">
      <replaced_route replacedOnEdge="beg"  replacedAtTime="140">beg middle end rend</replaced_route>

      <route>beg beg2right right right2end end</route>
   </vehicle>

   <vehicle id="emitter_160_8" depart="160" arrival="321">
      <replaced_route replacedOnEdge="beg"  replacedAtTime="160">beg middle end rend</replaced_route>

      <route>beg beg2left left left2end end</route>
   </vehicle>

   <vehicle id="emitter_180_9" depart="180" arrival="341">
      <replaced_route replacedOnEdge="beg"  replacedAtTime="180">beg middle end rend</replaced_route>

      <route>beg beg2left left left2end end</route>
   </vehicle>

</routes>
