<?xml version="1.0" encoding="UTF-8"?>

<!-- generated on 2026-04-10T09:56:17.966978+01:00 by Eclipse SUMO sumo v1_26_0+1069-536c72a0369
<sumoConfiguration xmlns:xsi="http://www.w3.org/2001/XMLSchema-instance" xsi:noNamespaceSchemaLocation="http://sumo.dlr.de/xsd/sumoConfiguration.xsd">

    <input>
        <net-file value="input_net.net.xml"/>
        <route-files value="input_routes.rou.xml"/>
        <additional-files value="input_additional.add.xml"/>
    </input>

    <output>
        <tripinfo-output value="tripinfo.xml"/>
        <save-state.times value="150"/>
        <save-state.files value="state.xml"/>
    </output>

    <report>
        <duration-log.disable value="true"/>
        <no-step-log value="true"/>
    </report>

    <mesoscopic>
        <mesosim value="true"/>
    </mesoscopic>

</sumoConfiguration>
-->

<tripinfos xmlns:xsi="http://www.w3.org/2001/XMLSchema-instance" xsi:noNamespaceSchemaLocation="http://sumo.dlr.de/xsd/tripinfo_file.xsd">
    <tripinfo id="v.0" depart="0.00" departLane="E0_0" departPos="0.00" departSpeed="13.89" departDelay="0.00" arrival="15.00" arrivalLane="E1_0" arrivalPos="100.00" arrivalSpeed="13.89" duration="15.00" routeLength="200.00" waitingTime="0.00" waitingCount="0" stopTime="0.00" timeLoss="0.00" rerouteNo="0" devices="tripinfo_v.0" vType="DEFAULT_VEHTYPE" speedFactor="1.00" vaporized=""/>
    <tripinfo id="v.1" depart="10.00" departLane="E0_0" departPos="0.00" departSpeed="13.89" departDelay="0.00" arrival="25.00" arrivalLane="E1_0" arrivalPos="100.00" arrivalSpeed="13.89" duration="15.00" routeLength="200.00" waitingTime="0.00" waitingCount="0" stopTime="0.00" timeLoss="0.00" rerouteNo="0" devices="tripinfo_v.1" vType="DEFAULT_VEHTYPE" speedFactor="1.00" vaporized=""/>
    <tripinfo id="v.2" depart="20.00" departLane="E0_0" departPos="0.00" departSpeed="13.89" departDelay="0.00" arrival="35.00" arrivalLane="E1_0" arrivalPos="100.00" arrivalSpeed="13.89" duration="15.00" routeLength="200.00" waitingTime="0.00" waitingCount="0" stopTime="0.00" timeLoss="0.00" rerouteNo="0" devices="tripinfo_v.2" vType="DEFAULT_VEHTYPE" speedFactor="1.00" vaporized=""/>
    <tripinfo id="v.3" depart="30.00" departLane="E0_0" departPos="0.00" departSpeed="13.89" departDelay="0.00" arrival="45.00" arrivalLane="E1_0" arrivalPos="100.00" arrivalSpeed="13.89" duration="15.00" routeLength="200.00" waitingTime="0.00" waitingCount="0" stopTime="0.00" timeLoss="0.00" rerouteNo="0" devices="tripinfo_v.3" vType="DEFAULT_VEHTYPE" speedFactor="1.00" vaporized=""/>
    <tripinfo id="v.4" depart="40.00" departLane="E0_0" departPos="0.00" departSpeed="13.89" departDelay="0.00" arrival="55.00" arrivalLane="E1_0" arrivalPos="100.00" arrivalSpeed="13.89" duration="15.00" routeLength="200.00" waitingTime="0.00" waitingCount="0" stopTime="0.00" timeLoss="0.00" rerouteNo="0" devices="tripinfo_v.4" vType="DEFAULT_VEHTYPE" speedFactor="1.00" vaporized=""/>
    <tripinfo id="v.5" depart="50.00" departLane="E0_0" departPos="0.00" departSpeed="13.89" departDelay="0.00" arrival="65.00" arrivalLane="E1_0" arrivalPos="100.00" arrivalSpeed="13.89" duration="15.00" routeLength="200.00" waitingTime="0.00" waitingCount="0" stopTime="0.00" timeLoss="0.00" rerouteNo="0" devices="tripinfo_v.5" vType="DEFAULT_VEHTYPE" speedFactor="1.00" vaporized=""/>
    <tripinfo id="v.6" depart="60.00" departLane="E0_0" departPos="0.00" departSpeed="13.89" departDelay="0.00" arrival="75.00" arrivalLane="E1_0" arrivalPos="100.00" arrivalSpeed="13.89" duration="15.00" routeLength="200.00" waitingTime="0.00" waitingCount="0" stopTime="0.00" timeLoss="0.00" rerouteNo="0" devices="tripinfo_v.6" vType="DEFAULT_VEHTYPE" speedFactor="1.00" vaporized=""/>
    <tripinfo id="v.7" depart="70.00" departLane="E0_0" departPos="0.00" departSpeed="13.89" departDelay="0.00" arrival="85.00" arrivalLane="E1_0" arrivalPos="100.00" arrivalSpeed="13.89" duration="15.00" routeLength="200.00" waitingTime="0.00" waitingCount="0" stopTime="0.00" timeLoss="0.00" rerouteNo="0" devices="tripinfo_v.7" vType="DEFAULT_VEHTYPE" speedFactor="1.00" vaporized=""/>
    <tripinfo id="v.8" depart="80.00" departLane="E0_0" departPos="0.00" departSpeed="13.89" departDelay="0.00" arrival="95.00" arrivalLane="E1_0" arrivalPos="100.00" arrivalSpeed="13.89" duration="15.00" routeLength="200.00" waitingTime="0.00" waitingCount="0" stopTime="0.00" timeLoss="0.00" rerouteNo="0" devices="tripinfo_v.8" vType="DEFAULT_VEHTYPE" speedFactor="1.00" vaporized=""/>
    <tripinfo id="v.9" depart="90.00" departLane="E0_0" departPos="0.00" departSpeed="13.89" departDelay="0.00" arrival="105.00" arrivalLane="E1_0" arrivalPos="100.00" arrivalSpeed="13.89" duration="15.00" routeLength="200.00" waitingTime="0.00" waitingCount="0" stopTime="0.00" timeLoss="0.00" rerouteNo="0" devices="tripinfo_v.9" vType="DEFAULT_VEHTYPE" speedFactor="1.00" vaporized=""/>
    <tripinfo id="v.10" depart="100.00" departLane="E0_0" departPos="0.00" departSpeed="13.89" departDelay="0.00" arrival="115.00" arrivalLane="E1_0" arrivalPos="100.00" arrivalSpeed="13.89" duration="15.00" routeLength="200.00" waitingTime="0.00" waitingCount="0" stopTime="0.00" timeLoss="0.00" rerouteNo="0" devices="tripinfo_v.10" vType="DEFAULT_VEHTYPE" speedFactor="1.00" vaporized=""/>
    <tripinfo id="v.11" depart="110.00" departLane="E0_0" departPos="0.00" departSpeed="13.89" departDelay="0.00" arrival="125.00" arrivalLane="E1_0" arrivalPos="100.00" arrivalSpeed="13.89" duration="15.00" routeLength="200.00" waitingTime="0.00" waitingCount="0" stopTime="0.00" timeLoss="0.00" rerouteNo="0" devices="tripinfo_v.11" vType="DEFAULT_VEHTYPE" speedFactor="1.00" vaporized=""/>
    <tripinfo id="v.12" depart="120.00" departLane="E0_0" departPos="0.00" departSpeed="13.89" departDelay="0.00" arrival="135.00" arrivalLane="E1_0" arrivalPos="100.00" arrivalSpeed="13.89" duration="15.00" routeLength="200.00" waitingTime="0.00" waitingCount="0" stopTime="0.00" timeLoss="0.00" rerouteNo="0" devices="tripinfo_v.12" vType="DEFAULT_VEHTYPE" speedFactor="1.00" vaporized=""/>
    <tripinfo id="v.13" depart="130.00" departLane="E0_0" departPos="0.00" departSpeed="13.89" departDelay="0.00" arrival="145.00" arrivalLane="E1_0" arrivalPos="100.00" arrivalSpeed="13.89" duration="15.00" routeLength="200.00" waitingTime="0.00" waitingCount="0" stopTime="0.00" timeLoss="0.00" rerouteNo="0" devices="tripinfo_v.13" vType="DEFAULT_VEHTYPE" speedFactor="1.00" vaporized=""/>
    <tripinfo id="v.14" depart="140.00" departLane="E0_0" departPos="0.00" departSpeed="13.89" departDelay="0.00" arrival="155.00" arrivalLane="E1_0" arrivalPos="100.00" arrivalSpeed="13.89" duration="15.00" routeLength="200.00" waitingTime="0.00" waitingCount="0" stopTime="0.00" timeLoss="0.00" rerouteNo="0" devices="tripinfo_v.14" vType="DEFAULT_VEHTYPE" speedFactor="1.00" vaporized=""/>
    <tripinfo id="v.15" depart="150.00" departLane="E0_0" departPos="0.00" departSpeed="13.89" departDelay="0.00" arrival="165.00" arrivalLane="E1_0" arrivalPos="100.00" arrivalSpeed="13.89" duration="15.00" routeLength="200.00" waitingTime="0.00" waitingCount="0" stopTime="0.00" timeLoss="0.00" rerouteNo="0" devices="tripinfo_v.15" vType="DEFAULT_VEHTYPE" speedFactor="1.00" vaporized=""/>
    <tripinfo id="v.16" depart="160.00" departLane="E0_0" departPos="0.00" departSpeed="13.89" departDelay="0.00" arrival="175.00" arrivalLane="E1_0" arrivalPos="100.00" arrivalSpeed="13.89" duration="15.00" routeLength="200.00" waitingTime="0.00" waitingCount="0" stopTime="0.00" timeLoss="0.00" rerouteNo="0" devices="tripinfo_v.16" vType="DEFAULT_VEHTYPE" speedFactor="1.00" vaporized=""/>
    <tripinfo id="v.17" depart="170.00" departLane="E0_0" departPos="0.00" departSpeed="13.89" departDelay="0.00" arrival="185.00" arrivalLane="E1_0" arrivalPos="100.00" arrivalSpeed="13.89" duration="15.00" routeLength="200.00" waitingTime="0.00" waitingCount="0" stopTime="0.00" timeLoss="0.00" rerouteNo="0" devices="tripinfo_v.17" vType="DEFAULT_VEHTYPE" speedFactor="1.00" vaporized=""/>
    <tripinfo id="v.18" depart="180.00" departLane="E0_0" departPos="0.00" departSpeed="13.89" departDelay="0.00" arrival="195.00" arrivalLane="E1_0" arrivalPos="100.00" arrivalSpeed="13.89" duration="15.00" routeLength="200.00" waitingTime="0.00" waitingCount="0" stopTime="0.00" timeLoss="0.00" rerouteNo="0" devices="tripinfo_v.18" vType="DEFAULT_VEHTYPE" speedFactor="1.00" vaporized=""/>
    <tripinfo id="v.19" depart="190.00" departLane="E0_0" departPos="0.00" departSpeed="13.89" departDelay="0.00" arrival="205.00" arrivalLane="E1_0" arrivalPos="100.00" arrivalSpeed="13.89" duration="15.00" routeLength="200.00" waitingTime="0.00" waitingCount="0" stopTime="0.00" timeLoss="0.00" rerouteNo="0" devices="tripinfo_v.19" vType="DEFAULT_VEHTYPE" speedFactor="1.00" vaporized=""/>
    <tripinfo id="v.20" depart="200.00" departLane="E0_0" departPos="0.00" departSpeed="13.89" departDelay="0.00" arrival="215.00" arrivalLane="E1_0" arrivalPos="100.00" arrivalSpeed="13.89" duration="15.00" routeLength="200.00" waitingTime="0.00" waitingCount="0" stopTime="0.00" timeLoss="0.00" rerouteNo="0" devices="tripinfo_v.20" vType="DEFAULT_VEHTYPE" speedFactor="1.00" vaporized=""/>
    <tripinfo id="v.21" depart="210.00" departLane="E0_0" departPos="0.00" departSpeed="13.89" departDelay="0.00" arrival="225.00" arrivalLane="E1_0" arrivalPos="100.00" arrivalSpeed="13.89" duration="15.00" routeLength="200.00" waitingTime="0.00" waitingCount="0" stopTime="0.00" timeLoss="0.00" rerouteNo="0" devices="tripinfo_v.21" vType="DEFAULT_VEHTYPE" speedFactor="1.00" vaporized=""/>
    <tripinfo id="v.22" depart="220.00" departLane="E0_0" departPos="0.00" departSpeed="13.89" departDelay="0.00" arrival="235.00" arrivalLane="E1_0" arrivalPos="100.00" arrivalSpeed="13.89" duration="15.00" routeLength="200.00" waitingTime="0.00" waitingCount="0" stopTime="0.00" timeLoss="0.00" rerouteNo="0" devices="tripinfo_v.22" vType="DEFAULT_VEHTYPE" speedFactor="1.00" vaporized=""/>
    <tripinfo id="v.23" depart="230.00" departLane="E0_0" departPos="0.00" departSpeed="13.89" departDelay="0.00" arrival="245.00" arrivalLane="E1_0" arrivalPos="100.00" arrivalSpeed="13.89" duration="15.00" routeLength="200.00" waitingTime="0.00" waitingCount="0" stopTime="0.00" timeLoss="0.00" rerouteNo="0" devices="tripinfo_v.23" vType="DEFAULT_VEHTYPE" speedFactor="1.00" vaporized=""/>
    <tripinfo id="v.24" depart="240.00" departLane="E0_0" departPos="0.00" departSpeed="13.89" departDelay="0.00" arrival="255.00" arrivalLane="E1_0" arrivalPos="100.00" arrivalSpeed="13.89" duration="15.00" routeLength="200.00" waitingTime="0.00" waitingCount="0" stopTime="0.00" timeLoss="0.00" rerouteNo="0" devices="tripinfo_v.24" vType="DEFAULT_VEHTYPE" speedFactor="1.00" vaporized=""/>
    <tripinfo id="v.25" depart="250.00" departLane="E0_0" departPos="0.00" departSpeed="13.89" departDelay="0.00" arrival="265.00" arrivalLane="E1_0" arrivalPos="100.00" arrivalSpeed="13.89" duration="15.00" routeLength="200.00" waitingTime="0.00" waitingCount="0" stopTime="0.00" timeLoss="0.00" rerouteNo="0" devices="tripinfo_v.25" vType="DEFAULT_VEHTYPE" speedFactor="1.00" vaporized=""/>
    <tripinfo id="v.26" depart="260.00" departLane="E0_0" departPos="0.00" departSpeed="13.89" departDelay="0.00" arrival="275.00" arrivalLane="E1_0" arrivalPos="100.00" arrivalSpeed="13.89" duration="15.00" routeLength="200.00" waitingTime="0.00" waitingCount="0" stopTime="0.00" timeLoss="0.00" rerouteNo="0" devices="tripinfo_v.26" vType="DEFAULT_VEHTYPE" speedFactor="1.00" vaporized=""/>
    <tripinfo id="v.27" depart="270.00" departLane="E0_0" departPos="0.00" departSpeed="13.89" departDelay="0.00" arrival="285.00" arrivalLane="E1_0" arrivalPos="100.00" arrivalSpeed="13.89" duration="15.00" routeLength="200.00" waitingTime="0.00" waitingCount="0" stopTime="0.00" timeLoss="0.00" rerouteNo="0" devices="tripinfo_v.27" vType="DEFAULT_VEHTYPE" speedFactor="1.00" vaporized=""/>
    <tripinfo id="v.28" depart="280.00" departLane="E0_0" departPos="0.00" departSpeed="13.89" departDelay="0.00" arrival="295.00" arrivalLane="E1_0" arrivalPos="100.00" arrivalSpeed="13.89" duration="15.00" routeLength="200.00" waitingTime="0.00" waitingCount="0" stopTime="0.00" timeLoss="0.00" rerouteNo="0" devices="tripinfo_v.28" vType="DEFAULT_VEHTYPE" speedFactor="1.00" vaporized=""/>
    <tripinfo id="v.29" depart="290.00" departLane="E0_0" departPos="0.00" departSpeed="13.89" departDelay="0.00" arrival="305.00" arrivalLane="E1_0" arrivalPos="100.00" arrivalSpeed="13.89" duration="15.00" routeLength="200.00" waitingTime="0.00" waitingCount="0" stopTime="0.00" timeLoss="0.00" rerouteNo="0" devices="tripinfo_v.29" vType="DEFAULT_VEHTYPE" speedFactor="1.00" vaporized=""/>
</tripinfos>
