<?xml version="1.0" encoding="UTF-8"?>

<!-- generated on Tue Dec 13 13:39:44 2016 by SUMO Version dev-SVN-r22280
<?xml version="1.0" encoding="UTF-8"?>

<configuration xmlns:xsi="http://www.w3.org/2001/XMLSchema-instance" xsi:noNamespaceSchemaLocation="http://sumo.dlr.de/xsd/sumoConfiguration.xsd">

    <input>
        <net-file value="net.net.xml"/>
        <additional-files value="input_routes.rou.xml,input_additional.add.xml,input_additional2.add.xml"/>
    </input>

    <time>
        <begin value="0"/>
        <end value="1000"/>
    </time>

    <processing>
        <time-to-teleport value="-1"/>
    </processing>

    <report>
        <xml-validation value="never"/>
        <duration-log.disable value="true"/>
        <no-step-log value="true"/>
    </report>

</configuration>
-->

<meandata xmlns:xsi="http://www.w3.org/2001/XMLSchema-instance" xsi:noNamespaceSchemaLocation="http://sumo.dlr.de/xsd/meandata_file.xsd">
    <interval begin="600.00" end="660.00" id="dump_60">
        <edge id="3/1to2/1">
            <lane id="3/1to2/1_0" sampledSeconds="1200.00" CO_abs="197733.333333" CO2_abs="3149666.666667" HC_abs="974.333333" PMx_abs="79.166667" NOx_abs="1445.333333" fuel_abs="1353.998203" electricity_abs="0"
            CO_normed="29660.000000" CO2_normed="472450.000000" HC_normed="146.150000" PMx_normed="11.875000" NOx_normed="216.800000" fuel_normed="203.099730" electricity_normed="0"
            traveltime="100000.00" CO_perVeh="16477777.777778" CO2_perVeh="262472222.222217" HC_perVeh="81194.444444" PMx_perVeh="6597.222222" NOx_perVeh="120444.444444" fuel_perVeh="112833.183588" electricity_perVeh="0"/>
        </edge>
    </interval>
</meandata>
