<?xml version="1.0" encoding="UTF-8"?>

<!-- generated on Tue Dec  3 16:33:15 2013 by SUMO sumo Version dev-SVN-r15233
<?xml version="1.0" encoding="UTF-8"?>

<configuration xmlns:xsi="http://www.w3.org/2001/XMLSchema-instance" xsi:noNamespaceSchemaLocation="http://sumo-sim.org/xsd/sumoConfiguration.xsd">

    <input>
        <net-file value="net.net.xml"/>
        <additional-files value="input_routes.rou.xml,input_additional.add.xml,input_additional2.add.xml"/>
    </input>

    <time>
        <begin value="0"/>
        <end value="1000"/>
    </time>

    <processing>
        <time-to-teleport value="-1"/>
    </processing>

    <report>
        <no-duration-log value="true"/>
        <no-step-log value="true"/>
    </report>

</configuration>
-->

<meandata xmlns:xsi="http://www.w3.org/2001/XMLSchema-instance" xsi:noNamespaceSchemaLocation="http://sumo-sim.org/xsd/meandata_file.xsd">
    <interval begin="600.00" end="660.00" id="dump_60">
        <edge id="3/1to2/1">
            <lane id="3/1to2/1_0" sampledSeconds="1200.00" CO_abs="7218.978739" CO2_abs="681717.917222" HC_abs="395.892860" PMx_abs="24.089264" NOx_abs="951.164830" fuel_abs="271.790287"
            CO_normed="1109.190075" CO2_normed="104745.390610" HC_normed="60.828608" PMx_normed="3.701295" NOx_normed="146.145685" fuel_normed="41.760351"
            traveltime="100000.00" CO_perVeh="601581.561574" CO2_perVeh="56809826.435186" HC_perVeh="32991.071667" PMx_perVeh="2007.438647" NOx_perVeh="79263.735833" fuel_perVeh="22649.190553"/>
        </edge>
    </interval>
</meandata>
