<?xml version="1.0" encoding="UTF-8"?>

<!-- generated on Tue Dec  3 16:35:37 2013 by SUMO sumo Version dev-SVN-r15233
<?xml version="1.0" encoding="UTF-8"?>

<configuration xmlns:xsi="http://www.w3.org/2001/XMLSchema-instance" xsi:noNamespaceSchemaLocation="http://sumo-sim.org/xsd/sumoConfiguration.xsd">

    <input>
        <net-file value="three_split.net.xml"/>
        <route-files value="input_routes.rou.xml"/>
        <additional-files value="input_additional.add.xml,input_additional2.add.xml"/>
    </input>

    <output>
        <netstate-dump value="rawdump.xml"/>
    </output>

    <time>
        <step-length value="1.0"/>
    </time>

    <report>
        <no-duration-log value="true"/>
        <no-step-log value="true"/>
    </report>

</configuration>
-->

<netstate xmlns:xsi="http://www.w3.org/2001/XMLSchema-instance" xsi:noNamespaceSchemaLocation="http://sumo-sim.org/xsd/netstate_file.xsd">
    <timestep time="0.00">
        <edge id="beg">
            <lane id="beg_0">
                <vehicle id="leader" pos="5.10" speed="0.00"/>
            </lane>
        </edge>
    </timestep>
    <timestep time="1.00">
        <edge id="beg">
            <lane id="beg_0">
                <vehicle id="leader" pos="7.70" speed="2.60"/>
            </lane>
        </edge>
    </timestep>
    <timestep time="2.00">
        <edge id="beg">
            <lane id="beg_0">
                <vehicle id="follower" pos="5.10" speed="0.00"/>
                <vehicle id="leader" pos="12.90" speed="5.20"/>
            </lane>
        </edge>
    </timestep>
    <timestep time="3.00">
        <edge id="beg">
            <lane id="beg_0">
                <vehicle id="follower" pos="7.70" speed="2.60"/>
                <vehicle id="leader" pos="20.70" speed="7.80"/>
            </lane>
        </edge>
    </timestep>
    <timestep time="4.00">
        <edge id="beg">
            <lane id="beg_0">
                <vehicle id="follower" pos="12.90" speed="5.20"/>
                <vehicle id="leader" pos="31.10" speed="10.40"/>
            </lane>
        </edge>
    </timestep>
    <timestep time="5.00">
        <edge id="beg">
            <lane id="beg_0">
                <vehicle id="follower" pos="20.70" speed="7.80"/>
                <vehicle id="leader" pos="44.10" speed="13.00"/>
            </lane>
        </edge>
    </timestep>
    <timestep time="6.00">
        <edge id="beg">
            <lane id="beg_0">
                <vehicle id="follower" pos="31.10" speed="10.40"/>
                <vehicle id="leader" pos="59.70" speed="15.60"/>
            </lane>
        </edge>
    </timestep>
    <timestep time="7.00">
        <edge id="beg">
            <lane id="beg_0">
                <vehicle id="follower" pos="44.10" speed="13.00"/>
                <vehicle id="leader" pos="77.90" speed="18.20"/>
            </lane>
        </edge>
    </timestep>
    <timestep time="8.00">
        <edge id="beg">
            <lane id="beg_0">
                <vehicle id="follower" pos="59.70" speed="15.60"/>
                <vehicle id="leader" pos="97.90" speed="20.00"/>
            </lane>
        </edge>
    </timestep>
    <timestep time="9.00">
        <edge id="beg">
            <lane id="beg_0">
                <vehicle id="follower" pos="77.90" speed="18.20"/>
                <vehicle id="leader" pos="117.90" speed="20.00"/>
            </lane>
        </edge>
    </timestep>
    <timestep time="10.00">
        <edge id="beg">
            <lane id="beg_0">
                <vehicle id="follower" pos="98.70" speed="20.80"/>
                <vehicle id="leader" pos="137.90" speed="20.00"/>
            </lane>
        </edge>
    </timestep>
    <timestep time="11.00">
        <edge id="beg">
            <lane id="beg_0">
                <vehicle id="follower" pos="121.48" speed="22.78"/>
                <vehicle id="leader" pos="157.90" speed="20.00"/>
            </lane>
        </edge>
    </timestep>
    <timestep time="12.00">
        <edge id="beg">
            <lane id="beg_0">
                <vehicle id="follower" pos="143.77" speed="22.28"/>
                <vehicle id="leader" pos="177.90" speed="20.00"/>
            </lane>
        </edge>
    </timestep>
    <timestep time="13.00">
        <edge id="beg">
            <lane id="beg_0">
                <vehicle id="follower" pos="165.59" speed="21.83"/>
                <vehicle id="leader" pos="197.90" speed="20.00"/>
            </lane>
        </edge>
    </timestep>
    <timestep time="14.00">
        <edge id="beg">
            <lane id="beg_0">
                <vehicle id="follower" pos="187.05" speed="21.46"/>
                <vehicle id="leader" pos="217.90" speed="20.00"/>
            </lane>
        </edge>
    </timestep>
    <timestep time="15.00">
        <edge id="beg">
            <lane id="beg_0">
                <vehicle id="follower" pos="208.22" speed="21.17"/>
                <vehicle id="leader" pos="237.90" speed="20.00"/>
            </lane>
        </edge>
    </timestep>
    <timestep time="16.00">
        <edge id="beg">
            <lane id="beg_0">
                <vehicle id="follower" pos="229.16" speed="20.94"/>
                <vehicle id="leader" pos="257.90" speed="20.00"/>
            </lane>
        </edge>
    </timestep>
    <timestep time="17.00">
        <edge id="beg">
            <lane id="beg_0">
                <vehicle id="follower" pos="249.91" speed="20.75"/>
                <vehicle id="leader" pos="277.90" speed="20.00"/>
            </lane>
        </edge>
    </timestep>
    <timestep time="18.00">
        <edge id="beg">
            <lane id="beg_0">
                <vehicle id="follower" pos="270.50" speed="20.60"/>
                <vehicle id="leader" pos="297.90" speed="20.00"/>
            </lane>
        </edge>
    </timestep>
    <timestep time="19.00">
        <edge id="beg">
            <lane id="beg_0">
                <vehicle id="follower" pos="290.98" speed="20.48"/>
                <vehicle id="leader" pos="317.90" speed="20.00"/>
            </lane>
        </edge>
    </timestep>
    <timestep time="20.00">
        <edge id="beg">
            <lane id="beg_0">
                <vehicle id="follower" pos="311.37" speed="20.38"/>
                <vehicle id="leader" pos="337.90" speed="20.00"/>
            </lane>
        </edge>
    </timestep>
    <timestep time="21.00">
        <edge id="beg">
            <lane id="beg_0">
                <vehicle id="follower" pos="331.67" speed="20.31"/>
                <vehicle id="leader" pos="357.90" speed="20.00"/>
            </lane>
        </edge>
    </timestep>
    <timestep time="22.00">
        <edge id="beg">
            <lane id="beg_0">
                <vehicle id="follower" pos="351.92" speed="20.25"/>
                <vehicle id="leader" pos="377.90" speed="20.00"/>
            </lane>
        </edge>
    </timestep>
    <timestep time="23.00">
        <edge id="beg">
            <lane id="beg_0">
                <vehicle id="follower" pos="372.11" speed="20.20"/>
                <vehicle id="leader" pos="397.90" speed="20.00"/>
            </lane>
        </edge>
    </timestep>
    <timestep time="24.00">
        <edge id="beg">
            <lane id="beg_0">
                <vehicle id="follower" pos="392.27" speed="20.16"/>
                <vehicle id="leader" pos="417.90" speed="20.00"/>
            </lane>
        </edge>
    </timestep>
    <timestep time="25.00">
        <edge id="beg">
            <lane id="beg_0">
                <vehicle id="follower" pos="412.40" speed="20.13"/>
                <vehicle id="leader" pos="437.90" speed="20.00"/>
            </lane>
        </edge>
    </timestep>
    <timestep time="26.00">
        <edge id="beg">
            <lane id="beg_0">
                <vehicle id="follower" pos="432.50" speed="20.10"/>
                <vehicle id="leader" pos="457.90" speed="20.00"/>
            </lane>
        </edge>
    </timestep>
    <timestep time="27.00">
        <edge id="beg">
            <lane id="beg_0">
                <vehicle id="follower" pos="452.58" speed="20.08"/>
                <vehicle id="leader" pos="477.90" speed="20.00"/>
            </lane>
        </edge>
    </timestep>
    <timestep time="28.00">
        <edge id="beg">
            <lane id="beg_0">
                <vehicle id="follower" pos="472.64" speed="20.06"/>
            </lane>
        </edge>
        <edge id="middle">
            <lane id="middle_0">
                <vehicle id="leader" pos="2.65" speed="20.00"/>
            </lane>
        </edge>
    </timestep>
    <timestep time="29.00">
        <edge id="beg">
            <lane id="beg_0">
                <vehicle id="follower" pos="492.69" speed="20.05"/>
            </lane>
        </edge>
        <edge id="middle">
            <lane id="middle_0">
                <vehicle id="leader" pos="22.65" speed="20.00"/>
            </lane>
        </edge>
    </timestep>
    <timestep time="30.00">
        <edge id="middle">
            <lane id="middle_0">
                <vehicle id="follower" pos="17.48" speed="20.04"/>
                <vehicle id="leader" pos="42.65" speed="20.00"/>
            </lane>
        </edge>
    </timestep>
    <timestep time="31.00">
        <edge id="middle">
            <lane id="middle_0">
                <vehicle id="follower" pos="37.52" speed="20.03"/>
                <vehicle id="leader" pos="62.65" speed="20.00"/>
            </lane>
        </edge>
    </timestep>
    <timestep time="32.00">
        <edge id="middle">
            <lane id="middle_0">
                <vehicle id="follower" pos="57.54" speed="20.03"/>
                <vehicle id="leader" pos="82.65" speed="20.00"/>
            </lane>
        </edge>
    </timestep>
    <timestep time="33.00">
        <edge id="middle">
            <lane id="middle_0">
                <vehicle id="follower" pos="77.56" speed="20.02"/>
                <vehicle id="leader" pos="102.65" speed="20.00"/>
            </lane>
        </edge>
    </timestep>
    <timestep time="34.00">
        <edge id="middle">
            <lane id="middle_0">
                <vehicle id="follower" pos="97.58" speed="20.02"/>
                <vehicle id="leader" pos="122.65" speed="20.00"/>
            </lane>
        </edge>
    </timestep>
    <timestep time="35.00">
        <edge id="middle">
            <lane id="middle_0">
                <vehicle id="follower" pos="117.60" speed="20.01"/>
                <vehicle id="leader" pos="142.65" speed="20.00"/>
            </lane>
        </edge>
    </timestep>
    <timestep time="36.00">
        <edge id="middle">
            <lane id="middle_0">
                <vehicle id="follower" pos="137.61" speed="20.01"/>
                <vehicle id="leader" pos="162.65" speed="20.00"/>
            </lane>
        </edge>
    </timestep>
    <timestep time="37.00">
        <edge id="middle">
            <lane id="middle_0">
                <vehicle id="follower" pos="157.61" speed="20.01"/>
                <vehicle id="leader" pos="178.71" speed="16.06"/>
            </lane>
        </edge>
    </timestep>
    <timestep time="38.00">
        <edge id="middle">
            <lane id="middle_0">
                <vehicle id="follower" pos="173.69" speed="16.07"/>
                <vehicle id="leader" pos="190.27" speed="11.56"/>
            </lane>
        </edge>
    </timestep>
    <timestep time="39.00">
        <edge id="middle">
            <lane id="middle_0">
                <vehicle id="follower" pos="185.26" speed="11.57"/>
                <vehicle id="leader" pos="197.34" speed="7.06"/>
            </lane>
        </edge>
    </timestep>
    <timestep time="40.00">
        <edge id="middle">
            <lane id="middle_0">
                <vehicle id="follower" pos="192.33" speed="7.07"/>
                <vehicle id="leader" pos="199.90" speed="2.56"/>
            </lane>
        </edge>
    </timestep>
    <timestep time="41.00">
        <edge id="middle">
            <lane id="middle_0">
                <vehicle id="follower" pos="194.90" speed="2.57"/>
                <vehicle id="leader" pos="199.90" speed="0.00"/>
            </lane>
        </edge>
    </timestep>
    <timestep time="42.00">
        <edge id="middle">
            <lane id="middle_0">
                <vehicle id="follower" pos="194.90" speed="0.00"/>
                <vehicle id="leader" pos="199.90" speed="0.00"/>
            </lane>
        </edge>
    </timestep>
    <timestep time="43.00">
        <edge id="middle">
            <lane id="middle_0">
                <vehicle id="follower" pos="194.90" speed="0.00"/>
                <vehicle id="leader" pos="199.90" speed="0.00"/>
            </lane>
        </edge>
    </timestep>
    <timestep time="44.00">
        <edge id="middle">
            <lane id="middle_0">
                <vehicle id="follower" pos="194.90" speed="0.00"/>
                <vehicle id="leader" pos="199.90" speed="0.00"/>
            </lane>
        </edge>
    </timestep>
    <timestep time="45.00">
        <edge id="middle">
            <lane id="middle_0">
                <vehicle id="follower" pos="194.90" speed="0.00"/>
                <vehicle id="leader" pos="199.90" speed="0.00"/>
            </lane>
        </edge>
    </timestep>
    <timestep time="46.00">
        <edge id="middle">
            <lane id="middle_0">
                <vehicle id="follower" pos="194.90" speed="0.00"/>
                <vehicle id="leader" pos="199.90" speed="0.00"/>
            </lane>
        </edge>
    </timestep>
    <timestep time="47.00">
        <edge id="middle">
            <lane id="middle_0">
                <vehicle id="follower" pos="194.90" speed="0.00"/>
                <vehicle id="leader" pos="200.00" speed="0.10"/>
            </lane>
        </edge>
    </timestep>
    <timestep time="48.00">
        <edge id="middle">
            <lane id="middle_0">
                <vehicle id="follower" pos="195.00" speed="0.10"/>
                <vehicle id="leader" pos="202.70" speed="2.70"/>
            </lane>
        </edge>
    </timestep>
    <timestep time="49.00">
        <edge id="middle">
            <lane id="middle_0">
                <vehicle id="follower" pos="197.70" speed="2.70"/>
                <vehicle id="leader" pos="208.00" speed="5.30"/>
            </lane>
        </edge>
    </timestep>
    <timestep time="50.00">
        <edge id="middle">
            <lane id="middle_0">
                <vehicle id="follower" pos="203.00" speed="5.30"/>
                <vehicle id="leader" pos="215.90" speed="7.90"/>
            </lane>
        </edge>
    </timestep>
    <timestep time="51.00">
        <edge id="middle">
            <lane id="middle_0">
                <vehicle id="follower" pos="210.90" speed="7.90"/>
                <vehicle id="leader" pos="226.40" speed="10.50"/>
            </lane>
        </edge>
    </timestep>
    <timestep time="52.00">
        <edge id="middle">
            <lane id="middle_0">
                <vehicle id="follower" pos="221.40" speed="10.50"/>
                <vehicle id="leader" pos="239.50" speed="13.10"/>
            </lane>
        </edge>
    </timestep>
    <timestep time="53.00">
        <edge id="middle">
            <lane id="middle_0">
                <vehicle id="follower" pos="234.50" speed="13.10"/>
                <vehicle id="leader" pos="255.20" speed="15.70"/>
            </lane>
        </edge>
    </timestep>
    <timestep time="54.00">
        <edge id="middle">
            <lane id="middle_0">
                <vehicle id="follower" pos="250.20" speed="15.70"/>
                <vehicle id="leader" pos="273.50" speed="18.30"/>
            </lane>
        </edge>
    </timestep>
    <timestep time="55.00">
        <edge id="middle">
            <lane id="middle_0">
                <vehicle id="follower" pos="268.50" speed="18.30"/>
                <vehicle id="leader" pos="293.50" speed="20.00"/>
            </lane>
        </edge>
    </timestep>
    <timestep time="56.00">
        <edge id="middle">
            <lane id="middle_0">
                <vehicle id="follower" pos="288.50" speed="20.00"/>
                <vehicle id="leader" pos="313.50" speed="20.00"/>
            </lane>
        </edge>
    </timestep>
    <timestep time="57.00">
        <edge id="middle">
            <lane id="middle_0">
                <vehicle id="follower" pos="308.50" speed="20.00"/>
                <vehicle id="leader" pos="333.50" speed="20.00"/>
            </lane>
        </edge>
    </timestep>
    <timestep time="58.00">
        <edge id="middle">
            <lane id="middle_0">
                <vehicle id="follower" pos="328.50" speed="20.00"/>
                <vehicle id="leader" pos="353.50" speed="20.00"/>
            </lane>
        </edge>
    </timestep>
    <timestep time="59.00">
        <edge id="middle">
            <lane id="middle_0">
                <vehicle id="follower" pos="348.50" speed="20.00"/>
                <vehicle id="leader" pos="373.50" speed="20.00"/>
            </lane>
        </edge>
    </timestep>
    <timestep time="60.00">
        <edge id="middle">
            <lane id="middle_0">
                <vehicle id="follower" pos="368.50" speed="20.00"/>
                <vehicle id="leader" pos="393.50" speed="20.00"/>
            </lane>
        </edge>
    </timestep>
    <timestep time="61.00">
        <edge id="middle">
            <lane id="middle_0">
                <vehicle id="follower" pos="388.50" speed="20.00"/>
                <vehicle id="leader" pos="413.50" speed="20.00"/>
            </lane>
        </edge>
    </timestep>
    <timestep time="62.00">
        <edge id="middle">
            <lane id="middle_0">
                <vehicle id="follower" pos="408.50" speed="20.00"/>
                <vehicle id="leader" pos="433.50" speed="20.00"/>
            </lane>
        </edge>
    </timestep>
    <timestep time="63.00">
        <edge id="middle">
            <lane id="middle_0">
                <vehicle id="follower" pos="428.50" speed="20.00"/>
                <vehicle id="leader" pos="453.50" speed="20.00"/>
            </lane>
        </edge>
    </timestep>
    <timestep time="64.00">
        <edge id="middle">
            <lane id="middle_0">
                <vehicle id="follower" pos="448.50" speed="20.00"/>
                <vehicle id="leader" pos="473.50" speed="20.00"/>
            </lane>
        </edge>
    </timestep>
    <timestep time="65.00">
        <edge id="middle">
            <lane id="middle_0">
                <vehicle id="follower" pos="468.50" speed="20.00"/>
                <vehicle id="leader" pos="493.50" speed="20.00"/>
            </lane>
        </edge>
    </timestep>
    <timestep time="66.00">
        <edge id="middle">
            <lane id="middle_0">
                <vehicle id="follower" pos="488.50" speed="20.00"/>
                <vehicle id="leader" pos="513.50" speed="20.00"/>
            </lane>
        </edge>
    </timestep>
    <timestep time="67.00">
        <edge id="middle">
            <lane id="middle_0">
                <vehicle id="follower" pos="508.50" speed="20.00"/>
                <vehicle id="leader" pos="533.50" speed="20.00"/>
            </lane>
        </edge>
    </timestep>
    <timestep time="68.00">
        <edge id="middle">
            <lane id="middle_0">
                <vehicle id="follower" pos="528.50" speed="20.00"/>
                <vehicle id="leader" pos="553.50" speed="20.00"/>
            </lane>
        </edge>
    </timestep>
    <timestep time="69.00">
        <edge id="middle">
            <lane id="middle_0">
                <vehicle id="follower" pos="548.50" speed="20.00"/>
                <vehicle id="leader" pos="573.50" speed="20.00"/>
            </lane>
        </edge>
    </timestep>
    <timestep time="70.00">
        <edge id="middle">
            <lane id="middle_0">
                <vehicle id="follower" pos="568.50" speed="20.00"/>
                <vehicle id="leader" pos="593.50" speed="20.00"/>
            </lane>
        </edge>
    </timestep>
    <timestep time="71.00">
        <edge id="middle">
            <lane id="middle_0">
                <vehicle id="follower" pos="588.50" speed="20.00"/>
                <vehicle id="leader" pos="613.50" speed="20.00"/>
            </lane>
        </edge>
    </timestep>
    <timestep time="72.00">
        <edge id="middle">
            <lane id="middle_0">
                <vehicle id="follower" pos="608.50" speed="20.00"/>
                <vehicle id="leader" pos="633.50" speed="20.00"/>
            </lane>
        </edge>
    </timestep>
    <timestep time="73.00">
        <edge id="middle">
            <lane id="middle_0">
                <vehicle id="follower" pos="628.50" speed="20.00"/>
                <vehicle id="leader" pos="653.50" speed="20.00"/>
            </lane>
        </edge>
    </timestep>
    <timestep time="74.00">
        <edge id="middle">
            <lane id="middle_0">
                <vehicle id="follower" pos="648.50" speed="20.00"/>
                <vehicle id="leader" pos="673.50" speed="20.00"/>
            </lane>
        </edge>
    </timestep>
    <timestep time="75.00">
        <edge id="middle">
            <lane id="middle_0">
                <vehicle id="follower" pos="668.50" speed="20.00"/>
                <vehicle id="leader" pos="693.50" speed="20.00"/>
            </lane>
        </edge>
    </timestep>
    <timestep time="76.00">
        <edge id="middle">
            <lane id="middle_0">
                <vehicle id="follower" pos="688.50" speed="20.00"/>
                <vehicle id="leader" pos="713.50" speed="20.00"/>
            </lane>
        </edge>
    </timestep>
    <timestep time="77.00">
        <edge id="middle">
            <lane id="middle_0">
                <vehicle id="follower" pos="708.50" speed="20.00"/>
                <vehicle id="leader" pos="733.50" speed="20.00"/>
            </lane>
        </edge>
    </timestep>
    <timestep time="78.00">
        <edge id="middle">
            <lane id="middle_0">
                <vehicle id="follower" pos="728.50" speed="20.00"/>
                <vehicle id="leader" pos="753.50" speed="20.00"/>
            </lane>
        </edge>
    </timestep>
    <timestep time="79.00">
        <edge id="middle">
            <lane id="middle_0">
                <vehicle id="follower" pos="748.50" speed="20.00"/>
                <vehicle id="leader" pos="773.50" speed="20.00"/>
            </lane>
        </edge>
    </timestep>
    <timestep time="80.00">
        <edge id="middle">
            <lane id="middle_0">
                <vehicle id="follower" pos="768.50" speed="20.00"/>
                <vehicle id="leader" pos="793.50" speed="20.00"/>
            </lane>
        </edge>
    </timestep>
    <timestep time="81.00">
        <edge id="middle">
            <lane id="middle_0">
                <vehicle id="follower" pos="788.50" speed="20.00"/>
                <vehicle id="leader" pos="813.50" speed="20.00"/>
            </lane>
        </edge>
    </timestep>
    <timestep time="82.00">
        <edge id="middle">
            <lane id="middle_0">
                <vehicle id="follower" pos="808.50" speed="20.00"/>
                <vehicle id="leader" pos="833.50" speed="20.00"/>
            </lane>
        </edge>
    </timestep>
    <timestep time="83.00">
        <edge id="middle">
            <lane id="middle_0">
                <vehicle id="follower" pos="828.50" speed="20.00"/>
                <vehicle id="leader" pos="853.50" speed="20.00"/>
            </lane>
        </edge>
    </timestep>
    <timestep time="84.00">
        <edge id="middle">
            <lane id="middle_0">
                <vehicle id="follower" pos="848.50" speed="20.00"/>
                <vehicle id="leader" pos="873.50" speed="20.00"/>
            </lane>
        </edge>
    </timestep>
    <timestep time="85.00">
        <edge id="middle">
            <lane id="middle_0">
                <vehicle id="follower" pos="868.50" speed="20.00"/>
                <vehicle id="leader" pos="893.50" speed="20.00"/>
            </lane>
        </edge>
    </timestep>
    <timestep time="86.00">
        <edge id="middle">
            <lane id="middle_0">
                <vehicle id="follower" pos="888.50" speed="20.00"/>
                <vehicle id="leader" pos="913.50" speed="20.00"/>
            </lane>
        </edge>
    </timestep>
    <timestep time="87.00">
        <edge id="middle">
            <lane id="middle_0">
                <vehicle id="follower" pos="908.50" speed="20.00"/>
                <vehicle id="leader" pos="933.50" speed="20.00"/>
            </lane>
        </edge>
    </timestep>
    <timestep time="88.00">
        <edge id="middle">
            <lane id="middle_0">
                <vehicle id="follower" pos="928.50" speed="20.00"/>
                <vehicle id="leader" pos="953.50" speed="20.00"/>
            </lane>
        </edge>
    </timestep>
    <timestep time="89.00">
        <edge id="middle">
            <lane id="middle_0">
                <vehicle id="follower" pos="948.50" speed="20.00"/>
                <vehicle id="leader" pos="973.50" speed="20.00"/>
            </lane>
        </edge>
    </timestep>
    <timestep time="90.00">
        <edge id="middle">
            <lane id="middle_0">
                <vehicle id="follower" pos="968.50" speed="20.00"/>
            </lane>
        </edge>
    </timestep>
    <timestep time="91.00"/>
</netstate>
