<?xml version="1.0" encoding="UTF-8"?>

<!-- generated on Mon Sep  9 15:55:54 2013 by SUMO sumo Version dev-SVN-r14631
<?xml version="1.0" encoding="UTF-8"?>

<configuration xmlns:xsi="http://www.w3.org/2001/XMLSchema-instance" xsi:noNamespaceSchemaLocation="http://sumo-sim.org/xsd/sumoConfiguration.xsd">

    <input>
        <net-file value="three_split.net.xml"/>
        <route-files value="input_routes.rou.xml"/>
        <additional-files value="input_additional.add.xml,input_additional2.add.xml"/>
    </input>

    <output>
        <netstate-dump value="rawdump.xml"/>
    </output>

    <time>
        <step-length value="1.0"/>
    </time>

    <report>
        <no-duration-log value="true"/>
        <no-step-log value="true"/>
    </report>

</configuration>
-->

<netstate xmlns:xsi="http://www.w3.org/2001/XMLSchema-instance" xsi:noNamespaceSchemaLocation="http://sumo-sim.org/xsd/netstate_file.xsd">
    <timestep time="0.00">
        <edge id="beg">
            <lane id="beg_0">
                <vehicle id="leader" pos="5.10" speed="0.00"/>
            </lane>
        </edge>
    </timestep>
    <timestep time="1.00">
        <edge id="beg">
            <lane id="beg_0">
                <vehicle id="leader" pos="7.70" speed="2.60"/>
            </lane>
        </edge>
    </timestep>
    <timestep time="2.00">
        <edge id="beg">
            <lane id="beg_0">
                <vehicle id="follower" pos="5.10" speed="0.00"/>
                <vehicle id="leader" pos="12.90" speed="5.20"/>
            </lane>
        </edge>
    </timestep>
    <timestep time="3.00">
        <edge id="beg">
            <lane id="beg_0">
                <vehicle id="follower" pos="7.70" speed="2.60"/>
                <vehicle id="leader" pos="20.70" speed="7.80"/>
            </lane>
        </edge>
    </timestep>
    <timestep time="4.00">
        <edge id="beg">
            <lane id="beg_0">
                <vehicle id="follower" pos="12.90" speed="5.20"/>
                <vehicle id="leader" pos="31.10" speed="10.40"/>
            </lane>
        </edge>
    </timestep>
    <timestep time="5.00">
        <edge id="beg">
            <lane id="beg_0">
                <vehicle id="follower" pos="20.70" speed="7.80"/>
                <vehicle id="leader" pos="44.10" speed="13.00"/>
            </lane>
        </edge>
    </timestep>
    <timestep time="6.00">
        <edge id="beg">
            <lane id="beg_0">
                <vehicle id="follower" pos="31.10" speed="10.40"/>
                <vehicle id="leader" pos="59.70" speed="15.60"/>
            </lane>
        </edge>
    </timestep>
    <timestep time="7.00">
        <edge id="beg">
            <lane id="beg_0">
                <vehicle id="follower" pos="44.10" speed="13.00"/>
                <vehicle id="leader" pos="77.90" speed="18.20"/>
            </lane>
        </edge>
    </timestep>
    <timestep time="8.00">
        <edge id="beg">
            <lane id="beg_0">
                <vehicle id="follower" pos="59.70" speed="15.60"/>
                <vehicle id="leader" pos="97.90" speed="20.00"/>
            </lane>
        </edge>
    </timestep>
    <timestep time="9.00">
        <edge id="beg">
            <lane id="beg_0">
                <vehicle id="follower" pos="77.90" speed="18.20"/>
                <vehicle id="leader" pos="117.90" speed="20.00"/>
            </lane>
        </edge>
    </timestep>
    <timestep time="10.00">
        <edge id="beg">
            <lane id="beg_0">
                <vehicle id="follower" pos="98.70" speed="20.80"/>
                <vehicle id="leader" pos="137.90" speed="20.00"/>
            </lane>
        </edge>
    </timestep>
    <timestep time="11.00">
        <edge id="beg">
            <lane id="beg_0">
                <vehicle id="follower" pos="121.32" speed="22.62"/>
                <vehicle id="leader" pos="157.90" speed="20.00"/>
            </lane>
        </edge>
    </timestep>
    <timestep time="12.00">
        <edge id="beg">
            <lane id="beg_0">
                <vehicle id="follower" pos="143.46" speed="22.14"/>
                <vehicle id="leader" pos="177.90" speed="20.00"/>
            </lane>
        </edge>
    </timestep>
    <timestep time="13.00">
        <edge id="beg">
            <lane id="beg_0">
                <vehicle id="follower" pos="165.20" speed="21.74"/>
                <vehicle id="leader" pos="197.90" speed="20.00"/>
            </lane>
        </edge>
    </timestep>
    <timestep time="14.00">
        <edge id="beg">
            <lane id="beg_0">
                <vehicle id="follower" pos="186.61" speed="21.41"/>
                <vehicle id="leader" pos="217.90" speed="20.00"/>
            </lane>
        </edge>
    </timestep>
    <timestep time="15.00">
        <edge id="beg">
            <lane id="beg_0">
                <vehicle id="follower" pos="207.75" speed="21.14"/>
                <vehicle id="leader" pos="237.90" speed="20.00"/>
            </lane>
        </edge>
    </timestep>
    <timestep time="16.00">
        <edge id="beg">
            <lane id="beg_0">
                <vehicle id="follower" pos="228.67" speed="20.92"/>
                <vehicle id="leader" pos="257.90" speed="20.00"/>
            </lane>
        </edge>
    </timestep>
    <timestep time="17.00">
        <edge id="beg">
            <lane id="beg_0">
                <vehicle id="follower" pos="249.41" speed="20.74"/>
                <vehicle id="leader" pos="277.90" speed="20.00"/>
            </lane>
        </edge>
    </timestep>
    <timestep time="18.00">
        <edge id="beg">
            <lane id="beg_0">
                <vehicle id="follower" pos="270.01" speed="20.60"/>
                <vehicle id="leader" pos="297.90" speed="20.00"/>
            </lane>
        </edge>
    </timestep>
    <timestep time="19.00">
        <edge id="beg">
            <lane id="beg_0">
                <vehicle id="follower" pos="290.49" speed="20.48"/>
                <vehicle id="leader" pos="317.90" speed="20.00"/>
            </lane>
        </edge>
    </timestep>
    <timestep time="20.00">
        <edge id="beg">
            <lane id="beg_0">
                <vehicle id="follower" pos="310.87" speed="20.38"/>
                <vehicle id="leader" pos="337.90" speed="20.00"/>
            </lane>
        </edge>
    </timestep>
    <timestep time="21.00">
        <edge id="beg">
            <lane id="beg_0">
                <vehicle id="follower" pos="331.18" speed="20.31"/>
                <vehicle id="leader" pos="357.90" speed="20.00"/>
            </lane>
        </edge>
    </timestep>
    <timestep time="22.00">
        <edge id="beg">
            <lane id="beg_0">
                <vehicle id="follower" pos="351.42" speed="20.25"/>
                <vehicle id="leader" pos="377.90" speed="20.00"/>
            </lane>
        </edge>
    </timestep>
    <timestep time="23.00">
        <edge id="beg">
            <lane id="beg_0">
                <vehicle id="follower" pos="371.62" speed="20.20"/>
                <vehicle id="leader" pos="397.90" speed="20.00"/>
            </lane>
        </edge>
    </timestep>
    <timestep time="24.00">
        <edge id="beg">
            <lane id="beg_0">
                <vehicle id="follower" pos="391.78" speed="20.16"/>
                <vehicle id="leader" pos="417.90" speed="20.00"/>
            </lane>
        </edge>
    </timestep>
    <timestep time="25.00">
        <edge id="beg">
            <lane id="beg_0">
                <vehicle id="follower" pos="411.90" speed="20.13"/>
                <vehicle id="leader" pos="437.90" speed="20.00"/>
            </lane>
        </edge>
    </timestep>
    <timestep time="26.00">
        <edge id="beg">
            <lane id="beg_0">
                <vehicle id="follower" pos="432.00" speed="20.10"/>
                <vehicle id="leader" pos="457.90" speed="20.00"/>
            </lane>
        </edge>
    </timestep>
    <timestep time="27.00">
        <edge id="beg">
            <lane id="beg_0">
                <vehicle id="follower" pos="452.08" speed="20.08"/>
                <vehicle id="leader" pos="477.90" speed="20.00"/>
            </lane>
        </edge>
    </timestep>
    <timestep time="28.00">
        <edge id="beg">
            <lane id="beg_0">
                <vehicle id="follower" pos="472.15" speed="20.06"/>
            </lane>
        </edge>
        <edge id="middle">
            <lane id="middle_0">
                <vehicle id="leader" pos="2.65" speed="20.00"/>
            </lane>
        </edge>
    </timestep>
    <timestep time="29.00">
        <edge id="beg">
            <lane id="beg_0">
                <vehicle id="follower" pos="492.20" speed="20.05"/>
            </lane>
        </edge>
        <edge id="middle">
            <lane id="middle_0">
                <vehicle id="leader" pos="22.65" speed="20.00"/>
            </lane>
        </edge>
    </timestep>
    <timestep time="30.00">
        <edge id="middle">
            <lane id="middle_0">
                <vehicle id="follower" pos="16.99" speed="20.04"/>
                <vehicle id="leader" pos="42.65" speed="20.00"/>
            </lane>
        </edge>
    </timestep>
    <timestep time="31.00">
        <edge id="middle">
            <lane id="middle_0">
                <vehicle id="follower" pos="37.02" speed="20.03"/>
                <vehicle id="leader" pos="62.65" speed="20.00"/>
            </lane>
        </edge>
    </timestep>
    <timestep time="32.00">
        <edge id="middle">
            <lane id="middle_0">
                <vehicle id="follower" pos="57.05" speed="20.03"/>
                <vehicle id="leader" pos="82.65" speed="20.00"/>
            </lane>
        </edge>
    </timestep>
    <timestep time="33.00">
        <edge id="middle">
            <lane id="middle_0">
                <vehicle id="follower" pos="77.07" speed="20.02"/>
                <vehicle id="leader" pos="102.65" speed="20.00"/>
            </lane>
        </edge>
    </timestep>
    <timestep time="34.00">
        <edge id="middle">
            <lane id="middle_0">
                <vehicle id="follower" pos="97.08" speed="20.02"/>
                <vehicle id="leader" pos="122.65" speed="20.00"/>
            </lane>
        </edge>
    </timestep>
    <timestep time="35.00">
        <edge id="middle">
            <lane id="middle_0">
                <vehicle id="follower" pos="117.10" speed="20.01"/>
                <vehicle id="leader" pos="142.65" speed="20.00"/>
            </lane>
        </edge>
    </timestep>
    <timestep time="36.00">
        <edge id="middle">
            <lane id="middle_0">
                <vehicle id="follower" pos="137.11" speed="20.01"/>
                <vehicle id="leader" pos="161.31" speed="18.66"/>
            </lane>
        </edge>
    </timestep>
    <timestep time="37.00">
        <edge id="middle">
            <lane id="middle_0">
                <vehicle id="follower" pos="155.78" speed="18.67"/>
                <vehicle id="leader" pos="176.01" speed="14.70"/>
            </lane>
        </edge>
    </timestep>
    <timestep time="38.00">
        <edge id="middle">
            <lane id="middle_0">
                <vehicle id="follower" pos="170.48" speed="14.70"/>
                <vehicle id="leader" pos="186.87" speed="10.87"/>
            </lane>
        </edge>
    </timestep>
    <timestep time="39.00">
        <edge id="middle">
            <lane id="middle_0">
                <vehicle id="follower" pos="181.36" speed="10.88"/>
                <vehicle id="leader" pos="194.14" speed="7.26"/>
            </lane>
        </edge>
    </timestep>
    <timestep time="40.00">
        <edge id="middle">
            <lane id="middle_0">
                <vehicle id="follower" pos="188.63" speed="7.27"/>
                <vehicle id="leader" pos="198.18" speed="4.04"/>
            </lane>
        </edge>
    </timestep>
    <timestep time="41.00">
        <edge id="middle">
            <lane id="middle_0">
                <vehicle id="follower" pos="191.95" speed="3.32"/>
                <vehicle id="leader" pos="199.73" speed="1.55"/>
            </lane>
        </edge>
    </timestep>
    <timestep time="42.00">
        <edge id="middle">
            <lane id="middle_0">
                <vehicle id="follower" pos="194.18" speed="2.23"/>
                <vehicle id="leader" pos="199.99" speed="0.26"/>
            </lane>
        </edge>
    </timestep>
    <timestep time="43.00">
        <edge id="middle">
            <lane id="middle_0">
                <vehicle id="follower" pos="194.93" speed="0.75"/>
                <vehicle id="leader" pos="199.99" speed="0.00"/>
            </lane>
        </edge>
    </timestep>
    <timestep time="44.00">
        <edge id="middle">
            <lane id="middle_0">
                <vehicle id="follower" pos="194.99" speed="0.06"/>
                <vehicle id="leader" pos="199.99" speed="0.00"/>
            </lane>
        </edge>
    </timestep>
    <timestep time="45.00">
        <edge id="middle">
            <lane id="middle_0">
                <vehicle id="follower" pos="194.99" speed="0.00"/>
                <vehicle id="leader" pos="199.99" speed="0.00"/>
            </lane>
        </edge>
    </timestep>
    <timestep time="46.00">
        <edge id="middle">
            <lane id="middle_0">
                <vehicle id="follower" pos="194.99" speed="0.00"/>
                <vehicle id="leader" pos="199.99" speed="0.00"/>
            </lane>
        </edge>
    </timestep>
    <timestep time="47.00">
        <edge id="middle">
            <lane id="middle_0">
                <vehicle id="follower" pos="194.99" speed="0.00"/>
                <vehicle id="leader" pos="199.99" speed="0.00"/>
            </lane>
        </edge>
    </timestep>
    <timestep time="48.00">
        <edge id="middle">
            <lane id="middle_0">
                <vehicle id="follower" pos="194.99" speed="0.00"/>
                <vehicle id="leader" pos="199.99" speed="0.00"/>
            </lane>
        </edge>
    </timestep>
    <timestep time="49.00">
        <edge id="middle">
            <lane id="middle_0">
                <vehicle id="follower" pos="194.99" speed="0.00"/>
                <vehicle id="leader" pos="202.59" speed="2.60"/>
            </lane>
        </edge>
    </timestep>
    <timestep time="50.00">
        <edge id="middle">
            <lane id="middle_0">
                <vehicle id="follower" pos="197.10" speed="2.11"/>
                <vehicle id="leader" pos="207.79" speed="5.20"/>
            </lane>
        </edge>
    </timestep>
    <timestep time="51.00">
        <edge id="middle">
            <lane id="middle_0">
                <vehicle id="follower" pos="201.81" speed="4.71"/>
                <vehicle id="leader" pos="215.59" speed="7.80"/>
            </lane>
        </edge>
    </timestep>
    <timestep time="52.00">
        <edge id="middle">
            <lane id="middle_0">
                <vehicle id="follower" pos="209.11" speed="7.31"/>
                <vehicle id="leader" pos="225.99" speed="10.40"/>
            </lane>
        </edge>
    </timestep>
    <timestep time="53.00">
        <edge id="middle">
            <lane id="middle_0">
                <vehicle id="follower" pos="219.02" speed="9.91"/>
                <vehicle id="leader" pos="238.99" speed="13.00"/>
            </lane>
        </edge>
    </timestep>
    <timestep time="54.00">
        <edge id="middle">
            <lane id="middle_0">
                <vehicle id="follower" pos="231.53" speed="12.51"/>
                <vehicle id="leader" pos="254.59" speed="15.60"/>
            </lane>
        </edge>
    </timestep>
    <timestep time="55.00">
        <edge id="middle">
            <lane id="middle_0">
                <vehicle id="follower" pos="246.63" speed="15.11"/>
                <vehicle id="leader" pos="272.79" speed="18.20"/>
            </lane>
        </edge>
    </timestep>
    <timestep time="56.00">
        <edge id="middle">
            <lane id="middle_0">
                <vehicle id="follower" pos="264.34" speed="17.71"/>
                <vehicle id="leader" pos="292.79" speed="20.00"/>
            </lane>
        </edge>
    </timestep>
    <timestep time="57.00">
        <edge id="middle">
            <lane id="middle_0">
                <vehicle id="follower" pos="284.65" speed="20.31"/>
                <vehicle id="leader" pos="312.79" speed="20.00"/>
            </lane>
        </edge>
    </timestep>
    <timestep time="58.00">
        <edge id="middle">
            <lane id="middle_0">
                <vehicle id="follower" pos="305.18" speed="20.53"/>
                <vehicle id="leader" pos="332.79" speed="20.00"/>
            </lane>
        </edge>
    </timestep>
    <timestep time="59.00">
        <edge id="middle">
            <lane id="middle_0">
                <vehicle id="follower" pos="325.60" speed="20.42"/>
                <vehicle id="leader" pos="352.79" speed="20.00"/>
            </lane>
        </edge>
    </timestep>
    <timestep time="60.00">
        <edge id="middle">
            <lane id="middle_0">
                <vehicle id="follower" pos="345.94" speed="20.34"/>
                <vehicle id="leader" pos="372.79" speed="20.00"/>
            </lane>
        </edge>
    </timestep>
    <timestep time="61.00">
        <edge id="middle">
            <lane id="middle_0">
                <vehicle id="follower" pos="366.21" speed="20.27"/>
                <vehicle id="leader" pos="392.79" speed="20.00"/>
            </lane>
        </edge>
    </timestep>
    <timestep time="62.00">
        <edge id="middle">
            <lane id="middle_0">
                <vehicle id="follower" pos="386.43" speed="20.22"/>
                <vehicle id="leader" pos="412.79" speed="20.00"/>
            </lane>
        </edge>
    </timestep>
    <timestep time="63.00">
        <edge id="middle">
            <lane id="middle_0">
                <vehicle id="follower" pos="406.60" speed="20.17"/>
                <vehicle id="leader" pos="432.79" speed="20.00"/>
            </lane>
        </edge>
    </timestep>
    <timestep time="64.00">
        <edge id="middle">
            <lane id="middle_0">
                <vehicle id="follower" pos="426.74" speed="20.14"/>
                <vehicle id="leader" pos="452.79" speed="20.00"/>
            </lane>
        </edge>
    </timestep>
    <timestep time="65.00">
        <edge id="middle">
            <lane id="middle_0">
                <vehicle id="follower" pos="446.85" speed="20.11"/>
                <vehicle id="leader" pos="472.79" speed="20.00"/>
            </lane>
        </edge>
    </timestep>
    <timestep time="66.00">
        <edge id="middle">
            <lane id="middle_0">
                <vehicle id="follower" pos="466.94" speed="20.09"/>
                <vehicle id="leader" pos="492.79" speed="20.00"/>
            </lane>
        </edge>
    </timestep>
    <timestep time="67.00">
        <edge id="middle">
            <lane id="middle_0">
                <vehicle id="follower" pos="487.01" speed="20.07"/>
                <vehicle id="leader" pos="512.79" speed="20.00"/>
            </lane>
        </edge>
    </timestep>
    <timestep time="68.00">
        <edge id="middle">
            <lane id="middle_0">
                <vehicle id="follower" pos="507.07" speed="20.06"/>
                <vehicle id="leader" pos="532.79" speed="20.00"/>
            </lane>
        </edge>
    </timestep>
    <timestep time="69.00">
        <edge id="middle">
            <lane id="middle_0">
                <vehicle id="follower" pos="527.11" speed="20.05"/>
                <vehicle id="leader" pos="552.79" speed="20.00"/>
            </lane>
        </edge>
    </timestep>
    <timestep time="70.00">
        <edge id="middle">
            <lane id="middle_0">
                <vehicle id="follower" pos="547.15" speed="20.04"/>
                <vehicle id="leader" pos="572.79" speed="20.00"/>
            </lane>
        </edge>
    </timestep>
    <timestep time="71.00">
        <edge id="middle">
            <lane id="middle_0">
                <vehicle id="follower" pos="567.18" speed="20.03"/>
                <vehicle id="leader" pos="592.79" speed="20.00"/>
            </lane>
        </edge>
    </timestep>
    <timestep time="72.00">
        <edge id="middle">
            <lane id="middle_0">
                <vehicle id="follower" pos="587.20" speed="20.02"/>
                <vehicle id="leader" pos="612.79" speed="20.00"/>
            </lane>
        </edge>
    </timestep>
    <timestep time="73.00">
        <edge id="middle">
            <lane id="middle_0">
                <vehicle id="follower" pos="607.22" speed="20.02"/>
                <vehicle id="leader" pos="632.79" speed="20.00"/>
            </lane>
        </edge>
    </timestep>
    <timestep time="74.00">
        <edge id="middle">
            <lane id="middle_0">
                <vehicle id="follower" pos="627.23" speed="20.01"/>
                <vehicle id="leader" pos="652.79" speed="20.00"/>
            </lane>
        </edge>
    </timestep>
    <timestep time="75.00">
        <edge id="middle">
            <lane id="middle_0">
                <vehicle id="follower" pos="647.25" speed="20.01"/>
                <vehicle id="leader" pos="672.79" speed="20.00"/>
            </lane>
        </edge>
    </timestep>
    <timestep time="76.00">
        <edge id="middle">
            <lane id="middle_0">
                <vehicle id="follower" pos="667.26" speed="20.01"/>
                <vehicle id="leader" pos="692.79" speed="20.00"/>
            </lane>
        </edge>
    </timestep>
    <timestep time="77.00">
        <edge id="middle">
            <lane id="middle_0">
                <vehicle id="follower" pos="687.26" speed="20.01"/>
                <vehicle id="leader" pos="712.79" speed="20.00"/>
            </lane>
        </edge>
    </timestep>
    <timestep time="78.00">
        <edge id="middle">
            <lane id="middle_0">
                <vehicle id="follower" pos="707.27" speed="20.01"/>
                <vehicle id="leader" pos="732.79" speed="20.00"/>
            </lane>
        </edge>
    </timestep>
    <timestep time="79.00">
        <edge id="middle">
            <lane id="middle_0">
                <vehicle id="follower" pos="727.27" speed="20.00"/>
                <vehicle id="leader" pos="752.79" speed="20.00"/>
            </lane>
        </edge>
    </timestep>
    <timestep time="80.00">
        <edge id="middle">
            <lane id="middle_0">
                <vehicle id="follower" pos="747.28" speed="20.00"/>
                <vehicle id="leader" pos="772.79" speed="20.00"/>
            </lane>
        </edge>
    </timestep>
    <timestep time="81.00">
        <edge id="middle">
            <lane id="middle_0">
                <vehicle id="follower" pos="767.28" speed="20.00"/>
                <vehicle id="leader" pos="792.79" speed="20.00"/>
            </lane>
        </edge>
    </timestep>
    <timestep time="82.00">
        <edge id="middle">
            <lane id="middle_0">
                <vehicle id="follower" pos="787.28" speed="20.00"/>
                <vehicle id="leader" pos="812.79" speed="20.00"/>
            </lane>
        </edge>
    </timestep>
    <timestep time="83.00">
        <edge id="middle">
            <lane id="middle_0">
                <vehicle id="follower" pos="807.28" speed="20.00"/>
                <vehicle id="leader" pos="832.79" speed="20.00"/>
            </lane>
        </edge>
    </timestep>
    <timestep time="84.00">
        <edge id="middle">
            <lane id="middle_0">
                <vehicle id="follower" pos="827.29" speed="20.00"/>
                <vehicle id="leader" pos="852.79" speed="20.00"/>
            </lane>
        </edge>
    </timestep>
    <timestep time="85.00">
        <edge id="middle">
            <lane id="middle_0">
                <vehicle id="follower" pos="847.29" speed="20.00"/>
                <vehicle id="leader" pos="872.79" speed="20.00"/>
            </lane>
        </edge>
    </timestep>
    <timestep time="86.00">
        <edge id="middle">
            <lane id="middle_0">
                <vehicle id="follower" pos="867.29" speed="20.00"/>
                <vehicle id="leader" pos="892.79" speed="20.00"/>
            </lane>
        </edge>
    </timestep>
    <timestep time="87.00">
        <edge id="middle">
            <lane id="middle_0">
                <vehicle id="follower" pos="887.29" speed="20.00"/>
                <vehicle id="leader" pos="912.79" speed="20.00"/>
            </lane>
        </edge>
    </timestep>
    <timestep time="88.00">
        <edge id="middle">
            <lane id="middle_0">
                <vehicle id="follower" pos="907.29" speed="20.00"/>
                <vehicle id="leader" pos="932.79" speed="20.00"/>
            </lane>
        </edge>
    </timestep>
    <timestep time="89.00">
        <edge id="middle">
            <lane id="middle_0">
                <vehicle id="follower" pos="927.29" speed="20.00"/>
                <vehicle id="leader" pos="952.79" speed="20.00"/>
            </lane>
        </edge>
    </timestep>
    <timestep time="90.00">
        <edge id="middle">
            <lane id="middle_0">
                <vehicle id="follower" pos="947.29" speed="20.00"/>
                <vehicle id="leader" pos="972.79" speed="20.00"/>
            </lane>
        </edge>
    </timestep>
    <timestep time="91.00">
        <edge id="middle">
            <lane id="middle_0">
                <vehicle id="follower" pos="967.29" speed="20.00"/>
            </lane>
        </edge>
    </timestep>
    <timestep time="92.00">
        <edge id="middle">
            <lane id="middle_0">
                <vehicle id="follower" pos="989.89" speed="22.60"/>
            </lane>
        </edge>
    </timestep>
    <timestep time="93.00"/>
</netstate>
