<?xml version="1.0" encoding="UTF-8"?>

<!-- generated on 2025-07-15 15:27:11 by Eclipse SUMO netedit Version v1_23_1+1089-9f820db986c
This data file and the accompanying materials
are made available under the terms of the Eclipse Public License v2.0
which accompanies this distribution, and is available at
http://www.eclipse.org/legal/epl-v20.html
This file may also be made available under the following Secondary
Licenses when the conditions for such availability set forth in the Eclipse
Public License 2.0 are satisfied: GNU General Public License, version 2
or later which is available at
https://www.gnu.org/licenses/old-licenses/gpl-2.0-standalone.html
SPDX-License-Identifier: EPL-2.0 OR GPL-2.0-or-later
<neteditConfiguration xmlns:xsi="http://www.w3.org/2001/XMLSchema-instance" xsi:noNamespaceSchemaLocation="http://sumo.dlr.de/xsd/neteditConfiguration.xsd">

    <input>
        <additional-files value="additionals.add.xml"/>
        <route-files value="routes.rou.xml"/>
        <data-files value="datas.dat.xml"/>
        <meandata-files value="datas.med.add.xml"/>
        <sumo-net-file value="net.net.xml"/>
    </input>

    <output>
        <write-license value="true"/>
        <output-file value="net.net.xml"/>
        <output.street-names value="true"/>
    </output>

    <processing>
        <geometry.min-radius.fix.railways value="false"/>
        <geometry.avoid-overlap value="false"/>
        <geometry.max-grade.fix value="false"/>
        <offset.disable-normalization value="true"/>
        <lefthand value="0"/>
    </processing>

    <junctions>
        <no-turnarounds value="true"/>
        <junctions.corner-detail value="5"/>
        <junctions.limit-turn-speed value="5.50"/>
        <rectangular-lane-cut value="0"/>
    </junctions>

    <pedestrian>
        <walkingareas value="0"/>
    </pedestrian>

    <netedit>
        <ignore-supermode-question value="true"/>
        <ignore.additionalelements value="0"/>
        <ignore.routeelements value="0"/>
        <force-saving value="true"/>
    </netedit>

    <visualisation>
        <gui-settings-file value="gui-settings.xml"/>
        <window-size value="1280, 720"/>
        <window-pos value="50,50"/>
        <gui-testing value="true"/>
        <gui-testing.setting-output value="guisettingsoutput.xml"/>
    </visualisation>

    <report>
        <no-warnings value="true"/>
        <error-log value="log.txt"/>
    </report>

</neteditConfiguration>
-->

<net version="1.20" junctionCornerDetail="5" limitTurnSpeed="5.50" avoidOverlap="0" xmlns:xsi="http://www.w3.org/2001/XMLSchema-instance" xsi:noNamespaceSchemaLocation="http://sumo.dlr.de/xsd/net_file.xsd">

    <location netOffset="0.00,0.00" convBoundary="-60.00,-30.00,60.00,30.00" origBoundary="-10000000000.000000,-10000000000.000000,10000000000.000000,10000000000.000000" projParameter="+proj=merc +a=6378137 +b=6378137 +lat_ts=0.0 +lon_0=0.0 +x_0=0.0 +y_0=0 +k=1.0 +units=m +nadgrids=@null +wktext +no_defs"/>

    <edge id=":J2_0" function="internal">
        <lane id=":J2_0_0" index="0" disallow="pedestrian tram rail_urban rail rail_electric rail_fast ship container cable_car subway aircraft drone" speed="5.42" length="9.10" width="4.00" shape="-24.00,23.00 -30.00,23.00 -30.24,22.07 -30.09,21.50 -29.53,21.28 -28.59,21.41"/>
    </edge>
    <edge id=":J3_0" function="internal">
        <lane id=":J3_0_0" index="0" disallow="pedestrian tram rail_urban rail rail_electric rail_fast ship container cable_car subway aircraft drone" speed="5.42" length="9.10" width="4.00" shape="24.34,17.17 28.59,21.41 29.53,21.28 30.09,21.50 30.24,22.07 30.00,23.00"/>
    </edge>
    <edge id=":J4_0" function="internal">
        <lane id=":J4_0_0" index="0" disallow="pedestrian tram rail_urban rail rail_electric rail_fast ship container cable_car subway aircraft drone" speed="5.42" length="9.10" width="4.00" shape="-24.34,-17.17 -28.59,-21.41 -29.53,-21.28 -30.09,-21.50 -30.24,-22.07 -30.00,-23.00"/>
    </edge>
    <edge id=":J5_0" function="internal">
        <lane id=":J5_0_0" index="0" disallow="pedestrian tram rail_urban rail rail_electric rail_fast ship container cable_car subway aircraft drone" speed="5.42" length="9.10" width="4.00" shape="24.00,-23.00 30.00,-23.00 30.24,-22.07 30.09,-21.50 29.53,-21.28 28.59,-21.41"/>
    </edge>
    <edge id=":JunctionExtern0_0" function="internal">
        <lane id=":JunctionExtern0_0_0" index="0" disallow="pedestrian" speed="4.08" length="5.84" width="4.00" shape="-60.00,2.00 -61.50,1.00 -62.00,0.00 -61.50,-1.00 -60.00,-2.00"/>
    </edge>
    <edge id=":JunctionExtern1_0" function="internal">
        <lane id=":JunctionExtern1_0_0" index="0" disallow="pedestrian" speed="4.08" length="5.84" width="4.00" shape="60.00,-2.00 61.50,-1.00 62.00,0.00 61.50,1.00 60.00,2.00"/>
    </edge>

    <edge id="-E1" from="J3" to="J2" name="Custom Edges" priority="6" spreadType="center" length="50.00" shape="25.00,25.00 -25.00,25.00">
        <stopOffset vClasses="pedestrian tram rail_urban rail rail_electric rail_fast ship container cable_car subway aircraft drone" value="20.00"/>
        <lane id="-E1_0" index="0" disallow="pedestrian tram rail_urban rail rail_electric rail_fast ship container cable_car subway aircraft drone" speed="20.00" length="44.00" endOffset="6.00" width="4.00" shape="30.00,27.00 -24.00,27.00" type="TypeB">
            <stopOffset exceptions="rail_urban rail rail_electric cable_car drone" value="4.00"/>
            <param key="KeyA" value="ValueA"/>
        </lane>
        <lane id="-E1_1" index="1" disallow="pedestrian tram rail_urban rail rail_electric rail_fast ship container cable_car subway aircraft drone" speed="20.00" length="44.00" endOffset="6.00" width="4.00" shape="30.00,23.00 -24.00,23.00" type="TypeA"/>
        <param key="Key1B" value="Value1B"/>
        <param key="Key2B" value="Value2B"/>
        <param key="Key3B" value="Value3B"/>
    </edge>
    <edge id="-E2" from="J5" to="J4" name="Custom Edges" priority="6" spreadType="center" length="50.00" shape="30.00,-20.00 25.00,-15.00 -25.00,-15.00 -30.00,-20.00">
        <stopOffset vClasses="pedestrian tram rail_urban rail rail_electric rail_fast ship container cable_car subway aircraft drone" value="20.00"/>
        <lane id="-E2_0" index="0" disallow="pedestrian tram rail_urban rail rail_electric rail_fast ship container cable_car subway aircraft drone" speed="20.00" length="44.00" endOffset="6.00" width="4.00" shape="31.41,-18.59 25.83,-13.00 -25.83,-13.00 -27.17,-14.34"/>
        <lane id="-E2_1" index="1" disallow="pedestrian tram rail_urban rail rail_electric rail_fast ship container cable_car subway aircraft drone" speed="20.00" length="44.00" endOffset="6.00" width="4.00" shape="28.59,-21.41 24.17,-17.00 -24.17,-17.00 -24.34,-17.17" changeLeft="tram rail_urban rail rail_electric rail_fast cable_car subway">
            <stopOffset vClasses="all" value="12.00"/>
        </lane>
        <param key="Key1B" value="Value1B"/>
        <param key="Key2B" value="Value2B"/>
        <param key="Key3B" value="Value3B"/>
    </edge>
    <edge id="E0" from="J0" to="J1" priority="-1">
        <lane id="E0_0" index="0" speed="13.89" length="60.00" width="4.00" acceleration="1" shape="-30.00,-2.00 30.00,-2.00" changeLeft="private emergency authority army vip passenger hov taxi bus coach delivery truck trailer motorcycle moped evehicle rail_urban rail rail_electric rail_fast ship container cable_car subway aircraft drone custom1 custom2"/>
    </edge>
    <edge id="E1" from="J2" to="J3" name="Custom Edges" priority="6" spreadType="center" length="50.00" shape="-30.00,20.00 -25.00,15.00 25.00,15.00 30.00,20.00">
        <stopOffset vClasses="pedestrian tram rail_urban rail rail_electric rail_fast ship container cable_car subway aircraft drone" value="20.00"/>
        <lane id="E1_0" index="0" disallow="pedestrian tram rail_urban rail rail_electric rail_fast ship container cable_car subway aircraft drone" speed="20.00" length="44.00" endOffset="6.00" width="4.00" shape="-31.41,18.59 -25.83,13.00 25.83,13.00 27.17,14.34"/>
        <lane id="E1_1" index="1" disallow="pedestrian tram rail_urban rail rail_electric rail_fast ship container cable_car subway aircraft drone" speed="20.00" length="44.00" endOffset="6.00" width="4.00" shape="-28.59,21.41 -24.17,17.00 24.17,17.00 24.34,17.17" changeLeft="tram rail_urban rail rail_electric rail_fast cable_car subway">
            <stopOffset vClasses="all" value="12.00"/>
        </lane>
        <param key="Key1B" value="Value1B"/>
        <param key="Key2B" value="Value2B"/>
        <param key="Key3B" value="Value3B"/>
    </edge>
    <edge id="E2" from="J4" to="J5" name="Custom Edges" priority="6" spreadType="center" length="50.00" shape="-25.00,-25.00 25.00,-25.00">
        <stopOffset vClasses="pedestrian tram rail_urban rail rail_electric rail_fast ship container cable_car subway aircraft drone" value="20.00"/>
        <lane id="E2_0" index="0" disallow="pedestrian tram rail_urban rail rail_electric rail_fast ship container cable_car subway aircraft drone" speed="20.00" length="44.00" endOffset="6.00" width="4.00" shape="-30.00,-27.00 24.00,-27.00" type="TypeB">
            <stopOffset exceptions="rail_urban rail rail_electric cable_car drone" value="4.00"/>
            <param key="KeyA" value="ValueA"/>
        </lane>
        <lane id="E2_1" index="1" disallow="pedestrian tram rail_urban rail rail_electric rail_fast ship container cable_car subway aircraft drone" speed="20.00" length="44.00" endOffset="6.00" width="4.00" shape="-30.00,-23.00 24.00,-23.00" type="TypeA"/>
        <param key="Key1B" value="Value1B"/>
        <param key="Key2B" value="Value2B"/>
        <param key="Key3B" value="Value3B"/>
    </edge>
    <edge id="EdgeExternBot" from="JunctionExtern0" to="JunctionExtern1" priority="-1" length="175.00" shape="-60.00,0.00 -45.00,0.00 -45.00,-25.00 -40.00,-30.00 40.00,-30.00 45.00,-25.00 45.00,0.00 60.00,0.00">
        <lane id="EdgeExternBot_0" index="0" disallow="pedestrian" speed="13.89" length="175.00" width="4.00" shape="-60.00,-2.00 -47.00,-2.00 -47.00,-25.83 -40.83,-32.00 40.83,-32.00 47.00,-25.83 47.00,-2.00 60.00,-2.00" changeRight="private emergency vip pedestrian passenger hov taxi bus coach truck trailer motorcycle moped bicycle evehicle tram rail_urban rail_electric rail_fast container cable_car subway wheelchair scooter drone custom1 custom2">
            <param key="Key1" value="Value1"/>
            <param key="Key2" value="Value2"/>
            <param key="Key3" value="Value3"/>
        </lane>
    </edge>
    <edge id="EdgeExternTop" from="JunctionExtern1" to="JunctionExtern0" priority="-1" length="175.00" shape="60.00,0.00 45.00,0.00 45.00,25.00 40.00,30.00 -40.00,30.00 -45.00,25.00 -45.00,0.00 -60.00,0.00">
        <lane id="EdgeExternTop_0" index="0" disallow="pedestrian" speed="13.89" length="175.00" width="4.00" shape="60.00,2.00 47.00,2.00 47.00,25.83 40.83,32.00 -40.83,32.00 -47.00,25.83 -47.00,2.00 -60.00,2.00" changeRight="private emergency vip pedestrian passenger hov taxi bus coach truck trailer motorcycle moped bicycle evehicle tram rail_urban rail_electric rail_fast container cable_car subway wheelchair scooter drone custom1 custom2">
            <param key="Key1" value="Value1"/>
            <param key="Key2" value="Value2"/>
            <param key="Key3" value="Value3"/>
        </lane>
    </edge>

    <junction id="J0" type="dead_end" x="-30.00" y="0.00" incLanes="" intLanes="" shape="-30.00,0.00 -30.00,-4.00"/>
    <junction id="J1" type="dead_end" x="30.00" y="0.00" incLanes="E0_0" intLanes="" shape="30.00,-4.00 30.00,0.00"/>
    <junction id="J2" type="priority" x="-30.00" y="20.00" incLanes="-E1_0 -E1_1" intLanes=":J2_0_0" shape="-27.17,22.83 -32.83,17.17 -30.00,29.00 -30.00,21.00">
        <request index="0" response="0" foes="0" cont="0"/>
    </junction>
    <junction id="J3" type="priority" x="30.00" y="20.00" incLanes="E1_0 E1_1" intLanes=":J3_0_0" shape="30.00,21.00 30.00,29.00 32.83,17.17 27.17,22.83">
        <request index="0" response="0" foes="0" cont="0"/>
    </junction>
    <junction id="J4" type="priority" x="-30.00" y="-20.00" incLanes="-E2_0 -E2_1" intLanes=":J4_0_0" shape="-30.00,-21.00 -30.00,-29.00 -32.83,-17.17 -27.17,-22.83">
        <request index="0" response="0" foes="0" cont="0"/>
    </junction>
    <junction id="J5" type="priority" x="30.00" y="-20.00" incLanes="E2_0 E2_1" intLanes=":J5_0_0" shape="27.17,-22.83 32.83,-17.17 30.00,-29.00 30.00,-21.00">
        <request index="0" response="0" foes="0" cont="0"/>
    </junction>
    <junction id="JunctionExtern0" type="priority" x="-60.00" y="0.00" incLanes="EdgeExternTop_0" intLanes=":JunctionExtern0_0_0" shape="-60.00,0.00 -60.00,4.00 -60.00,0.00">
        <request index="0" response="0" foes="0" cont="0"/>
    </junction>
    <junction id="JunctionExtern1" type="priority" x="60.00" y="0.00" incLanes="EdgeExternBot_0" intLanes=":JunctionExtern1_0_0" shape="60.00,0.00 60.00,-4.00 60.00,0.00">
        <request index="0" response="0" foes="0" cont="0"/>
    </junction>

    <connection from="-E1" to="E1" fromLane="1" toLane="1" via=":J2_0_0" dir="t" state="M"/>
    <connection from="-E2" to="E2" fromLane="1" toLane="1" via=":J4_0_0" dir="t" state="M"/>
    <connection from="E1" to="-E1" fromLane="1" toLane="1" via=":J3_0_0" dir="t" state="M"/>
    <connection from="E2" to="-E2" fromLane="1" toLane="1" via=":J5_0_0" dir="t" state="M"/>
    <connection from="EdgeExternBot" to="EdgeExternTop" fromLane="0" toLane="0" via=":JunctionExtern1_0_0" dir="t" state="M"/>
    <connection from="EdgeExternTop" to="EdgeExternBot" fromLane="0" toLane="0" via=":JunctionExtern0_0_0" dir="t" state="M"/>

    <connection from=":J2_0" to="E1" fromLane="0" toLane="1" dir="t" state="M"/>
    <connection from=":J3_0" to="-E1" fromLane="0" toLane="1" dir="t" state="M"/>
    <connection from=":J4_0" to="E2" fromLane="0" toLane="1" dir="t" state="M"/>
    <connection from=":J5_0" to="-E2" fromLane="0" toLane="1" dir="t" state="M"/>
    <connection from=":JunctionExtern0_0" to="EdgeExternBot" fromLane="0" toLane="0" dir="t" state="M"/>
    <connection from=":JunctionExtern1_0" to="EdgeExternTop" fromLane="0" toLane="0" dir="t" state="M"/>

</net>
