<?xml version="1.0" encoding="UTF-8"?>

<!-- generated on 2021-12-08 14:33:23 by Eclipse SUMO sumo Version v1_11_0+0353-0fe5fe321c1
This data file and the accompanying materials
are made available under the terms of the Eclipse Public License v2.0
which accompanies this distribution, and is available at
http://www.eclipse.org/legal/epl-v20.html
SPDX-License-Identifier: EPL-2.0
<configuration xmlns:xsi="http://www.w3.org/2001/XMLSchema-instance" xsi:noNamespaceSchemaLocation="http://sumo.dlr.de/xsd/sumoConfiguration.xsd">

    <input>
        <net-file value="net.net.xml"/>
        <route-files value="input_routes.rou.xml"/>
        <additional-files value="input_additional.add.xml"/>
    </input>

    <output>
        <write-license value="true"/>
        <tripinfo-output value="tripinfos.xml"/>
    </output>

    <processing>
        <default.speeddev value="0"/>
        <pedestrian.model value="nonInteracting"/>
    </processing>

    <report>
        <verbose value="true"/>
        <xml-validation value="never"/>
        <xml-validation.routes value="never"/>
        <no-step-log value="true"/>
    </report>

    <mesoscopic>
        <mesosim value="true"/>
    </mesoscopic>

</configuration>
-->

<tripinfos xmlns:xsi="http://www.w3.org/2001/XMLSchema-instance" xsi:noNamespaceSchemaLocation="http://sumo.dlr.de/xsd/tripinfo_file.xsd">
    <tripinfo id="train0" depart="50.00" departLane="" departPos="0.00" departSpeed="13.90" departDelay="0.00" arrival="194.00" arrivalLane="" arrivalPos="90.50" arrivalSpeed="13.90" duration="144.00" routeLength="455.50" waitingTime="0.00" waitingCount="0" stopTime="110.36" timeLoss="110.36" rerouteNo="0" devices="tripinfo_train0 person_train0" vType="train" speedFactor="1.00" vaporized=""/>
    <tripinfo id="train1" depart="57.00" departLane="" departPos="0.00" departSpeed="13.90" departDelay="7.00" arrival="197.00" arrivalLane="" arrivalPos="90.50" arrivalSpeed="13.90" duration="140.00" routeLength="455.50" waitingTime="0.00" waitingCount="0" stopTime="100.25" timeLoss="106.47" rerouteNo="0" devices="tripinfo_train1 person_train1" vType="train" speedFactor="1.00" vaporized=""/>
    <personinfo id="person1" depart="0.00" type="DEFAULT_PEDTYPE">
        <walk depart="0.00" departPos="80.00" arrival="49.00" arrivalPos="55.00" duration="49.00" routeLength="65.50" timeLoss="1.84" maxSpeed="1.39"/>
        <ride waitingTime="74.49" vehicle="train1" depart="123.49" arrival="137.00" arrivalPos="0.00" duration="13.51" routeLength="182.50" timeLoss="0.00"/>
        <walk depart="137.00" departPos="0.00" arrival="226.00" arrivalPos="30.00" duration="89.00" routeLength="122.00" timeLoss="1.16" maxSpeed="1.39"/>
        <stop duration="20.00" arrival="246.00" arrivalPos="30.00" actType="singing"/>
    </personinfo>
    <personinfo id="person0" depart="0.00" type="DEFAULT_PEDTYPE">
        <walk depart="0.00" departPos="80.00" arrival="49.00" arrivalPos="55.00" duration="49.00" routeLength="65.50" timeLoss="1.84" maxSpeed="1.39"/>
        <ride waitingTime="71.49" vehicle="train0" depart="120.49" arrival="134.00" arrivalPos="0.00" duration="13.51" routeLength="182.50" timeLoss="0.00"/>
        <walk depart="134.00" departPos="0.00" arrival="223.00" arrivalPos="30.00" duration="89.00" routeLength="122.00" timeLoss="1.16" maxSpeed="1.39"/>
        <stop duration="20.00" arrival="243.00" arrivalPos="30.00" actType="singing"/>
        <ride waitingTime="0.00" vehicle="car0" depart="243.00" arrival="283.00" arrivalPos="92.00" duration="40.00" routeLength="181.00" timeLoss="0.00"/>
    </personinfo>
    <tripinfo id="car0" depart="243.00" departLane="" departPos="0.00" departSpeed="3.41" departDelay="0.00" arrival="283.00" arrivalLane="" arrivalPos="92.00" arrivalSpeed="13.90" duration="40.00" routeLength="273.00" waitingTime="0.00" waitingCount="0" stopTime="20.00" timeLoss="20.00" rerouteNo="0" devices="tripinfo_car0 person_car0" vType="DEFAULT_VEHTYPE" speedFactor="1.00" vaporized=""/>
</tripinfos>
