<?xml version="1.0" encoding="UTF-8"?>

<!-- generated on 2024-10-18 14:57:33 by Eclipse SUMO sumo Version v1_21_0+0436-1b679be6a88
<sumoConfiguration xmlns:xsi="http://www.w3.org/2001/XMLSchema-instance" xsi:noNamespaceSchemaLocation="http://sumo.dlr.de/xsd/sumoConfiguration.xsd">

    <input>
        <net-file value="input_net.net.xml"/>
        <route-files value="input_routes.rou.xml"/>
    </input>

    <output>
        <tripinfo-output value="tripinfo.xml"/>
    </output>

    <report>
        <no-step-log value="true"/>
    </report>

    <traci_server>
        <remote-port value="35655"/>
    </traci_server>

</sumoConfiguration>
-->

<tripinfos xmlns:xsi="http://www.w3.org/2001/XMLSchema-instance" xsi:noNamespaceSchemaLocation="http://sumo.dlr.de/xsd/tripinfo_file.xsd">
    <tripinfo id="t0" depart="0.00" departLane="" departPos="45.10" departSpeed="-1.00" departDelay="0.00" arrival="57.00" arrivalLane="e_0" arrivalPos="100.00" arrivalSpeed="8.00" duration="57.00" routeLength="300.20" waitingTime="0.00" waitingCount="0" stopTime="0.00" timeLoss="0.00" rerouteNo="1" devices="tripinfo_t0 routing_t0" vType="train" speedFactor="1.00" vaporized=""/>
    <tripinfo id="t1" depart="13.00" departLane="" departPos="45.10" departSpeed="-1.00" departDelay="3.00" arrival="92.00" arrivalLane="e_0" arrivalPos="100.00" arrivalSpeed="8.00" duration="79.00" routeLength="500.40" waitingTime="2.00" waitingCount="1" stopTime="0.00" timeLoss="21.76" rerouteNo="1" devices="tripinfo_t1 routing_t1" vType="train" speedFactor="1.00" vaporized=""/>
</tripinfos>
