<?xml version="1.0" encoding="UTF-8"?>

<!-- generated on 2021-08-16 15:46:24 by Eclipse SUMO sumo Version v1_9_2+1069-f9b761f
This data file and the accompanying materials
are made available under the terms of the Eclipse Public License v2.0
which accompanies this distribution, and is available at
http://www.eclipse.org/legal/epl-v20.html
SPDX-License-Identifier: EPL-2.0
<configuration xmlns:xsi="http://www.w3.org/2001/XMLSchema-instance" xsi:noNamespaceSchemaLocation="http://sumo.dlr.de/xsd/sumoConfiguration.xsd">

    <input>
        <net-file value="net.net.xml"/>
        <route-files value="input_routes.rou.xml"/>
    </input>

    <output>
        <write-license value="true"/>
        <tripinfo-output value="tripinfos.xml"/>
    </output>

    <processing>
        <default.speeddev value="0"/>
    </processing>

    <report>
        <xml-validation value="never"/>
        <xml-validation.routes value="never"/>
        <duration-log.disable value="true"/>
        <no-step-log value="true"/>
    </report>

</configuration>
-->

<tripinfos xmlns:xsi="http://www.w3.org/2001/XMLSchema-instance" xsi:noNamespaceSchemaLocation="http://sumo.dlr.de/xsd/tripinfo_file.xsd">
    <tripinfo id="prio" depart="0.00" departLane="NC_0" departPos="55.25" departSpeed="13.89" departDelay="0.00" arrival="11.00" arrivalLane="CS_0" arrivalPos="95.25" arrivalSpeed="13.89" duration="11.00" routeLength="144.75" waitingTime="0.00" waitingCount="0" stopTime="0.00" timeLoss="0.00" rerouteNo="0" devices="tripinfo_prio" vType="DEFAULT_VEHTYPE" speedFactor="1.00" vaporized=""/>
    <tripinfo id="noprio" depart="0.00" departLane="EC_0" departPos="95.15" departSpeed="0.00" departDelay="0.00" arrival="13.00" arrivalLane="CW_0" arrivalPos="95.25" arrivalSpeed="13.89" duration="13.00" routeLength="104.85" waitingTime="3.00" waitingCount="1" stopTime="0.00" timeLoss="5.27" rerouteNo="0" devices="tripinfo_noprio" vType="DEFAULT_VEHTYPE" speedFactor="1.00" vaporized=""/>
</tripinfos>
