<?xml version="1.0" encoding="UTF-8"?>

<!-- generated on Tue Mar 31 12:21:23 2020 by Eclipse SUMO Version v1_5_0+1025-83bc0d0af0
This data file and the accompanying materials
are made available under the terms of the Eclipse Public License v2.0
which accompanies this distribution, and is available at
http://www.eclipse.org/legal/epl-v20.html
SPDX-License-Identifier: EPL-2.0
<configuration xmlns:xsi="http://www.w3.org/2001/XMLSchema-instance" xsi:noNamespaceSchemaLocation="http://sumo.dlr.de/xsd/sumoConfiguration.xsd">

    <input>
        <net-file value="motorway.net.xml"/>
        <route-files value="input_routes.rou.xml"/>
        <additional-files value="input_additional.add.xml"/>
    </input>

    <output>
        <write-license value="true"/>
    </output>

    <processing>
        <max-depart-delay value="1"/>
        <default.speeddev value="0"/>
        <default.emergencydecel value="decel"/>
        <pedestrian.model value="nonInteracting"/>
    </processing>

    <report>
        <verbose value="true"/>
        <xml-validation value="never"/>
        <duration-log.statistics value="true"/>
        <no-step-log value="true"/>
    </report>

    <mesoscopic>
        <mesosim value="true"/>
        <meso-jam-threshold value="-0.9"/>
        <meso-junction-control value="true"/>
    </mesoscopic>

</configuration>
-->

<detector xmlns:xsi="http://www.w3.org/2001/XMLSchema-instance" xsi:noNamespaceSchemaLocation="http://sumo.dlr.de/xsd/det_e1meso_file.xsd">
    <interval begin="0.00" end="900.00" id="beg2_0" sampledSeconds="3576.30" density="41.17" laneDensity="20.59" occupancy="10.29" waitingTime="0.00" speed="27.95" departed="19" arrived="0" entered="1018" left="1033"/>
    <interval begin="0.00" end="900.00" id="beg2_1" sampledSeconds="3576.30" density="41.17" laneDensity="20.59" occupancy="10.29" waitingTime="0.00" speed="27.95" departed="19" arrived="0" entered="1018" left="1033"/>
    <interval begin="900.00" end="1800.00" id="beg2_0" sampledSeconds="7821.90" density="90.05" laneDensity="45.02" occupancy="22.51" waitingTime="0.00" speed="16.11" departed="105" arrived="0" entered="1208" left="1300"/>
    <interval begin="900.00" end="1800.00" id="beg2_1" sampledSeconds="7821.90" density="90.05" laneDensity="45.02" occupancy="22.51" waitingTime="0.00" speed="16.11" departed="105" arrived="0" entered="1208" left="1300"/>
    <interval begin="1800.00" end="2414.00" id="beg2_0" sampledSeconds="2763.05" density="46.63" laneDensity="23.31" occupancy="11.66" waitingTime="0.00" speed="23.99" departed="0" arrived="0" entered="678" left="695"/>
    <interval begin="1800.00" end="2414.00" id="beg2_1" sampledSeconds="2763.05" density="46.63" laneDensity="23.31" occupancy="11.66" waitingTime="0.00" speed="23.99" departed="0" arrived="0" entered="678" left="695"/>
</detector>
