<?xml version="1.0" encoding="UTF-8"?>

<!-- generated on Thu Dec 17 12:00:44 2020 by Eclipse SUMO sumo Version v1_8_0+0309-f6f0de62b4
This data file and the accompanying materials
are made available under the terms of the Eclipse Public License v2.0
which accompanies this distribution, and is available at
http://www.eclipse.org/legal/epl-v20.html
SPDX-License-Identifier: EPL-2.0
<configuration xmlns:xsi="http://www.w3.org/2001/XMLSchema-instance" xsi:noNamespaceSchemaLocation="http://sumo.dlr.de/xsd/sumoConfiguration.xsd">

    <input>
        <net-file value="motorway.net.xml"/>
        <route-files value="input_routes.rou.xml"/>
        <additional-files value="input_additional.add.xml"/>
    </input>

    <output>
        <write-license value="true"/>
    </output>

    <processing>
        <max-depart-delay value="1"/>
        <default.speeddev value="0"/>
        <default.emergencydecel value="decel"/>
        <pedestrian.model value="nonInteracting"/>
    </processing>

    <report>
        <verbose value="true"/>
        <xml-validation value="never"/>
        <xml-validation.routes value="never"/>
        <duration-log.statistics value="true"/>
        <no-step-log value="true"/>
    </report>

    <mesoscopic>
        <mesosim value="true"/>
        <meso-jam-threshold value="-0.9"/>
        <meso-junction-control value="true"/>
    </mesoscopic>

</configuration>
-->

<detector xmlns:xsi="http://www.w3.org/2001/XMLSchema-instance" xsi:noNamespaceSchemaLocation="http://sumo.dlr.de/xsd/det_e1meso_file.xsd">
    <interval begin="0.00" end="900.00" id="beg2_0" sampledSeconds="3576.30" density="41.17" laneDensity="20.59" occupancy="10.29" waitingTime="0.00" timeLoss="783.61" speed="27.95" departed="19" arrived="0" entered="1018" left="1033"/>
    <interval begin="0.00" end="900.00" id="beg2_1" sampledSeconds="3576.30" density="41.17" laneDensity="20.59" occupancy="10.29" waitingTime="0.00" timeLoss="783.61" speed="27.95" departed="19" arrived="0" entered="1018" left="1033"/>
    <interval begin="900.00" end="1800.00" id="beg2_0" sampledSeconds="8284.98" density="95.38" laneDensity="47.69" occupancy="23.84" waitingTime="0.00" timeLoss="5210.68" speed="13.20" departed="168" arrived="0" entered="967" left="1134"/>
    <interval begin="900.00" end="1800.00" id="beg2_1" sampledSeconds="8284.98" density="95.38" laneDensity="47.69" occupancy="23.84" waitingTime="0.00" timeLoss="5210.68" speed="13.20" departed="168" arrived="0" entered="967" left="1134"/>
    <interval begin="1800.00" end="2474.00" id="beg2_0" sampledSeconds="2439.32" density="37.50" laneDensity="18.75" occupancy="9.37" waitingTime="0.00" timeLoss="426.82" speed="29.46" departed="0" arrived="0" entered="741" left="746"/>
    <interval begin="1800.00" end="2474.00" id="beg2_1" sampledSeconds="2439.32" density="37.50" laneDensity="18.75" occupancy="9.37" waitingTime="0.00" timeLoss="426.82" speed="29.46" departed="0" arrived="0" entered="741" left="746"/>
</detector>
