<?xml version="1.0" encoding="UTF-8"?>

<!-- generated on Fri Nov 27 09:16:54 2020 by Eclipse SUMO sumo Version v1_7_0+1330-045eb6693b
This data file and the accompanying materials
are made available under the terms of the Eclipse Public License v2.0
which accompanies this distribution, and is available at
http://www.eclipse.org/legal/epl-v20.html
SPDX-License-Identifier: EPL-2.0
<configuration xmlns:xsi="http://www.w3.org/2001/XMLSchema-instance" xsi:noNamespaceSchemaLocation="http://sumo.dlr.de/xsd/sumoConfiguration.xsd">

    <input>
        <net-file value="motorway.net.xml"/>
        <route-files value="input_routes.rou.xml"/>
        <additional-files value="input_additional.add.xml"/>
    </input>

    <output>
        <write-license value="true"/>
    </output>

    <processing>
        <max-depart-delay value="1"/>
        <default.speeddev value="0"/>
        <default.emergencydecel value="decel"/>
        <pedestrian.model value="nonInteracting"/>
    </processing>

    <report>
        <verbose value="true"/>
        <xml-validation value="never"/>
        <xml-validation.routes value="never"/>
        <duration-log.statistics value="true"/>
        <no-step-log value="true"/>
    </report>

    <mesoscopic>
        <mesosim value="true"/>
        <meso-jam-threshold value="-0.9"/>
        <meso-junction-control value="true"/>
    </mesoscopic>

</configuration>
-->

<detector xmlns:xsi="http://www.w3.org/2001/XMLSchema-instance" xsi:noNamespaceSchemaLocation="http://sumo.dlr.de/xsd/det_e1meso_file.xsd">
    <interval begin="0.00" end="900.00" id="beg2_0" sampledSeconds="3465.27" density="39.89" laneDensity="19.95" occupancy="9.97" waitingTime="0.00" timeLoss="715.06" speed="28.30" departed="0" arrived="0" entered="1019" left="1013"/>
    <interval begin="0.00" end="900.00" id="beg2_1" sampledSeconds="3465.27" density="39.89" laneDensity="19.95" occupancy="9.97" waitingTime="0.00" timeLoss="715.06" speed="28.30" departed="0" arrived="0" entered="1019" left="1013"/>
    <interval begin="900.00" end="1800.00" id="beg2_0" sampledSeconds="4589.15" density="52.83" laneDensity="26.42" occupancy="13.21" waitingTime="0.00" timeLoss="1093.65" speed="27.19" departed="45" arrived="0" entered="1247" left="1293"/>
    <interval begin="900.00" end="1800.00" id="beg2_1" sampledSeconds="4589.15" density="52.83" laneDensity="26.42" occupancy="13.21" waitingTime="0.00" timeLoss="1093.65" speed="27.19" departed="45" arrived="0" entered="1247" left="1293"/>
    <interval begin="1800.00" end="2700.00" id="beg2_0" sampledSeconds="2190.54" density="25.22" laneDensity="12.61" occupancy="6.30" waitingTime="0.00" timeLoss="344.63" speed="30.17" departed="0" arrived="0" entered="684" left="687"/>
    <interval begin="1800.00" end="2700.00" id="beg2_1" sampledSeconds="2190.54" density="25.22" laneDensity="12.61" occupancy="6.30" waitingTime="0.00" timeLoss="344.63" speed="30.17" departed="0" arrived="0" entered="684" left="687"/>
    <interval begin="2700.00" end="2713.00" id="beg2_0" sampledSeconds="41.36" density="32.96" laneDensity="16.48" occupancy="8.24" waitingTime="0.00" timeLoss="6.16" speed="29.04" departed="0" arrived="0" entered="11" left="13"/>
    <interval begin="2700.00" end="2713.00" id="beg2_1" sampledSeconds="41.36" density="32.96" laneDensity="16.48" occupancy="8.24" waitingTime="0.00" timeLoss="6.16" speed="29.04" departed="0" arrived="0" entered="11" left="13"/>
</detector>
