<?xml version="1.0" encoding="UTF-8"?>

<!-- generated on Wed Apr  1 14:28:15 2020 by Eclipse SUMO Version v1_5_0+1059-24fef65bc7
This data file and the accompanying materials
are made available under the terms of the Eclipse Public License v2.0
which accompanies this distribution, and is available at
http://www.eclipse.org/legal/epl-v20.html
SPDX-License-Identifier: EPL-2.0
<configuration xmlns:xsi="http://www.w3.org/2001/XMLSchema-instance" xsi:noNamespaceSchemaLocation="http://sumo.dlr.de/xsd/sumoConfiguration.xsd">

    <input>
        <net-file value="lefthand.net.xml"/>
        <route-files value="input_routes.rou.xml"/>
    </input>

    <output>
        <write-license value="true"/>
        <fcd-output value="fcd.xml"/>
        <fcd-output.signals value="true"/>
        <lanechange-output value="lanechanges.xml"/>
    </output>

    <time>
        <step-length value="0.5"/>
    </time>

    <processing>
        <lanechange.duration value="6"/>
        <default.speeddev value="0"/>
    </processing>

    <report>
        <xml-validation value="never"/>
        <duration-log.disable value="true"/>
        <no-step-log value="true"/>
    </report>

    <gui_only>
        <tracker-interval value="0.5"/>
    </gui_only>

</configuration>
-->

<fcd-export xmlns:xsi="http://www.w3.org/2001/XMLSchema-instance" xsi:noNamespaceSchemaLocation="http://sumo.dlr.de/xsd/fcd_file.xsd">
    <timestep time="0.00">
        <vehicle id="v0" x="95.20" y="5.10" angle="0.00" type="DEFAULT_VEHTYPE" speed="0.00" pos="5.10" lane="SC_0" slope="0.00" signals="0"/>
    </timestep>
    <timestep time="0.50">
        <vehicle id="v0" x="95.20" y="5.75" angle="0.00" type="DEFAULT_VEHTYPE" speed="1.30" pos="5.75" lane="SC_0" slope="0.00" signals="0"/>
    </timestep>
    <timestep time="1.00">
        <vehicle id="v0" x="95.20" y="7.05" angle="0.00" type="DEFAULT_VEHTYPE" speed="2.60" pos="7.05" lane="SC_0" slope="0.00" signals="0"/>
    </timestep>
    <timestep time="1.50">
        <vehicle id="v0" x="95.47" y="9.00" angle="0.83" type="DEFAULT_VEHTYPE" speed="3.90" pos="9.00" lane="SC_0" slope="0.00" signals="2"/>
    </timestep>
    <timestep time="2.00">
        <vehicle id="v0" x="95.73" y="11.60" angle="1.67" type="DEFAULT_VEHTYPE" speed="5.20" pos="11.60" lane="SC_0" slope="0.00" signals="1"/>
    </timestep>
    <timestep time="2.50">
        <vehicle id="v0" x="96.00" y="14.85" angle="2.50" type="DEFAULT_VEHTYPE" speed="6.50" pos="14.85" lane="SC_0" slope="0.00" signals="1"/>
    </timestep>
    <timestep time="3.00">
        <vehicle id="v0" x="96.27" y="18.75" angle="3.33" type="DEFAULT_VEHTYPE" speed="7.80" pos="18.75" lane="SC_0" slope="0.00" signals="1"/>
    </timestep>
    <timestep time="3.50">
        <vehicle id="v0" x="96.53" y="23.30" angle="4.17" type="DEFAULT_VEHTYPE" speed="9.10" pos="23.30" lane="SC_0" slope="0.00" signals="1"/>
    </timestep>
    <timestep time="4.00">
        <vehicle id="v0" x="96.80" y="28.50" angle="5.00" type="DEFAULT_VEHTYPE" speed="10.40" pos="28.50" lane="SC_0" slope="0.00" signals="1"/>
    </timestep>
    <timestep time="4.50">
        <vehicle id="v0" x="97.07" y="34.35" angle="4.17" type="DEFAULT_VEHTYPE" speed="11.70" pos="34.35" lane="SC_1" slope="0.00" signals="1"/>
    </timestep>
    <timestep time="5.00">
        <vehicle id="v0" x="97.33" y="40.85" angle="3.33" type="DEFAULT_VEHTYPE" speed="13.00" pos="40.85" lane="SC_1" slope="0.00" signals="1"/>
    </timestep>
    <timestep time="5.50">
        <vehicle id="v0" x="97.60" y="47.80" angle="2.50" type="DEFAULT_VEHTYPE" speed="13.89" pos="47.80" lane="SC_1" slope="0.00" signals="1"/>
    </timestep>
    <timestep time="6.00">
        <vehicle id="v0" x="97.87" y="54.74" angle="1.67" type="DEFAULT_VEHTYPE" speed="13.89" pos="54.74" lane="SC_1" slope="0.00" signals="1"/>
    </timestep>
    <timestep time="6.50">
        <vehicle id="v0" x="98.13" y="61.69" angle="0.83" type="DEFAULT_VEHTYPE" speed="13.89" pos="61.69" lane="SC_1" slope="0.00" signals="1"/>
    </timestep>
    <timestep time="7.00">
        <vehicle id="v0" x="98.40" y="68.63" angle="0.00" type="DEFAULT_VEHTYPE" speed="13.89" pos="68.63" lane="SC_1" slope="0.00" signals="0"/>
    </timestep>
    <timestep time="7.50">
        <vehicle id="v0" x="98.40" y="75.57" angle="0.00" type="DEFAULT_VEHTYPE" speed="13.89" pos="75.57" lane="SC_1" slope="0.00" signals="0"/>
    </timestep>
    <timestep time="8.00">
        <vehicle id="v0" x="98.40" y="82.52" angle="0.00" type="DEFAULT_VEHTYPE" speed="13.89" pos="82.52" lane="SC_1" slope="0.00" signals="0"/>
    </timestep>
    <timestep time="8.50">
        <vehicle id="v0" x="98.40" y="89.46" angle="0.00" type="DEFAULT_VEHTYPE" speed="13.89" pos="89.46" lane="SC_1" slope="0.00" signals="0"/>
    </timestep>
    <timestep time="9.00"/>
</fcd-export>
