<?xml version="1.0" encoding="UTF-8"?>

<!-- generated on Sat May 20 10:00:49 2017 by SUMO Version dev-SVN-r22661
<?xml version="1.0" encoding="UTF-8"?>

<configuration xmlns:xsi="http://www.w3.org/2001/XMLSchema-instance" xsi:noNamespaceSchemaLocation="http://sumo.dlr.de/xsd/sumoConfiguration.xsd">

    <input>
        <net-file value="net2.net.xml"/>
        <route-files value="routes.rou.xml"/>
    </input>

    <output>
        <netstate-dump value="netstate_dump.xml"/>
    </output>

    <processing>
        <lateral-resolution value="0.8"/>
    </processing>

    <report>
        <xml-validation value="never"/>
        <no-step-log value="true"/>
    </report>

    <traci_server>
        <remote-port value="44419"/>
    </traci_server>

</configuration>
-->

<netstate xmlns:xsi="http://www.w3.org/2001/XMLSchema-instance" xsi:noNamespaceSchemaLocation="http://sumo.dlr.de/xsd/netstate_file.xsd">
    <timestep time="0.00">
        <edge id="SC">
            <lane id="SC_0">
                <vehicle id="veh0" pos="90.95" speed="0.00" posLat="0.00"/>
            </lane>
            <lane id="SC_1"/>
        </edge>
    </timestep>
    <timestep time="1.00">
        <edge id=":C_10">
            <lane id=":C_10_0"/>
            <lane id=":C_10_1">
                <vehicle id="veh0" pos="12.05" speed="13.05" posLat="0.65"/>
            </lane>
        </edge>
    </timestep>
    <timestep time="2.00">
        <edge id=":C_10">
            <lane id=":C_10_0">
                <vehicle id="veh0" pos="4.05" speed="13.05" posLat="-1.05"/>
            </lane>
            <lane id=":C_10_1"/>
        </edge>
    </timestep>
    <timestep time="3.00">
        <edge id=":C_10">
            <lane id=":C_10_0">
                <vehicle id="veh0" pos="12.60" speed="8.55" posLat="-0.05"/>
            </lane>
            <lane id=":C_10_1"/>
        </edge>
    </timestep>
    <timestep time="4.00">
        <edge id="CN">
            <lane id="CN_0">
                <vehicle id="veh0" pos="7.65" speed="11.15" posLat="0.00"/>
            </lane>
            <lane id="CN_1"/>
        </edge>
    </timestep>
    <timestep time="5.00">
        <edge id="CN">
            <lane id="CN_0">
                <vehicle id="veh0" pos="21.40" speed="13.75" posLat="0.00"/>
            </lane>
            <lane id="CN_1"/>
        </edge>
    </timestep>
    <timestep time="6.00">
        <edge id="CN">
            <lane id="CN_0">
                <vehicle id="veh0" pos="35.29" speed="13.89" posLat="0.00"/>
            </lane>
            <lane id="CN_1"/>
        </edge>
    </timestep>
    <timestep time="7.00">
        <edge id="CN">
            <lane id="CN_0">
                <vehicle id="veh0" pos="49.18" speed="13.89" posLat="0.00"/>
            </lane>
            <lane id="CN_1"/>
        </edge>
    </timestep>
    <timestep time="8.00">
        <edge id="CN">
            <lane id="CN_0">
                <vehicle id="veh0" pos="63.07" speed="13.89" posLat="0.00"/>
            </lane>
            <lane id="CN_1"/>
        </edge>
    </timestep>
</netstate>
