<?xml version="1.0" encoding="UTF-8"?>

<!-- generated on Thu Dec  8 13:27:50 2016 by SUMO Version dev-SVN-r22228
<?xml version="1.0" encoding="UTF-8"?>

<configuration xmlns:xsi="http://www.w3.org/2001/XMLSchema-instance" xsi:noNamespaceSchemaLocation="http://sumo.dlr.de/xsd/sumoConfiguration.xsd">

    <input>
        <net-file value="net.net.xml"/>
        <route-files value="input_routes.rou.xml"/>
    </input>

    <output>
        <vehroute-output value="vehroutes.xml"/>
        <save-state.times value="1"/>
        <save-state.files value="state.xml"/>
    </output>

    <report>
        <verbose value="true"/>
        <xml-validation value="never"/>
        <duration-log.disable value="true"/>
        <no-step-log value="true"/>
    </report>

</configuration>
-->

<routes xmlns:xsi="http://www.w3.org/2001/XMLSchema-instance" xsi:noNamespaceSchemaLocation="http://sumo.dlr.de/xsd/routes_file.xsd">
    <vehicle id="v0" type="type1" depart="0.00" arrival="32.00">
        <route edges="beg middle end"/>
        <stop lane="middle_0" duration="0.00"/>
        <param key="has.rerouting.device" value="false"/>
    </vehicle>

    <vehicle id="v1" type="type2" depart="4.00" arrival="34.00">
        <route edges="beg middle end"/>
    </vehicle>

</routes>
