<?xml version="1.0" encoding="UTF-8"?>

<!-- generated on 2026-07-15T09:47:55.894483+01:00 by Eclipse SUMO sumo v1_27_1+0249-a93aa241b38
<sumoConfiguration xmlns:xsi="http://www.w3.org/2001/XMLSchema-instance" xsi:noNamespaceSchemaLocation="http://sumo.dlr.de/xsd/sumoConfiguration.xsd">

    <input>
        <net-file value="net.net.xml"/>
        <route-files value="input_routes.rou.xml"/>
        <additional-files value="input_additional.add.xml"/>
    </input>

    <processing>
        <default.speeddev value="0"/>
    </processing>

    <report>
        <duration-log.disable value="true"/>
        <duration-log.statistics value="true"/>
        <no-step-log value="true"/>
    </report>

    <mesoscopic>
        <mesosim value="true"/>
    </mesoscopic>

</sumoConfiguration>
-->

<meandata xmlns:xsi="http://www.w3.org/2001/XMLSchema-instance" xsi:noNamespaceSchemaLocation="http://sumo.dlr.de/xsd/meandata_file.xsd">
    <interval begin="0.00" end="600.00" id="ed">
        <edge id="B0C0" sampledSeconds="2436.50" traveltime="10.02" overlapTraveltime="10.52" density="40.61" overlapDensity="40.61" laneDensity="40.61" occupancy="20.30" waitingTime="12.18" timeLoss="686.00" speed="9.98" speedRelative="0.72" departed="0" arrived="0" entered="245" left="242" laneChangedFrom="0" laneChangedTo="0" flow="1458.94"/>
    </interval>
    <interval begin="600.00" end="1112.00" id="ed">
        <edge id="B0C0" sampledSeconds="1532.26" traveltime="7.20" overlapTraveltime="7.56" density="29.93" overlapDensity="29.93" laneDensity="29.93" occupancy="14.96" waitingTime="0.00" timeLoss="0.00" speed="13.89" speedRelative="1.00" departed="0" arrived="0" entered="211" left="214" laneChangedFrom="0" laneChangedTo="0" flow="1496.55"/>
    </interval>
</meandata>
