<?xml version="1.0" encoding="UTF-8"?>

<!-- generated on 2023-04-12 16:33:29 by Eclipse SUMO sumo Version v1_16_0+2026-5075896
This data file and the accompanying materials
are made available under the terms of the Eclipse Public License v2.0
which accompanies this distribution, and is available at
http://www.eclipse.org/legal/epl-v20.html
This file may also be made available under the following Secondary
Licenses when the conditions for such availability set forth in the Eclipse
Public License 2.0 are satisfied: GNU General Public License, version 2
or later which is available at
https://www.gnu.org/licenses/old-licenses/gpl-2.0-standalone.html
SPDX-License-Identifier: EPL-2.0 OR GPL-2.0-or-later
<configuration xmlns:xsi="http://www.w3.org/2001/XMLSchema-instance" xsi:noNamespaceSchemaLocation="http://sumo.dlr.de/xsd/sumoConfiguration.xsd">

    <input>
        <net-file value="net.net.xml"/>
        <route-files value="input_routes.rou.xml"/>
    </input>

    <output>
        <write-license value="true"/>
        <emission-output value="rawdump.xml"/>
    </output>

    <time>
        <begin value="0"/>
        <end value="10"/>
    </time>

    <processing>
        <default.speeddev value="0"/>
    </processing>

    <report>
        <xml-validation value="never"/>
        <duration-log.disable value="true"/>
        <no-step-log value="true"/>
    </report>

    <mesoscopic>
        <mesosim value="true"/>
    </mesoscopic>

</configuration>
-->

<emission-export xmlns:xsi="http://www.w3.org/2001/XMLSchema-instance" xsi:noNamespaceSchemaLocation="http://sumo.dlr.de/xsd/emission_file.xsd">
    <timestep time="0.00">
        <vehicle id="0" eclass="HBEFA3/PC_G_EU4" CO2="2336.96" CO="0.00" HC="0.02" NOx="0.70" PMx="0.01" fuel="745.39" electricity="0.00" noise="64.57" route="r1" type="DEFAULT_VEHTYPE" waiting="0.00" edge="A0B0" pos="0.00" speed="13.89" angle="90.00" x="0.00" y="-1.60" z="6.00"/>
    </timestep>
    <timestep time="1.00">
        <vehicle id="0" eclass="HBEFA3/PC_G_EU4" CO2="2336.96" CO="0.00" HC="0.02" NOx="0.70" PMx="0.01" fuel="745.39" electricity="0.00" noise="64.57" route="r1" type="DEFAULT_VEHTYPE" waiting="0.00" edge="A0B0" pos="0.00" speed="13.89" angle="90.00" x="0.00" y="-1.60" z="6.00"/>
    </timestep>
    <timestep time="2.00">
        <vehicle id="0" eclass="HBEFA3/PC_G_EU4" CO2="2336.96" CO="0.00" HC="0.02" NOx="0.70" PMx="0.01" fuel="745.39" electricity="0.00" noise="64.57" route="r1" type="DEFAULT_VEHTYPE" waiting="0.00" edge="A0B0" pos="0.00" speed="13.89" angle="90.00" x="0.00" y="-1.60" z="6.00"/>
    </timestep>
    <timestep time="3.00">
        <vehicle id="0" eclass="HBEFA3/PC_G_EU4" CO2="2336.96" CO="0.00" HC="0.02" NOx="0.70" PMx="0.01" fuel="745.39" electricity="0.00" noise="64.57" route="r1" type="DEFAULT_VEHTYPE" waiting="0.00" edge="A0B0" pos="0.00" speed="13.89" angle="90.00" x="0.00" y="-1.60" z="6.00"/>
    </timestep>
    <timestep time="4.00">
        <vehicle id="0" eclass="HBEFA3/PC_G_EU4" CO2="2336.96" CO="0.00" HC="0.02" NOx="0.70" PMx="0.01" fuel="745.39" electricity="0.00" noise="64.57" route="r1" type="DEFAULT_VEHTYPE" waiting="0.00" edge="A0B0" pos="0.00" speed="13.89" angle="90.00" x="0.00" y="-1.60" z="6.00"/>
    </timestep>
    <timestep time="5.00">
        <vehicle id="0" eclass="HBEFA3/PC_G_EU4" CO2="2336.96" CO="0.00" HC="0.02" NOx="0.70" PMx="0.01" fuel="745.39" electricity="0.00" noise="64.57" route="r1" type="DEFAULT_VEHTYPE" waiting="0.00" edge="A0B0" pos="0.00" speed="13.89" angle="90.00" x="0.00" y="-1.60" z="6.00"/>
    </timestep>
    <timestep time="6.00">
        <vehicle id="0" eclass="HBEFA3/PC_G_EU4" CO2="2336.96" CO="0.00" HC="0.02" NOx="0.70" PMx="0.01" fuel="745.39" electricity="0.00" noise="64.57" route="r1" type="DEFAULT_VEHTYPE" waiting="0.00" edge="A0B0" pos="0.00" speed="13.89" angle="90.00" x="0.00" y="-1.60" z="6.00"/>
    </timestep>
    <timestep time="7.00">
        <vehicle id="0" eclass="HBEFA3/PC_G_EU4" CO2="2336.96" CO="0.00" HC="0.02" NOx="0.70" PMx="0.01" fuel="745.39" electricity="0.00" noise="64.57" route="r1" type="DEFAULT_VEHTYPE" waiting="0.00" edge="A0B0" pos="0.00" speed="13.89" angle="90.00" x="0.00" y="-1.60" z="6.00"/>
    </timestep>
    <timestep time="8.00"/>
    <timestep time="9.00"/>
</emission-export>
