<?xml version="1.0" encoding="UTF-8"?>

<!-- generated on 2022-08-28 19:21:34 by Eclipse SUMO sumo Version v1_14_1+0598-02ca306
This data file and the accompanying materials
are made available under the terms of the Eclipse Public License v2.0
which accompanies this distribution, and is available at
http://www.eclipse.org/legal/epl-v20.html
This file may also be made available under the following Secondary
Licenses when the conditions for such availability set forth in the Eclipse
Public License 2.0 are satisfied: GNU General Public License, version 2
or later which is available at
https://www.gnu.org/licenses/old-licenses/gpl-2.0-standalone.html
SPDX-License-Identifier: EPL-2.0 OR GPL-2.0-or-later
<configuration xmlns:xsi="http://www.w3.org/2001/XMLSchema-instance" xsi:noNamespaceSchemaLocation="http://sumo.dlr.de/xsd/sumoConfiguration.xsd">

    <input>
        <net-file value="net.net.xml"/>
        <route-files value="input_routes.rou.xml"/>
    </input>

    <output>
        <write-license value="true"/>
        <tripinfo-output value="tripinfos.xml"/>
        <tripinfo-output.write-unfinished value="true"/>
    </output>

    <time>
        <end value="100"/>
    </time>

    <processing>
        <default.speeddev value="0"/>
        <pedestrian.model value="striping"/>
    </processing>

    <report>
        <xml-validation value="never"/>
        <no-step-log value="true"/>
    </report>

</configuration>
-->

<tripinfos xmlns:xsi="http://www.w3.org/2001/XMLSchema-instance" xsi:noNamespaceSchemaLocation="http://sumo.dlr.de/xsd/tripinfo_file.xsd">
    <personinfo id="p0" depart="0.00" type="DEFAULT_PEDTYPE" speedFactor="1.00">
        <walk depart="0.00" departPos="80.00" arrival="35.00" arrivalPos="20.00" duration="35.00" routeLength="44.67" timeLoss="2.84" maxSpeed="1.39"/>
    </personinfo>
    <personinfo id="p1" depart="0.00" type="DEFAULT_PEDTYPE" speedFactor="1.00">
        <walk depart="0.00" departPos="20.00" arrival="36.00" arrivalPos="80.00" duration="36.00" routeLength="44.67" timeLoss="3.84" maxSpeed="1.39"/>
    </personinfo>
</tripinfos>
