<?xml version="1.0" encoding="UTF-8"?>

<!-- generated on Mon Jul  9 12:55:57 2018 by Eclipse SUMO Version c43dfd5
This data file and the accompanying materials
are made available under the terms of the Eclipse Public License v2.0
which accompanies this distribution, and is available at
http://www.eclipse.org/legal/epl-v20.html
SPDX-License-Identifier: EPL-2.0
<configuration xmlns:xsi="http://www.w3.org/2001/XMLSchema-instance" xsi:noNamespaceSchemaLocation="http://sumo.dlr.de/xsd/sumoConfiguration.xsd">

    <input>
        <net-file value="net.net.xml"/>
        <route-files value="input_routes.rou.xml"/>
    </input>

    <output>
        <write-license value="true"/>
        <tripinfo-output value="tripinfos.xml"/>
        <tripinfo-output.write-unfinished value="true"/>
    </output>

    <time>
        <end value="100"/>
    </time>

    <processing>
        <pedestrian.model value="striping"/>
    </processing>

    <report>
        <xml-validation value="never"/>
        <no-step-log value="true"/>
    </report>

</configuration>
-->

<tripinfos xmlns:xsi="http://www.w3.org/2001/XMLSchema-instance" xsi:noNamespaceSchemaLocation="http://sumo.dlr.de/xsd/tripinfo_file.xsd">
    <personinfo id="p0" depart="0.00">
        <walk depart="0.00" departPos="80.00" arrival="35.00" arrivalPos="20.00" duration="35.00" routeLength="44.67" timeLoss="2.84" maxSpeed="1.39"/>
    </personinfo>
    <personinfo id="p1" depart="0.00">
        <walk depart="0.00" departPos="20.00" arrival="36.00" arrivalPos="80.00" duration="36.00" routeLength="51.07" timeLoss="-0.77" maxSpeed="1.39"/>
    </personinfo>
</tripinfos>
