<?xml version="1.0" encoding="UTF-8"?>

<!-- generated on 2024-12-18 09:31:36 by Eclipse SUMO sumo Version v1_21_0+1418-347bcd25c9e
<sumoConfiguration xmlns:xsi="http://www.w3.org/2001/XMLSchema-instance" xsi:noNamespaceSchemaLocation="http://sumo.dlr.de/xsd/sumoConfiguration.xsd">

    <input>
        <net-file value="net.net.xml"/>
        <route-files value="input_routes.rou.xml"/>
        <additional-files value="input_additional.add.xml"/>
    </input>

    <output>
        <tripinfo-output value="tripinfos.xml"/>
        <railsignal-vehicle-output value="railsignal_vehicles.xml"/>
    </output>

    <routing>
        <persontrip.transfer.taxi-walk value="ptStops"/>
        <persontrip.transfer.walk-taxi value="ptStops"/>
    </routing>

    <report>
        <duration-log.disable value="true"/>
        <no-step-log value="true"/>
    </report>

    <taxi_device>
        <device.taxi.dispatch-period value="30"/>
    </taxi_device>

</sumoConfiguration>
-->

<tripinfos xmlns:xsi="http://www.w3.org/2001/XMLSchema-instance" xsi:noNamespaceSchemaLocation="http://sumo.dlr.de/xsd/tripinfo_file.xsd">
    <personinfo id="p_0" depart="0.00" type="DEFAULT_PEDTYPE" speedFactor="0.94" duration="127.00" waitingTime="19.00" timeLoss="15.42" traveltime="108.00">
        <stop duration="0.00" arrival="0.00" arrivalPos="50.87" actType="waiting"/>
        <ride waitingTime="19.00" vehicle="t_0" depart="19.00" arrival="127.00" arrivalPos="43.65" duration="108.00" routeLength="480.48" timeLoss="15.42"/>
    </personinfo>
</tripinfos>
