<?xml version="1.0"?>

<!-- generated on 12/23/08 23:37:40 by SUMO sumo Version dev-SVN-r6498
<configuration>

   <input>
      <net-file>three_split.net.xml</net-file>
      <additional-files>input_routes.rou.xml,input_additional.add.xml</additional-files>
   </input>

   <output>
      <vehroute-output>vehroutes.xml</vehroute-output>
   </output>

   <processing>
      <no-duration-log>true</no-duration-log>
      <no-step-log>true</no-step-log>
   </processing>

</configuration>
-->

<routes>
   <vehicle id="emitter_0_0" depart="0" arrival="184">
      <route edges="beg beg2left left left2end end rend"/>
   </vehicle>

   <vehicle id="emitter_1_1" depart="2" arrival="187">
      <route edges="beg beg2left left left2end end rend"/>
   </vehicle>

   <vehicle id="emitter_2_2" depart="5" arrival="190">
      <route edges="beg beg2left left left2end end rend"/>
   </vehicle>

   <vehicle id="emitter_3_3" depart="8" arrival="194">
      <route edges="beg beg2left left left2end end rend"/>
   </vehicle>

   <vehicle id="emitter_4_4" depart="11" arrival="195">
      <route edges="beg beg2left left left2end end rend"/>
   </vehicle>

   <vehicle id="emitter_5_5" depart="13" arrival="202">
      <route edges="beg beg2left left left2end end rend"/>
   </vehicle>

   <vehicle id="emitter_6_6" depart="16" arrival="203">
      <route edges="beg beg2left left left2end end rend"/>
   </vehicle>

   <vehicle id="emitter_7_7" depart="19" arrival="206">
      <route edges="beg beg2left left left2end end rend"/>
   </vehicle>

   <vehicle id="emitter_8_8" depart="22" arrival="209">
      <route edges="beg beg2left left left2end end rend"/>
   </vehicle>

   <vehicle id="emitter_9_9" depart="24" arrival="211">
      <route edges="beg beg2left left left2end end rend"/>
   </vehicle>

</routes>
