<?xml version="1.0"?>

<!-- generated on 07/21/10 12:30:35 by SUMO sumo Version dev-SVN-r8163
<configuration>

    <input>
        <net-file value="three_split.net.xml"/>
        <additional-files value="input_routes.rou.xml,input_additional.add.xml"/>
    </input>

    <output>
        <vehroute-output value="vehroutes.xml"/>
    </output>

    <report>
        <no-duration-log value="true"/>
        <no-step-log value="true"/>
    </report>

</configuration>
-->

<routes>
    <vehicle id="emitter_0.00_0" depart="0.00" arrival="188.00">
        <route edges="beg beg2left left left2end end rend"/>
    </vehicle>

    <vehicle id="emitter_1.00_1" depart="7.00" arrival="195.00">
        <route edges="beg beg2left left left2end end rend"/>
    </vehicle>

    <vehicle id="emitter_2.00_2" depart="14.00" arrival="202.00">
        <route edges="beg beg2left left left2end end rend"/>
    </vehicle>

    <vehicle id="emitter_3.00_3" depart="21.00" arrival="209.00">
        <route edges="beg beg2left left left2end end rend"/>
    </vehicle>

    <vehicle id="emitter_4.00_4" depart="28.00" arrival="216.00">
        <route edges="beg beg2left left left2end end rend"/>
    </vehicle>

    <vehicle id="emitter_5.00_5" depart="35.00" arrival="223.00">
        <route edges="beg beg2left left left2end end rend"/>
    </vehicle>

    <vehicle id="emitter_6.00_6" depart="42.00" arrival="230.00">
        <route edges="beg beg2left left left2end end rend"/>
    </vehicle>

    <vehicle id="emitter_7.00_7" depart="49.00" arrival="237.00">
        <route edges="beg beg2left left left2end end rend"/>
    </vehicle>

    <vehicle id="emitter_8.00_8" depart="56.00" arrival="244.00">
        <route edges="beg beg2left left left2end end rend"/>
    </vehicle>

    <vehicle id="emitter_9.00_9" depart="63.00" arrival="251.00">
        <route edges="beg beg2left left left2end end rend"/>
    </vehicle>

</routes>
