<?xml version="1.0"?>

<!-- generated on 11/03/08 14:45:45 by SUMO sumo Version dev-SVN-r6273
<configuration>

   <input>
      <net-file>three_split.net.xml</net-file>
      <additional-files>input_routes.rou.xml,input_additional.add.xml</additional-files>
   </input>

   <output>
      <vehroute-output>vehroutes.xml</vehroute-output>
   </output>

   <processing>
      <no-duration-log>true</no-duration-log>
      <no-step-log>true</no-step-log>
   </processing>

</configuration>
-->

<routes>
   <vehicle id="emitter_0_0" depart="0" arrival="184">
      <route>beg beg2left left left2end end rend</route>
   </vehicle>

   <vehicle id="emitter_1_1" depart="2" arrival="188">
      <route>beg beg2left left left2end end rend</route>
   </vehicle>

   <vehicle id="emitter_2_2" depart="4" arrival="191">
      <route>beg beg2left left left2end end rend</route>
   </vehicle>

   <vehicle id="emitter_3_3" depart="6" arrival="193">
      <route>beg beg2left left left2end end rend</route>
   </vehicle>

   <vehicle id="emitter_4_4" depart="8" arrival="197">
      <route>beg beg2left left left2end end rend</route>
   </vehicle>

   <vehicle id="emitter_5_5" depart="10" arrival="198">
      <route>beg beg2left left left2end end rend</route>
   </vehicle>

   <vehicle id="emitter_6_6" depart="12" arrival="200">
      <route>beg beg2left left left2end end rend</route>
   </vehicle>

   <vehicle id="emitter_7_7" depart="14" arrival="202">
      <route>beg beg2left left left2end end rend</route>
   </vehicle>

   <vehicle id="emitter_8_8" depart="16" arrival="206">
      <route>beg beg2left left left2end end rend</route>
   </vehicle>

   <vehicle id="emitter_9_9" depart="18" arrival="207">
      <route>beg beg2left left left2end end rend</route>
   </vehicle>

</routes>
