<?xml version="1.0" encoding="UTF-8"?>

<!-- generated on 2025-03-04 10:20:58 by Eclipse SUMO sumo Version v1_22_0+0617-e88f848a6f0
This data file and the accompanying materials
are made available under the terms of the Eclipse Public License v2.0
which accompanies this distribution, and is available at
http://www.eclipse.org/legal/epl-v20.html
This file may also be made available under the following Secondary
Licenses when the conditions for such availability set forth in the Eclipse
Public License 2.0 are satisfied: GNU General Public License, version 2
or later which is available at
https://www.gnu.org/licenses/old-licenses/gpl-2.0-standalone.html
SPDX-License-Identifier: EPL-2.0 OR GPL-2.0-or-later
<sumoConfiguration xmlns:xsi="http://www.w3.org/2001/XMLSchema-instance" xsi:noNamespaceSchemaLocation="http://sumo.dlr.de/xsd/sumoConfiguration.xsd">

    <input>
        <net-file value="net2.net.xml"/>
        <route-files value="input_routes.rou.xml"/>
    </input>

    <output>
        <write-license value="true"/>
        <tripinfo-output value="tripinfos.xml"/>
        <tripinfo-output.write-unfinished value="true"/>
    </output>

    <time>
        <end value="3"/>
    </time>

    <processing>
        <scale value="4"/>
        <default.speeddev value="0"/>
        <pedestrian.model value="nonInteracting"/>
    </processing>

    <report>
        <xml-validation value="never"/>
        <duration-log.statistics value="true"/>
        <no-step-log value="true"/>
    </report>

</sumoConfiguration>
-->

<tripinfos xmlns:xsi="http://www.w3.org/2001/XMLSchema-instance" xsi:noNamespaceSchemaLocation="http://sumo.dlr.de/xsd/tripinfo_file.xsd">
    <personinfo id="p0" depart="0.00" type="DEFAULT_PEDTYPE" speedFactor="1.00" duration="-1" waitingTime="0.00" timeLoss="0.00" traveltime="-1">
        <walk depart="0.00" departPos="0.00" arrival="-1" arrivalPos="-1" duration="3.00" routeLength="-1" timeLoss="0.00" maxSpeed="5.00"/>
    </personinfo>
    <personinfo id="p0.1" depart="0.00" type="DEFAULT_PEDTYPE" speedFactor="1.00" duration="-1" waitingTime="0.00" timeLoss="0.00" traveltime="-1">
        <walk depart="0.00" departPos="0.00" arrival="-1" arrivalPos="-1" duration="3.00" routeLength="-1" timeLoss="0.00" maxSpeed="5.00"/>
    </personinfo>
    <personinfo id="p0.2" depart="0.00" type="DEFAULT_PEDTYPE" speedFactor="1.00" duration="-1" waitingTime="0.00" timeLoss="0.00" traveltime="-1">
        <walk depart="0.00" departPos="0.00" arrival="-1" arrivalPos="-1" duration="3.00" routeLength="-1" timeLoss="0.00" maxSpeed="5.00"/>
    </personinfo>
    <personinfo id="p0.3" depart="0.00" type="DEFAULT_PEDTYPE" speedFactor="1.00" duration="-1" waitingTime="0.00" timeLoss="0.00" traveltime="-1">
        <walk depart="0.00" departPos="0.00" arrival="-1" arrivalPos="-1" duration="3.00" routeLength="-1" timeLoss="0.00" maxSpeed="5.00"/>
    </personinfo>
    <personinfo id="p1" depart="1.00" type="DEFAULT_PEDTYPE" speedFactor="1.00" duration="-1" waitingTime="0.00" timeLoss="0.00" traveltime="-1">
        <walk depart="1.00" departPos="0.00" arrival="-1" arrivalPos="-1" duration="2.00" routeLength="-1" timeLoss="0.00" maxSpeed="5.00"/>
    </personinfo>
    <personinfo id="p1.1" depart="1.00" type="DEFAULT_PEDTYPE" speedFactor="1.00" duration="-1" waitingTime="0.00" timeLoss="0.00" traveltime="-1">
        <walk depart="1.00" departPos="0.00" arrival="-1" arrivalPos="-1" duration="2.00" routeLength="-1" timeLoss="0.00" maxSpeed="5.00"/>
    </personinfo>
    <personinfo id="p1.2" depart="1.00" type="DEFAULT_PEDTYPE" speedFactor="1.00" duration="-1" waitingTime="0.00" timeLoss="0.00" traveltime="-1">
        <walk depart="1.00" departPos="0.00" arrival="-1" arrivalPos="-1" duration="2.00" routeLength="-1" timeLoss="0.00" maxSpeed="5.00"/>
    </personinfo>
    <personinfo id="p1.3" depart="1.00" type="DEFAULT_PEDTYPE" speedFactor="1.00" duration="-1" waitingTime="0.00" timeLoss="0.00" traveltime="-1">
        <walk depart="1.00" departPos="0.00" arrival="-1" arrivalPos="-1" duration="2.00" routeLength="-1" timeLoss="0.00" maxSpeed="5.00"/>
    </personinfo>
    <personinfo id="p2" depart="2.00" type="DEFAULT_PEDTYPE" speedFactor="1.00" duration="-1" waitingTime="0.00" timeLoss="0.00" traveltime="-1">
        <walk depart="2.00" departPos="0.00" arrival="-1" arrivalPos="-1" duration="1.00" routeLength="-1" timeLoss="0.00" maxSpeed="5.00"/>
    </personinfo>
    <personinfo id="p2.1" depart="2.00" type="DEFAULT_PEDTYPE" speedFactor="1.00" duration="-1" waitingTime="0.00" timeLoss="0.00" traveltime="-1">
        <walk depart="2.00" departPos="0.00" arrival="-1" arrivalPos="-1" duration="1.00" routeLength="-1" timeLoss="0.00" maxSpeed="5.00"/>
    </personinfo>
    <personinfo id="p2.2" depart="2.00" type="DEFAULT_PEDTYPE" speedFactor="1.00" duration="-1" waitingTime="0.00" timeLoss="0.00" traveltime="-1">
        <walk depart="2.00" departPos="0.00" arrival="-1" arrivalPos="-1" duration="1.00" routeLength="-1" timeLoss="0.00" maxSpeed="5.00"/>
    </personinfo>
    <personinfo id="p2.3" depart="2.00" type="DEFAULT_PEDTYPE" speedFactor="1.00" duration="-1" waitingTime="0.00" timeLoss="0.00" traveltime="-1">
        <walk depart="2.00" departPos="0.00" arrival="-1" arrivalPos="-1" duration="1.00" routeLength="-1" timeLoss="0.00" maxSpeed="5.00"/>
    </personinfo>
    <personinfo id="p3" depart="-1" type="DEFAULT_PEDTYPE" speedFactor="1.00" duration="-1" waitingTime="0.00" timeLoss="0.00" traveltime="-1">
        <walk depart="-1" departPos="0.00" arrival="-1" arrivalPos="-1" duration="-1" routeLength="-1" timeLoss="0.00" maxSpeed="5.00"/>
    </personinfo>
    <personinfo id="p3.1" depart="-1" type="DEFAULT_PEDTYPE" speedFactor="1.00" duration="-1" waitingTime="0.00" timeLoss="0.00" traveltime="-1">
        <walk depart="-1" departPos="0.00" arrival="-1" arrivalPos="-1" duration="-1" routeLength="-1" timeLoss="0.00" maxSpeed="5.00"/>
    </personinfo>
    <personinfo id="p3.2" depart="-1" type="DEFAULT_PEDTYPE" speedFactor="1.00" duration="-1" waitingTime="0.00" timeLoss="0.00" traveltime="-1">
        <walk depart="-1" departPos="0.00" arrival="-1" arrivalPos="-1" duration="-1" routeLength="-1" timeLoss="0.00" maxSpeed="5.00"/>
    </personinfo>
    <personinfo id="p3.3" depart="-1" type="DEFAULT_PEDTYPE" speedFactor="1.00" duration="-1" waitingTime="0.00" timeLoss="0.00" traveltime="-1">
        <walk depart="-1" departPos="0.00" arrival="-1" arrivalPos="-1" duration="-1" routeLength="-1" timeLoss="0.00" maxSpeed="5.00"/>
    </personinfo>
    <personinfo id="p4" depart="-1" type="DEFAULT_PEDTYPE" speedFactor="1.00" duration="-1" waitingTime="0.00" timeLoss="0.00" traveltime="-1">
        <walk depart="-1" departPos="0.00" arrival="-1" arrivalPos="-1" duration="-1" routeLength="-1" timeLoss="0.00" maxSpeed="5.00"/>
    </personinfo>
    <personinfo id="p4.1" depart="-1" type="DEFAULT_PEDTYPE" speedFactor="1.00" duration="-1" waitingTime="0.00" timeLoss="0.00" traveltime="-1">
        <walk depart="-1" departPos="0.00" arrival="-1" arrivalPos="-1" duration="-1" routeLength="-1" timeLoss="0.00" maxSpeed="5.00"/>
    </personinfo>
    <personinfo id="p4.2" depart="-1" type="DEFAULT_PEDTYPE" speedFactor="1.00" duration="-1" waitingTime="0.00" timeLoss="0.00" traveltime="-1">
        <walk depart="-1" departPos="0.00" arrival="-1" arrivalPos="-1" duration="-1" routeLength="-1" timeLoss="0.00" maxSpeed="5.00"/>
    </personinfo>
    <personinfo id="p4.3" depart="-1" type="DEFAULT_PEDTYPE" speedFactor="1.00" duration="-1" waitingTime="0.00" timeLoss="0.00" traveltime="-1">
        <walk depart="-1" departPos="0.00" arrival="-1" arrivalPos="-1" duration="-1" routeLength="-1" timeLoss="0.00" maxSpeed="5.00"/>
    </personinfo>
    <personinfo id="p5" depart="-1" type="DEFAULT_PEDTYPE" speedFactor="1.00" duration="-1" waitingTime="0.00" timeLoss="0.00" traveltime="-1">
        <walk depart="-1" departPos="0.00" arrival="-1" arrivalPos="-1" duration="-1" routeLength="-1" timeLoss="0.00" maxSpeed="5.00"/>
    </personinfo>
    <personinfo id="p5.1" depart="-1" type="DEFAULT_PEDTYPE" speedFactor="1.00" duration="-1" waitingTime="0.00" timeLoss="0.00" traveltime="-1">
        <walk depart="-1" departPos="0.00" arrival="-1" arrivalPos="-1" duration="-1" routeLength="-1" timeLoss="0.00" maxSpeed="5.00"/>
    </personinfo>
    <personinfo id="p5.2" depart="-1" type="DEFAULT_PEDTYPE" speedFactor="1.00" duration="-1" waitingTime="0.00" timeLoss="0.00" traveltime="-1">
        <walk depart="-1" departPos="0.00" arrival="-1" arrivalPos="-1" duration="-1" routeLength="-1" timeLoss="0.00" maxSpeed="5.00"/>
    </personinfo>
    <personinfo id="p5.3" depart="-1" type="DEFAULT_PEDTYPE" speedFactor="1.00" duration="-1" waitingTime="0.00" timeLoss="0.00" traveltime="-1">
        <walk depart="-1" departPos="0.00" arrival="-1" arrivalPos="-1" duration="-1" routeLength="-1" timeLoss="0.00" maxSpeed="5.00"/>
    </personinfo>
</tripinfos>
