<?xml version="1.0" encoding="UTF-8"?>

<!-- generated on Wed Sep 11 09:22:07 2013 by SUMO sumo Version dev-SVN-r14643
<?xml version="1.0" encoding="UTF-8"?>

<configuration xmlns:xsi="http://www.w3.org/2001/XMLSchema-instance" xsi:noNamespaceSchemaLocation="http://sumo-sim.org/xsd/sumoConfiguration.xsd">

    <input>
        <net-file value="three_split.net.xml"/>
        <route-files value="input_routes.rou.xml"/>
        <additional-files value="input_additional.add.xml,input_additional2.add.xml"/>
    </input>

    <output>
        <netstate-dump value="rawdump.xml"/>
    </output>

    <time>
        <step-length value="0.5"/>
    </time>

    <report>
        <no-duration-log value="true"/>
        <no-step-log value="true"/>
    </report>

</configuration>
-->

<netstate xmlns:xsi="http://www.w3.org/2001/XMLSchema-instance" xsi:noNamespaceSchemaLocation="http://sumo-sim.org/xsd/netstate_file.xsd">
    <timestep time="0.00">
        <edge id="beg">
            <lane id="beg_0">
                <vehicle id="leader" pos="5.10" speed="0.00"/>
            </lane>
        </edge>
    </timestep>
    <timestep time="0.50">
        <edge id="beg">
            <lane id="beg_0">
                <vehicle id="leader" pos="5.75" speed="1.30"/>
            </lane>
        </edge>
    </timestep>
    <timestep time="1.00">
        <edge id="beg">
            <lane id="beg_0">
                <vehicle id="leader" pos="7.05" speed="2.60"/>
            </lane>
        </edge>
    </timestep>
    <timestep time="1.50">
        <edge id="beg">
            <lane id="beg_0">
                <vehicle id="leader" pos="9.00" speed="3.90"/>
            </lane>
        </edge>
    </timestep>
    <timestep time="2.00">
        <edge id="beg">
            <lane id="beg_0">
                <vehicle id="follower" pos="5.10" speed="0.00"/>
                <vehicle id="leader" pos="11.60" speed="5.20"/>
            </lane>
        </edge>
    </timestep>
    <timestep time="2.50">
        <edge id="beg">
            <lane id="beg_0">
                <vehicle id="follower" pos="5.75" speed="1.30"/>
                <vehicle id="leader" pos="14.85" speed="6.50"/>
            </lane>
        </edge>
    </timestep>
    <timestep time="3.00">
        <edge id="beg">
            <lane id="beg_0">
                <vehicle id="follower" pos="7.05" speed="2.60"/>
                <vehicle id="leader" pos="18.75" speed="7.80"/>
            </lane>
        </edge>
    </timestep>
    <timestep time="3.50">
        <edge id="beg">
            <lane id="beg_0">
                <vehicle id="follower" pos="9.00" speed="3.90"/>
                <vehicle id="leader" pos="23.30" speed="9.10"/>
            </lane>
        </edge>
    </timestep>
    <timestep time="4.00">
        <edge id="beg">
            <lane id="beg_0">
                <vehicle id="follower" pos="11.60" speed="5.20"/>
                <vehicle id="leader" pos="28.50" speed="10.40"/>
            </lane>
        </edge>
    </timestep>
    <timestep time="4.50">
        <edge id="beg">
            <lane id="beg_0">
                <vehicle id="follower" pos="14.85" speed="6.50"/>
                <vehicle id="leader" pos="34.35" speed="11.70"/>
            </lane>
        </edge>
    </timestep>
    <timestep time="5.00">
        <edge id="beg">
            <lane id="beg_0">
                <vehicle id="follower" pos="18.75" speed="7.80"/>
                <vehicle id="leader" pos="40.85" speed="13.00"/>
            </lane>
        </edge>
    </timestep>
    <timestep time="5.50">
        <edge id="beg">
            <lane id="beg_0">
                <vehicle id="follower" pos="23.30" speed="9.10"/>
                <vehicle id="leader" pos="48.00" speed="14.30"/>
            </lane>
        </edge>
    </timestep>
    <timestep time="6.00">
        <edge id="beg">
            <lane id="beg_0">
                <vehicle id="follower" pos="28.50" speed="10.40"/>
                <vehicle id="leader" pos="55.80" speed="15.60"/>
            </lane>
        </edge>
    </timestep>
    <timestep time="6.50">
        <edge id="beg">
            <lane id="beg_0">
                <vehicle id="follower" pos="34.35" speed="11.70"/>
                <vehicle id="leader" pos="64.25" speed="16.90"/>
            </lane>
        </edge>
    </timestep>
    <timestep time="7.00">
        <edge id="beg">
            <lane id="beg_0">
                <vehicle id="follower" pos="40.85" speed="13.00"/>
                <vehicle id="leader" pos="73.35" speed="18.20"/>
            </lane>
        </edge>
    </timestep>
    <timestep time="7.50">
        <edge id="beg">
            <lane id="beg_0">
                <vehicle id="follower" pos="48.00" speed="14.30"/>
                <vehicle id="leader" pos="83.10" speed="19.50"/>
            </lane>
        </edge>
    </timestep>
    <timestep time="8.00">
        <edge id="beg">
            <lane id="beg_0">
                <vehicle id="follower" pos="55.80" speed="15.60"/>
                <vehicle id="leader" pos="93.10" speed="20.00"/>
            </lane>
        </edge>
    </timestep>
    <timestep time="8.50">
        <edge id="beg">
            <lane id="beg_0">
                <vehicle id="follower" pos="64.25" speed="16.90"/>
                <vehicle id="leader" pos="103.10" speed="20.00"/>
            </lane>
        </edge>
    </timestep>
    <timestep time="9.00">
        <edge id="beg">
            <lane id="beg_0">
                <vehicle id="follower" pos="73.35" speed="18.20"/>
                <vehicle id="leader" pos="113.10" speed="20.00"/>
            </lane>
        </edge>
    </timestep>
    <timestep time="9.50">
        <edge id="beg">
            <lane id="beg_0">
                <vehicle id="follower" pos="83.10" speed="19.50"/>
                <vehicle id="leader" pos="123.10" speed="20.00"/>
            </lane>
        </edge>
    </timestep>
    <timestep time="10.00">
        <edge id="beg">
            <lane id="beg_0">
                <vehicle id="follower" pos="93.50" speed="20.80"/>
                <vehicle id="leader" pos="133.10" speed="20.00"/>
            </lane>
        </edge>
    </timestep>
    <timestep time="10.50">
        <edge id="beg">
            <lane id="beg_0">
                <vehicle id="follower" pos="104.55" speed="22.10"/>
                <vehicle id="leader" pos="143.10" speed="20.00"/>
            </lane>
        </edge>
    </timestep>
    <timestep time="11.00">
        <edge id="beg">
            <lane id="beg_0">
                <vehicle id="follower" pos="116.25" speed="23.40"/>
                <vehicle id="leader" pos="153.10" speed="20.00"/>
            </lane>
        </edge>
    </timestep>
    <timestep time="11.50">
        <edge id="beg">
            <lane id="beg_0">
                <vehicle id="follower" pos="128.42" speed="24.33"/>
                <vehicle id="leader" pos="163.10" speed="20.00"/>
            </lane>
        </edge>
    </timestep>
    <timestep time="12.00">
        <edge id="beg">
            <lane id="beg_0">
                <vehicle id="follower" pos="140.38" speed="23.93"/>
                <vehicle id="leader" pos="173.10" speed="20.00"/>
            </lane>
        </edge>
    </timestep>
    <timestep time="12.50">
        <edge id="beg">
            <lane id="beg_0">
                <vehicle id="follower" pos="152.16" speed="23.56"/>
                <vehicle id="leader" pos="183.10" speed="20.00"/>
            </lane>
        </edge>
    </timestep>
    <timestep time="13.00">
        <edge id="beg">
            <lane id="beg_0">
                <vehicle id="follower" pos="163.77" speed="23.22"/>
                <vehicle id="leader" pos="193.10" speed="20.00"/>
            </lane>
        </edge>
    </timestep>
    <timestep time="13.50">
        <edge id="beg">
            <lane id="beg_0">
                <vehicle id="follower" pos="175.22" speed="22.90"/>
                <vehicle id="leader" pos="203.10" speed="20.00"/>
            </lane>
        </edge>
    </timestep>
    <timestep time="14.00">
        <edge id="beg">
            <lane id="beg_0">
                <vehicle id="follower" pos="186.53" speed="22.61"/>
                <vehicle id="leader" pos="213.10" speed="20.00"/>
            </lane>
        </edge>
    </timestep>
    <timestep time="14.50">
        <edge id="beg">
            <lane id="beg_0">
                <vehicle id="follower" pos="197.70" speed="22.35"/>
                <vehicle id="leader" pos="223.10" speed="20.00"/>
            </lane>
        </edge>
    </timestep>
    <timestep time="15.00">
        <edge id="beg">
            <lane id="beg_0">
                <vehicle id="follower" pos="208.76" speed="22.11"/>
                <vehicle id="leader" pos="233.10" speed="20.00"/>
            </lane>
        </edge>
    </timestep>
    <timestep time="15.50">
        <edge id="beg">
            <lane id="beg_0">
                <vehicle id="follower" pos="219.71" speed="21.90"/>
                <vehicle id="leader" pos="243.10" speed="20.00"/>
            </lane>
        </edge>
    </timestep>
    <timestep time="16.00">
        <edge id="beg">
            <lane id="beg_0">
                <vehicle id="follower" pos="230.56" speed="21.70"/>
                <vehicle id="leader" pos="253.10" speed="20.00"/>
            </lane>
        </edge>
    </timestep>
    <timestep time="16.50">
        <edge id="beg">
            <lane id="beg_0">
                <vehicle id="follower" pos="241.32" speed="21.53"/>
                <vehicle id="leader" pos="263.10" speed="20.00"/>
            </lane>
        </edge>
    </timestep>
    <timestep time="17.00">
        <edge id="beg">
            <lane id="beg_0">
                <vehicle id="follower" pos="252.01" speed="21.37"/>
                <vehicle id="leader" pos="273.10" speed="20.00"/>
            </lane>
        </edge>
    </timestep>
    <timestep time="17.50">
        <edge id="beg">
            <lane id="beg_0">
                <vehicle id="follower" pos="262.62" speed="21.22"/>
                <vehicle id="leader" pos="283.10" speed="20.00"/>
            </lane>
        </edge>
    </timestep>
    <timestep time="18.00">
        <edge id="beg">
            <lane id="beg_0">
                <vehicle id="follower" pos="273.16" speed="21.09"/>
                <vehicle id="leader" pos="293.10" speed="20.00"/>
            </lane>
        </edge>
    </timestep>
    <timestep time="18.50">
        <edge id="beg">
            <lane id="beg_0">
                <vehicle id="follower" pos="283.65" speed="20.97"/>
                <vehicle id="leader" pos="303.10" speed="20.00"/>
            </lane>
        </edge>
    </timestep>
    <timestep time="19.00">
        <edge id="beg">
            <lane id="beg_0">
                <vehicle id="follower" pos="294.09" speed="20.87"/>
                <vehicle id="leader" pos="313.10" speed="20.00"/>
            </lane>
        </edge>
    </timestep>
    <timestep time="19.50">
        <edge id="beg">
            <lane id="beg_0">
                <vehicle id="follower" pos="304.47" speed="20.78"/>
                <vehicle id="leader" pos="323.10" speed="20.00"/>
            </lane>
        </edge>
    </timestep>
    <timestep time="20.00">
        <edge id="beg">
            <lane id="beg_0">
                <vehicle id="follower" pos="314.82" speed="20.69"/>
                <vehicle id="leader" pos="333.10" speed="20.00"/>
            </lane>
        </edge>
    </timestep>
    <timestep time="20.50">
        <edge id="beg">
            <lane id="beg_0">
                <vehicle id="follower" pos="325.13" speed="20.62"/>
                <vehicle id="leader" pos="343.10" speed="20.00"/>
            </lane>
        </edge>
    </timestep>
    <timestep time="21.00">
        <edge id="beg">
            <lane id="beg_0">
                <vehicle id="follower" pos="335.40" speed="20.55"/>
                <vehicle id="leader" pos="353.10" speed="20.00"/>
            </lane>
        </edge>
    </timestep>
    <timestep time="21.50">
        <edge id="beg">
            <lane id="beg_0">
                <vehicle id="follower" pos="345.65" speed="20.49"/>
                <vehicle id="leader" pos="363.10" speed="20.00"/>
            </lane>
        </edge>
    </timestep>
    <timestep time="22.00">
        <edge id="beg">
            <lane id="beg_0">
                <vehicle id="follower" pos="355.86" speed="20.43"/>
                <vehicle id="leader" pos="373.10" speed="20.00"/>
            </lane>
        </edge>
    </timestep>
    <timestep time="22.50">
        <edge id="beg">
            <lane id="beg_0">
                <vehicle id="follower" pos="366.06" speed="20.39"/>
                <vehicle id="leader" pos="383.10" speed="20.00"/>
            </lane>
        </edge>
    </timestep>
    <timestep time="23.00">
        <edge id="beg">
            <lane id="beg_0">
                <vehicle id="follower" pos="376.23" speed="20.34"/>
                <vehicle id="leader" pos="393.10" speed="20.00"/>
            </lane>
        </edge>
    </timestep>
    <timestep time="23.50">
        <edge id="beg">
            <lane id="beg_0">
                <vehicle id="follower" pos="386.38" speed="20.31"/>
                <vehicle id="leader" pos="403.10" speed="20.00"/>
            </lane>
        </edge>
    </timestep>
    <timestep time="24.00">
        <edge id="beg">
            <lane id="beg_0">
                <vehicle id="follower" pos="396.52" speed="20.27"/>
                <vehicle id="leader" pos="413.10" speed="20.00"/>
            </lane>
        </edge>
    </timestep>
    <timestep time="24.50">
        <edge id="beg">
            <lane id="beg_0">
                <vehicle id="follower" pos="406.64" speed="20.24"/>
                <vehicle id="leader" pos="423.10" speed="20.00"/>
            </lane>
        </edge>
    </timestep>
    <timestep time="25.00">
        <edge id="beg">
            <lane id="beg_0">
                <vehicle id="follower" pos="416.75" speed="20.22"/>
                <vehicle id="leader" pos="433.10" speed="20.00"/>
            </lane>
        </edge>
    </timestep>
    <timestep time="25.50">
        <edge id="beg">
            <lane id="beg_0">
                <vehicle id="follower" pos="426.84" speed="20.19"/>
                <vehicle id="leader" pos="443.10" speed="20.00"/>
            </lane>
        </edge>
    </timestep>
    <timestep time="26.00">
        <edge id="beg">
            <lane id="beg_0">
                <vehicle id="follower" pos="436.93" speed="20.17"/>
                <vehicle id="leader" pos="453.10" speed="20.00"/>
            </lane>
        </edge>
    </timestep>
    <timestep time="26.50">
        <edge id="beg">
            <lane id="beg_0">
                <vehicle id="follower" pos="447.00" speed="20.15"/>
                <vehicle id="leader" pos="463.10" speed="20.00"/>
            </lane>
        </edge>
    </timestep>
    <timestep time="27.00">
        <edge id="beg">
            <lane id="beg_0">
                <vehicle id="follower" pos="457.07" speed="20.13"/>
                <vehicle id="leader" pos="473.10" speed="20.00"/>
            </lane>
        </edge>
    </timestep>
    <timestep time="27.50">
        <edge id="beg">
            <lane id="beg_0">
                <vehicle id="follower" pos="467.13" speed="20.12"/>
                <vehicle id="leader" pos="483.10" speed="20.00"/>
            </lane>
        </edge>
    </timestep>
    <timestep time="28.00">
        <edge id="beg">
            <lane id="beg_0">
                <vehicle id="follower" pos="477.18" speed="20.11"/>
                <vehicle id="leader" pos="493.10" speed="20.00"/>
            </lane>
        </edge>
    </timestep>
    <timestep time="28.50">
        <edge id="beg">
            <lane id="beg_0">
                <vehicle id="follower" pos="487.23" speed="20.09"/>
            </lane>
        </edge>
        <edge id="middle">
            <lane id="middle_0">
                <vehicle id="leader" pos="7.85" speed="20.00"/>
            </lane>
        </edge>
    </timestep>
    <timestep time="29.00">
        <edge id="middle">
            <lane id="middle_0">
                <vehicle id="follower" pos="2.02" speed="20.08"/>
                <vehicle id="leader" pos="17.85" speed="20.00"/>
            </lane>
        </edge>
    </timestep>
    <timestep time="29.50">
        <edge id="middle">
            <lane id="middle_0">
                <vehicle id="follower" pos="12.06" speed="20.07"/>
                <vehicle id="leader" pos="27.85" speed="20.00"/>
            </lane>
        </edge>
    </timestep>
    <timestep time="30.00">
        <edge id="middle">
            <lane id="middle_0">
                <vehicle id="follower" pos="22.09" speed="20.07"/>
                <vehicle id="leader" pos="37.85" speed="20.00"/>
            </lane>
        </edge>
    </timestep>
    <timestep time="30.50">
        <edge id="middle">
            <lane id="middle_0">
                <vehicle id="follower" pos="32.12" speed="20.06"/>
                <vehicle id="leader" pos="47.85" speed="20.00"/>
            </lane>
        </edge>
    </timestep>
    <timestep time="31.00">
        <edge id="middle">
            <lane id="middle_0">
                <vehicle id="follower" pos="42.15" speed="20.05"/>
                <vehicle id="leader" pos="57.85" speed="20.00"/>
            </lane>
        </edge>
    </timestep>
    <timestep time="31.50">
        <edge id="middle">
            <lane id="middle_0">
                <vehicle id="follower" pos="52.17" speed="20.05"/>
                <vehicle id="leader" pos="67.85" speed="20.00"/>
            </lane>
        </edge>
    </timestep>
    <timestep time="32.00">
        <edge id="middle">
            <lane id="middle_0">
                <vehicle id="follower" pos="62.19" speed="20.04"/>
                <vehicle id="leader" pos="77.85" speed="20.00"/>
            </lane>
        </edge>
    </timestep>
    <timestep time="32.50">
        <edge id="middle">
            <lane id="middle_0">
                <vehicle id="follower" pos="72.21" speed="20.04"/>
                <vehicle id="leader" pos="87.85" speed="20.00"/>
            </lane>
        </edge>
    </timestep>
    <timestep time="33.00">
        <edge id="middle">
            <lane id="middle_0">
                <vehicle id="follower" pos="82.22" speed="20.03"/>
                <vehicle id="leader" pos="97.85" speed="20.00"/>
            </lane>
        </edge>
    </timestep>
    <timestep time="33.50">
        <edge id="middle">
            <lane id="middle_0">
                <vehicle id="follower" pos="92.24" speed="20.03"/>
                <vehicle id="leader" pos="107.85" speed="20.00"/>
            </lane>
        </edge>
    </timestep>
    <timestep time="34.00">
        <edge id="middle">
            <lane id="middle_0">
                <vehicle id="follower" pos="102.25" speed="20.03"/>
                <vehicle id="leader" pos="117.85" speed="20.00"/>
            </lane>
        </edge>
    </timestep>
    <timestep time="34.50">
        <edge id="middle">
            <lane id="middle_0">
                <vehicle id="follower" pos="112.26" speed="20.02"/>
                <vehicle id="leader" pos="127.85" speed="20.00"/>
            </lane>
        </edge>
    </timestep>
    <timestep time="35.00">
        <edge id="middle">
            <lane id="middle_0">
                <vehicle id="follower" pos="122.27" speed="20.02"/>
                <vehicle id="leader" pos="137.85" speed="20.00"/>
            </lane>
        </edge>
    </timestep>
    <timestep time="35.50">
        <edge id="middle">
            <lane id="middle_0">
                <vehicle id="follower" pos="132.28" speed="20.02"/>
                <vehicle id="leader" pos="147.85" speed="20.00"/>
            </lane>
        </edge>
    </timestep>
    <timestep time="36.00">
        <edge id="middle">
            <lane id="middle_0">
                <vehicle id="follower" pos="142.29" speed="20.02"/>
                <vehicle id="leader" pos="157.62" speed="19.53"/>
            </lane>
        </edge>
    </timestep>
    <timestep time="36.50">
        <edge id="middle">
            <lane id="middle_0">
                <vehicle id="follower" pos="152.06" speed="19.55"/>
                <vehicle id="leader" pos="166.32" speed="17.41"/>
            </lane>
        </edge>
    </timestep>
    <timestep time="37.00">
        <edge id="middle">
            <lane id="middle_0">
                <vehicle id="follower" pos="160.77" speed="17.42"/>
                <vehicle id="leader" pos="173.97" speed="15.30"/>
            </lane>
        </edge>
    </timestep>
    <timestep time="37.50">
        <edge id="middle">
            <lane id="middle_0">
                <vehicle id="follower" pos="168.43" speed="15.32"/>
                <vehicle id="leader" pos="180.58" speed="13.22"/>
            </lane>
        </edge>
    </timestep>
    <timestep time="38.00">
        <edge id="middle">
            <lane id="middle_0">
                <vehicle id="follower" pos="175.05" speed="13.23"/>
                <vehicle id="leader" pos="186.16" speed="11.16"/>
            </lane>
        </edge>
    </timestep>
    <timestep time="38.50">
        <edge id="middle">
            <lane id="middle_0">
                <vehicle id="follower" pos="180.64" speed="11.17"/>
                <vehicle id="leader" pos="190.73" speed="9.13"/>
            </lane>
        </edge>
    </timestep>
    <timestep time="39.00">
        <edge id="middle">
            <lane id="middle_0">
                <vehicle id="follower" pos="185.21" speed="9.15"/>
                <vehicle id="leader" pos="194.31" speed="7.16"/>
            </lane>
        </edge>
    </timestep>
    <timestep time="39.50">
        <edge id="middle">
            <lane id="middle_0">
                <vehicle id="follower" pos="188.79" speed="7.17"/>
                <vehicle id="leader" pos="196.93" speed="5.25"/>
            </lane>
        </edge>
    </timestep>
    <timestep time="40.00">
        <edge id="middle">
            <lane id="middle_0">
                <vehicle id="follower" pos="191.43" speed="5.26"/>
                <vehicle id="leader" pos="198.67" speed="3.46"/>
            </lane>
        </edge>
    </timestep>
    <timestep time="40.50">
        <edge id="middle">
            <lane id="middle_0">
                <vehicle id="follower" pos="192.93" speed="3.01"/>
                <vehicle id="leader" pos="199.61" speed="1.88"/>
            </lane>
        </edge>
    </timestep>
    <timestep time="41.00">
        <edge id="middle">
            <lane id="middle_0">
                <vehicle id="follower" pos="194.05" speed="2.24"/>
                <vehicle id="leader" pos="199.95" speed="0.68"/>
            </lane>
        </edge>
    </timestep>
    <timestep time="41.50">
        <edge id="middle">
            <lane id="middle_0">
                <vehicle id="follower" pos="194.74" speed="1.37"/>
                <vehicle id="leader" pos="199.95" speed="0.00"/>
            </lane>
        </edge>
    </timestep>
    <timestep time="42.00">
        <edge id="middle">
            <lane id="middle_0">
                <vehicle id="follower" pos="194.93" speed="0.39"/>
                <vehicle id="leader" pos="199.95" speed="0.00"/>
            </lane>
        </edge>
    </timestep>
    <timestep time="42.50">
        <edge id="middle">
            <lane id="middle_0">
                <vehicle id="follower" pos="194.95" speed="0.03"/>
                <vehicle id="leader" pos="199.95" speed="0.00"/>
            </lane>
        </edge>
    </timestep>
    <timestep time="43.00">
        <edge id="middle">
            <lane id="middle_0">
                <vehicle id="follower" pos="194.95" speed="0.00"/>
                <vehicle id="leader" pos="199.95" speed="0.00"/>
            </lane>
        </edge>
    </timestep>
    <timestep time="43.50">
        <edge id="middle">
            <lane id="middle_0">
                <vehicle id="follower" pos="194.95" speed="0.00"/>
                <vehicle id="leader" pos="199.95" speed="0.00"/>
            </lane>
        </edge>
    </timestep>
    <timestep time="44.00">
        <edge id="middle">
            <lane id="middle_0">
                <vehicle id="follower" pos="194.95" speed="0.00"/>
                <vehicle id="leader" pos="199.95" speed="0.00"/>
            </lane>
        </edge>
    </timestep>
    <timestep time="44.50">
        <edge id="middle">
            <lane id="middle_0">
                <vehicle id="follower" pos="194.95" speed="0.00"/>
                <vehicle id="leader" pos="199.95" speed="0.00"/>
            </lane>
        </edge>
    </timestep>
    <timestep time="45.00">
        <edge id="middle">
            <lane id="middle_0">
                <vehicle id="follower" pos="194.95" speed="0.00"/>
                <vehicle id="leader" pos="199.95" speed="0.00"/>
            </lane>
        </edge>
    </timestep>
    <timestep time="45.50">
        <edge id="middle">
            <lane id="middle_0">
                <vehicle id="follower" pos="194.95" speed="0.00"/>
                <vehicle id="leader" pos="199.95" speed="0.00"/>
            </lane>
        </edge>
    </timestep>
    <timestep time="46.00">
        <edge id="middle">
            <lane id="middle_0">
                <vehicle id="follower" pos="194.95" speed="0.00"/>
                <vehicle id="leader" pos="199.95" speed="0.00"/>
            </lane>
        </edge>
    </timestep>
    <timestep time="46.50">
        <edge id="middle">
            <lane id="middle_0">
                <vehicle id="follower" pos="194.95" speed="0.00"/>
                <vehicle id="leader" pos="200.00" speed="0.10"/>
            </lane>
        </edge>
    </timestep>
    <timestep time="47.00">
        <edge id="middle">
            <lane id="middle_0">
                <vehicle id="follower" pos="195.00" speed="0.10"/>
                <vehicle id="leader" pos="200.70" speed="1.40"/>
            </lane>
        </edge>
    </timestep>
    <timestep time="47.50">
        <edge id="middle">
            <lane id="middle_0">
                <vehicle id="follower" pos="195.56" speed="1.12"/>
                <vehicle id="leader" pos="202.05" speed="2.70"/>
            </lane>
        </edge>
    </timestep>
    <timestep time="48.00">
        <edge id="middle">
            <lane id="middle_0">
                <vehicle id="follower" pos="196.58" speed="2.05"/>
                <vehicle id="leader" pos="204.05" speed="4.00"/>
            </lane>
        </edge>
    </timestep>
    <timestep time="48.50">
        <edge id="middle">
            <lane id="middle_0">
                <vehicle id="follower" pos="198.07" speed="2.97"/>
                <vehicle id="leader" pos="206.70" speed="5.30"/>
            </lane>
        </edge>
    </timestep>
    <timestep time="49.00">
        <edge id="middle">
            <lane id="middle_0">
                <vehicle id="follower" pos="200.21" speed="4.27"/>
                <vehicle id="leader" pos="210.00" speed="6.60"/>
            </lane>
        </edge>
    </timestep>
    <timestep time="49.50">
        <edge id="middle">
            <lane id="middle_0">
                <vehicle id="follower" pos="202.99" speed="5.57"/>
                <vehicle id="leader" pos="213.95" speed="7.90"/>
            </lane>
        </edge>
    </timestep>
    <timestep time="50.00">
        <edge id="middle">
            <lane id="middle_0">
                <vehicle id="follower" pos="206.43" speed="6.87"/>
                <vehicle id="leader" pos="218.55" speed="9.20"/>
            </lane>
        </edge>
    </timestep>
    <timestep time="50.50">
        <edge id="middle">
            <lane id="middle_0">
                <vehicle id="follower" pos="210.51" speed="8.17"/>
                <vehicle id="leader" pos="223.80" speed="10.50"/>
            </lane>
        </edge>
    </timestep>
    <timestep time="51.00">
        <edge id="middle">
            <lane id="middle_0">
                <vehicle id="follower" pos="215.25" speed="9.47"/>
                <vehicle id="leader" pos="229.70" speed="11.80"/>
            </lane>
        </edge>
    </timestep>
    <timestep time="51.50">
        <edge id="middle">
            <lane id="middle_0">
                <vehicle id="follower" pos="220.63" speed="10.77"/>
                <vehicle id="leader" pos="236.26" speed="13.10"/>
            </lane>
        </edge>
    </timestep>
    <timestep time="52.00">
        <edge id="middle">
            <lane id="middle_0">
                <vehicle id="follower" pos="226.67" speed="12.07"/>
                <vehicle id="leader" pos="243.46" speed="14.40"/>
            </lane>
        </edge>
    </timestep>
    <timestep time="52.50">
        <edge id="middle">
            <lane id="middle_0">
                <vehicle id="follower" pos="233.36" speed="13.37"/>
                <vehicle id="leader" pos="251.31" speed="15.70"/>
            </lane>
        </edge>
    </timestep>
    <timestep time="53.00">
        <edge id="middle">
            <lane id="middle_0">
                <vehicle id="follower" pos="240.69" speed="14.67"/>
                <vehicle id="leader" pos="259.81" speed="17.00"/>
            </lane>
        </edge>
    </timestep>
    <timestep time="53.50">
        <edge id="middle">
            <lane id="middle_0">
                <vehicle id="follower" pos="248.68" speed="15.97"/>
                <vehicle id="leader" pos="268.96" speed="18.30"/>
            </lane>
        </edge>
    </timestep>
    <timestep time="54.00">
        <edge id="middle">
            <lane id="middle_0">
                <vehicle id="follower" pos="257.31" speed="17.27"/>