<?xml version="1.0" encoding="UTF-8"?>

<!-- generated on Tue Dec  3 16:35:38 2013 by SUMO sumo Version dev-SVN-r15233
<?xml version="1.0" encoding="UTF-8"?>

<configuration xmlns:xsi="http://www.w3.org/2001/XMLSchema-instance" xsi:noNamespaceSchemaLocation="http://sumo-sim.org/xsd/sumoConfiguration.xsd">

    <input>
        <net-file value="three_split.net.xml"/>
        <route-files value="input_routes.rou.xml"/>
        <additional-files value="input_additional.add.xml,input_additional2.add.xml"/>
    </input>

    <output>
        <netstate-dump value="rawdump.xml"/>
    </output>

    <time>
        <step-length value="0.5"/>
    </time>

    <report>
        <no-duration-log value="true"/>
        <no-step-log value="true"/>
    </report>

</configuration>
-->

<netstate xmlns:xsi="http://www.w3.org/2001/XMLSchema-instance" xsi:noNamespaceSchemaLocation="http://sumo-sim.org/xsd/netstate_file.xsd">
    <timestep time="0.00">
        <edge id="beg">
            <lane id="beg_0">
                <vehicle id="leader" pos="5.10" speed="0.00"/>
            </lane>
        </edge>
    </timestep>
    <timestep time="0.50">
        <edge id="beg">
            <lane id="beg_0">
                <vehicle id="leader" pos="5.75" speed="1.30"/>
            </lane>
        </edge>
    </timestep>
    <timestep time="1.00">
        <edge id="beg">
            <lane id="beg_0">
                <vehicle id="leader" pos="7.05" speed="2.60"/>
            </lane>
        </edge>
    </timestep>
    <timestep time="1.50">
        <edge id="beg">
            <lane id="beg_0">
                <vehicle id="leader" pos="9.00" speed="3.90"/>
            </lane>
        </edge>
    </timestep>
    <timestep time="2.00">
        <edge id="beg">
            <lane id="beg_0">
                <vehicle id="follower" pos="5.10" speed="0.00"/>
                <vehicle id="leader" pos="11.60" speed="5.20"/>
            </lane>
        </edge>
    </timestep>
    <timestep time="2.50">
        <edge id="beg">
            <lane id="beg_0">
                <vehicle id="follower" pos="5.75" speed="1.30"/>
                <vehicle id="leader" pos="14.85" speed="6.50"/>
            </lane>
        </edge>
    </timestep>
    <timestep time="3.00">
        <edge id="beg">
            <lane id="beg_0">
                <vehicle id="follower" pos="7.05" speed="2.60"/>
                <vehicle id="leader" pos="18.75" speed="7.80"/>
            </lane>
        </edge>
    </timestep>
    <timestep time="3.50">
        <edge id="beg">
            <lane id="beg_0">
                <vehicle id="follower" pos="9.00" speed="3.90"/>
                <vehicle id="leader" pos="23.30" speed="9.10"/>
            </lane>
        </edge>
    </timestep>
    <timestep time="4.00">
        <edge id="beg">
            <lane id="beg_0">
                <vehicle id="follower" pos="11.60" speed="5.20"/>
                <vehicle id="leader" pos="28.50" speed="10.40"/>
            </lane>
        </edge>
    </timestep>
    <timestep time="4.50">
        <edge id="beg">
            <lane id="beg_0">
                <vehicle id="follower" pos="14.85" speed="6.50"/>
                <vehicle id="leader" pos="34.35" speed="11.70"/>
            </lane>
        </edge>
    </timestep>
    <timestep time="5.00">
        <edge id="beg">
            <lane id="beg_0">
                <vehicle id="follower" pos="18.75" speed="7.80"/>
                <vehicle id="leader" pos="40.85" speed="13.00"/>
            </lane>
        </edge>
    </timestep>
    <timestep time="5.50">
        <edge id="beg">
            <lane id="beg_0">
                <vehicle id="follower" pos="23.30" speed="9.10"/>
                <vehicle id="leader" pos="48.00" speed="14.30"/>
            </lane>
        </edge>
    </timestep>
    <timestep time="6.00">
        <edge id="beg">
            <lane id="beg_0">
                <vehicle id="follower" pos="28.50" speed="10.40"/>
                <vehicle id="leader" pos="55.80" speed="15.60"/>
            </lane>
        </edge>
    </timestep>
    <timestep time="6.50">
        <edge id="beg">
            <lane id="beg_0">
                <vehicle id="follower" pos="34.35" speed="11.70"/>
                <vehicle id="leader" pos="64.25" speed="16.90"/>
            </lane>
        </edge>
    </timestep>
    <timestep time="7.00">
        <edge id="beg">
            <lane id="beg_0">
                <vehicle id="follower" pos="40.85" speed="13.00"/>
                <vehicle id="leader" pos="73.35" speed="18.20"/>
            </lane>
        </edge>
    </timestep>
    <timestep time="7.50">
        <edge id="beg">
            <lane id="beg_0">
                <vehicle id="follower" pos="48.00" speed="14.30"/>
                <vehicle id="leader" pos="83.10" speed="19.50"/>
            </lane>
        </edge>
    </timestep>
    <timestep time="8.00">
        <edge id="beg">
            <lane id="beg_0">
                <vehicle id="follower" pos="55.80" speed="15.60"/>
                <vehicle id="leader" pos="93.10" speed="20.00"/>
            </lane>
        </edge>
    </timestep>
    <timestep time="8.50">
        <edge id="beg">
            <lane id="beg_0">
                <vehicle id="follower" pos="64.25" speed="16.90"/>
                <vehicle id="leader" pos="103.10" speed="20.00"/>
            </lane>
        </edge>
    </timestep>
    <timestep time="9.00">
        <edge id="beg">
            <lane id="beg_0">
                <vehicle id="follower" pos="73.35" speed="18.20"/>
                <vehicle id="leader" pos="113.10" speed="20.00"/>
            </lane>
        </edge>
    </timestep>
    <timestep time="9.50">
        <edge id="beg">
            <lane id="beg_0">
                <vehicle id="follower" pos="83.10" speed="19.50"/>
                <vehicle id="leader" pos="123.10" speed="20.00"/>
            </lane>
        </edge>
    </timestep>
    <timestep time="10.00">
        <edge id="beg">
            <lane id="beg_0">
                <vehicle id="follower" pos="93.50" speed="20.80"/>
                <vehicle id="leader" pos="133.10" speed="20.00"/>
            </lane>
        </edge>
    </timestep>
    <timestep time="10.50">
        <edge id="beg">
            <lane id="beg_0">
                <vehicle id="follower" pos="104.55" speed="22.10"/>
                <vehicle id="leader" pos="143.10" speed="20.00"/>
            </lane>
        </edge>
    </timestep>
    <timestep time="11.00">
        <edge id="beg">
            <lane id="beg_0">
                <vehicle id="follower" pos="116.25" speed="23.40"/>
                <vehicle id="leader" pos="153.10" speed="20.00"/>
            </lane>
        </edge>
    </timestep>
    <timestep time="11.50">
        <edge id="beg">
            <lane id="beg_0">
                <vehicle id="follower" pos="128.36" speed="24.22"/>
                <vehicle id="leader" pos="163.10" speed="20.00"/>
            </lane>
        </edge>
    </timestep>
    <timestep time="12.00">
        <edge id="beg">
            <lane id="beg_0">
                <vehicle id="follower" pos="140.28" speed="23.84"/>
                <vehicle id="leader" pos="173.10" speed="20.00"/>
            </lane>
        </edge>
    </timestep>
    <timestep time="12.50">
        <edge id="beg">
            <lane id="beg_0">
                <vehicle id="follower" pos="152.03" speed="23.49"/>
                <vehicle id="leader" pos="183.10" speed="20.00"/>
            </lane>
        </edge>
    </timestep>
    <timestep time="13.00">
        <edge id="beg">
            <lane id="beg_0">
                <vehicle id="follower" pos="163.61" speed="23.17"/>
                <vehicle id="leader" pos="193.10" speed="20.00"/>
            </lane>
        </edge>
    </timestep>
    <timestep time="13.50">
        <edge id="beg">
            <lane id="beg_0">
                <vehicle id="follower" pos="175.05" speed="22.88"/>
                <vehicle id="leader" pos="203.10" speed="20.00"/>
            </lane>
        </edge>
    </timestep>
    <timestep time="14.00">
        <edge id="beg">
            <lane id="beg_0">
                <vehicle id="follower" pos="186.36" speed="22.62"/>
                <vehicle id="leader" pos="213.10" speed="20.00"/>
            </lane>
        </edge>
    </timestep>
    <timestep time="14.50">
        <edge id="beg">
            <lane id="beg_0">
                <vehicle id="follower" pos="197.55" speed="22.37"/>
                <vehicle id="leader" pos="223.10" speed="20.00"/>
            </lane>
        </edge>
    </timestep>
    <timestep time="15.00">
        <edge id="beg">
            <lane id="beg_0">
                <vehicle id="follower" pos="208.62" speed="22.13"/>
                <vehicle id="leader" pos="233.10" speed="20.00"/>
            </lane>
        </edge>
    </timestep>
    <timestep time="15.50">
        <edge id="beg">
            <lane id="beg_0">
                <vehicle id="follower" pos="219.58" speed="21.92"/>
                <vehicle id="leader" pos="243.10" speed="20.00"/>
            </lane>
        </edge>
    </timestep>
    <timestep time="16.00">
        <edge id="beg">
            <lane id="beg_0">
                <vehicle id="follower" pos="230.44" speed="21.73"/>
                <vehicle id="leader" pos="253.10" speed="20.00"/>
            </lane>
        </edge>
    </timestep>
    <timestep time="16.50">
        <edge id="beg">
            <lane id="beg_0">
                <vehicle id="follower" pos="241.22" speed="21.56"/>
                <vehicle id="leader" pos="263.10" speed="20.00"/>
            </lane>
        </edge>
    </timestep>
    <timestep time="17.00">
        <edge id="beg">
            <lane id="beg_0">
                <vehicle id="follower" pos="251.92" speed="21.40"/>
                <vehicle id="leader" pos="273.10" speed="20.00"/>
            </lane>
        </edge>
    </timestep>
    <timestep time="17.50">
        <edge id="beg">
            <lane id="beg_0">
                <vehicle id="follower" pos="262.55" speed="21.26"/>
                <vehicle id="leader" pos="283.10" speed="20.00"/>
            </lane>
        </edge>
    </timestep>
    <timestep time="18.00">
        <edge id="beg">
            <lane id="beg_0">
                <vehicle id="follower" pos="273.12" speed="21.13"/>
                <vehicle id="leader" pos="293.10" speed="20.00"/>
            </lane>
        </edge>
    </timestep>
    <timestep time="18.50">
        <edge id="beg">
            <lane id="beg_0">
                <vehicle id="follower" pos="283.63" speed="21.02"/>
                <vehicle id="leader" pos="303.10" speed="20.00"/>
            </lane>
        </edge>
    </timestep>
    <timestep time="19.00">
        <edge id="beg">
            <lane id="beg_0">
                <vehicle id="follower" pos="294.09" speed="20.92"/>
                <vehicle id="leader" pos="313.10" speed="20.00"/>
            </lane>
        </edge>
    </timestep>
    <timestep time="19.50">
        <edge id="beg">
            <lane id="beg_0">
                <vehicle id="follower" pos="304.50" speed="20.83"/>
                <vehicle id="leader" pos="323.10" speed="20.00"/>
            </lane>
        </edge>
    </timestep>
    <timestep time="20.00">
        <edge id="beg">
            <lane id="beg_0">
                <vehicle id="follower" pos="314.87" speed="20.74"/>
                <vehicle id="leader" pos="333.10" speed="20.00"/>
            </lane>
        </edge>
    </timestep>
    <timestep time="20.50">
        <edge id="beg">
            <lane id="beg_0">
                <vehicle id="follower" pos="325.21" speed="20.67"/>
                <vehicle id="leader" pos="343.10" speed="20.00"/>
            </lane>
        </edge>
    </timestep>
    <timestep time="21.00">
        <edge id="beg">
            <lane id="beg_0">
                <vehicle id="follower" pos="335.51" speed="20.60"/>
                <vehicle id="leader" pos="353.10" speed="20.00"/>
            </lane>
        </edge>
    </timestep>
    <timestep time="21.50">
        <edge id="beg">
            <lane id="beg_0">
                <vehicle id="follower" pos="345.78" speed="20.54"/>
                <vehicle id="leader" pos="363.10" speed="20.00"/>
            </lane>
        </edge>
    </timestep>
    <timestep time="22.00">
        <edge id="beg">
            <lane id="beg_0">
                <vehicle id="follower" pos="356.03" speed="20.49"/>
                <vehicle id="leader" pos="373.10" speed="20.00"/>
            </lane>
        </edge>
    </timestep>
    <timestep time="22.50">
        <edge id="beg">
            <lane id="beg_0">
                <vehicle id="follower" pos="366.25" speed="20.44"/>
                <vehicle id="leader" pos="383.10" speed="20.00"/>
            </lane>
        </edge>
    </timestep>
    <timestep time="23.00">
        <edge id="beg">
            <lane id="beg_0">
                <vehicle id="follower" pos="376.44" speed="20.40"/>
                <vehicle id="leader" pos="393.10" speed="20.00"/>
            </lane>
        </edge>
    </timestep>
    <timestep time="23.50">
        <edge id="beg">
            <lane id="beg_0">
                <vehicle id="follower" pos="386.62" speed="20.36"/>
                <vehicle id="leader" pos="403.10" speed="20.00"/>
            </lane>
        </edge>
    </timestep>
    <timestep time="24.00">
        <edge id="beg">
            <lane id="beg_0">
                <vehicle id="follower" pos="396.78" speed="20.32"/>
                <vehicle id="leader" pos="413.10" speed="20.00"/>
            </lane>
        </edge>
    </timestep>
    <timestep time="24.50">
        <edge id="beg">
            <lane id="beg_0">
                <vehicle id="follower" pos="406.93" speed="20.29"/>
                <vehicle id="leader" pos="423.10" speed="20.00"/>
            </lane>
        </edge>
    </timestep>
    <timestep time="25.00">
        <edge id="beg">
            <lane id="beg_0">
                <vehicle id="follower" pos="417.06" speed="20.26"/>
                <vehicle id="leader" pos="433.10" speed="20.00"/>
            </lane>
        </edge>
    </timestep>
    <timestep time="25.50">
        <edge id="beg">
            <lane id="beg_0">
                <vehicle id="follower" pos="427.17" speed="20.23"/>
                <vehicle id="leader" pos="443.10" speed="20.00"/>
            </lane>
        </edge>
    </timestep>
    <timestep time="26.00">
        <edge id="beg">
            <lane id="beg_0">
                <vehicle id="follower" pos="437.28" speed="20.21"/>
                <vehicle id="leader" pos="453.10" speed="20.00"/>
            </lane>
        </edge>
    </timestep>
    <timestep time="26.50">
        <edge id="beg">
            <lane id="beg_0">
                <vehicle id="follower" pos="447.37" speed="20.18"/>
                <vehicle id="leader" pos="463.10" speed="20.00"/>
            </lane>
        </edge>
    </timestep>
    <timestep time="27.00">
        <edge id="beg">
            <lane id="beg_0">
                <vehicle id="follower" pos="457.45" speed="20.16"/>
                <vehicle id="leader" pos="473.10" speed="20.00"/>
            </lane>
        </edge>
    </timestep>
    <timestep time="27.50">
        <edge id="beg">
            <lane id="beg_0">
                <vehicle id="follower" pos="467.52" speed="20.14"/>
                <vehicle id="leader" pos="483.10" speed="20.00"/>
            </lane>
        </edge>
    </timestep>
    <timestep time="28.00">
        <edge id="beg">
            <lane id="beg_0">
                <vehicle id="follower" pos="477.58" speed="20.13"/>
                <vehicle id="leader" pos="493.10" speed="20.00"/>
            </lane>
        </edge>
    </timestep>
    <timestep time="28.50">
        <edge id="beg">
            <lane id="beg_0">
                <vehicle id="follower" pos="487.64" speed="20.11"/>
            </lane>
        </edge>
        <edge id="middle">
            <lane id="middle_0">
                <vehicle id="leader" pos="7.85" speed="20.00"/>
            </lane>
        </edge>
    </timestep>
    <timestep time="29.00">
        <edge id="middle">
            <lane id="middle_0">
                <vehicle id="follower" pos="2.44" speed="20.10"/>
                <vehicle id="leader" pos="17.85" speed="20.00"/>
            </lane>
        </edge>
    </timestep>
    <timestep time="29.50">
        <edge id="middle">
            <lane id="middle_0">
                <vehicle id="follower" pos="12.49" speed="20.09"/>
                <vehicle id="leader" pos="27.85" speed="20.00"/>
            </lane>
        </edge>
    </timestep>
    <timestep time="30.00">
        <edge id="middle">
            <lane id="middle_0">
                <vehicle id="follower" pos="22.53" speed="20.08"/>
                <vehicle id="leader" pos="37.85" speed="20.00"/>
            </lane>
        </edge>
    </timestep>
    <timestep time="30.50">
        <edge id="middle">
            <lane id="middle_0">
                <vehicle id="follower" pos="32.56" speed="20.07"/>
                <vehicle id="leader" pos="47.85" speed="20.00"/>
            </lane>
        </edge>
    </timestep>
    <timestep time="31.00">
        <edge id="middle">
            <lane id="middle_0">
                <vehicle id="follower" pos="42.60" speed="20.06"/>
                <vehicle id="leader" pos="57.85" speed="20.00"/>
            </lane>
        </edge>
    </timestep>
    <timestep time="31.50">
        <edge id="middle">
            <lane id="middle_0">
                <vehicle id="follower" pos="52.62" speed="20.06"/>
                <vehicle id="leader" pos="67.85" speed="20.00"/>
            </lane>
        </edge>
    </timestep>
    <timestep time="32.00">
        <edge id="middle">
            <lane id="middle_0">
                <vehicle id="follower" pos="62.65" speed="20.05"/>
                <vehicle id="leader" pos="77.85" speed="20.00"/>
            </lane>
        </edge>
    </timestep>
    <timestep time="32.50">
        <edge id="middle">
            <lane id="middle_0">
                <vehicle id="follower" pos="72.67" speed="20.04"/>
                <vehicle id="leader" pos="87.85" speed="20.00"/>
            </lane>
        </edge>
    </timestep>
    <timestep time="33.00">
        <edge id="middle">
            <lane id="middle_0">
                <vehicle id="follower" pos="82.69" speed="20.04"/>
                <vehicle id="leader" pos="97.85" speed="20.00"/>
            </lane>
        </edge>
    </timestep>
    <timestep time="33.50">
        <edge id="middle">
            <lane id="middle_0">
                <vehicle id="follower" pos="92.71" speed="20.04"/>
                <vehicle id="leader" pos="107.85" speed="20.00"/>
            </lane>
        </edge>
    </timestep>
    <timestep time="34.00">
        <edge id="middle">
            <lane id="middle_0">
                <vehicle id="follower" pos="102.72" speed="20.03"/>
                <vehicle id="leader" pos="117.85" speed="20.00"/>
            </lane>
        </edge>
    </timestep>
    <timestep time="34.50">
        <edge id="middle">
            <lane id="middle_0">
                <vehicle id="follower" pos="112.74" speed="20.03"/>
                <vehicle id="leader" pos="127.85" speed="20.00"/>
            </lane>
        </edge>
    </timestep>
    <timestep time="35.00">
        <edge id="middle">
            <lane id="middle_0">
                <vehicle id="follower" pos="122.75" speed="20.02"/>
                <vehicle id="leader" pos="137.85" speed="20.00"/>
            </lane>
        </edge>
    </timestep>
    <timestep time="35.50">
        <edge id="middle">
            <lane id="middle_0">
                <vehicle id="follower" pos="132.76" speed="20.02"/>
                <vehicle id="leader" pos="147.85" speed="20.00"/>
            </lane>
        </edge>
    </timestep>
    <timestep time="36.00">
        <edge id="middle">
            <lane id="middle_0">
                <vehicle id="follower" pos="142.77" speed="20.02"/>
                <vehicle id="leader" pos="157.85" speed="20.00"/>
            </lane>
        </edge>
    </timestep>
    <timestep time="36.50">
        <edge id="middle">
            <lane id="middle_0">
                <vehicle id="follower" pos="152.78" speed="20.02"/>
                <vehicle id="leader" pos="167.02" speed="18.34"/>
            </lane>
        </edge>
    </timestep>
    <timestep time="37.00">
        <edge id="middle">
            <lane id="middle_0">
                <vehicle id="follower" pos="161.96" speed="18.36"/>
                <vehicle id="leader" pos="175.07" speed="16.09"/>
            </lane>
        </edge>
    </timestep>
    <timestep time="37.50">
        <edge id="middle">
            <lane id="middle_0">
                <vehicle id="follower" pos="170.01" speed="16.11"/>
                <vehicle id="leader" pos="181.99" speed="13.84"/>
            </lane>
        </edge>
    </timestep>
    <timestep time="38.00">
        <edge id="middle">
            <lane id="middle_0">
                <vehicle id="follower" pos="176.94" speed="13.86"/>
                <vehicle id="leader" pos="187.79" speed="11.59"/>
            </lane>
        </edge>
    </timestep>
    <timestep time="38.50">
        <edge id="middle">
            <lane id="middle_0">
                <vehicle id="follower" pos="182.75" speed="11.61"/>
                <vehicle id="leader" pos="192.46" speed="9.34"/>
            </lane>
        </edge>
    </timestep>
    <timestep time="39.00">
        <edge id="middle">
            <lane id="middle_0">
                <vehicle id="follower" pos="187.43" speed="9.36"/>
                <vehicle id="leader" pos="196.01" speed="7.09"/>
            </lane>
        </edge>
    </timestep>
    <timestep time="39.50">
        <edge id="middle">
            <lane id="middle_0">
                <vehicle id="follower" pos="190.98" speed="7.11"/>
                <vehicle id="leader" pos="198.43" speed="4.84"/>
            </lane>
        </edge>
    </timestep>
    <timestep time="40.00">
        <edge id="middle">
            <lane id="middle_0">
                <vehicle id="follower" pos="193.41" speed="4.86"/>
                <vehicle id="leader" pos="199.73" speed="2.59"/>
            </lane>
        </edge>
    </timestep>
    <timestep time="40.50">
        <edge id="middle">
            <lane id="middle_0">
                <vehicle id="follower" pos="194.72" speed="2.61"/>
                <vehicle id="leader" pos="199.90" speed="0.34"/>
            </lane>
        </edge>
    </timestep>
    <timestep time="41.00">
        <edge id="middle">
            <lane id="middle_0">
                <vehicle id="follower" pos="194.90" speed="0.36"/>
                <vehicle id="leader" pos="199.90" speed="0.00"/>
            </lane>
        </edge>
    </timestep>
    <timestep time="41.50">
        <edge id="middle">
            <lane id="middle_0">
                <vehicle id="follower" pos="194.90" speed="0.00"/>
                <vehicle id="leader" pos="199.90" speed="0.00"/>
            </lane>
        </edge>
    </timestep>
    <timestep time="42.00">
        <edge id="middle">
            <lane id="middle_0">
                <vehicle id="follower" pos="194.90" speed="0.00"/>
                <vehicle id="leader" pos="199.90" speed="0.00"/>
            </lane>
        </edge>
    </timestep>
    <timestep time="42.50">
        <edge id="middle">
            <lane id="middle_0">
                <vehicle id="follower" pos="194.90" speed="0.00"/>
                <vehicle id="leader" pos="199.90" speed="0.00"/>
            </lane>
        </edge>
    </timestep>
    <timestep time="43.00">
        <edge id="middle">
            <lane id="middle_0">
                <vehicle id="follower" pos="194.90" speed="0.00"/>
                <vehicle id="leader" pos="199.90" speed="0.00"/>
            </lane>
        </edge>
    </timestep>
    <timestep time="43.50">
        <edge id="middle">
            <lane id="middle_0">
                <vehicle id="follower" pos="194.90" speed="0.00"/>
                <vehicle id="leader" pos="199.90" speed="0.00"/>
            </lane>
        </edge>
    </timestep>
    <timestep time="44.00">
        <edge id="middle">
            <lane id="middle_0">
                <vehicle id="follower" pos="194.90" speed="0.00"/>
                <vehicle id="leader" pos="199.90" speed="0.00"/>
            </lane>
        </edge>
    </timestep>
    <timestep time="44.50">
        <edge id="middle">
            <lane id="middle_0">
                <vehicle id="follower" pos="194.90" speed="0.00"/>
                <vehicle id="leader" pos="199.90" speed="0.00"/>
            </lane>
        </edge>
    </timestep>
    <timestep time="45.00">
        <edge id="middle">
            <lane id="middle_0">
                <vehicle id="follower" pos="194.90" speed="0.00"/>
                <vehicle id="leader" pos="199.90" speed="0.00"/>
            </lane>
        </edge>
    </timestep>
    <timestep time="45.50">
        <edge id="middle">
            <lane id="middle_0">
                <vehicle id="follower" pos="194.90" speed="0.00"/>
                <vehicle id="leader" pos="199.90" speed="0.00"/>
            </lane>
        </edge>
    </timestep>
    <timestep time="46.00">
        <edge id="middle">
            <lane id="middle_0">
                <vehicle id="follower" pos="194.90" speed="0.00"/>
                <vehicle id="leader" pos="199.95" speed="0.10"/>
            </lane>
        </edge>
    </timestep>
    <timestep time="46.50">
        <edge id="middle">
            <lane id="middle_0">
                <vehicle id="follower" pos="194.92" speed="0.05"/>
                <vehicle id="leader" pos="200.65" speed="1.40"/>
            </lane>
        </edge>
    </timestep>
    <timestep time="47.00">
        <edge id="middle">
            <lane id="middle_0">
                <vehicle id="follower" pos="195.29" speed="0.72"/>
                <vehicle id="leader" pos="202.00" speed="2.70"/>
            </lane>
        </edge>
    </timestep>
    <timestep time="47.50">
        <edge id="middle">
            <lane id="middle_0">
                <vehicle id="follower" pos="196.25" speed="1.94"/>
                <vehicle id="leader" pos="204.00" speed="4.00"/>
            </lane>
        </edge>
    </timestep>
    <timestep time="48.00">
        <edge id="middle">
            <lane id="middle_0">
                <vehicle id="follower" pos="197.87" speed="3.24"/>
                <vehicle id="leader" pos="206.65" speed="5.30"/>
            </lane>
        </edge>
    </timestep>
    <timestep time="48.50">
        <edge id="middle">
            <lane id="middle_0">
                <vehicle id="follower" pos="200.14" speed="4.54"/>
                <vehicle id="leader" pos="209.95" speed="6.60"/>
            </lane>
        </edge>
    </timestep>
    <timestep time="49.00">
        <edge id="middle">
            <lane id="middle_0">
                <vehicle id="follower" pos="203.06" speed="5.84"/>
                <vehicle id="leader" pos="213.90" speed="7.90"/>
            </lane>
        </edge>
    </timestep>
    <timestep time="49.50">
        <edge id="middle">
            <lane id="middle_0">
                <vehicle id="follower" pos="206.63" speed="7.14"/>
                <vehicle id="leader" pos="218.50" speed="9.20"/>
            </lane>
        </edge>
    </timestep>
    <timestep time="50.00">
        <edge id="middle">
            <lane id="middle_0">
                <vehicle id="follower" pos="210.85" speed="8.44"/>
                <vehicle id="leader" pos="223.75" speed="10.50"/>
            </lane>
        </edge>
    </timestep>
    <timestep time="50.50">
        <edge id="middle">
            <lane id="middle_0">
                <vehicle id="follower" pos="215.72" speed="9.74"/>
                <vehicle id="leader" pos="229.65" speed="11.80"/>
            </lane>
        </edge>
    </timestep>
    <timestep time="51.00">
        <edge id="middle">
            <lane id="middle_0">
                <vehicle id="follower" pos="221.24" speed="11.04"/>
                <vehicle id="leader" pos="236.20" speed="13.10"/>
            </lane>
        </edge>
    </timestep>
    <timestep time="51.50">
        <edge id="middle">
            <lane id="middle_0">
                <vehicle id="follower" pos="227.40" speed="12.34"/>
                <vehicle id="leader" pos="243.40" speed="14.40"/>
            </lane>
        </edge>
    </timestep>
    <timestep time="52.00">
        <edge id="middle">
            <lane id="middle_0">
                <vehicle id="follower" pos="234.22" speed="13.64"/>
                <vehicle id="leader" pos="251.25" speed="15.70"/>
            </lane>
        </edge>
    </timestep>
    <timestep time="52.50">
        <edge id="middle">
            <lane id="middle_0">
                <vehicle id="follower" pos="241.69" speed="14.94"/>
                <vehicle id="leader" pos="259.75" speed="17.00"/>
            </lane>
        </edge>
    </timestep>
    <timestep time="53.00">
        <edge id="middle">
            <lane id="middle_0">
                <vehicle id="follower" pos="249.81" speed="16.24"/>
                <vehicle id="leader" pos="268.90" speed="18.30"/>
            </lane>
        </edge>
    </timestep>
    <timestep time="53.50">
        <edge id="middle">
            <lane id="middle_0">
                <vehicle id="follower" pos="258.58" speed="17.54"/>
                <vehicle id="leader" pos="278.70" speed="19.60"/>
            </lane>
        </edge>
    </timestep>
    <timestep time="54.00">
        <edge id="middle">
            <lane id="middle_0">
                <vehicle id="follower" pos="268.00" speed="18.84"/>