<?xml version="1.0" encoding="UTF-8"?>

<!-- generated on 2021-12-07 18:41:27 by Eclipse SUMO GUI Version v1_11_0+0377-337d5b1
<configuration xmlns:xsi="http://www.w3.org/2001/XMLSchema-instance" xsi:noNamespaceSchemaLocation="http://sumo.dlr.de/xsd/sumoConfiguration.xsd">

    <input>
        <net-file value="input_net.net.xml"/>
        <route-files value="input_routes.rou.xml"/>
    </input>

    <output>
        <vehroute-output value="vehroutes.xml"/>
        <save-state.times value="10"/>
        <save-state.files value="state.xml"/>
        <save-state.transportables value="true"/>
    </output>

    <report>
        <duration-log.disable value="true"/>
        <no-step-log value="true"/>
    </report>

</configuration>
-->

<snapshot xmlns:xsi="http://www.w3.org/2001/XMLSchema-instance" xsi:noNamespaceSchemaLocation="http://sumo.dlr.de/xsd/state_file.xsd" version="v1_11_0+0377-337d5b1" time="10.00" type="micro">
    <route id="!persontrip_car_0!var#1" state="0" edges="3/1to2/1 2/1to1/1 1/1to0/1"/>
    <delay number="1" begin="1" end="0" depart="0.00" time="0.00"/>
    <vType id="DEFAULT_PEDTYPE" vClass="pedestrian"/>
    <vType id="DEFAULT_VEHTYPE" length="3.00" minGap="2.00" maxSpeed="10.00" impatience="0.50" accel="0.8" decel="4.5" sigma="0"/>
    <vehicle id="persontrip_car_0" type="DEFAULT_VEHTYPE" depart="triggered" route="!persontrip_car_0!var#1" distance="0 1" speedFactor="0.94" state="0 2000 0 3.10 0 4.61 9000 0 0" pos="25.50 22.50 5.60" speed="5.60 4.80" angle="270.00" posLat="0.00" waitingTime="100000 0">
        <device id="vehroute_persontrip_car_0" state="0 0.00 0.00 3.10 1 !NULL 2000 persontrip_car_0 person:persontrip_car -1 0"/>
        <device id="person_persontrip_car_0" state="0"/>
    </vehicle>
    <transportables type="person" state="1 1 0 0 0 0 0 0 0 0">
        <person id="persontrip_car" type="DEFAULT_PEDTYPE" depart="2.00" state="131072 1 2000 0 -1 1 2000 persontrip_car_0 0">
            <ride from="3/1to2/1" to="1/1to0/1" arrivalPos="200.00" lines="persontrip_car_0"/>
        </person>
    </transportables>
    <lane id="3/1to2/1_0">
        <vehicles value="persontrip_car_0"/>
    </lane>
    <tlLogic id="0/0" programID="0" phase="0" duration="10000"/>
    <tlLogic id="0/1" programID="0" phase="0" duration="10000"/>
    <tlLogic id="0/2" programID="0" phase="0" duration="10000"/>
    <tlLogic id="1/0" programID="0" phase="0" duration="10000"/>
    <tlLogic id="1/1" programID="0" phase="0" duration="10000"/>
    <tlLogic id="1/2" programID="0" phase="0" duration="10000"/>
    <tlLogic id="2/0" programID="0" phase="0" duration="10000"/>
    <tlLogic id="2/1" programID="0" phase="0" duration="10000"/>
    <tlLogic id="2/2" programID="0" phase="0" duration="10000"/>
    <tlLogic id="3/0" programID="0" phase="0" duration="10000"/>
    <tlLogic id="3/1" programID="0" phase="0" duration="10000"/>
    <tlLogic id="3/2" programID="0" phase="0" duration="10000"/>
    <tlLogic id="4/0" programID="0" phase="0" duration="10000"/>
    <tlLogic id="4/1" programID="0" phase="0" duration="10000"/>
    <tlLogic id="4/2" programID="0" phase="0" duration="10000"/>
</snapshot>
