<?xml version="1.0"?>

<!-- generated on 10/04/07 13:24:09 by SUMO sumo Version 0.9.6
<configuration>

   <input>
      <net-file>net.net.xml</net-file>
      <route-files>input_routes.rou.xml</route-files>
   </input>

   <output>
      <tripinfo-output>tripinfos.xml</tripinfo-output>
   </output>

   <time>
      <begin>0</begin>
      <end>1000</end>
   </time>

   <processing>
      <no-duration-log>true</no-duration-log>
      <no-step-log>true</no-step-log>
   </processing>

</configuration>
-->

<tripinfos>
   <tripinfo vehicle_id="0" start="0" wished="0" end="126" duration="126" waited="0" reroutes="0" devices="" vtype="DEFAULT_VEHTYPE"/>
   <tripinfo vehicle_id="1" start="10" wished="10" end="133" duration="123" waited="0" reroutes="0" devices="" vtype="DEFAULT_VEHTYPE"/>
   <tripinfo vehicle_id="2" start="20" wished="20" end="139" duration="119" waited="0" reroutes="0" devices="" vtype="DEFAULT_VEHTYPE"/>
   <tripinfo vehicle_id="3" start="30" wished="30" end="147" duration="117" waited="0" reroutes="0" devices="" vtype="DEFAULT_VEHTYPE"/>
   <tripinfo vehicle_id="4" start="40" wished="40" end="150" duration="110" waited="0" reroutes="0" devices="" vtype="DEFAULT_VEHTYPE"/>
   <tripinfo vehicle_id="5" start="50" wished="50" end="154" duration="104" waited="0" reroutes="0" devices="" vtype="DEFAULT_VEHTYPE"/>
   <tripinfo vehicle_id="6" start="60" wished="60" end="186" duration="126" waited="0" reroutes="0" devices="" vtype="DEFAULT_VEHTYPE"/>
   <tripinfo vehicle_id="7" start="70" wished="70" end="192" duration="122" waited="0" reroutes="0" devices="" vtype="DEFAULT_VEHTYPE"/>
   <tripinfo vehicle_id="8" start="80" wished="80" end="200" duration="120" waited="0" reroutes="0" devices="" vtype="DEFAULT_VEHTYPE"/>
   <tripinfo vehicle_id="9" start="90" wished="90" end="203" duration="113" waited="0" reroutes="0" devices="" vtype="DEFAULT_VEHTYPE"/>
</tripinfos>
