<?xml version="1.0" encoding="UTF-8"?>

<!-- generated on 2024-05-31 17:13:08 by Eclipse SUMO sumo Version v1_20_0+0319-5a9f5015b64
This data file and the accompanying materials
are made available under the terms of the Eclipse Public License v2.0
which accompanies this distribution, and is available at
http://www.eclipse.org/legal/epl-v20.html
This file may also be made available under the following Secondary
Licenses when the conditions for such availability set forth in the Eclipse
Public License 2.0 are satisfied: GNU General Public License, version 2
or later which is available at
https://www.gnu.org/licenses/old-licenses/gpl-2.0-standalone.html
SPDX-License-Identifier: EPL-2.0 OR GPL-2.0-or-later
<configuration xmlns:xsi="http://www.w3.org/2001/XMLSchema-instance" xsi:noNamespaceSchemaLocation="http://sumo.dlr.de/xsd/sumoConfiguration.xsd">

    <input>
        <net-file value="net.net.xml"/>
        <route-files value="input_routes.rou.xml"/>
        <additional-files value="input_additional.add.xml"/>
    </input>

    <output>
        <write-license value="true"/>
        <tripinfo-output value="tripinfos.xml"/>
    </output>

    <time>
        <begin value="0"/>
        <end value="600"/>
    </time>

    <processing>
        <default.speeddev value="0"/>
    </processing>

    <report>
        <xml-validation value="never"/>
        <duration-log.disable value="true"/>
        <no-step-log value="true"/>
    </report>

</configuration>
-->

<tripinfos xmlns:xsi="http://www.w3.org/2001/XMLSchema-instance" xsi:noNamespaceSchemaLocation="http://sumo.dlr.de/xsd/tripinfo_file.xsd">
    <tripinfo id="f_0.0" depart="0.00" departLane="3si_0" departPos="5.10" departSpeed="0.00" departDelay="0.00" arrival="70.00" arrivalLane="1o_0" arrivalPos="486.40" arrivalSpeed="10.73" duration="70.00" routeLength="738.21" waitingTime="0.00" waitingCount="0" stopTime="0.00" timeLoss="7.45" rerouteNo="0" devices="tripinfo_f_0.0" vType="DEFAULT_VEHTYPE" speedFactor="1.00" vaporized=""/>
    <tripinfo id="f_1.0" depart="0.00" departLane="4si_0" departPos="5.10" departSpeed="0.00" departDelay="0.00" arrival="70.00" arrivalLane="2o_0" arrivalPos="486.40" arrivalSpeed="9.99" duration="70.00" routeLength="738.21" waitingTime="0.00" waitingCount="0" stopTime="0.00" timeLoss="7.57" rerouteNo="0" devices="tripinfo_f_1.0" vType="DEFAULT_VEHTYPE" speedFactor="1.00" vaporized=""/>
    <tripinfo id="f_0.1" depart="2.00" departLane="3si_0" departPos="5.10" departSpeed="0.00" departDelay="0.00" arrival="73.00" arrivalLane="1o_0" arrivalPos="486.40" arrivalSpeed="9.92" duration="71.00" routeLength="738.21" waitingTime="0.00" waitingCount="0" stopTime="0.00" timeLoss="8.65" rerouteNo="0" devices="tripinfo_f_0.1" vType="DEFAULT_VEHTYPE" speedFactor="1.00" vaporized=""/>
    <tripinfo id="f_1.1" depart="3.00" departLane="4si_0" departPos="5.10" departSpeed="0.00" departDelay="1.00" arrival="74.00" arrivalLane="2o_0" arrivalPos="486.40" arrivalSpeed="9.90" duration="71.00" routeLength="738.21" waitingTime="0.00" waitingCount="0" stopTime="0.00" timeLoss="8.77" rerouteNo="0" devices="tripinfo_f_1.1" vType="DEFAULT_VEHTYPE" speedFactor="1.00" vaporized=""/>
    <tripinfo id="f_0.2" depart="4.00" departLane="3si_0" departPos="5.10" departSpeed="0.00" departDelay="0.00" arrival="77.00" arrivalLane="1o_0" arrivalPos="486.40" arrivalSpeed="10.33" duration="73.00" routeLength="738.21" waitingTime="0.00" waitingCount="0" stopTime="0.00" timeLoss="10.13" rerouteNo="0" devices="tripinfo_f_0.2" vType="DEFAULT_VEHTYPE" speedFactor="1.00" vaporized=""/>
    <tripinfo id="f_1.2" depart="6.00" departLane="4si_0" departPos="5.10" departSpeed="0.00" departDelay="2.00" arrival="77.00" arrivalLane="2o_0" arrivalPos="486.40" arrivalSpeed="10.56" duration="71.00" routeLength="738.21" waitingTime="0.00" waitingCount="0" stopTime="0.00" timeLoss="8.50" rerouteNo="0" devices="tripinfo_f_1.2" vType="DEFAULT_VEHTYPE" speedFactor="1.00" vaporized=""/>
    <tripinfo id="f_0.3" depart="7.00" departLane="3si_0" departPos="5.10" departSpeed="0.00" departDelay="1.00" arrival="80.00" arrivalLane="1o_0" arrivalPos="486.40" arrivalSpeed="10.39" duration="73.00" routeLength="738.21" waitingTime="0.00" waitingCount="0" stopTime="0.00" timeLoss="10.27" rerouteNo="0" devices="tripinfo_f_0.3" vType="DEFAULT_VEHTYPE" speedFactor="1.00" vaporized=""/>
    <tripinfo id="f_1.3" depart="9.00" departLane="4si_0" departPos="5.10" departSpeed="0.00" departDelay="3.00" arrival="80.00" arrivalLane="2o_0" arrivalPos="486.40" arrivalSpeed="11.07" duration="71.00" routeLength="738.21" waitingTime="0.00" waitingCount="0" stopTime="0.00" timeLoss="8.77" rerouteNo="0" devices="tripinfo_f_1.3" vType="DEFAULT_VEHTYPE" speedFactor="1.00" vaporized=""/>
    <tripinfo id="f_0.4" depart="10.00" departLane="3si_0" departPos="5.10" departSpeed="0.00" departDelay="2.00" arrival="82.00" arrivalLane="1o_0" arrivalPos="486.40" arrivalSpeed="10.58" duration="72.00" routeLength="738.21" waitingTime="0.00" waitingCount="0" stopTime="0.00" timeLoss="9.45" rerouteNo="0" devices="tripinfo_f_0.4" vType="DEFAULT_VEHTYPE" speedFactor="1.00" vaporized=""/>
    <tripinfo id="f_1.4" depart="12.00" departLane="4si_0" departPos="5.10" departSpeed="0.00" departDelay="4.00" arrival="83.00" arrivalLane="2o_0" arrivalPos="486.40" arrivalSpeed="10.19" duration="71.00" routeLength="738.21" waitingTime="0.00" waitingCount="0" stopTime="0.00" timeLoss="8.09" rerouteNo="0" devices="tripinfo_f_1.4" vType="DEFAULT_VEHTYPE" speedFactor="1.00" vaporized=""/>
    <tripinfo id="f_0.5" depart="13.00" departLane="3si_0" departPos="5.10" departSpeed="0.00" departDelay="3.00" arrival="84.00" arrivalLane="1o_0" arrivalPos="486.40" arrivalSpeed="10.73" duration="71.00" routeLength="738.21" waitingTime="0.00" waitingCount="0" stopTime="0.00" timeLoss="8.58" rerouteNo="0" devices="tripinfo_f_0.5" vType="DEFAULT_VEHTYPE" speedFactor="1.00" vaporized=""/>
    <tripinfo id="f_1.5" depart="14.00" departLane="4si_0" departPos="5.10" departSpeed="0.00" departDelay="4.00" arrival="85.00" arrivalLane="2o_0" arrivalPos="486.40" arrivalSpeed="10.06" duration="71.00" routeLength="738.21" waitingTime="0.00" waitingCount="0" stopTime="0.00" timeLoss="8.54" rerouteNo="0" devices="tripinfo_f_1.5" vType="DEFAULT_VEHTYPE" speedFactor="1.00" vaporized=""/>
    <tripinfo id="f_0.6" depart="16.00" departLane="3si_0" departPos="5.10" departSpeed="0.00" departDelay="4.00" arrival="86.00" arrivalLane="1o_0" arrivalPos="486.40" arrivalSpeed="10.27" duration="70.00" routeLength="738.21" waitingTime="0.00" waitingCount="0" stopTime="0.00" timeLoss="7.53" rerouteNo="0" devices="tripinfo_f_0.6" vType="DEFAULT_VEHTYPE" speedFactor="1.00" vaporized=""/>
    <tripinfo id="f_1.6" depart="16.00" departLane="4si_0" departPos="5.10" departSpeed="0.00" departDelay="4.00" arrival="88.00" arrivalLane="2o_0" arrivalPos="486.40" arrivalSpeed="10.62" duration="72.00" routeLength="738.21" waitingTime="0.00" waitingCount="0" stopTime="0.00" timeLoss="9.07" rerouteNo="0" devices="tripinfo_f_1.6" vType="DEFAULT_VEHTYPE" speedFactor="1.00" vaporized=""/>
    <tripinfo id="f_0.7" depart="18.00" departLane="3si_0" departPos="5.10" departSpeed="0.00" departDelay="4.00" arrival="89.00" arrivalLane="1o_0" arrivalPos="486.40" arrivalSpeed="9.96" duration="71.00" routeLength="738.21" waitingTime="0.00" waitingCount="0" stopTime="0.00" timeLoss="7.97" rerouteNo="0" devices="tripinfo_f_0.7" vType="DEFAULT_VEHTYPE" speedFactor="1.00" vaporized=""/>
    <tripinfo id="f_1.7" depart="19.00" departLane="4si_0" departPos="5.10" departSpeed="0.00" departDelay="5.00" arrival="90.00" arrivalLane="2o_0" arrivalPos="486.40" arrivalSpeed="10.40" duration="71.00" routeLength="738.21" waitingTime="0.00" waitingCount="0" stopTime="0.00" timeLoss="7.96" rerouteNo="0" devices="tripinfo_f_1.7" vType="DEFAULT_VEHTYPE" speedFactor="1.00" vaporized=""/>
    <tripinfo id="f_0.8" depart="21.00" departLane="3si_0" departPos="5.10" departSpeed="0.00" departDelay="5.00" arrival="91.00" arrivalLane="1o_0" arrivalPos="486.40" arrivalSpeed="11.09" duration="70.00" routeLength="738.21" waitingTime="0.00" waitingCount="0" stopTime="0.00" timeLoss="6.85" rerouteNo="0" devices="tripinfo_f_0.8" vType="DEFAULT_VEHTYPE" speedFactor="1.00" vaporized=""/>
    <tripinfo id="f_1.8" depart="22.00" departLane="4si_0" departPos="5.10" departSpeed="0.00" departDelay="6.00" arrival="141.00" arrivalLane="2o_0" arrivalPos="486.40" arrivalSpeed="10.51" duration="119.00" routeLength="738.21" waitingTime="45.00" waitingCount="1" stopTime="0.00" timeLoss="56.76" rerouteNo="0" devices="tripinfo_f_1.8" vType="DEFAULT_VEHTYPE" speedFactor="1.00" vaporized=""/>
    <tripinfo id="f_0.9" depart="23.00" departLane="3si_0" departPos="5.10" departSpeed="0.00" departDelay="5.00" arrival="141.00" arrivalLane="1o_0" arrivalPos="486.40" arrivalSpeed="9.95" duration="118.00" routeLength="738.21" waitingTime="43.00" waitingCount="1" stopTime="0.00" timeLoss="55.30" rerouteNo="0" devices="tripinfo_f_0.9" vType="DEFAULT_VEHTYPE" speedFactor="1.00" vaporized=""/>
    <tripinfo id="f_1.9" depart="24.00" departLane="4si_0" departPos="5.10" departSpeed="0.00" departDelay="6.00" arrival="143.00" arrivalLane="2o_0" arrivalPos="486.40" arrivalSpeed="10.72" duration="119.00" routeLength="738.21" waitingTime="44.00" waitingCount="1" stopTime="0.00" timeLoss="56.58" rerouteNo="0" devices="tripinfo_f_1.9" vType="DEFAULT_VEHTYPE" speedFactor="1.00" vaporized=""/>
    <tripinfo id="f_0.10" depart="25.00" departLane="3si_0" departPos="5.10" departSpeed="0.00" departDelay="5.00" arrival="143.00" arrivalLane="1o_0" arrivalPos="486.40" arrivalSpeed="10.67" duration="118.00" routeLength="738.21" waitingTime="43.00" waitingCount="1" stopTime="0.00" timeLoss="55.52" rerouteNo="0" devices="tripinfo_f_0.10" vType="DEFAULT_VEHTYPE" speedFactor="1.00" vaporized=""/>
    <tripinfo id="f_0.11" depart="27.00" departLane="3si_0" departPos="5.10" departSpeed="0.00" departDelay="5.00" arrival="145.00" arrivalLane="1o_0" arrivalPos="486.40" arrivalSpeed="10.43" duration="118.00" routeLength="738.21" waitingTime="42.00" waitingCount="1" stopTime="0.00" timeLoss="55.64" rerouteNo="0" devices="tripinfo_f_0.11" vType="DEFAULT_VEHTYPE" speedFactor="1.00" vaporized=""/>
    <tripinfo id="f_1.10" depart="26.00" departLane="4si_0" departPos="5.10" departSpeed="0.00" departDelay="6.00" arrival="147.00" arrivalLane="2o_0" arrivalPos="486.40" arrivalSpeed="10.35" duration="121.00" routeLength="738.21" waitingTime="42.00" waitingCount="1" stopTime="0.00" timeLoss="58.05" rerouteNo="0" devices="tripinfo_f_1.10" vType="DEFAULT_VEHTYPE" speedFactor="1.00" vaporized=""/>
    <tripinfo id="f_0.12" depart="29.00" departLane="3si_0" departPos="5.10" departSpeed="0.00" departDelay="5.00" arrival="147.00" arrivalLane="1o_0" arrivalPos="486.40" arrivalSpeed="11.08" duration="118.00" routeLength="738.21" waitingTime="40.00" waitingCount="1" stopTime="0.00" timeLoss="55.69" rerouteNo="0" devices="tripinfo_f_0.12" vType="DEFAULT_VEHTYPE" speedFactor="1.00" vaporized=""/>
    <tripinfo id="f_1.33" depart="69.00" departLane="4si_0" departPos="5.10" departSpeed="0.00" departDelay="3.00" arrival="149.00" arrivalLane="2o_0" arrivalPos="486.40" arrivalSpeed="10.09" duration="80.00" routeLength="738.21" waitingTime="5.00" waitingCount="2" stopTime="0.00" timeLoss="17.47" rerouteNo="0" devices="tripinfo_f_1.33" vType="DEFAULT_VEHTYPE" speedFactor="1.00" vaporized=""/>
    <tripinfo id="f_0.37" depart="76.00" departLane="3si_0" departPos="5.10" departSpeed="0.00" departDelay="2.00" arrival="150.00" arrivalLane="1o_0" arrivalPos="486.40" arrivalSpeed="10.70" duration="74.00" routeLength="738.21" waitingTime="0.00" waitingCount="0" stopTime="0.00" timeLoss="11.55" rerouteNo="0" devices="tripinfo_f_0.37" vType="DEFAULT_VEHTYPE" speedFactor="1.00" vaporized=""/>
    <tripinfo id="f_1.11" depart="28.00" departLane="4si_0" departPos="5.10" departSpeed="0.00" departDelay="6.00" arrival="152.00" arrivalLane="2o_0" arrivalPos="486.40" arrivalSpeed="11.05" duration="124.00" routeLength="738.21" waitingTime="40.00" waitingCount="1" stopTime="0.00" timeLoss="60.94" rerouteNo="0" devices="tripinfo_f_1.11" vType="DEFAULT_VEHTYPE" speedFactor="1.00" vaporized=""/>
    <tripinfo id="f_0.13" depart="31.00" departLane="3si_0" departPos="5.10" departSpeed="0.00" departDelay="5.00" arrival="153.00" arrivalLane="1o_0" arrivalPos="486.40" arrivalSpeed="11.03" duration="122.00" routeLength="738.21" waitingTime="40.00" waitingCount="1" stopTime="0.00" timeLoss="59.11" rerouteNo="0" devices="tripinfo_f_0.13" vType="DEFAULT_VEHTYPE" speedFactor="1.00" vaporized=""/>
    <tripinfo id="f_1.37" depart="76.00" departLane="4si_0" departPos="5.10" departSpeed="0.00" departDelay="2.00" arrival="154.00" arrivalLane="2o_0" arrivalPos="486.40" arrivalSpeed="10.68" duration="78.00" routeLength="738.21" waitingTime="2.00" waitingCount="1" stopTime="0.00" timeLoss="15.63" rerouteNo="0" devices="tripinfo_f_1.37" vType="DEFAULT_VEHTYPE" speedFactor="1.00" vaporized=""/>
    <tripinfo id="f_0.38" depart="79.00" departLane="3si_0" departPos="5.10" departSpeed="0.00" departDelay="3.00" arrival="155.00" arrivalLane="1o_0" arrivalPos="486.40" arrivalSpeed="10.41" duration="76.00" routeLength="738.21" waitingTime="1.00" waitingCount="1" stopTime="0.00" timeLoss="13.62" rerouteNo="0" devices="tripinfo_f_0.38" vType="DEFAULT_VEHTYPE" speedFactor="1.00" vaporized=""/>
    <tripinfo id="f_1.12" depart="30.00" departLane="4si_0" departPos="5.10" departSpeed="0.00" departDelay="6.00" arrival="156.00" arrivalLane="2o_0" arrivalPos="486.40" arrivalSpeed="9.86" duration="126.00" routeLength="738.21" waitingTime="46.00" waitingCount="2" stopTime="0.00" timeLoss="63.74" rerouteNo="0" devices="tripinfo_f_1.12" vType="DEFAULT_VEHTYPE" speedFactor="1.00" vaporized=""/>
    <tripinfo id="f_0.14" depart="33.00" departLane="3si_0" departPos="5.10" departSpeed="0.00" departDelay="5.00" arrival="157.00" arrivalLane="1o_0" arrivalPos="486.40" arrivalSpeed="10.89" duration="124.00" routeLength="738.21" waitingTime="40.00" waitingCount="1" stopTime="0.00" timeLoss="61.38" rerouteNo="0" devices="tripinfo_f_0.14" vType="DEFAULT_VEHTYPE" speedFactor="1.00" vaporized=""/>
    <tripinfo id="f_1.39" depart="80.00" departLane="4si_0" departPos="5.10" departSpeed="0.00" departDelay="2.00" arrival="159.00" arrivalLane="2o_0" arrivalPos="486.40" arrivalSpeed="10.89" duration="79.00" routeLength="738.21" waitingTime="1.00" waitingCount="1" stopTime="0.00" timeLoss="16.16" rerouteNo="0" devices="tripinfo_f_1.39" vType="DEFAULT_VEHTYPE" speedFactor="1.00" vaporized=""/>
    <tripinfo id="f_0.41" depart="83.00" departLane="3si_0" departPos="5.10" departSpeed="0.00" departDelay="1.00" arrival="161.00" arrivalLane="1o_0" arrivalPos="486.40" arrivalSpeed="10.40" duration="78.00" routeLength="738.21" waitingTime="3.00" waitingCount="1" stopTime="0.00" timeLoss="14.98" rerouteNo="0" devices="tripinfo_f_0.41" vType="DEFAULT_VEHTYPE" speedFactor="1.00" vaporized=""/>
    <tripinfo id="f_1.13" depart="32.00" departLane="4si_0" departPos="5.10" departSpeed="0.00" departDelay="6.00" arrival="162.00" arrivalLane="2o_0" arrivalPos="486.40" arrivalSpeed="10.13" duration="130.00" routeLength="738.21" waitingTime="47.00" waitingCount="2" stopTime="0.00" timeLoss="66.98" rerouteNo="0" devices="tripinfo_f_1.13" vType="DEFAULT_VEHTYPE" speedFactor="1.00" vaporized=""/>
    <tripinfo id="f_0.42" depart="87.00" departLane="3si_0" departPos="5.10" departSpeed="0.00" departDelay="3.00" arrival="163.00" arrivalLane="1o_0" arrivalPos="486.40" arrivalSpeed="11.09" duration="76.00" routeLength="738.21" waitingTime="1.00" waitingCount="1" stopTime="0.00" timeLoss="13.24" rerouteNo="0" devices="tripinfo_f_0.42" vType="DEFAULT_VEHTYPE" speedFactor="1.00" vaporized=""/>
    <tripinfo id="f_1.40" depart="82.00" departLane="4si_0" departPos="5.10" departSpeed="0.00" departDelay="2.00" arrival="164.00" arrivalLane="2o_0" arrivalPos="486.40" arrivalSpeed="10.33" duration="82.00" routeLength="738.21" waitingTime="1.00" waitingCount="1" stopTime="0.00" timeLoss="19.18" rerouteNo="0" devices="tripinfo_f_1.40" vType="DEFAULT_VEHTYPE" speedFactor="1.00" vaporized=""/>
    <tripinfo id="f_1.14" depart="34.00" departLane="4si_0" departPos="5.10" departSpeed="0.00" departDelay="6.00" arrival="166.00" arrivalLane="2o_0" arrivalPos="486.40" arrivalSpeed="10.41" duration="132.00" routeLength="738.21" waitingTime="47.00" waitingCount="4" stopTime="0.00" timeLoss="69.32" rerouteNo="0" devices="tripinfo_f_1.14" vType="DEFAULT_VEHTYPE" speedFactor="1.00" vaporized=""/>
    <tripinfo id="f_0.15" depart="35.00" departLane="3si_0" departPos="5.10" departSpeed="0.00" departDelay="5.00" arrival="166.00" arrivalLane="1o_0" arrivalPos="486.40" arrivalSpeed="10.57" duration="131.00" routeLength="738.21" waitingTime="42.00" waitingCount="2" stopTime="0.00" timeLoss="68.75" rerouteNo="0" devices="tripinfo_f_0.15" vType="DEFAULT_VEHTYPE" speedFactor="1.00" vaporized=""/>
    <tripinfo id="f_1.42" depart="87.00" departLane="4si_0" departPos="5.10" departSpeed="0.00" departDelay="3.00" arrival="168.00" arrivalLane="2o_0" arrivalPos="486.40" arrivalSpeed="10.50" duration="81.00" routeLength="738.21" waitingTime="6.00" waitingCount="1" stopTime="0.00" timeLoss="18.47" rerouteNo="0" devices="tripinfo_f_1.42" vType="DEFAULT_VEHTYPE" speedFactor="1.00" vaporized=""/>
    <tripinfo id="f_0.43" depart="90.00" departLane="3si_0" departPos="5.10" departSpeed="0.00" departDelay="4.00" arrival="169.00" arrivalLane="1o_0" arrivalPos="486.40" arrivalSpeed="10.47" duration="79.00" routeLength="738.21" waitingTime="1.00" waitingCount="1" stopTime="0.00" timeLoss="16.47" rerouteNo="0" devices="tripinfo_f_0.43" vType="DEFAULT_VEHTYPE" speedFactor="1.00" vaporized=""/>
    <tripinfo id="f_1.44" depart="90.00" departLane="4si_0" departPos="5.10" departSpeed="0.00" departDelay="2.00" arrival="170.00" arrivalLane="2o_0" arrivalPos="486.40" arrivalSpeed="9.86" duration="80.00" routeLength="738.21" waitingTime="3.00" waitingCount="2" stopTime="0.00" timeLoss="17.72" rerouteNo="0" devices="tripinfo_f_1.44" vType="DEFAULT_VEHTYPE" speedFactor="1.00" vaporized=""/>
    <tripinfo id="f_0.16" depart="36.00" departLane="3si_0" departPos="5.10" departSpeed="0.00" departDelay="4.00" arrival="171.00" arrivalLane="1o_0" arrivalPos="486.40" arrivalSpeed="10.11" duration="135.00" routeLength="738.21" waitingTime="42.00" waitingCount="2" stopTime="0.00" timeLoss="72.50" rerouteNo="0" devices="tripinfo_f_0.16" vType="DEFAULT_VEHTYPE" speedFactor="1.00" vaporized=""/>
    <tripinfo id="f_1.15" depart="36.00" departLane="4si_0" departPos="5.10" departSpeed="0.00" departDelay="6.00" arrival="173.00" arrivalLane="2o_0" arrivalPos="486.40" arrivalSpeed="10.60" duration="137.00" routeLength="738.21" waitingTime="47.00" waitingCount="3" stopTime="0.00" timeLoss="74.73" rerouteNo="0" devices="tripinfo_f_1.15" vType="DEFAULT_VEHTYPE" speedFactor="1.00" vaporized=""/>
    <tripinfo id="f_0.44" depart="92.00" departLane="3si_0" departPos="5.10" departSpeed="0.00" departDelay="4.00" arrival="174.00" arrivalLane="1o_0" arrivalPos="486.40" arrivalSpeed="10.94" duration="82.00" routeLength="738.21" waitingTime="3.00" waitingCount="1" stopTime="0.00" timeLoss="19.79" rerouteNo="0" devices="tripinfo_f_0.44" vType="DEFAULT_VEHTYPE" speedFactor="1.00" vaporized=""/>
    <tripinfo id="f_1.16" depart="37.00" departLane="4si_0" departPos="5.10" departSpeed="0.00" departDelay="5.00" arrival="175.00" arrivalLane="2o_0" arrivalPos="486.40" arrivalSpeed="10.24" duration="138.00" routeLength="738.21" waitingTime="45.00" waitingCount="4" stopTime="0.00" timeLoss="75.64" rerouteNo="0" devices="tripinfo_f_1.16" vType="DEFAULT_VEHTYPE" speedFactor="1.00" vaporized=""/>
    <tripinfo id="f_0.17" depart="38.00" departLane="3si_0" departPos="5.10" departSpeed="0.00" departDelay="4.00" arrival="177.00" arrivalLane="1o_0" arrivalPos="486.40" arrivalSpeed="9.94" duration="139.00" routeLength="738.21" waitingTime="42.00" waitingCount="3" stopTime="0.00" timeLoss="76.12" rerouteNo="0" devices="tripinfo_f_0.17" vType="DEFAULT_VEHTYPE" speedFactor="1.00" vaporized=""/>
    <tripinfo id="f_1.43" depart="88.00" departLane="4si_0" departPos="5.10" departSpeed="0.00" departDelay="2.00" arrival="178.00" arrivalLane="2o_0" arrivalPos="486.40" arrivalSpeed="10.33" duration="90.00" routeLength="738.21" waitingTime="9.00" waitingCount="1" stopTime="0.00" timeLoss="27.16" rerouteNo="0" devices="tripinfo_f_1.43" vType="DEFAULT_VEHTYPE" speedFactor="1.00" vaporized=""/>
    <tripinfo id="f_0.45" depart="95.00" departLane="3si_0" departPos="5.10" departSpeed="0.00" departDelay="5.00" arrival="179.00" arrivalLane="1o_0" arrivalPos="486.40" arrivalSpeed="10.97" duration="84.00" routeLength="738.21" waitingTime="6.00" waitingCount="2" stopTime="0.00" timeLoss="21.17" rerouteNo="0" devices="tripinfo_f_0.45" vType="DEFAULT_VEHTYPE" speedFactor="1.00" vaporized=""/>
    <tripinfo id="f_1.45" depart="93.00" departLane="4si_0" departPos="5.10" departSpeed="0.00" departDelay="3.00" arrival="180.00" arrivalLane="2o_0" arrivalPos="486.40" arrivalSpeed="10.02" duration="87.00" routeLength="738.21" waitingTime="7.00" waitingCount="2" stopTime="0.00" timeLoss="24.38" rerouteNo="0" devices="tripinfo_f_1.45" vType="DEFAULT_VEHTYPE" speedFactor="1.00" vaporized=""/>
    <tripinfo id="f_0.46" depart="97.00" departLane="3si_0" departPos="5.10" departSpeed="0.00" departDelay="5.00" arrival="181.00" arrivalLane="1o_0" arrivalPos="486.40" arrivalSpeed="10.89" duration="84.00" routeLength="738.21" waitingTime="4.00" waitingCount="1" stopTime="0.00" timeLoss="21.17" rerouteNo="0" devices="tripinfo_f_0.46" vType="DEFAULT_VEHTYPE" speedFactor="1.00" vaporized=""/>
    <tripinfo id="f_1.17" depart="39.00" departLane="4si_0" departPos="5.10" departSpeed="0.00" departDelay="5.00" arrival="231.00" arrivalLane="2o_0" arrivalPos="486.40" arrivalSpeed="11.08" duration="192.00" routeLength="738.21" waitingTime="96.00" waitingCount="5" stopTime="0.00" timeLoss="129.02" rerouteNo="0" devices="tripinfo_f_1.17" vType="DEFAULT_VEHTYPE" speedFactor="1.00" vaporized=""/>
    <tripinfo id="f_0.18" depart="40.00" departLane="3si_0" departPos="5.10" departSpeed="0.00" departDelay="4.00" arrival="232.00" arrivalLane="1o_0" arrivalPos="486.40" arrivalSpeed="10.24" duration="192.00" routeLength="738.21" waitingTime="87.00" waitingCount="4" stopTime="0.00" timeLoss="129.12" rerouteNo="0" devices="tripinfo_f_0.18" vType="DEFAULT_VEHTYPE" speedFactor="1.00" vaporized=""/>
    <tripinfo id="f_1.18" depart="41.00" departLane="4si_0" departPos="5.10" departSpeed="0.00" departDelay="5.00" arrival="234.00" arrivalLane="2o_0" arrivalPos="486.40" arrivalSpeed="10.96" duration="193.00" routeLength="738.21" waitingTime="96.00" waitingCount="5" stopTime="0.00" timeLoss="130.11" rerouteNo="0" devices="tripinfo_f_1.18" vType="DEFAULT_VEHTYPE" speedFactor="1.00" vaporized=""/>
    <tripinfo id="f_0.19" depart="42.00" departLane="3si_0" departPos="5.10" departSpeed="0.00" departDelay="4.00" arrival="234.00" arrivalLane="1o_0" arrivalPos="486.40" arrivalSpeed="10.69" duration="192.00" routeLength="738.21" waitingTime="85.00" waitingCount="3" stopTime="0.00" timeLoss="129.22" rerouteNo="0" devices="tripinfo_f_0.19" vType="DEFAULT_VEHTYPE" speedFactor="1.00" vaporized=""/>
    <tripinfo id="f_0.47" depart="100.00" departLane="3si_0" departPos="5.10" departSpeed="0.00" departDelay="6.00" arrival="236.00" arrivalLane="1o_0" arrivalPos="486.40" arrivalSpeed="9.81" duration="136.00" routeLength="738.21" waitingTime="45.00" waitingCount="6" stopTime="0.00" timeLoss="73.45" rerouteNo="0" devices="tripinfo_f_0.47" vType="DEFAULT_VEHTYPE" speedFactor="1.00" vaporized=""/>
    <tripinfo id="f_1.50" depart="105.00" departLane="4si_0" departPos="5.10" departSpeed="0.00" departDelay="5.00" arrival="236.00" arrivalLane="2o_0" arrivalPos="486.40" arrivalSpeed="9.97" duration="131.00" routeLength="738.21" waitingTime="45.00" waitingCount="3" stopTime="0.00" timeLoss="68.32" rerouteNo="0" devices="tripinfo_f_1.50" vType="DEFAULT_VEHTYPE" speedFactor="1.00" vaporized=""/>
    <tripinfo id="f_1.52" depart="110.00" departLane="4si_0" departPos="5.10" departSpeed="0.00" departDelay="6.00" arrival="238.00" arrivalLane="2o_0" arrivalPos="486.40" arrivalSpeed="9.91" duration="128.00" routeLength="738.21" waitingTime="44.00" waitingCount="4" stopTime="0.00" timeLoss="65.25" rerouteNo="0" devices="tripinfo_f_1.52" vType="DEFAULT_VEHTYPE" speedFactor="1.00" vaporized=""/>
    <tripinfo id="f_0.51" depart="110.00" departLane="3si_0" departPos="5.10" departSpeed="0.00" departDelay="8.00" arrival="240.00" arrivalLane="1o_0" arrivalPos="486.40" arrivalSpeed="10.09" duration="130.00" routeLength="738.21" waitingTime="39.00" waitingCount="9" stopTime="0.00" timeLoss="66.95" rerouteNo="0" devices="tripinfo_f_0.51" vType="DEFAULT_VEHTYPE" speedFactor="1.00" vaporized=""/>
    <tripinfo id="f_1.46" depart="95.00" departLane="4si_0" departPos="5.10" departSpeed="0.00" departDelay="3.00" arrival="241.00" arrivalLane="2o_0" arrivalPos="486.40" arrivalSpeed="9.88" duration="146.00" routeLength="738.21" waitingTime="59.00" waitingCount="6" stopTime="0.00" timeLoss="83.72" rerouteNo="0" devices="tripinfo_f_1.46" vType="DEFAULT_VEHTYPE" speedFactor="1.00" vaporized=""/>
    <tripinfo id="f_0.53" depart="115.00" departLane="3si_0" departPos="5.10" departSpeed="0.00" departDelay="9.00" arrival="241.00" arrivalLane="1o_0" arrivalPos="486.40" arrivalSpeed="10.90" duration="126.00" routeLength="738.21" waitingTime="40.00" waitingCount="4" stopTime="0.00" timeLoss="63.74" rerouteNo="0" devices="tripinfo_f_0.53" vType="DEFAULT_VEHTYPE" speedFactor="1.00" vaporized=""/>
    <tripinfo id="f_1.47" depart="98.00" departLane="4si_0" departPos="5.10" departSpeed="0.00" departDelay="4.00" arrival="244.00" arrivalLane="2o_0" arrivalPos="486.40" arrivalSpeed="9.98" duration="146.00" routeLength="738.21" waitingTime="54.00" waitingCount="4" stopTime="0.00" timeLoss="83.73" rerouteNo="0" devices="tripinfo_f_1.47" vType="DEFAULT_VEHTYPE" speedFactor="1.00" vaporized=""/>
    <tripinfo id="f_0.48" depart="102.00" departLane="3si_0" departPos="5.10" departSpeed="0.00" departDelay="6.00" arrival="244.00" arrivalLane="1o_0" arrivalPos="486.40" arrivalSpeed="10.52" duration="142.00" routeLength="738.21" waitingTime="57.00" waitingCount="4" stopTime="0.00" timeLoss="79.20" rerouteNo="0" devices="tripinfo_f_0.48" vType="DEFAULT_VEHTYPE" speedFactor="1.00" vaporized=""/>
    <tripinfo id="f_1.51" depart="108.00" departLane="4si_0" departPos="5.10" departSpeed="0.00" departDelay="6.00" arrival="246.00" arrivalLane="2o_0" arrivalPos="486.40" arrivalSpeed="10.58" duration="138.00" routeLength="738.21" waitingTime="53.00" waitingCount="6" stopTime="0.00" timeLoss="75.81" rerouteNo="0" devices="tripinfo_f_1.51" vType="DEFAULT_VEHTYPE" speedFactor="1.00" vaporized=""/>
    <tripinfo id="f_0.70" depart="151.00" departLane="3si_0" departPos="5.10" departSpeed="0.00" departDelay="11.00" arrival="246.00" arrivalLane="1o_0" arrivalPos="486.40" arrivalSpeed="10.13" duration="95.00" routeLength="738.21" waitingTime="10.00" waitingCount="3" stopTime="0.00" timeLoss="32.75" rerouteNo="0" devices="tripinfo_f_0.70" vType="DEFAULT_VEHTYPE" speedFactor="1.00" vaporized=""/>
    <tripinfo id="f_0.20" depart="43.00" departLane="3si_0" departPos="5.10" departSpeed="0.00" departDelay="3.00" arrival="249.00" arrivalLane="1o_0" arrivalPos="486.40" arrivalSpeed="11.02" duration="206.00" routeLength="738.21" waitingTime="96.00" waitingCount="7" stopTime="0.00" timeLoss="143.48" rerouteNo="0" devices="tripinfo_f_0.20" vType="DEFAULT_VEHTYPE" speedFactor="1.00" vaporized=""/>
    <tripinfo id="f_1.48" depart="100.00" departLane="4si_0" departPos="5.10" departSpeed="0.00" departDelay="4.00" arrival="249.00" arrivalLane="2o_0" arrivalPos="486.40" arrivalSpeed="10.14" duration="149.00" routeLength="738.21" waitingTime="56.00" waitingCount="7" stopTime="0.00" timeLoss="86.55" rerouteNo="0" devices="tripinfo_f_1.48" vType="DEFAULT_VEHTYPE" speedFactor="1.00" vaporized=""/>
    <tripinfo id="f_1.55" depart="117.00" departLane="4si_0" departPos="5.10" departSpeed="0.00" departDelay="7.00" arrival="251.00" arrivalLane="2o_0" arrivalPos="486.40" arrivalSpeed="10.56" duration="134.00" routeLength="738.21" waitingTime="47.00" waitingCount="6" stopTime="0.00" timeLoss="71.85" rerouteNo="0" devices="tripinfo_f_1.55" vType="DEFAULT_VEHTYPE" speedFactor="1.00" vaporized=""/>
    <tripinfo id="f_0.72" depart="156.00" departLane="3si_0" departPos="5.10" departSpeed="0.00" departDelay="12.00" arrival="252.00" arrivalLane="1o_0" arrivalPos="486.40" arrivalSpeed="9.82" duration="96.00" routeLength="738.21" waitingTime="11.00" waitingCount="5" stopTime="0.00" timeLoss="33.05" rerouteNo="0" devices="tripinfo_f_0.72" vType="DEFAULT_VEHTYPE" speedFactor="1.00" vaporized=""/>
    <tripinfo id="f_1.49" depart="103.00" departLane="4si_0" departPos="5.10" departSpeed="0.00" departDelay="5.00" arrival="253.00" arrivalLane="2o_0" arrivalPos="486.40" arrivalSpeed="10.05" duration="150.00" routeLength="738.21" waitingTime="61.00" waitingCount="6" stopTime="0.00" timeLoss="87.69" rerouteNo="0" devices="tripinfo_f_1.49" vType="DEFAULT_VEHTYPE" speedFactor="1.00" vaporized=""/>
    <tripinfo id="f_0.22" depart="47.00" departLane="3si_0" departPos="5.10" departSpeed="0.00" departDelay="3.00" arrival="254.00" arrivalLane="1o_0" arrivalPos="486.40" arrivalSpeed="10.53" duration="207.00" routeLength="738.21" waitingTime="93.00" waitingCount="6" stopTime="0.00" timeLoss="144.79" rerouteNo="0" devices="tripinfo_f_0.22" vType="DEFAULT_VEHTYPE" speedFactor="1.00" vaporized=""/>