<?xml version="1.0" encoding="UTF-8"?>

<!-- generated on 05/02/13 15:10:07 by SUMO sumo Version 0.17.0
<?xml version="1.0" encoding="UTF-8"?>

<configuration xmlns:xsi="http://www.w3.org/2001/XMLSchema-instance" xsi:noNamespaceSchemaLocation="http://sumo-sim.org/xsd/sumoConfiguration.xsd">

    <input>
        <net-file value="net.net.xml"/>
        <additional-files value="input_routes.rou.xml,input_additional.add.xml,input_additional2.add.xml"/>
    </input>

    <time>
        <begin value="0"/>
        <end value="100"/>
    </time>

    <report>
        <no-duration-log value="true"/>
        <no-step-log value="true"/>
    </report>

    <mesoscopic>
        <mesosim value="true"/>
    </mesoscopic>

</configuration>
-->

<detector>
    <interval begin="0.00" end="10.00" id="3/1to2/1" sampledSeconds="0.00" departed="0" arrived="0" entered="0" left="0"/>
    <interval begin="0.00" end="10.00" id="4/1to3/1" sampledSeconds="13.00" density="13.32" occupancy="3.99" waitingTime="0.00" speed="10.00" departed="2" arrived="0" entered="0" left="0"/>
    <interval begin="10.00" end="20.00" id="3/1to2/1" sampledSeconds="0.00" departed="0" arrived="0" entered="0" left="0"/>
    <interval begin="10.00" end="20.00" id="4/1to3/1" sampledSeconds="6.52" density="6.68" occupancy="2.00" waitingTime="0.00" speed="10.00" departed="0" arrived="0" entered="0" left="2"/>
    <interval begin="20.00" end="30.00" id="3/1to2/1" sampledSeconds="0.00" departed="0" arrived="0" entered="0" left="0"/>
    <interval begin="20.00" end="30.00" id="4/1to3/1" sampledSeconds="0.00" departed="0" arrived="0" entered="0" left="0"/>
    <interval begin="30.00" end="40.00" id="3/1to2/1" sampledSeconds="0.00" departed="0" arrived="0" entered="0" left="0"/>
    <interval begin="30.00" end="40.00" id="4/1to3/1" sampledSeconds="0.00" departed="0" arrived="0" entered="0" left="0"/>
    <interval begin="40.00" end="50.00" id="3/1to2/1" sampledSeconds="14.71" density="15.07" occupancy="4.52" waitingTime="0.00" speed="10.00" departed="0" arrived="0" entered="2" left="1"/>
    <interval begin="40.00" end="50.00" id="4/1to3/1" sampledSeconds="0.00" departed="0" arrived="0" entered="0" left="0"/>
    <interval begin="50.00" end="60.00" id="3/1to2/1" sampledSeconds="4.81" density="4.93" occupancy="1.48" waitingTime="0.00" speed="10.00" departed="0" arrived="0" entered="0" left="1"/>
    <interval begin="50.00" end="60.00" id="4/1to3/1" sampledSeconds="0.00" departed="0" arrived="0" entered="0" left="0"/>
    <interval begin="60.00" end="70.00" id="3/1to2/1" sampledSeconds="0.00" departed="0" arrived="0" entered="0" left="0"/>
    <interval begin="60.00" end="70.00" id="4/1to3/1" sampledSeconds="0.00" departed="0" arrived="0" entered="0" left="0"/>
    <interval begin="70.00" end="80.00" id="3/1to2/1" sampledSeconds="0.00" departed="0" arrived="0" entered="0" left="0"/>
    <interval begin="70.00" end="80.00" id="4/1to3/1" sampledSeconds="0.00" departed="0" arrived="0" entered="0" left="0"/>
    <interval begin="80.00" end="90.00" id="3/1to2/1" sampledSeconds="0.00" departed="0" arrived="0" entered="0" left="0"/>
    <interval begin="80.00" end="90.00" id="4/1to3/1" sampledSeconds="0.00" departed="0" arrived="0" entered="0" left="0"/>
    <interval begin="90.00" end="100.00" id="3/1to2/1" sampledSeconds="0.00" departed="0" arrived="0" entered="0" left="0"/>
    <interval begin="90.00" end="100.00" id="4/1to3/1" sampledSeconds="0.00" departed="0" arrived="0" entered="0" left="0"/>
</detector>
