<?xml version="1.0"?>

<!-- generated on 11/18/10 13:56:13 by SUMO sumo Version dev-SVN-r9369
<?xml version="1.0" encoding="iso-8859-1"?>

<configuration xmlns:xsi="http://www.w3.org/2001/XMLSchema-instance" xsi:noNamespaceSchemaLocation="http://sumo.sf.net/xsd/sumoConfiguration.xsd">

    <input>
        <net-file value="net.net.xml"/>
        <route-files value="input_routes.rou.xml"/>
    </input>

    <output>
        <tripinfo-output value="tripinfos.xml"/>
        <vehroute-output value="vehroutes.xml"/>
    </output>

    <report>
        <no-duration-log value="true"/>
        <no-step-log value="true"/>
    </report>

</configuration>
-->

<tripinfos>
    <tripinfo id="0" depart="0.00" departLane="beg_0" departPos="0.00" departSpeed="0.00" departDelay="0.00" arrival="30.00" arrivalLane="beg_0" arrivalPos="497.77" arrivalSpeed="1.91" duration="30.00" routeLength="497.77" waitSteps="0" rerouteNo="0" devices="vehroute_0 tripinfo_0" vtype="DEFAULT_VEHTYPE" vaporized="">
    </tripinfo>
</tripinfos>
