<?xml version="1.0"?>

<!-- generated on Tue Jan 15 13:14:52 2013 by SUMO sumo Version dev-SVN-r13186
<?xml version="1.0" encoding="UTF-8"?>

<configuration xmlns:xsi="http://www.w3.org/2001/XMLSchema-instance" xsi:noNamespaceSchemaLocation="http://sumo.sf.net/xsd/sumoConfiguration.xsd">

    <input>
        <net-file value="net.net.xml"/>
        <route-files value="input_routes.rou.xml"/>
    </input>

    <output>
        <tripinfo-output value="tripinfos.xml"/>
        <vehroute-output value="vehroutes.xml"/>
    </output>

    <report>
        <no-duration-log value="true"/>
        <no-step-log value="true"/>
    </report>

</configuration>
-->

<tripinfos>
    <tripinfo id="0" depart="0.00" departLane="beg_0" departPos="0.00" departSpeed="0.00" departDelay="0.00" arrival="25.00" arrivalLane="beg_0" arrivalPos="497.55" arrivalSpeed="26.58" duration="25.00" routeLength="497.55" waitSteps="0" rerouteNo="0" devices="vehroute_0 tripinfo_0" vType="DEFAULT_VEHTYPE" vaporized=""/>
</tripinfos>
