<?xml version="1.0"?>

<!-- generated on 08/23/10 14:37:25 by SUMO sumo Version dev-SVN-r8970
<configuration>

    <input>
        <net-file value="net.net.xml"/>
        <route-files value="input_routes.rou.xml"/>
    </input>

    <output>
        <tripinfo-output value="tripinfos.xml"/>
        <vehroute-output value="vehroutes.xml"/>
    </output>

    <report>
        <no-duration-log value="true"/>
        <no-step-log value="true"/>
    </report>

    <mesoscopic>
        <mesosim value="true"/>
    </mesoscopic>

</configuration>
-->

<tripinfos>
    <tripinfo id="0" depart="0.00" departLane="" departPos="0.00" departSpeed="0.00" departDelay="0.00" arrival="18.00" arrivalLane="" arrivalPos="" arrivalSpeed="" duration="18.00" routeLength="498.55" waitSteps="0" rerouteNo="0" devices="tripinfo_0" vtype="DEFAULT_VEHTYPE" vaporized=""/>
</tripinfos>
