<?xml version="1.0" encoding="UTF-8"?>

<!-- generated on Wed Jul 10 08:00:03 2019 by Eclipse SUMO Version v1_2_0+0997-de6cbe2
This data file and the accompanying materials
are made available under the terms of the Eclipse Public License v2.0
which accompanies this distribution, and is available at
http://www.eclipse.org/legal/epl-v20.html
SPDX-License-Identifier: EPL-2.0
<configuration xmlns:xsi="http://www.w3.org/2001/XMLSchema-instance" xsi:noNamespaceSchemaLocation="http://sumo.dlr.de/xsd/sumoConfiguration.xsd">

    <input>
        <net-file value="net.net.xml"/>
        <route-files value="input_routes.rou.xml"/>
        <load-state value="input_meso_state.xml"/>
    </input>

    <output>
        <write-license value="true"/>
        <tripinfo-output value="tripinfos.xml"/>
    </output>

    <time>
        <begin value="10"/>
    </time>

    <processing>
        <default.speeddev value="0"/>
        <pedestrian.model value="nonInteracting"/>
    </processing>

    <report>
        <verbose value="true"/>
        <xml-validation value="never"/>
        <duration-log.disable value="true"/>
        <no-step-log value="true"/>
    </report>

    <mesoscopic>
        <mesosim value="true"/>
    </mesoscopic>

</configuration>
-->

<tripinfos xmlns:xsi="http://www.w3.org/2001/XMLSchema-instance" xsi:noNamespaceSchemaLocation="http://sumo.dlr.de/xsd/tripinfo_file.xsd">
    <tripinfo id="flowNumber.0" depart="0.00" departLane="" departPos="0.00" departSpeed="1.00" departDelay="0.00" arrival="29.00" arrivalLane="" arrivalPos="100.00" arrivalSpeed="13.89" duration="29.00" routeLength="307.00" waitingTime="0.00" waitingCount="0" stopTime="0.00" timeLoss="0.00" rerouteNo="0" devices="tripinfo_flowNumber.0" vType="t0" speedFactor="1.00" vaporized=""/>
    <tripinfo id="flowFromTo.0" depart="7.00" departLane="" departPos="0.00" departSpeed="1.00" departDelay="7.00" arrival="36.00" arrivalLane="" arrivalPos="100.00" arrivalSpeed="13.89" duration="29.00" routeLength="307.00" waitingTime="0.00" waitingCount="0" stopTime="0.00" timeLoss="0.00" rerouteNo="0" devices="tripinfo_flowFromTo.0" vType="t0" speedFactor="1.00" vaporized=""/>
    <tripinfo id="flowPeriod.0" depart="14.00" departLane="" departPos="0.00" departSpeed="1.00" departDelay="9.00" arrival="43.00" arrivalLane="" arrivalPos="100.00" arrivalSpeed="13.89" duration="29.00" routeLength="307.00" waitingTime="0.00" waitingCount="0" stopTime="0.00" timeLoss="0.00" rerouteNo="0" devices="tripinfo_flowPeriod.0" vType="t0" speedFactor="1.00" vaporized=""/>
    <tripinfo id="flowNumber.1" depart="21.00" departLane="" departPos="0.00" departSpeed="1.00" departDelay="13.00" arrival="50.00" arrivalLane="" arrivalPos="100.00" arrivalSpeed="13.89" duration="29.00" routeLength="307.00" waitingTime="0.00" waitingCount="0" stopTime="0.00" timeLoss="0.00" rerouteNo="0" devices="tripinfo_flowNumber.1" vType="t0" speedFactor="1.00" vaporized=""/>
    <tripinfo id="flowPeriod.1" depart="28.00" departLane="" departPos="0.00" departSpeed="1.00" departDelay="18.00" arrival="57.00" arrivalLane="" arrivalPos="100.00" arrivalSpeed="13.89" duration="29.00" routeLength="307.00" waitingTime="0.00" waitingCount="0" stopTime="0.00" timeLoss="0.00" rerouteNo="0" devices="tripinfo_flowPeriod.1" vType="t0" speedFactor="1.00" vaporized=""/>
    <tripinfo id="flowPeriod.2" depart="35.00" departLane="" departPos="0.00" departSpeed="1.00" departDelay="20.00" arrival="64.00" arrivalLane="" arrivalPos="100.00" arrivalSpeed="13.89" duration="29.00" routeLength="307.00" waitingTime="0.00" waitingCount="0" stopTime="0.00" timeLoss="0.00" rerouteNo="0" devices="tripinfo_flowPeriod.2" vType="t0" speedFactor="1.00" vaporized=""/>
    <tripinfo id="flowNumber.2" depart="42.00" departLane="" departPos="0.00" departSpeed="1.00" departDelay="26.00" arrival="71.00" arrivalLane="" arrivalPos="100.00" arrivalSpeed="13.89" duration="29.00" routeLength="307.00" waitingTime="0.00" waitingCount="0" stopTime="0.00" timeLoss="0.00" rerouteNo="0" devices="tripinfo_flowNumber.2" vType="t0" speedFactor="1.00" vaporized=""/>
    <tripinfo id="flowPeriod.3" depart="49.00" departLane="" departPos="0.00" departSpeed="1.00" departDelay="29.00" arrival="78.00" arrivalLane="" arrivalPos="100.00" arrivalSpeed="13.89" duration="29.00" routeLength="307.00" waitingTime="0.00" waitingCount="0" stopTime="0.00" timeLoss="0.00" rerouteNo="0" devices="tripinfo_flowPeriod.3" vType="t0" speedFactor="1.00" vaporized=""/>
    <tripinfo id="flowProb.0" depart="56.00" departLane="" departPos="0.00" departSpeed="1.00" departDelay="34.00" arrival="85.00" arrivalLane="" arrivalPos="100.00" arrivalSpeed="13.89" duration="29.00" routeLength="307.00" waitingTime="0.00" waitingCount="0" stopTime="0.00" timeLoss="0.00" rerouteNo="0" devices="tripinfo_flowProb.0" vType="t0" speedFactor="1.00" vaporized=""/>
    <tripinfo id="flowNumber.3" depart="63.00" departLane="" departPos="0.00" departSpeed="1.00" departDelay="39.00" arrival="92.00" arrivalLane="" arrivalPos="100.00" arrivalSpeed="13.89" duration="29.00" routeLength="307.00" waitingTime="0.00" waitingCount="0" stopTime="0.00" timeLoss="0.00" rerouteNo="0" devices="tripinfo_flowNumber.3" vType="t0" speedFactor="1.00" vaporized=""/>
    <tripinfo id="flowPeriod.4" depart="70.00" departLane="" departPos="0.00" departSpeed="1.00" departDelay="45.00" arrival="99.00" arrivalLane="" arrivalPos="100.00" arrivalSpeed="13.89" duration="29.00" routeLength="307.00" waitingTime="0.00" waitingCount="0" stopTime="0.00" timeLoss="0.00" rerouteNo="0" devices="tripinfo_flowPeriod.4" vType="t0" speedFactor="1.00" vaporized=""/>
    <tripinfo id="flowProb.1" depart="77.00" departLane="" departPos="0.00" departSpeed="1.00" departDelay="52.00" arrival="106.00" arrivalLane="" arrivalPos="100.00" arrivalSpeed="13.89" duration="29.00" routeLength="307.00" waitingTime="0.00" waitingCount="0" stopTime="0.00" timeLoss="0.00" rerouteNo="0" devices="tripinfo_flowProb.1" vType="t0" speedFactor="1.00" vaporized=""/>
    <tripinfo id="flowPeriod.5" depart="84.00" departLane="" departPos="0.00" departSpeed="1.00" departDelay="54.00" arrival="113.00" arrivalLane="" arrivalPos="100.00" arrivalSpeed="13.89" duration="29.00" routeLength="307.00" waitingTime="0.00" waitingCount="0" stopTime="0.00" timeLoss="0.00" rerouteNo="0" devices="tripinfo_flowPeriod.5" vType="t0" speedFactor="1.00" vaporized=""/>
    <tripinfo id="flowProb.2" depart="91.00" departLane="" departPos="0.00" departSpeed="1.00" departDelay="61.00" arrival="120.00" arrivalLane="" arrivalPos="100.00" arrivalSpeed="13.89" duration="29.00" routeLength="307.00" waitingTime="0.00" waitingCount="0" stopTime="0.00" timeLoss="0.00" rerouteNo="0" devices="tripinfo_flowProb.2" vType="t0" speedFactor="1.00" vaporized=""/>
    <tripinfo id="flowNumber.4" depart="98.00" departLane="" departPos="0.00" departSpeed="1.00" departDelay="66.00" arrival="127.00" arrivalLane="" arrivalPos="100.00" arrivalSpeed="13.89" duration="29.00" routeLength="307.00" waitingTime="0.00" waitingCount="0" stopTime="0.00" timeLoss="0.00" rerouteNo="0" devices="tripinfo_flowNumber.4" vType="t0" speedFactor="1.00" vaporized=""/>
    <tripinfo id="flowPeriod.6" depart="105.00" departLane="" departPos="0.00" departSpeed="1.00" departDelay="70.00" arrival="134.00" arrivalLane="" arrivalPos="100.00" arrivalSpeed="13.89" duration="29.00" routeLength="307.00" waitingTime="0.00" waitingCount="0" stopTime="0.00" timeLoss="0.00" rerouteNo="0" devices="tripinfo_flowPeriod.6" vType="t0" speedFactor="1.00" vaporized=""/>
    <tripinfo id="flowProb.3" depart="112.00" departLane="" departPos="0.00" departSpeed="1.00" departDelay="76.00" arrival="141.00" arrivalLane="" arrivalPos="100.00" arrivalSpeed="13.89" duration="29.00" routeLength="307.00" waitingTime="0.00" waitingCount="0" stopTime="0.00" timeLoss="0.00" rerouteNo="0" devices="tripinfo_flowProb.3" vType="t0" speedFactor="1.00" vaporized=""/>
    <tripinfo id="flowPeriod.7" depart="119.00" departLane="" departPos="0.00" departSpeed="1.00" departDelay="79.00" arrival="148.00" arrivalLane="" arrivalPos="100.00" arrivalSpeed="13.89" duration="29.00" routeLength="307.00" waitingTime="0.00" waitingCount="0" stopTime="0.00" timeLoss="0.00" rerouteNo="0" devices="tripinfo_flowPeriod.7" vType="t0" speedFactor="1.00" vaporized=""/>
    <tripinfo id="flowProb.4" depart="126.00" departLane="" departPos="0.00" departSpeed="1.00" departDelay="86.00" arrival="155.00" arrivalLane="" arrivalPos="100.00" arrivalSpeed="13.89" duration="29.00" routeLength="307.00" waitingTime="0.00" waitingCount="0" stopTime="0.00" timeLoss="0.00" rerouteNo="0" devices="tripinfo_flowProb.4" vType="t0" speedFactor="1.00" vaporized=""/>
    <tripinfo id="flowPeriod.8" depart="133.00" departLane="" departPos="0.00" departSpeed="1.00" departDelay="88.00" arrival="162.00" arrivalLane="" arrivalPos="100.00" arrivalSpeed="13.89" duration="29.00" routeLength="307.00" waitingTime="0.00" waitingCount="0" stopTime="0.00" timeLoss="0.00" rerouteNo="0" devices="tripinfo_flowPeriod.8" vType="t0" speedFactor="1.00" vaporized=""/>
    <tripinfo id="flowPeriod.9" depart="140.00" departLane="" departPos="0.00" departSpeed="1.00" departDelay="90.00" arrival="169.00" arrivalLane="" arrivalPos="100.00" arrivalSpeed="13.89" duration="29.00" routeLength="307.00" waitingTime="0.00" waitingCount="0" stopTime="0.00" timeLoss="0.00" rerouteNo="0" devices="tripinfo_flowPeriod.9" vType="t0" speedFactor="1.00" vaporized=""/>
    <tripinfo id="flowProb.5" depart="147.00" departLane="" departPos="0.00" departSpeed="1.00" departDelay="97.00" arrival="176.00" arrivalLane="" arrivalPos="100.00" arrivalSpeed="13.89" duration="29.00" routeLength="307.00" waitingTime="0.00" waitingCount="0" stopTime="0.00" timeLoss="0.00" rerouteNo="0" devices="tripinfo_flowProb.5" vType="t0" speedFactor="1.00" vaporized=""/>
    <tripinfo id="flowProb.6" depart="154.00" departLane="" departPos="0.00" departSpeed="1.00" departDelay="99.00" arrival="183.00" arrivalLane="" arrivalPos="100.00" arrivalSpeed="13.89" duration="29.00" routeLength="307.00" waitingTime="0.00" waitingCount="0" stopTime="0.00" timeLoss="0.00" rerouteNo="0" devices="tripinfo_flowProb.6" vType="t0" speedFactor="1.00" vaporized=""/>
    <tripinfo id="flowProb.7" depart="161.00" departLane="" departPos="0.00" departSpeed="1.00" departDelay="93.00" arrival="190.00" arrivalLane="" arrivalPos="100.00" arrivalSpeed="13.89" duration="29.00" routeLength="307.00" waitingTime="0.00" waitingCount="0" stopTime="0.00" timeLoss="0.00" rerouteNo="0" devices="tripinfo_flowProb.7" vType="t0" speedFactor="1.00" vaporized=""/>
    <tripinfo id="flowProb.8" depart="168.00" departLane="" departPos="0.00" departSpeed="1.00" departDelay="85.00" arrival="197.00" arrivalLane="" arrivalPos="100.00" arrivalSpeed="13.89" duration="29.00" routeLength="307.00" waitingTime="0.00" waitingCount="0" stopTime="0.00" timeLoss="0.00" rerouteNo="0" devices="tripinfo_flowProb.8" vType="t0" speedFactor="1.00" vaporized=""/>
    <tripinfo id="flowProb.9" depart="175.00" departLane="" departPos="0.00" departSpeed="1.00" departDelay="88.00" arrival="204.00" arrivalLane="" arrivalPos="100.00" arrivalSpeed="13.89" duration="29.00" routeLength="307.00" waitingTime="0.00" waitingCount="0" stopTime="0.00" timeLoss="0.00" rerouteNo="0" devices="tripinfo_flowProb.9" vType="t0" speedFactor="1.00" vaporized=""/>
    <tripinfo id="flowProb.10" depart="182.00" departLane="" departPos="0.00" departSpeed="1.00" departDelay="90.00" arrival="211.00" arrivalLane="" arrivalPos="100.00" arrivalSpeed="13.89" duration="29.00" routeLength="307.00" waitingTime="0.00" waitingCount="0" stopTime="0.00" timeLoss="0.00" rerouteNo="0" devices="tripinfo_flowProb.10" vType="t0" speedFactor="1.00" vaporized=""/>
    <tripinfo id="flowProb.11" depart="189.00" departLane="" departPos="0.00" departSpeed="1.00" departDelay="93.00" arrival="218.00" arrivalLane="" arrivalPos="100.00" arrivalSpeed="13.89" duration="29.00" routeLength="307.00" waitingTime="0.00" waitingCount="0" stopTime="0.00" timeLoss="0.00" rerouteNo="0" devices="tripinfo_flowProb.11" vType="t0" speedFactor="1.00" vaporized=""/>
    <tripinfo id="flowProb.12" depart="196.00" departLane="" departPos="0.00" departSpeed="1.00" departDelay="99.00" arrival="225.00" arrivalLane="" arrivalPos="100.00" arrivalSpeed="13.89" duration="29.00" routeLength="307.00" waitingTime="0.00" waitingCount="0" stopTime="0.00" timeLoss="0.00" rerouteNo="0" devices="tripinfo_flowProb.12" vType="t0" speedFactor="1.00" vaporized=""/>
</tripinfos>
