<?xml version="1.0" encoding="UTF-8"?>

<!-- generated on Mon 09 Dec 2013 01:44:48 PM CET by SUMO gui Version dev-SVN-r15279
<?xml version="1.0" encoding="UTF-8"?>

<configuration xmlns:xsi="http://www.w3.org/2001/XMLSchema-instance" xsi:noNamespaceSchemaLocation="http://sumo-sim.org/xsd/sumo-gui.exeConfiguration.xsd">

    <input>
        <net-file value="input_net.net.xml"/>
        <route-files value="input_routes.rou.xml"/>
    </input>

    <output>
        <netstate-dump value="state.xml"/>
        <tripinfo-output value="tripinfo.xml"/>
        <save-state.prefix value="state"/>
    </output>

    <time>
        <begin value="0"/>
        <end value="100"/>
    </time>

    <report>
        <no-duration-log value="true"/>
        <no-step-log value="true"/>
    </report>

    <traci_server>
        <remote-port value="8813"/>
    </traci_server>

    <gui_only>
        <quit-on-end value="true"/>
        <start value="true"/>
    </gui_only>

</configuration>
-->

<netstate xmlns:xsi="http://www.w3.org/2001/XMLSchema-instance" xsi:noNamespaceSchemaLocation="http://sumo-sim.org/xsd/netstate_file.xsd">
    <timestep time="0.00">
        <edge id="2fi">
            <lane id="2fi_0">
                <vehicle id="horiz" pos="5.10" speed="0.00"/>
            </lane>
        </edge>
    </timestep>
    <timestep time="1.00">
        <edge id="2fi">
            <lane id="2fi_0">
                <vehicle id="horiz" pos="6.54" speed="1.44"/>
            </lane>
        </edge>
    </timestep>
    <timestep time="2.00">
        <edge id="2fi">
            <lane id="2fi_0">
                <vehicle id="horiz" pos="9.66" speed="3.12"/>
            </lane>
        </edge>
    </timestep>
    <timestep time="3.00">
        <edge id="2fi">
            <lane id="2fi_0">
                <vehicle id="horiz" pos="15.31" speed="5.66"/>
            </lane>
        </edge>
    </timestep>
    <timestep time="4.00">
        <edge id="2fi">
            <lane id="2fi_0">
                <vehicle id="horiz" pos="22.93" speed="7.62"/>
            </lane>
        </edge>
    </timestep>
    <timestep time="5.00">
        <edge id="2fi">
            <lane id="2fi_0">
                <vehicle id="horiz" pos="32.38" speed="9.45"/>
            </lane>
        </edge>
    </timestep>
    <timestep time="6.00">
        <edge id="2fi">
            <lane id="2fi_0">
                <vehicle id="horiz" pos="43.43" speed="11.05"/>
            </lane>
        </edge>
    </timestep>
    <timestep time="7.00">
        <edge id="2fi">
            <lane id="2fi_0">
                <vehicle id="horiz" pos="53.58" speed="10.14"/>
            </lane>
        </edge>
    </timestep>
    <timestep time="8.00">
        <edge id="2fi">
            <lane id="2fi_0">
                <vehicle id="horiz" pos="64.37" speed="10.79"/>
            </lane>
        </edge>
    </timestep>
    <timestep time="9.00">
        <edge id="2fi">
            <lane id="2fi_0">
                <vehicle id="horiz" pos="74.77" speed="10.40"/>
            </lane>
        </edge>
    </timestep>
    <timestep time="10.00">
        <edge id="2fi">
            <lane id="2fi_0">
                <vehicle id="horiz" pos="84.91" speed="10.14"/>
            </lane>
        </edge>
    </timestep>
    <timestep time="11.00">
        <edge id="2fi">
            <lane id="2fi_0">
                <vehicle id="horiz" pos="96.01" speed="11.10"/>
            </lane>
        </edge>
    </timestep>
    <timestep time="12.00">
        <edge id="2fi">
            <lane id="2fi_0">
                <vehicle id="horiz" pos="106.25" speed="10.24"/>
            </lane>
        </edge>
    </timestep>
    <timestep time="13.00">
        <edge id="2fi">
            <lane id="2fi_0">
                <vehicle id="horiz" pos="116.75" speed="10.50"/>
            </lane>
        </edge>
    </timestep>
    <timestep time="14.00">
        <edge id="2fi">
            <lane id="2fi_0">
                <vehicle id="horiz" pos="127.27" speed="10.52"/>
            </lane>
        </edge>
    </timestep>
    <timestep time="15.00">
        <edge id="2fi">
            <lane id="2fi_0">
                <vehicle id="horiz" pos="137.65" speed="10.37"/>
            </lane>
        </edge>
    </timestep>
    <timestep time="16.00">
        <edge id="2fi">
            <lane id="2fi_0">
                <vehicle id="horiz" pos="148.41" speed="10.77"/>
            </lane>
        </edge>
    </timestep>
    <timestep time="17.00">
        <edge id="2fi">
            <lane id="2fi_0">
                <vehicle id="horiz" pos="159.44" speed="11.03"/>
            </lane>
        </edge>
    </timestep>
    <timestep time="18.00">
        <edge id="2fi">
            <lane id="2fi_0">
                <vehicle id="horiz" pos="169.42" speed="9.97"/>
            </lane>
        </edge>
    </timestep>
    <timestep time="19.00">
        <edge id="2fi">
            <lane id="2fi_0">
                <vehicle id="horiz" pos="180.11" speed="10.69"/>
            </lane>
        </edge>
    </timestep>
    <timestep time="20.00">
        <edge id="2fi">
            <lane id="2fi_0">
                <vehicle id="horiz" pos="190.33" speed="10.22"/>
            </lane>
        </edge>
    </timestep>
    <timestep time="21.00">
        <edge id="2fi">
            <lane id="2fi_0">
                <vehicle id="horiz" pos="201.38" speed="11.05"/>
            </lane>
        </edge>
    </timestep>
    <timestep time="22.00">
        <edge id="2fi">
            <lane id="2fi_0">
                <vehicle id="horiz" pos="211.82" speed="10.44"/>
            </lane>
        </edge>
    </timestep>
    <timestep time="23.00">
        <edge id="2fi">
            <lane id="2fi_0">
                <vehicle id="horiz" pos="222.53" speed="10.71"/>
            </lane>
        </edge>
    </timestep>
    <timestep time="24.00">
        <edge id="2fi">
            <lane id="2fi_0">
                <vehicle id="horiz" pos="232.82" speed="10.29"/>
            </lane>
        </edge>
    </timestep>
    <timestep time="25.00">
        <edge id="2fi">
            <lane id="2fi_0">
                <vehicle id="horiz" pos="242.71" speed="9.89"/>
            </lane>
        </edge>
    </timestep>
    <timestep time="26.00">
        <edge id="2si">
            <lane id="2si_0"/>
            <lane id="2si_1">
                <vehicle id="horiz" pos="4.25" speed="10.04"/>
            </lane>
            <lane id="2si_2"/>
        </edge>
    </timestep>
    <timestep time="27.00">
        <edge id="2si">
            <lane id="2si_0"/>
            <lane id="2si_1">
                <vehicle id="horiz" pos="15.73" speed="11.48"/>
            </lane>
            <lane id="2si_2"/>
        </edge>
    </timestep>
    <timestep time="28.00">
        <edge id="2si">
            <lane id="2si_0"/>
            <lane id="2si_1">
                <vehicle id="horiz" pos="29.11" speed="13.37"/>
            </lane>
            <lane id="2si_2"/>
        </edge>
    </timestep>
    <timestep time="29.00">
        <edge id="2si">
            <lane id="2si_0"/>
            <lane id="2si_1">
                <vehicle id="horiz" pos="42.29" speed="13.18"/>
            </lane>
            <lane id="2si_2"/>
        </edge>
    </timestep>
    <timestep time="30.00">
        <edge id="2si">
            <lane id="2si_0"/>
            <lane id="2si_1">
                <vehicle id="horiz" pos="55.87" speed="13.58"/>
            </lane>
            <lane id="2si_2"/>
        </edge>
    </timestep>
    <timestep time="31.00">
        <edge id="2si">
            <lane id="2si_0"/>
            <lane id="2si_1">
                <vehicle id="horiz" pos="69.72" speed="13.85"/>
            </lane>
            <lane id="2si_2"/>
        </edge>
    </timestep>
    <timestep time="32.00">
        <edge id="2si">
            <lane id="2si_0"/>
            <lane id="2si_1">
                <vehicle id="horiz" pos="83.22" speed="13.50"/>
            </lane>
            <lane id="2si_2"/>
        </edge>
    </timestep>
    <timestep time="33.00">
        <edge id="2si">
            <lane id="2si_0"/>
            <lane id="2si_1">
                <vehicle id="horiz" pos="96.11" speed="12.90"/>
            </lane>
            <lane id="2si_2"/>
        </edge>
    </timestep>
    <timestep time="34.00">
        <edge id="2si">
            <lane id="2si_0"/>
            <lane id="2si_1">
                <vehicle id="horiz" pos="109.80" speed="13.68"/>
            </lane>
            <lane id="2si_2"/>
        </edge>
    </timestep>
    <timestep time="35.00">
        <edge id="2si">
            <lane id="2si_0"/>
            <lane id="2si_1">
                <vehicle id="horiz" pos="122.44" speed="12.65"/>
            </lane>
            <lane id="2si_2"/>
        </edge>
    </timestep>
    <timestep time="36.00">
        <edge id="2si">
            <lane id="2si_0"/>
            <lane id="2si_1">
                <vehicle id="horiz" pos="136.29" speed="13.85"/>
            </lane>
            <lane id="2si_2"/>
        </edge>
    </timestep>
    <timestep time="37.00">
        <edge id="2si">
            <lane id="2si_0"/>
            <lane id="2si_1">
                <vehicle id="horiz" pos="149.29" speed="13.00"/>
            </lane>
            <lane id="2si_2"/>
        </edge>
    </timestep>
    <timestep time="38.00">
        <edge id="2si">
            <lane id="2si_0"/>
            <lane id="2si_1">
                <vehicle id="horiz" pos="162.75" speed="13.46"/>
            </lane>
            <lane id="2si_2"/>
        </edge>
    </timestep>
    <timestep time="39.00">
        <edge id="2si">
            <lane id="2si_0"/>
            <lane id="2si_1">
                <vehicle id="horiz" pos="176.47" speed="13.72"/>
            </lane>
            <lane id="2si_2"/>
        </edge>
    </timestep>
    <timestep time="40.00">
        <edge id="2si">
            <lane id="2si_0"/>
            <lane id="2si_1">
                <vehicle id="horiz" pos="190.20" speed="13.73"/>
            </lane>
            <lane id="2si_2"/>
        </edge>
    </timestep>
    <timestep time="41.00">
        <edge id="2si">
            <lane id="2si_0"/>
            <lane id="2si_1">
                <vehicle id="horiz" pos="203.56" speed="13.36"/>
            </lane>
            <lane id="2si_2"/>
        </edge>
    </timestep>
    <timestep time="42.00">
        <edge id="2si">
            <lane id="2si_0"/>
            <lane id="2si_1">
                <vehicle id="horiz" pos="216.19" speed="12.64"/>
            </lane>
            <lane id="2si_2"/>
        </edge>
    </timestep>
    <timestep time="43.00">
        <edge id="2si">
            <lane id="2si_0"/>
            <lane id="2si_1">
                <vehicle id="horiz" pos="226.50" speed="10.31"/>
            </lane>
            <lane id="2si_2"/>
        </edge>
    </timestep>
    <timestep time="44.00">
        <edge id="2si">
            <lane id="2si_0"/>
            <lane id="2si_1">
                <vehicle id="horiz" pos="232.53" speed="6.03"/>
            </lane>
            <lane id="2si_2"/>
        </edge>
    </timestep>
    <timestep time="45.00">
        <edge id="1o">
            <lane id="1o_0">
                <vehicle id="horiz" pos="3.80" speed="8.42"/>
            </lane>
        </edge>
    </timestep>
    <timestep time="46.00">
        <edge id="1o">
            <lane id="1o_0">
                <vehicle id="horiz" pos="14.07" speed="10.27"/>
            </lane>
        </edge>
    </timestep>
    <timestep time="47.00">
        <edge id="1o">
            <lane id="1o_0">
                <vehicle id="horiz" pos="24.87" speed="10.80"/>
            </lane>
        </edge>
    </timestep>
    <timestep time="48.00">
        <edge id="1o">
            <lane id="1o_0">
                <vehicle id="horiz" pos="34.92" speed="10.05"/>
            </lane>
        </edge>
    </timestep>
    <timestep time="49.00">
        <edge id="1o">
            <lane id="1o_0">
                <vehicle id="horiz" pos="45.92" speed="10.99"/>
            </lane>
        </edge>
    </timestep>
    <timestep time="50.00">
        <edge id="1o">
            <lane id="1o_0">
                <vehicle id="horiz" pos="56.16" speed="10.24"/>
            </lane>
        </edge>
    </timestep>
    <timestep time="51.00">
        <edge id="1o">
            <lane id="1o_0">
                <vehicle id="horiz" pos="66.34" speed="10.18"/>
            </lane>
        </edge>
    </timestep>
    <timestep time="52.00">
        <edge id="1o">
            <lane id="1o_0">
                <vehicle id="horiz" pos="76.67" speed="10.33"/>
            </lane>
        </edge>
    </timestep>
    <timestep time="53.00">
        <edge id="1o">
            <lane id="1o_0">
                <vehicle id="horiz" pos="86.89" speed="10.21"/>
            </lane>
        </edge>
    </timestep>
    <timestep time="54.00">
        <edge id="1o">
            <lane id="1o_0">
                <vehicle id="horiz" pos="96.78" speed="9.89"/>
            </lane>
        </edge>
    </timestep>
    <timestep time="55.00">
        <edge id="1o">
            <lane id="1o_0">
                <vehicle id="horiz" pos="106.64" speed="9.86"/>
            </lane>
        </edge>
    </timestep>
    <timestep time="56.00">
        <edge id="1o">
            <lane id="1o_0">
                <vehicle id="horiz" pos="117.35" speed="10.71"/>
            </lane>
        </edge>
    </timestep>
    <timestep time="57.00">
        <edge id="1o">
            <lane id="1o_0">
                <vehicle id="horiz" pos="127.82" speed="10.47"/>
            </lane>
        </edge>
    </timestep>
    <timestep time="58.00">
        <edge id="1o">
            <lane id="1o_0">
                <vehicle id="horiz" pos="138.18" speed="10.36"/>
            </lane>
        </edge>
    </timestep>
    <timestep time="59.00">
        <edge id="1o">
            <lane id="1o_0">
                <vehicle id="horiz" pos="149.07" speed="10.89"/>
            </lane>
        </edge>
    </timestep>
    <timestep time="60.00">
        <edge id="1o">
            <lane id="1o_0">
                <vehicle id="horiz" pos="158.94" speed="9.87"/>
            </lane>
        </edge>
    </timestep>
    <timestep time="61.00">
        <edge id="1o">
            <lane id="1o_0">
                <vehicle id="horiz" pos="169.81" speed="10.87"/>
            </lane>
        </edge>
    </timestep>
    <timestep time="62.00">
        <edge id="1o">
            <lane id="1o_0">
                <vehicle id="horiz" pos="180.08" speed="10.28"/>
            </lane>
        </edge>
    </timestep>
    <timestep time="63.00">
        <edge id="1o">
            <lane id="1o_0">
                <vehicle id="horiz" pos="191.00" speed="10.91"/>
            </lane>
        </edge>
    </timestep>
    <timestep time="64.00">
        <edge id="1o">
            <lane id="1o_0">
                <vehicle id="horiz" pos="202.07" speed="11.07"/>
            </lane>
        </edge>
    </timestep>
    <timestep time="65.00">
        <edge id="1o">
            <lane id="1o_0">
                <vehicle id="horiz" pos="212.82" speed="10.75"/>
            </lane>
        </edge>
    </timestep>
    <timestep time="66.00">
        <edge id="1o">
            <lane id="1o_0">
                <vehicle id="horiz" pos="223.22" speed="10.40"/>
            </lane>
        </edge>
    </timestep>
    <timestep time="67.00">
        <edge id="1o">
            <lane id="1o_0">
                <vehicle id="horiz" pos="233.12" speed="9.90"/>
            </lane>
        </edge>
    </timestep>
    <timestep time="68.00">
        <edge id="1o">
            <lane id="1o_0">
                <vehicle id="horiz" pos="244.14" speed="11.02"/>
            </lane>
        </edge>
    </timestep>
    <timestep time="69.00">
        <edge id="1o">
            <lane id="1o_0">
                <vehicle id="horiz" pos="255.02" speed="10.88"/>
            </lane>
        </edge>
    </timestep>
    <timestep time="70.00">
        <edge id="1o">
            <lane id="1o_0">
                <vehicle id="horiz" pos="264.84" speed="9.82"/>
            </lane>
        </edge>
    </timestep>
    <timestep time="71.00">
        <edge id="1o">
            <lane id="1o_0">
                <vehicle id="horiz" pos="275.54" speed="10.70"/>
            </lane>
        </edge>
    </timestep>
    <timestep time="72.00">
        <edge id="1o">
            <lane id="1o_0">
                <vehicle id="horiz" pos="286.21" speed="10.67"/>
            </lane>
        </edge>
    </timestep>
    <timestep time="73.00">
        <edge id="1o">
            <lane id="1o_0">
                <vehicle id="horiz" pos="297.21" speed="11.00"/>
            </lane>
        </edge>
    </timestep>
    <timestep time="74.00">
        <edge id="1o">
            <lane id="1o_0">
                <vehicle id="horiz" pos="307.58" speed="10.37"/>
            </lane>
        </edge>
    </timestep>
    <timestep time="75.00">
        <edge id="1o">
            <lane id="1o_0">
                <vehicle id="horiz" pos="318.42" speed="10.84"/>
            </lane>
        </edge>
    </timestep>
    <timestep time="76.00">
        <edge id="1o">
            <lane id="1o_0">
                <vehicle id="horiz" pos="329.30" speed="10.88"/>
            </lane>
        </edge>
    </timestep>
    <timestep time="77.00">
        <edge id="1o">
            <lane id="1o_0">
                <vehicle id="horiz" pos="340.35" speed="11.05"/>
            </lane>
        </edge>
    </timestep>
    <timestep time="78.00">
        <edge id="1o">
            <lane id="1o_0">
                <vehicle id="horiz" pos="351.35" speed="11.01"/>
            </lane>
        </edge>
    </timestep>
    <timestep time="79.00">
        <edge id="1o">
            <lane id="1o_0">
                <vehicle id="horiz" pos="361.53" speed="10.17"/>
            </lane>
        </edge>
    </timestep>
    <timestep time="80.00">
        <edge id="1o">
            <lane id="1o_0">
                <vehicle id="horiz" pos="372.18" speed="10.65"/>
            </lane>
        </edge>
    </timestep>
    <timestep time="81.00">
        <edge id="1o">
            <lane id="1o_0">
                <vehicle id="horiz" pos="382.91" speed="10.73"/>
            </lane>
        </edge>
    </timestep>
    <timestep time="82.00">
        <edge id="1o">
            <lane id="1o_0">
                <vehicle id="horiz" pos="393.75" speed="10.83"/>
            </lane>
        </edge>
    </timestep>
    <timestep time="83.00">
        <edge id="1o">
            <lane id="1o_0">
                <vehicle id="horiz" pos="403.97" speed="10.23"/>
            </lane>
        </edge>
    </timestep>
    <timestep time="84.00">
        <edge id="1o">
            <lane id="1o_0">
                <vehicle id="horiz" pos="414.53" speed="10.56"/>
            </lane>
        </edge>
    </timestep>
    <timestep time="85.00">
        <edge id="1o">
            <lane id="1o_0">
                <vehicle id="horiz" pos="424.84" speed="10.31"/>
            </lane>
        </edge>
    </timestep>
    <timestep time="86.00">
        <edge id="1o">
            <lane id="1o_0">
                <vehicle id="horiz" pos="435.45" speed="10.60"/>
            </lane>
        </edge>
    </timestep>
    <timestep time="87.00">
        <edge id="1o">
            <lane id="1o_0">
                <vehicle id="horiz" pos="445.89" speed="10.44"/>
            </lane>
        </edge>
    </timestep>
    <timestep time="88.00">
        <edge id="1o">
            <lane id="1o_0">
                <vehicle id="horiz" pos="455.93" speed="10.04"/>
            </lane>
        </edge>
    </timestep>
    <timestep time="89.00">
        <edge id="1o">
            <lane id="1o_0">
                <vehicle id="horiz" pos="466.28" speed="10.35"/>
            </lane>
        </edge>
    </timestep>
    <timestep time="90.00">
        <edge id="1o">
            <lane id="1o_0">
                <vehicle id="horiz" pos="476.84" speed="10.57"/>
            </lane>
        </edge>
    </timestep>
    <timestep time="91.00">
        <edge id="1o">
            <lane id="1o_0">
                <vehicle id="horiz" pos="487.48" speed="10.64"/>
            </lane>
        </edge>
    </timestep>
    <timestep time="92.00">
        <edge id="1fi">
            <lane id="1fi_0">
                <vehicle id="horiz" pos="8.67" speed="9.84"/>
            </lane>
        </edge>
    </timestep>
    <timestep time="93.00">
        <edge id="1fi">
            <lane id="1fi_0">
                <vehicle id="horiz" pos="19.75" speed="11.08"/>
            </lane>
        </edge>
    </timestep>
    <timestep time="94.00">
        <edge id="1fi">
            <lane id="1fi_0">
                <vehicle id="horiz" pos="30.46" speed="10.72"/>
            </lane>
        </edge>
    </timestep>
    <timestep time="95.00">
        <edge id="1fi">
            <lane id="1fi_0">
                <vehicle id="horiz" pos="41.44" speed="10.97"/>
            </lane>
        </edge>
    </timestep>
    <timestep time="96.00">
        <edge id="1fi">
            <lane id="1fi_0">
                <vehicle id="horiz" pos="51.41" speed="9.97"/>
            </lane>
        </edge>
    </timestep>
    <timestep time="97.00">
        <edge id="1fi">
            <lane id="1fi_0">
                <vehicle id="horiz" pos="61.71" speed="10.30"/>
            </lane>
        </edge>
    </timestep>
    <timestep time="98.00">
        <edge id="1fi">
            <lane id="1fi_0">
                <vehicle id="horiz" pos="71.62" speed="9.91"/>
            </lane>
        </edge>
    </timestep>
    <timestep time="99.00">
        <edge id="1fi">
            <lane id="1fi_0">
                <vehicle id="horiz" pos="82.08" speed="10.47"/>
            </lane>
        </edge>
    </timestep>
    <timestep time="100.00">
        <edge id="1fi">
            <lane id="1fi_0">
                <vehicle id="horiz" pos="92.64" speed="10.56"/>
            </lane>
        </edge>
    </timestep>
    <timestep time="101.00">
        <edge id="1fi">
            <lane id="1fi_0">
                <vehicle id="horiz" pos="102.83" speed="10.19"/>
            </lane>
        </edge>
    </timestep>
</netstate>
