<?xml version="1.0"?>

<!-- generated on 23.01.2012 09:28:44 by SUMO gui Version dev-SVN-r11548
<?xml version="1.0" encoding="UTF-8"?>

<configuration xmlns:xsi="http://www.w3.org/2001/XMLSchema-instance" xsi:noNamespaceSchemaLocation="http://sumo.sf.net/xsd/sumo-gui.exeConfiguration.xsd">

    <input>
        <net-file value="input_net.net.xml"/>
        <route-files value="input_routes.rou.xml"/>
    </input>

    <output>
        <netstate-dump value="state.xml"/>
        <tripinfo-output value="tripinfo.xml"/>
    </output>

    <time>
        <begin value="0"/>
        <end value="100"/>
    </time>

    <report>
        <no-duration-log value="true"/>
        <no-step-log value="true"/>
    </report>

    <traci_server>
        <remote-port value="8813"/>
    </traci_server>

    <gui_only>
        <quit-on-end value="true"/>
        <start value="true"/>
    </gui_only>

</configuration>
-->

<sumo-netstate>
    <timestep time="0.00">
        <edge id="2fi">
            <lane id="2fi_0">
                <vehicle id="horiz" pos="7.60" speed="0.00"/>
            </lane>
        </edge>
    </timestep>
    <timestep time="1.00">
        <edge id="2fi">
            <lane id="2fi_0">
                <vehicle id="horiz" pos="9.04" speed="1.44"/>
            </lane>
        </edge>
    </timestep>
    <timestep time="2.00">
        <edge id="2fi">
            <lane id="2fi_0">
                <vehicle id="horiz" pos="12.16" speed="3.12"/>
            </lane>
        </edge>
    </timestep>
    <timestep time="3.00">
        <edge id="2fi">
            <lane id="2fi_0">
                <vehicle id="horiz" pos="17.81" speed="5.66"/>
            </lane>
        </edge>
    </timestep>
    <timestep time="4.00">
        <edge id="2fi">
            <lane id="2fi_0">
                <vehicle id="horiz" pos="25.43" speed="7.62"/>
            </lane>
        </edge>
    </timestep>
    <timestep time="5.00">
        <edge id="2fi">
            <lane id="2fi_0">
                <vehicle id="horiz" pos="34.88" speed="9.45"/>
            </lane>
        </edge>
    </timestep>
    <timestep time="6.00">
        <edge id="2fi">
            <lane id="2fi_0">
                <vehicle id="horiz" pos="45.93" speed="11.05"/>
            </lane>
        </edge>
    </timestep>
    <timestep time="7.00">
        <edge id="2fi">
            <lane id="2fi_0">
                <vehicle id="horiz" pos="56.08" speed="10.14"/>
            </lane>
        </edge>
    </timestep>
    <timestep time="8.00">
        <edge id="2fi">
            <lane id="2fi_0">
                <vehicle id="horiz" pos="66.87" speed="10.79"/>
            </lane>
        </edge>
    </timestep>
    <timestep time="9.00">
        <edge id="2fi">
            <lane id="2fi_0">
                <vehicle id="horiz" pos="77.27" speed="10.40"/>
            </lane>
        </edge>
    </timestep>
    <timestep time="10.00">
        <edge id="2fi">
            <lane id="2fi_0">
                <vehicle id="horiz" pos="87.41" speed="10.14"/>
            </lane>
        </edge>
    </timestep>
    <timestep time="11.00">
        <edge id="2fi">
            <lane id="2fi_0">
                <vehicle id="horiz" pos="98.51" speed="11.10"/>
            </lane>
        </edge>
    </timestep>
    <timestep time="12.00">
        <edge id="2fi">
            <lane id="2fi_0">
                <vehicle id="horiz" pos="108.75" speed="10.24"/>
            </lane>
        </edge>
    </timestep>
    <timestep time="13.00">
        <edge id="2fi">
            <lane id="2fi_0">
                <vehicle id="horiz" pos="119.25" speed="10.50"/>
            </lane>
        </edge>
    </timestep>
    <timestep time="14.00">
        <edge id="2fi">
            <lane id="2fi_0">
                <vehicle id="horiz" pos="129.77" speed="10.52"/>
            </lane>
        </edge>
    </timestep>
    <timestep time="15.00">
        <edge id="2fi">
            <lane id="2fi_0">
                <vehicle id="horiz" pos="140.15" speed="10.37"/>
            </lane>
        </edge>
    </timestep>
    <timestep time="16.00">
        <edge id="2fi">
            <lane id="2fi_0">
                <vehicle id="horiz" pos="150.91" speed="10.77"/>
            </lane>
        </edge>
    </timestep>
    <timestep time="17.00">
        <edge id="2fi">
            <lane id="2fi_0">
                <vehicle id="horiz" pos="161.94" speed="11.03"/>
            </lane>
        </edge>
    </timestep>
    <timestep time="18.00">
        <edge id="2fi">
            <lane id="2fi_0">
                <vehicle id="horiz" pos="171.92" speed="9.97"/>
            </lane>
        </edge>
    </timestep>
    <timestep time="19.00">
        <edge id="2fi">
            <lane id="2fi_0">
                <vehicle id="horiz" pos="182.61" speed="10.69"/>
            </lane>
        </edge>
    </timestep>
    <timestep time="20.00">
        <edge id="2fi">
            <lane id="2fi_0">
                <vehicle id="horiz" pos="192.83" speed="10.22"/>
            </lane>
        </edge>
    </timestep>
    <timestep time="21.00">
        <edge id="2fi">
            <lane id="2fi_0">
                <vehicle id="horiz" pos="203.88" speed="11.05"/>
            </lane>
        </edge>
    </timestep>
    <timestep time="22.00">
        <edge id="2fi">
            <lane id="2fi_0">
                <vehicle id="horiz" pos="214.32" speed="10.44"/>
            </lane>
        </edge>
    </timestep>
    <timestep time="23.00">
        <edge id="2fi">
            <lane id="2fi_0">
                <vehicle id="horiz" pos="225.03" speed="10.71"/>
            </lane>
        </edge>
    </timestep>
    <timestep time="24.00">
        <edge id="2fi">
            <lane id="2fi_0">
                <vehicle id="horiz" pos="235.32" speed="10.29"/>
            </lane>
        </edge>
    </timestep>
    <timestep time="25.00">
        <edge id="2fi">
            <lane id="2fi_0">
                <vehicle id="horiz" pos="245.21" speed="9.89"/>
            </lane>
        </edge>
    </timestep>
    <timestep time="26.00">
        <edge id="2si">
            <lane id="2si_0"/>
            <lane id="2si_1">
                <vehicle id="horiz" pos="6.75" speed="10.04"/>
            </lane>
            <lane id="2si_2"/>
        </edge>
    </timestep>
    <timestep time="27.00">
        <edge id="2si">
            <lane id="2si_0"/>
            <lane id="2si_1">
                <vehicle id="horiz" pos="18.23" speed="11.48"/>
            </lane>
            <lane id="2si_2"/>
        </edge>
    </timestep>
    <timestep time="28.00">
        <edge id="2si">
            <lane id="2si_0"/>
            <lane id="2si_1">
                <vehicle id="horiz" pos="31.61" speed="13.37"/>
            </lane>
            <lane id="2si_2"/>
        </edge>
    </timestep>
    <timestep time="29.00">
        <edge id="2si">
            <lane id="2si_0"/>
            <lane id="2si_1">
                <vehicle id="horiz" pos="44.79" speed="13.18"/>
            </lane>
            <lane id="2si_2"/>
        </edge>
    </timestep>
    <timestep time="30.00">
        <edge id="2si">
            <lane id="2si_0"/>
            <lane id="2si_1">
                <vehicle id="horiz" pos="58.37" speed="13.58"/>
            </lane>
            <lane id="2si_2"/>
        </edge>
    </timestep>
    <timestep time="31.00">
        <edge id="2si">
            <lane id="2si_0"/>
            <lane id="2si_1">
                <vehicle id="horiz" pos="72.22" speed="13.85"/>
            </lane>
            <lane id="2si_2"/>
        </edge>
    </timestep>
    <timestep time="32.00">
        <edge id="2si">
            <lane id="2si_0"/>
            <lane id="2si_1">
                <vehicle id="horiz" pos="85.72" speed="13.50"/>
            </lane>
            <lane id="2si_2"/>
        </edge>
    </timestep>
    <timestep time="33.00">
        <edge id="2si">
            <lane id="2si_0"/>
            <lane id="2si_1">
                <vehicle id="horiz" pos="98.61" speed="12.90"/>
            </lane>
            <lane id="2si_2"/>
        </edge>
    </timestep>
    <timestep time="34.00">
        <edge id="2si">
            <lane id="2si_0"/>
            <lane id="2si_1">
                <vehicle id="horiz" pos="112.30" speed="13.68"/>
            </lane>
            <lane id="2si_2"/>
        </edge>
    </timestep>
    <timestep time="35.00">
        <edge id="2si">
            <lane id="2si_0"/>
            <lane id="2si_1">
                <vehicle id="horiz" pos="124.94" speed="12.65"/>
            </lane>
            <lane id="2si_2"/>
        </edge>
    </timestep>
    <timestep time="36.00">
        <edge id="2si">
            <lane id="2si_0"/>
            <lane id="2si_1">
                <vehicle id="horiz" pos="138.79" speed="13.85"/>
            </lane>
            <lane id="2si_2"/>
        </edge>
    </timestep>
    <timestep time="37.00">
        <edge id="2si">
            <lane id="2si_0"/>
            <lane id="2si_1">
                <vehicle id="horiz" pos="151.79" speed="13.00"/>
            </lane>
            <lane id="2si_2"/>
        </edge>
    </timestep>
    <timestep time="38.00">
        <edge id="2si">
            <lane id="2si_0"/>
            <lane id="2si_1">
                <vehicle id="horiz" pos="165.25" speed="13.46"/>
            </lane>
            <lane id="2si_2"/>
        </edge>
    </timestep>
    <timestep time="39.00">
        <edge id="2si">
            <lane id="2si_0"/>
            <lane id="2si_1">
                <vehicle id="horiz" pos="178.97" speed="13.72"/>
            </lane>
            <lane id="2si_2"/>
        </edge>
    </timestep>
    <timestep time="40.00">
        <edge id="2si">
            <lane id="2si_0"/>
            <lane id="2si_1">
                <vehicle id="horiz" pos="192.70" speed="13.73"/>
            </lane>
            <lane id="2si_2"/>
        </edge>
    </timestep>
    <timestep time="41.00">
        <edge id="2si">
            <lane id="2si_0"/>
            <lane id="2si_1">
                <vehicle id="horiz" pos="206.06" speed="13.36"/>
            </lane>
            <lane id="2si_2"/>
        </edge>
    </timestep>
    <timestep time="42.00">
        <edge id="2si">
            <lane id="2si_0"/>
            <lane id="2si_1">
                <vehicle id="horiz" pos="217.63" speed="11.57"/>
            </lane>
            <lane id="2si_2"/>
        </edge>
    </timestep>
    <timestep time="43.00">
        <edge id="2si">
            <lane id="2si_0"/>
            <lane id="2si_1">
                <vehicle id="horiz" pos="226.78" speed="9.16"/>
            </lane>
            <lane id="2si_2"/>
        </edge>
    </timestep>
    <timestep time="44.00">
        <edge id="2si">
            <lane id="2si_0"/>
            <lane id="2si_1">
                <vehicle id="horiz" pos="232.65" speed="5.87"/>
            </lane>
            <lane id="2si_2"/>
        </edge>
    </timestep>
    <timestep time="45.00">
        <edge id="1o">
            <lane id="1o_0">
                <vehicle id="horiz" pos="3.75" speed="8.25"/>
            </lane>
        </edge>
    </timestep>
    <timestep time="46.00">
        <edge id="1o">
            <lane id="1o_0">
                <vehicle id="horiz" pos="13.85" speed="10.11"/>
            </lane>
        </edge>
    </timestep>
    <timestep time="47.00">
        <edge id="1o">
            <lane id="1o_0">
                <vehicle id="horiz" pos="24.65" speed="10.80"/>
            </lane>
        </edge>
    </timestep>
    <timestep time="48.00">
        <edge id="1o">
            <lane id="1o_0">
                <vehicle id="horiz" pos="34.70" speed="10.05"/>
            </lane>
        </edge>
    </timestep>
    <timestep time="49.00">
        <edge id="1o">
            <lane id="1o_0">
                <vehicle id="horiz" pos="45.70" speed="10.99"/>
            </lane>
        </edge>
    </timestep>
    <timestep time="50.00">
        <edge id="1o">
            <lane id="1o_0">
                <vehicle id="horiz" pos="55.94" speed="10.24"/>
            </lane>
        </edge>
    </timestep>
    <timestep time="51.00">
        <edge id="1o">
            <lane id="1o_0">
                <vehicle id="horiz" pos="66.12" speed="10.18"/>
            </lane>
        </edge>
    </timestep>
    <timestep time="52.00">
        <edge id="1o">
            <lane id="1o_0">
                <vehicle id="horiz" pos="76.45" speed="10.33"/>
            </lane>
        </edge>
    </timestep>
    <timestep time="53.00">
        <edge id="1o">
            <lane id="1o_0">
                <vehicle id="horiz" pos="86.66" speed="10.21"/>
            </lane>
        </edge>
    </timestep>
    <timestep time="54.00">
        <edge id="1o">
            <lane id="1o_0">
                <vehicle id="horiz" pos="96.56" speed="9.89"/>
            </lane>
        </edge>
    </timestep>
    <timestep time="55.00">
        <edge id="1o">
            <lane id="1o_0">
                <vehicle id="horiz" pos="106.42" speed="9.86"/>
            </lane>
        </edge>
    </timestep>
    <timestep time="56.00">
        <edge id="1o">
            <lane id="1o_0">
                <vehicle id="horiz" pos="117.13" speed="10.71"/>
            </lane>
        </edge>
    </timestep>
    <timestep time="57.00">
        <edge id="1o">
            <lane id="1o_0">
                <vehicle id="horiz" pos="127.60" speed="10.47"/>
            </lane>
        </edge>
    </timestep>
    <timestep time="58.00">
        <edge id="1o">
            <lane id="1o_0">
                <vehicle id="horiz" pos="137.96" speed="10.36"/>
            </lane>
        </edge>
    </timestep>
    <timestep time="59.00">
        <edge id="1o">
            <lane id="1o_0">
                <vehicle id="horiz" pos="148.85" speed="10.89"/>
            </lane>
        </edge>
    </timestep>
    <timestep time="60.00">
        <edge id="1o">
            <lane id="1o_0">
                <vehicle id="horiz" pos="158.72" speed="9.87"/>
            </lane>
        </edge>
    </timestep>
    <timestep time="61.00">
        <edge id="1o">
            <lane id="1o_0">
                <vehicle id="horiz" pos="169.59" speed="10.87"/>
            </lane>
        </edge>
    </timestep>
    <timestep time="62.00">
        <edge id="1o">
            <lane id="1o_0">
                <vehicle id="horiz" pos="179.86" speed="10.28"/>
            </lane>
        </edge>
    </timestep>
    <timestep time="63.00">
        <edge id="1o">
            <lane id="1o_0">
                <vehicle id="horiz" pos="190.78" speed="10.91"/>
            </lane>
        </edge>
    </timestep>
    <timestep time="64.00">
        <edge id="1o">
            <lane id="1o_0">
                <vehicle id="horiz" pos="201.85" speed="11.07"/>
            </lane>
        </edge>
    </timestep>
    <timestep time="65.00">
        <edge id="1o">
            <lane id="1o_0">
                <vehicle id="horiz" pos="212.60" speed="10.75"/>
            </lane>
        </edge>
    </timestep>
    <timestep time="66.00">
        <edge id="1o">
            <lane id="1o_0">
                <vehicle id="horiz" pos="223.00" speed="10.40"/>
            </lane>
        </edge>
    </timestep>
    <timestep time="67.00">
        <edge id="1o">
            <lane id="1o_0">
                <vehicle id="horiz" pos="232.90" speed="9.90"/>
            </lane>
        </edge>
    </timestep>
    <timestep time="68.00">
        <edge id="1o">
            <lane id="1o_0">
                <vehicle id="horiz" pos="243.92" speed="11.02"/>
            </lane>
        </edge>
    </timestep>
    <timestep time="69.00">
        <edge id="1o">
            <lane id="1o_0">
                <vehicle id="horiz" pos="254.80" speed="10.88"/>
            </lane>
        </edge>
    </timestep>
    <timestep time="70.00">
        <edge id="1o">
            <lane id="1o_0">
                <vehicle id="horiz" pos="264.62" speed="9.82"/>
            </lane>
        </edge>
    </timestep>
    <timestep time="71.00">
        <edge id="1o">
            <lane id="1o_0">
                <vehicle id="horiz" pos="275.32" speed="10.70"/>
            </lane>
        </edge>
    </timestep>
    <timestep time="72.00">
        <edge id="1o">
            <lane id="1o_0">
                <vehicle id="horiz" pos="285.99" speed="10.67"/>
            </lane>
        </edge>
    </timestep>
    <timestep time="73.00">
        <edge id="1o">
            <lane id="1o_0">
                <vehicle id="horiz" pos="296.99" speed="11.00"/>
            </lane>
        </edge>
    </timestep>
    <timestep time="74.00">
        <edge id="1o">
            <lane id="1o_0">
                <vehicle id="horiz" pos="307.36" speed="10.37"/>
            </lane>
        </edge>
    </timestep>
    <timestep time="75.00">
        <edge id="1o">
            <lane id="1o_0">
                <vehicle id="horiz" pos="318.20" speed="10.84"/>
            </lane>
        </edge>
    </timestep>
    <timestep time="76.00">
        <edge id="1o">
            <lane id="1o_0">
                <vehicle id="horiz" pos="329.08" speed="10.88"/>
            </lane>
        </edge>
    </timestep>
    <timestep time="77.00">
        <edge id="1o">
            <lane id="1o_0">
                <vehicle id="horiz" pos="340.13" speed="11.05"/>
            </lane>
        </edge>
    </timestep>
    <timestep time="78.00">
        <edge id="1o">
            <lane id="1o_0">
                <vehicle id="horiz" pos="351.13" speed="11.01"/>
            </lane>
        </edge>
    </timestep>
    <timestep time="79.00">
        <edge id="1o">
            <lane id="1o_0">
                <vehicle id="horiz" pos="361.30" speed="10.17"/>
            </lane>
        </edge>
    </timestep>
    <timestep time="80.00">
        <edge id="1o">
            <lane id="1o_0">
                <vehicle id="horiz" pos="371.96" speed="10.65"/>
            </lane>
        </edge>
    </timestep>
    <timestep time="81.00">
        <edge id="1o">
            <lane id="1o_0">
                <vehicle id="horiz" pos="382.69" speed="10.73"/>
            </lane>
        </edge>
    </timestep>
    <timestep time="82.00">
        <edge id="1o">
            <lane id="1o_0">
                <vehicle id="horiz" pos="393.52" speed="10.83"/>
            </lane>
        </edge>
    </timestep>
    <timestep time="83.00">
        <edge id="1o">
            <lane id="1o_0">
                <vehicle id="horiz" pos="403.75" speed="10.23"/>
            </lane>
        </edge>
    </timestep>
    <timestep time="84.00">
        <edge id="1o">
            <lane id="1o_0">
                <vehicle id="horiz" pos="414.31" speed="10.56"/>
            </lane>
        </edge>
    </timestep>
    <timestep time="85.00">
        <edge id="1o">
            <lane id="1o_0">
                <vehicle id="horiz" pos="424.62" speed="10.31"/>
            </lane>
        </edge>
    </timestep>
    <timestep time="86.00">
        <edge id="1o">
            <lane id="1o_0">
                <vehicle id="horiz" pos="435.23" speed="10.60"/>
            </lane>
        </edge>
    </timestep>
    <timestep time="87.00">
        <edge id="1o">
            <lane id="1o_0">
                <vehicle id="horiz" pos="445.67" speed="10.44"/>
            </lane>
        </edge>
    </timestep>
    <timestep time="88.00">
        <edge id="1o">
            <lane id="1o_0">
                <vehicle id="horiz" pos="455.71" speed="10.04"/>
            </lane>
        </edge>
    </timestep>
    <timestep time="89.00">
        <edge id="1o">
            <lane id="1o_0">
                <vehicle id="horiz" pos="466.06" speed="10.35"/>
            </lane>
        </edge>
    </timestep>
    <timestep time="90.00">
        <edge id="1o">
            <lane id="1o_0">
                <vehicle id="horiz" pos="476.62" speed="10.57"/>
            </lane>
        </edge>
    </timestep>
    <timestep time="91.00">
        <edge id="1o">
            <lane id="1o_0">
                <vehicle id="horiz" pos="487.26" speed="10.64"/>
            </lane>
        </edge>
    </timestep>
    <timestep time="92.00">
        <edge id="1fi">
            <lane id="1fi_0">
                <vehicle id="horiz" pos="8.45" speed="9.84"/>
            </lane>
        </edge>
    </timestep>
    <timestep time="93.00">
        <edge id="1fi">
            <lane id="1fi_0">
                <vehicle id="horiz" pos="19.53" speed="11.08"/>
            </lane>
        </edge>
    </timestep>
    <timestep time="94.00">
        <edge id="1fi">
            <lane id="1fi_0">
                <vehicle id="horiz" pos="30.24" speed="10.72"/>
            </lane>
        </edge>
    </timestep>
    <timestep time="95.00">
        <edge id="1fi">
            <lane id="1fi_0">
                <vehicle id="horiz" pos="41.22" speed="10.97"/>
            </lane>
        </edge>
    </timestep>
    <timestep time="96.00">
        <edge id="1fi">
            <lane id="1fi_0">
                <vehicle id="horiz" pos="51.19" speed="9.97"/>
            </lane>
        </edge>
    </timestep>
    <timestep time="97.00">
        <edge id="1fi">
            <lane id="1fi_0">
                <vehicle id="horiz" pos="61.49" speed="10.30"/>
            </lane>
        </edge>
    </timestep>
    <timestep time="98.00">
        <edge id="1fi">
            <lane id="1fi_0">
                <vehicle id="horiz" pos="71.39" speed="9.91"/>
            </lane>
        </edge>
    </timestep>
    <timestep time="99.00">
        <edge id="1fi">
            <lane id="1fi_0">
                <vehicle id="horiz" pos="81.86" speed="10.47"/>
            </lane>
        </edge>
    </timestep>
    <timestep time="100.00">
        <edge id="1fi">
            <lane id="1fi_0">
                <vehicle id="horiz" pos="92.42" speed="10.56"/>
            </lane>
        </edge>
    </timestep>
    <timestep time="101.00">
        <edge id="1fi">
            <lane id="1fi_0">
                <vehicle id="horiz" pos="102.61" speed="10.19"/>
            </lane>
        </edge>
    </timestep>
</sumo-netstate>
