<?xml version="1.0" encoding="UTF-8"?>

<!-- generated on 2024-03-25 14:07:02 by Eclipse SUMO sumo Version v1_19_0+1525-a01a4bc4749
<configuration xmlns:xsi="http://www.w3.org/2001/XMLSchema-instance" xsi:noNamespaceSchemaLocation="http://sumo.dlr.de/xsd/sumoConfiguration.xsd">

    <input>
        <net-file value="input_net4.net.xml"/>
        <route-files value="input_routes.rou.xml"/>
    </input>

    <output>
        <tripinfo-output value="tripinfo.xml"/>
        <lanedata-output value="aggregated.xml"/>
    </output>

    <report>
        <no-step-log value="true"/>
    </report>

    <traci_server>
        <remote-port value="52237"/>
    </traci_server>

    <mesoscopic>
        <mesosim value="true"/>
        <meso-lane-queue value="true"/>
        <meso-junction-control value="true"/>
    </mesoscopic>

</configuration>
-->

<tripinfos xmlns:xsi="http://www.w3.org/2001/XMLSchema-instance" xsi:noNamespaceSchemaLocation="http://sumo.dlr.de/xsd/tripinfo_file.xsd">
    <tripinfo id="v.0" depart="0.00" departLane="" departPos="0.00" departSpeed="13.89" departDelay="0.00" arrival="22.00" arrivalLane="" arrivalPos="100.00" arrivalSpeed="13.89" duration="22.00" routeLength="300.00" waitingTime="0.00" waitingCount="0" stopTime="0.00" timeLoss="0.00" rerouteNo="0" devices="tripinfo_v.0" vType="DEFAULT_VEHTYPE" speedFactor="1.00" vaporized=""/>
    <tripinfo id="v.1" depart="10.00" departLane="" departPos="0.00" departSpeed="13.89" departDelay="0.00" arrival="32.00" arrivalLane="" arrivalPos="100.00" arrivalSpeed="13.89" duration="22.00" routeLength="300.00" waitingTime="0.00" waitingCount="0" stopTime="0.00" timeLoss="0.00" rerouteNo="0" devices="tripinfo_v.1" vType="DEFAULT_VEHTYPE" speedFactor="1.00" vaporized=""/>
    <tripinfo id="v.2" depart="20.00" departLane="" departPos="0.00" departSpeed="13.89" departDelay="0.00" arrival="42.00" arrivalLane="" arrivalPos="100.00" arrivalSpeed="13.89" duration="22.00" routeLength="300.00" waitingTime="0.00" waitingCount="0" stopTime="0.00" timeLoss="0.00" rerouteNo="0" devices="tripinfo_v.2" vType="DEFAULT_VEHTYPE" speedFactor="1.00" vaporized=""/>
    <tripinfo id="v.3" depart="30.00" departLane="" departPos="0.00" departSpeed="13.89" departDelay="0.00" arrival="52.00" arrivalLane="" arrivalPos="100.00" arrivalSpeed="13.89" duration="22.00" routeLength="300.00" waitingTime="0.00" waitingCount="0" stopTime="0.00" timeLoss="0.00" rerouteNo="0" devices="tripinfo_v.3" vType="DEFAULT_VEHTYPE" speedFactor="1.00" vaporized=""/>
    <tripinfo id="v.4" depart="40.00" departLane="" departPos="0.00" departSpeed="13.89" departDelay="0.00" arrival="58.00" arrivalLane="" arrivalPos="100.00" arrivalSpeed="13.89" duration="18.00" routeLength="300.00" waitingTime="0.00" waitingCount="0" stopTime="0.00" timeLoss="0.00" rerouteNo="0" devices="tripinfo_v.4" vType="DEFAULT_VEHTYPE" speedFactor="1.00" vaporized=""/>
    <tripinfo id="v.6" depart="60.00" departLane="" departPos="0.00" departSpeed="13.89" departDelay="0.00" arrival="82.00" arrivalLane="" arrivalPos="100.00" arrivalSpeed="13.89" duration="22.00" routeLength="300.00" waitingTime="0.00" waitingCount="0" stopTime="0.00" timeLoss="0.00" rerouteNo="0" devices="tripinfo_v.6" vType="DEFAULT_VEHTYPE" speedFactor="1.00" vaporized=""/>
    <tripinfo id="v.7" depart="70.00" departLane="" departPos="0.00" departSpeed="13.89" departDelay="0.00" arrival="92.00" arrivalLane="" arrivalPos="100.00" arrivalSpeed="13.89" duration="22.00" routeLength="300.00" waitingTime="0.00" waitingCount="0" stopTime="0.00" timeLoss="0.00" rerouteNo="0" devices="tripinfo_v.7" vType="DEFAULT_VEHTYPE" speedFactor="1.00" vaporized=""/>
    <tripinfo id="v.8" depart="80.00" departLane="" departPos="0.00" departSpeed="13.89" departDelay="0.00" arrival="102.00" arrivalLane="" arrivalPos="100.00" arrivalSpeed="13.89" duration="22.00" routeLength="300.00" waitingTime="0.00" waitingCount="0" stopTime="0.00" timeLoss="0.00" rerouteNo="0" devices="tripinfo_v.8" vType="DEFAULT_VEHTYPE" speedFactor="1.00" vaporized=""/>
    <tripinfo id="v.9" depart="90.00" departLane="" departPos="0.00" departSpeed="13.89" departDelay="0.00" arrival="112.00" arrivalLane="" arrivalPos="100.00" arrivalSpeed="13.89" duration="22.00" routeLength="300.00" waitingTime="0.00" waitingCount="0" stopTime="0.00" timeLoss="0.00" rerouteNo="0" devices="tripinfo_v.9" vType="DEFAULT_VEHTYPE" speedFactor="1.00" vaporized=""/>
    <tripinfo id="v.10" depart="100.00" departLane="" departPos="0.00" departSpeed="13.89" departDelay="0.00" arrival="122.00" arrivalLane="" arrivalPos="100.00" arrivalSpeed="13.89" duration="22.00" routeLength="300.00" waitingTime="0.00" waitingCount="0" stopTime="0.00" timeLoss="0.00" rerouteNo="0" devices="tripinfo_v.10" vType="DEFAULT_VEHTYPE" speedFactor="1.00" vaporized=""/>
    <tripinfo id="v.11" depart="110.00" departLane="" departPos="0.00" departSpeed="13.89" departDelay="0.00" arrival="132.00" arrivalLane="" arrivalPos="100.00" arrivalSpeed="13.89" duration="22.00" routeLength="300.00" waitingTime="0.00" waitingCount="0" stopTime="0.00" timeLoss="0.00" rerouteNo="0" devices="tripinfo_v.11" vType="DEFAULT_VEHTYPE" speedFactor="1.00" vaporized=""/>
    <tripinfo id="v.12" depart="120.00" departLane="" departPos="0.00" departSpeed="13.89" departDelay="0.00" arrival="142.00" arrivalLane="" arrivalPos="100.00" arrivalSpeed="13.89" duration="22.00" routeLength="300.00" waitingTime="0.00" waitingCount="0" stopTime="0.00" timeLoss="0.00" rerouteNo="0" devices="tripinfo_v.12" vType="DEFAULT_VEHTYPE" speedFactor="1.00" vaporized=""/>
    <tripinfo id="v.13" depart="130.00" departLane="" departPos="0.00" departSpeed="13.89" departDelay="0.00" arrival="152.00" arrivalLane="" arrivalPos="100.00" arrivalSpeed="13.89" duration="22.00" routeLength="300.00" waitingTime="0.00" waitingCount="0" stopTime="0.00" timeLoss="0.00" rerouteNo="0" devices="tripinfo_v.13" vType="DEFAULT_VEHTYPE" speedFactor="1.00" vaporized=""/>
    <tripinfo id="v.14" depart="140.00" departLane="" departPos="0.00" departSpeed="13.89" departDelay="0.00" arrival="162.00" arrivalLane="" arrivalPos="100.00" arrivalSpeed="13.89" duration="22.00" routeLength="300.00" waitingTime="0.00" waitingCount="0" stopTime="0.00" timeLoss="0.00" rerouteNo="0" devices="tripinfo_v.14" vType="DEFAULT_VEHTYPE" speedFactor="1.00" vaporized=""/>
    <tripinfo id="v.5" depart="50.00" departLane="" departPos="0.00" departSpeed="13.89" departDelay="0.00" arrival="165.00" arrivalLane="" arrivalPos="100.00" arrivalSpeed="13.89" duration="115.00" routeLength="300.00" waitingTime="0.00" waitingCount="0" stopTime="0.00" timeLoss="92.47" rerouteNo="0" devices="tripinfo_v.5" vType="DEFAULT_VEHTYPE" speedFactor="1.00" vaporized=""/>
    <tripinfo id="v.15" depart="150.00" departLane="" departPos="0.00" departSpeed="13.89" departDelay="0.00" arrival="172.00" arrivalLane="" arrivalPos="100.00" arrivalSpeed="13.89" duration="22.00" routeLength="300.00" waitingTime="0.00" waitingCount="0" stopTime="0.00" timeLoss="0.00" rerouteNo="0" devices="tripinfo_v.15" vType="DEFAULT_VEHTYPE" speedFactor="1.00" vaporized=""/>
    <tripinfo id="v.16" depart="160.00" departLane="" departPos="0.00" departSpeed="13.89" departDelay="0.00" arrival="182.00" arrivalLane="" arrivalPos="100.00" arrivalSpeed="13.89" duration="22.00" routeLength="300.00" waitingTime="0.00" waitingCount="0" stopTime="0.00" timeLoss="0.00" rerouteNo="0" devices="tripinfo_v.16" vType="DEFAULT_VEHTYPE" speedFactor="1.00" vaporized=""/>
    <tripinfo id="v.17" depart="170.00" departLane="" departPos="0.00" departSpeed="13.89" departDelay="0.00" arrival="192.00" arrivalLane="" arrivalPos="100.00" arrivalSpeed="13.89" duration="22.00" routeLength="300.00" waitingTime="0.00" waitingCount="0" stopTime="0.00" timeLoss="0.00" rerouteNo="0" devices="tripinfo_v.17" vType="DEFAULT_VEHTYPE" speedFactor="1.00" vaporized=""/>
    <tripinfo id="v.18" depart="180.00" departLane="" departPos="0.00" departSpeed="13.89" departDelay="0.00" arrival="202.00" arrivalLane="" arrivalPos="100.00" arrivalSpeed="13.89" duration="22.00" routeLength="300.00" waitingTime="0.00" waitingCount="0" stopTime="0.00" timeLoss="0.00" rerouteNo="0" devices="tripinfo_v.18" vType="DEFAULT_VEHTYPE" speedFactor="1.00" vaporized=""/>
    <tripinfo id="v.19" depart="190.00" departLane="" departPos="0.00" departSpeed="13.89" departDelay="0.00" arrival="212.00" arrivalLane="" arrivalPos="100.00" arrivalSpeed="13.89" duration="22.00" routeLength="300.00" waitingTime="0.00" waitingCount="0" stopTime="0.00" timeLoss="0.00" rerouteNo="0" devices="tripinfo_v.19" vType="DEFAULT_VEHTYPE" speedFactor="1.00" vaporized=""/>
</tripinfos>
