<?xml version="1.0"?>

<!-- generated on 04/16/10 10:27:18 by SUMO sumo Version dev-SVN-r8595
<configuration>

    <input>
        <net-file value="net.net.xml"/>
        <additional-files value="input_routes.rou.xml,input_additional2.add.xml"/>
    </input>

    <output>
        <netstate-dump value="rawdump.xml"/>
    </output>

    <time>
        <begin value="0"/>
        <end value="50"/>
        <step-length value="0.1"/>
    </time>

    <report>
        <no-duration-log value="true"/>
        <no-step-log value="true"/>
    </report>

</configuration>
-->

<sumo-netstate>
    <timestep time="0.00">
        <edge id="4/1to3/1">
            <lane id="4/1to3/1_0">
                <vehicle id="0" pos="100.00" speed="10.00"/>
            </lane>
        </edge>
    </timestep>
    <timestep time="0.10">
        <edge id="4/1to3/1">
            <lane id="4/1to3/1_0">
                <vehicle id="0" pos="101.00" speed="10.00"/>
            </lane>
        </edge>
    </timestep>
    <timestep time="0.20">
        <edge id="4/1to3/1">
            <lane id="4/1to3/1_0">
                <vehicle id="0" pos="102.00" speed="10.00"/>
            </lane>
        </edge>
    </timestep>
    <timestep time="0.30">
        <edge id="4/1to3/1">
            <lane id="4/1to3/1_0">
                <vehicle id="0" pos="103.00" speed="10.00"/>
            </lane>
        </edge>
    </timestep>
    <timestep time="0.40">
        <edge id="4/1to3/1">
            <lane id="4/1to3/1_0">
                <vehicle id="0" pos="104.00" speed="10.00"/>
            </lane>
        </edge>
    </timestep>
    <timestep time="0.50">
        <edge id="4/1to3/1">
            <lane id="4/1to3/1_0">
                <vehicle id="0" pos="105.00" speed="10.00"/>
            </lane>
        </edge>
    </timestep>
    <timestep time="0.60">
        <edge id="4/1to3/1">
            <lane id="4/1to3/1_0">
                <vehicle id="0" pos="106.00" speed="10.00"/>
            </lane>
        </edge>
    </timestep>
    <timestep time="0.70">
        <edge id="4/1to3/1">
            <lane id="4/1to3/1_0">
                <vehicle id="0" pos="107.00" speed="10.00"/>
            </lane>
        </edge>
    </timestep>
    <timestep time="0.80">
        <edge id="4/1to3/1">
            <lane id="4/1to3/1_0">
                <vehicle id="0" pos="108.00" speed="10.00"/>
            </lane>
        </edge>
    </timestep>
    <timestep time="0.90">
        <edge id="4/1to3/1">
            <lane id="4/1to3/1_0">
                <vehicle id="0" pos="109.00" speed="10.00"/>
            </lane>
        </edge>
    </timestep>
    <timestep time="1.00">
        <edge id="4/1to3/1">
            <lane id="4/1to3/1_0">
                <vehicle id="0" pos="110.00" speed="10.00"/>
            </lane>
        </edge>
    </timestep>
    <timestep time="1.10">
        <edge id="4/1to3/1">
            <lane id="4/1to3/1_0">
                <vehicle id="0" pos="111.00" speed="10.00"/>
            </lane>
        </edge>
    </timestep>
    <timestep time="1.20">
        <edge id="4/1to3/1">
            <lane id="4/1to3/1_0">
                <vehicle id="0" pos="112.00" speed="10.00"/>
            </lane>
        </edge>
    </timestep>
    <timestep time="1.30">
        <edge id="4/1to3/1">
            <lane id="4/1to3/1_0">
                <vehicle id="0" pos="113.00" speed="10.00"/>
            </lane>
        </edge>
    </timestep>
    <timestep time="1.40">
        <edge id="4/1to3/1">
            <lane id="4/1to3/1_0">
                <vehicle id="0" pos="114.00" speed="10.00"/>
            </lane>
        </edge>
    </timestep>
    <timestep time="1.50">
        <edge id="4/1to3/1">
            <lane id="4/1to3/1_0">
                <vehicle id="0" pos="115.00" speed="10.00"/>
            </lane>
        </edge>
    </timestep>
    <timestep time="1.60">
        <edge id="4/1to3/1">
            <lane id="4/1to3/1_0">
                <vehicle id="0" pos="116.00" speed="10.00"/>
            </lane>
        </edge>
    </timestep>
    <timestep time="1.70">
        <edge id="4/1to3/1">
            <lane id="4/1to3/1_0">
                <vehicle id="0" pos="117.00" speed="10.00"/>
            </lane>
        </edge>
    </timestep>
    <timestep time="1.80">
        <edge id="4/1to3/1">
            <lane id="4/1to3/1_0">
                <vehicle id="0" pos="118.00" speed="10.00"/>
            </lane>
        </edge>
    </timestep>
    <timestep time="1.90">
        <edge id="4/1to3/1">
            <lane id="4/1to3/1_0">
                <vehicle id="0" pos="119.00" speed="10.00"/>
            </lane>
        </edge>
    </timestep>
    <timestep time="2.00">
        <edge id="4/1to3/1">
            <lane id="4/1to3/1_0">
                <vehicle id="0" pos="120.00" speed="10.00"/>
            </lane>
        </edge>
    </timestep>
    <timestep time="2.10">
        <edge id="4/1to3/1">
            <lane id="4/1to3/1_0">
                <vehicle id="0" pos="121.00" speed="10.00"/>
            </lane>
        </edge>
    </timestep>
    <timestep time="2.20">
        <edge id="4/1to3/1">
            <lane id="4/1to3/1_0">
                <vehicle id="0" pos="122.00" speed="10.00"/>
            </lane>
        </edge>
    </timestep>
    <timestep time="2.30">
        <edge id="4/1to3/1">
            <lane id="4/1to3/1_0">
                <vehicle id="0" pos="123.00" speed="10.00"/>
            </lane>
        </edge>
    </timestep>
    <timestep time="2.40">
        <edge id="4/1to3/1">
            <lane id="4/1to3/1_0">
                <vehicle id="0" pos="124.00" speed="10.00"/>
            </lane>
        </edge>
    </timestep>
    <timestep time="2.50">
        <edge id="4/1to3/1">
            <lane id="4/1to3/1_0">
                <vehicle id="0" pos="125.00" speed="10.00"/>
            </lane>
        </edge>
    </timestep>
    <timestep time="2.60">
        <edge id="4/1to3/1">
            <lane id="4/1to3/1_0">
                <vehicle id="0" pos="126.00" speed="10.00"/>
            </lane>
        </edge>
    </timestep>
    <timestep time="2.70">
        <edge id="4/1to3/1">
            <lane id="4/1to3/1_0">
                <vehicle id="0" pos="127.00" speed="10.00"/>
            </lane>
        </edge>
    </timestep>
    <timestep time="2.80">
        <edge id="4/1to3/1">
            <lane id="4/1to3/1_0">
                <vehicle id="0" pos="128.00" speed="10.00"/>
            </lane>
        </edge>
    </timestep>
    <timestep time="2.90">
        <edge id="4/1to3/1">
            <lane id="4/1to3/1_0">
                <vehicle id="0" pos="129.00" speed="10.00"/>
            </lane>
        </edge>
    </timestep>
    <timestep time="3.00">
        <edge id="4/1to3/1">
            <lane id="4/1to3/1_0">
                <vehicle id="0" pos="130.00" speed="10.00"/>
            </lane>
        </edge>
    </timestep>
    <timestep time="3.10">
        <edge id="4/1to3/1">
            <lane id="4/1to3/1_0">
                <vehicle id="0" pos="131.00" speed="10.00"/>
            </lane>
        </edge>
    </timestep>
    <timestep time="3.20">
        <edge id="4/1to3/1">
            <lane id="4/1to3/1_0">
                <vehicle id="0" pos="132.00" speed="10.00"/>
            </lane>
        </edge>
    </timestep>
    <timestep time="3.30">
        <edge id="4/1to3/1">
            <lane id="4/1to3/1_0">
                <vehicle id="0" pos="133.00" speed="10.00"/>
            </lane>
        </edge>
    </timestep>
    <timestep time="3.40">
        <edge id="4/1to3/1">
            <lane id="4/1to3/1_0">
                <vehicle id="0" pos="134.00" speed="10.00"/>
            </lane>
        </edge>
    </timestep>
    <timestep time="3.50">
        <edge id="4/1to3/1">
            <lane id="4/1to3/1_0">
                <vehicle id="0" pos="135.00" speed="10.00"/>
            </lane>
        </edge>
    </timestep>
    <timestep time="3.60">
        <edge id="4/1to3/1">
            <lane id="4/1to3/1_0">
                <vehicle id="0" pos="136.00" speed="10.00"/>
            </lane>
        </edge>
    </timestep>
    <timestep time="3.70">
        <edge id="4/1to3/1">
            <lane id="4/1to3/1_0">
                <vehicle id="0" pos="137.00" speed="10.00"/>
            </lane>
        </edge>
    </timestep>
    <timestep time="3.80">
        <edge id="4/1to3/1">
            <lane id="4/1to3/1_0">
                <vehicle id="0" pos="138.00" speed="10.00"/>
            </lane>
        </edge>
    </timestep>
    <timestep time="3.90">
        <edge id="4/1to3/1">
            <lane id="4/1to3/1_0">
                <vehicle id="0" pos="139.00" speed="10.00"/>
            </lane>
        </edge>
    </timestep>
    <timestep time="4.00">
        <edge id="4/1to3/1">
            <lane id="4/1to3/1_0">
                <vehicle id="0" pos="140.00" speed="10.00"/>
            </lane>
        </edge>
    </timestep>
    <timestep time="4.10">
        <edge id="4/1to3/1">
            <lane id="4/1to3/1_0">
                <vehicle id="0" pos="141.00" speed="10.00"/>
            </lane>
        </edge>
    </timestep>
    <timestep time="4.20">
        <edge id="4/1to3/1">
            <lane id="4/1to3/1_0">
                <vehicle id="0" pos="142.00" speed="10.00"/>
            </lane>
        </edge>
    </timestep>
    <timestep time="4.30">
        <edge id="4/1to3/1">
            <lane id="4/1to3/1_0">
                <vehicle id="0" pos="143.00" speed="10.00"/>
            </lane>
        </edge>
    </timestep>
    <timestep time="4.40">
        <edge id="4/1to3/1">
            <lane id="4/1to3/1_0">
                <vehicle id="0" pos="144.00" speed="10.00"/>
            </lane>
        </edge>
    </timestep>
    <timestep time="4.50">
        <edge id="4/1to3/1">
            <lane id="4/1to3/1_0">
                <vehicle id="0" pos="145.00" speed="10.00"/>
            </lane>
        </edge>
    </timestep>
    <timestep time="4.60">
        <edge id="4/1to3/1">
            <lane id="4/1to3/1_0">
                <vehicle id="0" pos="146.00" speed="10.00"/>
            </lane>
        </edge>
    </timestep>
    <timestep time="4.70">
        <edge id="4/1to3/1">
            <lane id="4/1to3/1_0">
                <vehicle id="0" pos="147.00" speed="10.00"/>
            </lane>
        </edge>
    </timestep>
    <timestep time="4.80">
        <edge id="4/1to3/1">
            <lane id="4/1to3/1_0">
                <vehicle id="0" pos="148.00" speed="10.00"/>
            </lane>
        </edge>
    </timestep>
    <timestep time="4.90">
        <edge id="4/1to3/1">
            <lane id="4/1to3/1_0">
                <vehicle id="0" pos="149.00" speed="10.00"/>
            </lane>
        </edge>
    </timestep>
    <timestep time="5.00">
        <edge id="4/1to3/1">
            <lane id="4/1to3/1_0">
                <vehicle id="0" pos="150.00" speed="10.00"/>
            </lane>
        </edge>
    </timestep>
    <timestep time="5.10">
        <edge id="4/1to3/1">
            <lane id="4/1to3/1_0">
                <vehicle id="0" pos="151.00" speed="10.00"/>
            </lane>
        </edge>
    </timestep>
    <timestep time="5.20">
        <edge id="4/1to3/1">
            <lane id="4/1to3/1_0">
                <vehicle id="0" pos="152.00" speed="10.00"/>
            </lane>
        </edge>
    </timestep>
    <timestep time="5.30">
        <edge id="4/1to3/1">
            <lane id="4/1to3/1_0">
                <vehicle id="0" pos="153.00" speed="10.00"/>
            </lane>
        </edge>
    </timestep>
    <timestep time="5.40">
        <edge id="4/1to3/1">
            <lane id="4/1to3/1_0">
                <vehicle id="0" pos="154.00" speed="10.00"/>
            </lane>
        </edge>
    </timestep>
    <timestep time="5.50">
        <edge id="4/1to3/1">
            <lane id="4/1to3/1_0">
                <vehicle id="0" pos="155.00" speed="10.00"/>
            </lane>
        </edge>
    </timestep>
    <timestep time="5.60">
        <edge id="4/1to3/1">
            <lane id="4/1to3/1_0">
                <vehicle id="0" pos="156.00" speed="10.00"/>
            </lane>
        </edge>
    </timestep>
    <timestep time="5.70">
        <edge id="4/1to3/1">
            <lane id="4/1to3/1_0">
                <vehicle id="0" pos="157.00" speed="10.00"/>
            </lane>
        </edge>
    </timestep>
    <timestep time="5.80">
        <edge id="4/1to3/1">
            <lane id="4/1to3/1_0">
                <vehicle id="0" pos="158.00" speed="10.00"/>
            </lane>
        </edge>
    </timestep>
    <timestep time="5.90">
        <edge id="4/1to3/1">
            <lane id="4/1to3/1_0">
                <vehicle id="0" pos="159.00" speed="10.00"/>
            </lane>
        </edge>
    </timestep>
    <timestep time="6.00">
        <edge id="4/1to3/1">
            <lane id="4/1to3/1_0">
                <vehicle id="0" pos="160.00" speed="10.00"/>
            </lane>
        </edge>
    </timestep>
    <timestep time="6.10">
        <edge id="4/1to3/1">
            <lane id="4/1to3/1_0">
                <vehicle id="0" pos="161.00" speed="10.00"/>
            </lane>
        </edge>
    </timestep>
    <timestep time="6.20">
        <edge id="4/1to3/1">
            <lane id="4/1to3/1_0">
                <vehicle id="0" pos="162.00" speed="10.00"/>
            </lane>
        </edge>
    </timestep>
    <timestep time="6.30">
        <edge id="4/1to3/1">
            <lane id="4/1to3/1_0">
                <vehicle id="0" pos="163.00" speed="10.00"/>
            </lane>
        </edge>
    </timestep>
    <timestep time="6.40">
        <edge id="4/1to3/1">
            <lane id="4/1to3/1_0">
                <vehicle id="0" pos="164.00" speed="10.00"/>
            </lane>
        </edge>
    </timestep>
    <timestep time="6.50">
        <edge id="4/1to3/1">
            <lane id="4/1to3/1_0">
                <vehicle id="0" pos="165.00" speed="10.00"/>
            </lane>
        </edge>
    </timestep>
    <timestep time="6.60">
        <edge id="4/1to3/1">
            <lane id="4/1to3/1_0">
                <vehicle id="0" pos="166.00" speed="10.00"/>
            </lane>
        </edge>
    </timestep>
    <timestep time="6.70">
        <edge id="4/1to3/1">
            <lane id="4/1to3/1_0">
                <vehicle id="0" pos="167.00" speed="10.00"/>
            </lane>
        </edge>
    </timestep>
    <timestep time="6.80">
        <edge id="4/1to3/1">
            <lane id="4/1to3/1_0">
                <vehicle id="0" pos="168.00" speed="10.00"/>
            </lane>
        </edge>
    </timestep>
    <timestep time="6.90">
        <edge id="4/1to3/1">
            <lane id="4/1to3/1_0">
                <vehicle id="0" pos="169.00" speed="10.00"/>
            </lane>
        </edge>
    </timestep>
    <timestep time="7.00">
        <edge id="4/1to3/1">
            <lane id="4/1to3/1_0">
                <vehicle id="0" pos="170.00" speed="10.00"/>
            </lane>
        </edge>
    </timestep>
    <timestep time="7.10">
        <edge id="4/1to3/1">
            <lane id="4/1to3/1_0">
                <vehicle id="0" pos="171.00" speed="10.00"/>
            </lane>
        </edge>
    </timestep>
    <timestep time="7.20">
        <edge id="4/1to3/1">
            <lane id="4/1to3/1_0">
                <vehicle id="0" pos="172.00" speed="10.00"/>
            </lane>
        </edge>
    </timestep>
    <timestep time="7.30">
        <edge id="4/1to3/1">
            <lane id="4/1to3/1_0">
                <vehicle id="0" pos="173.00" speed="10.00"/>
            </lane>
        </edge>
    </timestep>
    <timestep time="7.40">
        <edge id="4/1to3/1">
            <lane id="4/1to3/1_0">
                <vehicle id="0" pos="174.00" speed="10.00"/>
            </lane>
        </edge>
    </timestep>
    <timestep time="7.50">
        <edge id="4/1to3/1">
            <lane id="4/1to3/1_0">
                <vehicle id="0" pos="175.00" speed="10.00"/>
            </lane>
        </edge>
    </timestep>
    <timestep time="7.60">
        <edge id="4/1to3/1">
            <lane id="4/1to3/1_0">
                <vehicle id="0" pos="176.00" speed="10.00"/>
            </lane>
        </edge>
    </timestep>
    <timestep time="7.70">
        <edge id="4/1to3/1">
            <lane id="4/1to3/1_0">
                <vehicle id="0" pos="177.00" speed="10.00"/>
            </lane>
        </edge>
    </timestep>
    <timestep time="7.80">
        <edge id="4/1to3/1">
            <lane id="4/1to3/1_0">
                <vehicle id="0" pos="178.00" speed="10.00"/>
            </lane>
        </edge>
    </timestep>
    <timestep time="7.90">
        <edge id="4/1to3/1">
            <lane id="4/1to3/1_0">
                <vehicle id="0" pos="179.00" speed="10.00"/>
            </lane>
        </edge>
    </timestep>
    <timestep time="8.00">
        <edge id="4/1to3/1">
            <lane id="4/1to3/1_0">
                <vehicle id="0" pos="180.00" speed="10.00"/>
            </lane>
        </edge>
    </timestep>
    <timestep time="8.10">
        <edge id="4/1to3/1">
            <lane id="4/1to3/1_0">
                <vehicle id="0" pos="181.00" speed="10.00"/>
            </lane>
        </edge>
    </timestep>
    <timestep time="8.20">
        <edge id="4/1to3/1">
            <lane id="4/1to3/1_0">
                <vehicle id="0" pos="182.00" speed="10.00"/>
            </lane>
        </edge>
    </timestep>
    <timestep time="8.30">
        <edge id="4/1to3/1">
            <lane id="4/1to3/1_0">
                <vehicle id="0" pos="183.00" speed="10.00"/>
            </lane>
        </edge>
    </timestep>
    <timestep time="8.40">
        <edge id="4/1to3/1">
            <lane id="4/1to3/1_0">
                <vehicle id="0" pos="184.00" speed="10.00"/>
            </lane>
        </edge>
    </timestep>
    <timestep time="8.50">
        <edge id="4/1to3/1">
            <lane id="4/1to3/1_0">
                <vehicle id="0" pos="185.00" speed="10.00"/>
            </lane>
        </edge>
    </timestep>
    <timestep time="8.60">
        <edge id="4/1to3/1">
            <lane id="4/1to3/1_0">
                <vehicle id="0" pos="186.00" speed="10.00"/>
            </lane>
        </edge>
    </timestep>
    <timestep time="8.70">
        <edge id="4/1to3/1">
            <lane id="4/1to3/1_0">
                <vehicle id="0" pos="187.00" speed="10.00"/>
            </lane>
        </edge>
    </timestep>
    <timestep time="8.80">
        <edge id="4/1to3/1">
            <lane id="4/1to3/1_0">
                <vehicle id="0" pos="188.00" speed="10.00"/>
            </lane>
        </edge>
    </timestep>
    <timestep time="8.90">
        <edge id="4/1to3/1">
            <lane id="4/1to3/1_0">
                <vehicle id="0" pos="189.00" speed="10.00"/>
            </lane>
        </edge>
    </timestep>
    <timestep time="9.00">
        <edge id="4/1to3/1">
            <lane id="4/1to3/1_0">
                <vehicle id="0" pos="190.00" speed="10.00"/>
            </lane>
        </edge>
    </timestep>
    <timestep time="9.10">
        <edge id="4/1to3/1">
            <lane id="4/1to3/1_0">
                <vehicle id="0" pos="191.00" speed="10.00"/>
            </lane>
        </edge>
    </timestep>
    <timestep time="9.20">
        <edge id="4/1to3/1">
            <lane id="4/1to3/1_0">
                <vehicle id="0" pos="192.00" speed="10.00"/>
            </lane>
        </edge>
    </timestep>
    <timestep time="9.30">
        <edge id="4/1to3/1">
            <lane id="4/1to3/1_0">
                <vehicle id="0" pos="193.00" speed="10.00"/>
            </lane>
        </edge>
    </timestep>
    <timestep time="9.40">
        <edge id="4/1to3/1">
            <lane id="4/1to3/1_0">
                <vehicle id="0" pos="194.00" speed="10.00"/>
            </lane>
        </edge>
    </timestep>
    <timestep time="9.50">
        <edge id="4/1to3/1">
            <lane id="4/1to3/1_0">
                <vehicle id="0" pos="195.00" speed="10.00"/>
            </lane>
        </edge>
    </timestep>
    <timestep time="9.60">
        <edge id="4/1to3/1">
            <lane id="4/1to3/1_0">
                <vehicle id="0" pos="196.00" speed="10.00"/>
            </lane>
        </edge>
    </timestep>
    <timestep time="9.70">
        <edge id="4/1to3/1">
            <lane id="4/1to3/1_0">
                <vehicle id="0" pos="197.00" speed="10.00"/>
            </lane>
        </edge>
    </timestep>
    <timestep time="9.80">
        <edge id="4/1to3/1">
            <lane id="4/1to3/1_0">
                <vehicle id="0" pos="198.00" speed="10.00"/>
            </lane>
        </edge>
    </timestep>
    <timestep time="9.90">
        <edge id="4/1to3/1">
            <lane id="4/1to3/1_0">
                <vehicle id="0" pos="199.00" speed="10.00"/>
            </lane>
        </edge>
    </timestep>
    <timestep time="10.00">
        <edge id="4/1to3/1">
            <lane id="4/1to3/1_0">
                <vehicle id="0" pos="200.00" speed="10.00"/>
            </lane>
        </edge>
    </timestep>
    <timestep time="10.10">
        <edge id="4/1to3/1">
            <lane id="4/1to3/1_0">
                <vehicle id="0" pos="201.00" speed="10.00"/>
            </lane>
        </edge>
    </timestep>
    <timestep time="10.20">
        <edge id="4/1to3/1">
            <lane id="4/1to3/1_0">
                <vehicle id="0" pos="202.00" speed="10.00"/>
            </lane>
        </edge>
    </timestep>
    <timestep time="10.30">
        <edge id="4/1to3/1">
            <lane id="4/1to3/1_0">
                <vehicle id="0" pos="203.00" speed="10.00"/>
            </lane>
        </edge>
    </timestep>
    <timestep time="10.40">
        <edge id="4/1to3/1">
            <lane id="4/1to3/1_0">
                <vehicle id="0" pos="204.00" speed="10.00"/>
            </lane>
        </edge>
    </timestep>
    <timestep time="10.50">
        <edge id="4/1to3/1">
            <lane id="4/1to3/1_0">
                <vehicle id="0" pos="205.00" speed="10.00"/>
            </lane>
        </edge>
    </timestep>
    <timestep time="10.60">
        <edge id="4/1to3/1">
            <lane id="4/1to3/1_0">
                <vehicle id="0" pos="206.00" speed="10.00"/>
            </lane>
        </edge>
    </timestep>
    <timestep time="10.70">
        <edge id="4/1to3/1">
            <lane id="4/1to3/1_0">
                <vehicle id="0" pos="207.00" speed="10.00"/>
            </lane>
        </edge>
    </timestep>
    <timestep time="10.80">
        <edge id="4/1to3/1">
            <lane id="4/1to3/1_0">
                <vehicle id="0" pos="208.00" speed="10.00"/>
            </lane>
        </edge>
    </timestep>
    <timestep time="10.90">
        <edge id="4/1to3/1">
            <lane id="4/1to3/1_0">
                <vehicle id="0" pos="209.00" speed="10.00"/>
            </lane>
        </edge>
    </timestep>
    <timestep time="11.00">
        <edge id="4/1to3/1">
            <lane id="4/1to3/1_0">
                <vehicle id="0" pos="210.00" speed="10.00"/>
            </lane>
        </edge>
    </timestep>
    <timestep time="11.10">
        <edge id="4/1to3/1">
            <lane id="4/1to3/1_0">
                <vehicle id="0" pos="211.00" speed="10.00"/>
            </lane>
        </edge>
    </timestep>
    <timestep time="11.20">
        <edge id="4/1to3/1">
            <lane id="4/1to3/1_0">
                <vehicle id="0" pos="212.00" speed="10.00"/>
            </lane>
        </edge>
    </timestep>
    <timestep time="11.30">
        <edge id="4/1to3/1">
            <lane id="4/1to3/1_0">
                <vehicle id="0" pos="213.00" speed="10.00"/>
            </lane>
        </edge>
    </timestep>
    <timestep time="11.40">
        <edge id="4/1to3/1">
            <lane id="4/1to3/1_0">
                <vehicle id="0" pos="214.00" speed="10.00"/>
            </lane>
        </edge>
    </timestep>
    <timestep time="11.50">
        <edge id="4/1to3/1">
            <lane id="4/1to3/1_0">
                <vehicle id="0" pos="215.00" speed="10.00"/>
            </lane>
        </edge>
    </timestep>
    <timestep time="11.60">
        <edge id="4/1to3/1">
            <lane id="4/1to3/1_0">
                <vehicle id="0" pos="216.00" speed="10.00"/>
            </lane>
        </edge>
    </timestep>
    <timestep time="11.70">
        <edge id="4/1to3/1">
            <lane id="4/1to3/1_0">
                <vehicle id="0" pos="217.00" speed="10.00"/>
            </lane>
        </edge>
    </timestep>
    <timestep time="11.80">
        <edge id="4/1to3/1">
            <lane id="4/1to3/1_0">
                <vehicle id="0" pos="218.00" speed="10.00"/>
            </lane>
        </edge>
    </timestep>
    <timestep time="11.90">
        <edge id="4/1to3/1">
            <lane id="4/1to3/1_0">
                <vehicle id="0" pos="219.00" speed="10.00"/>
            </lane>
        </edge>
    </timestep>
    <timestep time="12.00">
        <edge id="4/1to3/1">
            <lane id="4/1to3/1_0">
                <vehicle id="0" pos="220.00" speed="10.00"/>
            </lane>
        </edge>
    </timestep>
    <timestep time="12.10">
        <edge id="4/1to3/1">
            <lane id="4/1to3/1_0">
                <vehicle id="0" pos="221.00" speed="10.00"/>
            </lane>
        </edge>
    </timestep>
    <timestep time="12.20">
        <edge id="4/1to3/1">
            <lane id="4/1to3/1_0">
                <vehicle id="0" pos="222.00" speed="10.00"/>
            </lane>
        </edge>
    </timestep>
    <timestep time="12.30">
        <edge id="4/1to3/1">
            <lane id="4/1to3/1_0">
                <vehicle id="0" pos="223.00" speed="10.00"/>
            </lane>
        </edge>
    </timestep>
    <timestep time="12.40">
        <edge id="4/1to3/1">
            <lane id="4/1to3/1_0">
                <vehicle id="0" pos="224.00" speed="10.00"/>
            </lane>
        </edge>
    </timestep>
    <timestep time="12.50">
        <edge id="4/1to3/1">
            <lane id="4/1to3/1_0">
                <vehicle id="0" pos="225.00" speed="10.00"/>
            </lane>
        </edge>
    </timestep>
    <timestep time="12.60">
        <edge id="4/1to3/1">
            <lane id="4/1to3/1_0">
                <vehicle id="0" pos="226.00" speed="10.00"/>
            </lane>
        </edge>
    </timestep>
    <timestep time="12.70">
        <edge id="4/1to3/1">
            <lane id="4/1to3/1_0">
                <vehicle id="0" pos="227.00" speed="10.00"/>
            </lane>
        </edge>
    </timestep>
    <timestep time="12.80">
        <edge id="4/1to3/1">
            <lane id="4/1to3/1_0">
                <vehicle id="0" pos="228.00" speed="10.00"/>
            </lane>
        </edge>
    </timestep>
    <timestep time="12.90">
        <edge id="4/1to3/1">
            <lane id="4/1to3/1_0">
                <vehicle id="0" pos="229.00" speed="10.00"/>
            </lane>
        </edge>
    </timestep>
    <timestep time="13.00">
        <edge id="4/1to3/1">
            <lane id="4/1to3/1_0">
                <vehicle id="0" pos="230.00" speed="10.00"/>
            </lane>
        </edge>
    </timestep>
    <timestep time="13.10">
        <edge id="4/1to3/1">
            <lane id="4/1to3/1_0">
                <vehicle id="0" pos="231.00" speed="10.00"/>
            </lane>
        </edge>
    </timestep>
    <timestep time="13.20">
        <edge id="4/1to3/1">
            <lane id="4/1to3/1_0">
                <vehicle id="0" pos="232.00" speed="10.00"/>
            </lane>
        </edge>
    </timestep>
    <timestep time="13.30">
        <edge id="4/1to3/1">
            <lane id="4/1to3/1_0">
                <vehicle id="0" pos="233.00" speed="10.00"/>
            </lane>
        </edge>
    </timestep>
    <timestep time="13.40">
        <edge id="4/1to3/1">
            <lane id="4/1to3/1_0">
                <vehicle id="0" pos="234.00" speed="10.00"/>
            </lane>
        </edge>
    </timestep>
    <timestep time="13.50">
        <edge id="4/1to3/1">
            <lane id="4/1to3/1_0">
                <vehicle id="0" pos="235.00" speed="10.00"/>
            </lane>
        </edge>
    </timestep>
    <timestep time="13.60">
        <edge id="4/1to3/1">
            <lane id="4/1to3/1_0">
                <vehicle id="0" pos="236.00" speed="10.00"/>
            </lane>
        </edge>
    </timestep>
    <timestep time="13.70">
        <edge id="4/1to3/1">
            <lane id="4/1to3/1_0">
                <vehicle id="0" pos="237.00" speed="10.00"/>
            </lane>
        </edge>
    </timestep>
    <timestep time="13.80">
        <edge id="4/1to3/1">
            <lane id="4/1to3/1_0">
                <vehicle id="0" pos="238.00" speed="10.00"/>
            </lane>
        </edge>
    </timestep>