<?xml version="1.0" encoding="UTF-8"?>

<!-- generated on 05/02/13 15:03:13 by SUMO sumo Version 0.17.0
<?xml version="1.0" encoding="UTF-8"?>

<configuration xmlns:xsi="http://www.w3.org/2001/XMLSchema-instance" xsi:noNamespaceSchemaLocation="http://sumo.dlr.de/xsd/sumoConfiguration.xsd">

    <input>
        <net-file value="net.net.xml"/>
        <additional-files value="input_routes.rou.xml,input_additional.add.xml"/>
    </input>

    <output>
        <vehroute-output value="vehroutes_ignore_arrival.xml"/>
    </output>

    <time>
        <begin value="0"/>
    </time>

    <report>
        <no-duration-log value="true"/>
        <no-step-log value="true"/>
    </report>

</configuration>
-->

<routes xmlns:xsi="http://www.w3.org/2001/XMLSchema-instance" xsi:noNamespaceSchemaLocation="http://sumo.dlr.de/xsd/routes_file.xsd">
    <vehicle id="f1.1" depart="1.00" arrival="48.00">
        <route edges="beg end"/>
    </vehicle>

    <vehicle id="f1.9" depart="9.00" arrival="50.00">
        <route edges="beg end"/>
    </vehicle>

    <vehicle id="f1.7" depart="7.00" arrival="51.00">
        <route edges="beg end"/>
    </vehicle>

    <vehicle id="f1.6" depart="6.00" arrival="53.00">
        <route edges="beg end"/>
    </vehicle>

    <vehicle id="f1.4" depart="4.00" arrival="53.00">
        <route edges="beg end"/>
    </vehicle>

    <vehicle id="f1.3" depart="3.00" arrival="54.00">
        <route edges="beg end"/>
    </vehicle>

    <vehicle id="f1.8" depart="8.00" arrival="55.00">
        <route edges="beg end"/>
    </vehicle>

    <vehicle id="f1.0" depart="0.00" arrival="55.00">
        <route edges="beg end"/>
    </vehicle>

    <vehicle id="f1.2" depart="2.00" arrival="56.00">
        <route edges="beg end"/>
    </vehicle>

    <vehicle id="f1.5" depart="5.00" arrival="57.00">
        <route edges="beg end"/>
    </vehicle>

</routes>
