<?xml version="1.0" encoding="UTF-8"?>

<!-- generated on Tue Apr  9 08:13:04 2019 by Eclipse SUMO Version v1_0_1+0645-93703db
This data file and the accompanying materials
are made available under the terms of the Eclipse Public License v2.0
which accompanies this distribution, and is available at
http://www.eclipse.org/legal/epl-v20.html
SPDX-License-Identifier: EPL-2.0
<configuration xmlns:xsi="http://www.w3.org/2001/XMLSchema-instance" xsi:noNamespaceSchemaLocation="http://sumo.dlr.de/xsd/sumoConfiguration.xsd">

    <input>
        <net-file value="three_split.net.xml"/>
        <route-files value="input_routes.rou.xml"/>
    </input>

    <output>
        <write-license value="true"/>
        <tripinfo-output value="tripinfos.xml"/>
    </output>

    <processing>
        <default.speeddev value="0"/>
        <pedestrian.model value="nonInteracting"/>
    </processing>

    <report>
        <xml-validation value="never"/>
        <duration-log.disable value="true"/>
        <no-step-log value="true"/>
    </report>

</configuration>
-->

<tripinfos xmlns:xsi="http://www.w3.org/2001/XMLSchema-instance" xsi:noNamespaceSchemaLocation="http://sumo.dlr.de/xsd/tripinfo_file.xsd">
    <personinfo id="p2.0" depart="0.00" type="DEFAULT_PEDTYPE">
        <walk depart="0.00" departPos="0.00" arrival="14.00" arrivalPos="250.00" duration="14.00" routeLength="750.00" timeLoss="0.50" maxSpeed="55.56"/>
    </personinfo>
    <personinfo id="p1.0" depart="2.00" type="DEFAULT_PEDTYPE">
        <walk depart="2.00" departPos="0.00" arrival="16.00" arrivalPos="250.00" duration="14.00" routeLength="750.00" timeLoss="0.50" maxSpeed="55.56"/>
    </personinfo>
    <personinfo id="p2.1" depart="2.00" type="DEFAULT_PEDTYPE">
        <walk depart="2.00" departPos="0.00" arrival="16.00" arrivalPos="250.00" duration="14.00" routeLength="750.00" timeLoss="0.50" maxSpeed="55.56"/>
    </personinfo>
    <personinfo id="p2.2" depart="3.00" type="DEFAULT_PEDTYPE">
        <walk depart="3.00" departPos="0.00" arrival="17.00" arrivalPos="250.00" duration="14.00" routeLength="750.00" timeLoss="0.50" maxSpeed="55.56"/>
    </personinfo>
    <personinfo id="p1.1" depart="5.00" type="DEFAULT_PEDTYPE">
        <walk depart="5.00" departPos="0.00" arrival="19.00" arrivalPos="250.00" duration="14.00" routeLength="750.00" timeLoss="0.50" maxSpeed="55.56"/>
    </personinfo>
    <personinfo id="p2.3" depart="5.00" type="DEFAULT_PEDTYPE">
        <walk depart="5.00" departPos="0.00" arrival="19.00" arrivalPos="250.00" duration="14.00" routeLength="750.00" timeLoss="0.50" maxSpeed="55.56"/>
    </personinfo>
    <personinfo id="p2.4" depart="6.00" type="DEFAULT_PEDTYPE">
        <walk depart="6.00" departPos="0.00" arrival="20.00" arrivalPos="250.00" duration="14.00" routeLength="750.00" timeLoss="0.50" maxSpeed="55.56"/>
    </personinfo>
    <personinfo id="p2.5" depart="8.00" type="DEFAULT_PEDTYPE">
        <walk depart="8.00" departPos="0.00" arrival="22.00" arrivalPos="250.00" duration="14.00" routeLength="750.00" timeLoss="0.50" maxSpeed="55.56"/>
    </personinfo>
</tripinfos>
