<?xml version="1.0" encoding="UTF-8"?>

<!-- generated on 2022-04-27 09:03:01 by Eclipse SUMO sumo Version v1_12_0+2296-4e99b77
This data file and the accompanying materials
are made available under the terms of the Eclipse Public License v2.0
which accompanies this distribution, and is available at
http://www.eclipse.org/legal/epl-v20.html
This file may also be made available under the following Secondary
Licenses when the conditions for such availability set forth in the Eclipse
Public License 2.0 are satisfied: GNU General Public License, version 2
or later which is available at
https://www.gnu.org/licenses/old-licenses/gpl-2.0-standalone.html
SPDX-License-Identifier: EPL-2.0 OR GPL-2.0-or-later
<configuration xmlns:xsi="http://www.w3.org/2001/XMLSchema-instance" xsi:noNamespaceSchemaLocation="http://sumo.dlr.de/xsd/sumoConfiguration.xsd">

    <input>
        <net-file value="net.net.xml"/>
        <additional-files value="input_routes.rou.xml,input_additional2.add.xml"/>
    </input>

    <output>
        <write-license value="true"/>
        <vehroute-output value="vehroutes.xml"/>
        <vehroute-output.exit-times value="true"/>
    </output>

    <processing>
        <extrapolate-departpos value="true"/>
        <default.speeddev value="0"/>
        <pedestrian.model value="nonInteracting"/>
    </processing>

    <report>
        <xml-validation value="never"/>
        <xml-validation.routes value="never"/>
        <duration-log.disable value="true"/>
        <no-step-log value="true"/>
    </report>

    <mesoscopic>
        <mesosim value="true"/>
        <meso-junction-control value="true"/>
    </mesoscopic>

</configuration>
-->

<routes xmlns:xsi="http://www.w3.org/2001/XMLSchema-instance" xsi:noNamespaceSchemaLocation="http://sumo.dlr.de/xsd/routes_file.xsd">
    <vehicle id="0.0" depart="0.00" departPos="0.00" departSpeed="10.00" speedFactor="1.0000" arrival="451.00">
        <route edges="4/1to3/1 3/1to2/1 2/1to1/1 1/1to0/1" exitTimes="40.00 80.00 421.00 451.00"/>
    </vehicle>

    <vehicle id="0.4" depart="20.00" departPos="0.00" departSpeed="10.00" speedFactor="1.0000" arrival="481.00">
        <route edges="4/1to3/1 3/1to2/1 2/1to1/1 1/1to0/1" exitTimes="60.00 401.00 441.00 481.00"/>
    </vehicle>

    <vehicle id="0.12" depart="60.00" departPos="0.00" departSpeed="10.00" speedFactor="1.0000" arrival="521.00">
        <route edges="4/1to3/1 3/1to2/1 2/1to1/1 1/1to0/1" exitTimes="401.00 481.00 521.00 -1"/>
    </vehicle>

    <vehicle id="0.1" depart="1.00" departPos="0.00" departSpeed="8.08" speedFactor="1.0000" arrival="756.00">
        <route edges="4/1to3/1 3/1to2/1 2/1to1/1 1/1to0/1" exitTimes="44.00 84.00 726.00 756.00"/>
    </vehicle>

    <vehicle id="0.5" depart="24.00" departPos="0.00" departSpeed="10.00" speedFactor="1.0000" arrival="781.00">
        <route edges="4/1to3/1 3/1to2/1 2/1to1/1 1/1to0/1" exitTimes="64.00 701.00 741.00 781.00"/>
    </vehicle>

    <vehicle id="0.13" depart="64.00" departPos="0.00" departSpeed="10.00" speedFactor="1.0000" arrival="821.00">
        <route edges="4/1to3/1 3/1to2/1 2/1to1/1 1/1to0/1" exitTimes="701.00 781.00 821.00 -1"/>
    </vehicle>

    <vehicle id="0.2" depart="10.00" departPos="0.00" departSpeed="10.00" speedFactor="1.0000" arrival="1061.00">
        <route edges="4/1to3/1 3/1to2/1 2/1to1/1 1/1to0/1" exitTimes="50.00 90.00 1031.00 1061.00"/>
    </vehicle>

    <vehicle id="0.6" depart="30.00" departPos="0.00" departSpeed="10.00" speedFactor="1.0000" arrival="1082.00">
        <route edges="4/1to3/1 3/1to2/1 2/1to1/1 1/1to0/1" exitTimes="70.00 1002.00 1042.00 1082.00"/>
    </vehicle>

    <vehicle id="2.0" depart="0.00" departPos="0.00" departSpeed="10.00" speedFactor="1.0000" arrival="1104.00">
        <route edges="2/0to2/1 2/1to1/1" exitTimes="100.00 1104.00"/>
    </vehicle>

    <vehicle id="2.1" depart="1.00" departPos="0.00" departSpeed="8.08" speedFactor="1.0000" arrival="1104.00">
        <route edges="2/0to2/1 2/1to1/1" exitTimes="104.00 1104.00"/>
    </vehicle>

    <vehicle id="2.2" depart="10.00" departPos="0.00" departSpeed="10.00" speedFactor="1.0000" arrival="1104.00">
        <route edges="2/0to2/1 2/1to1/1" exitTimes="108.00 1104.00"/>
    </vehicle>

    <vehicle id="2.3" depart="14.00" departPos="0.00" departSpeed="10.00" speedFactor="1.0000" arrival="1111.00">
        <route edges="2/0to2/1 2/1to1/1" exitTimes="112.00 1111.00"/>
    </vehicle>

    <vehicle id="2.4" depart="20.00" departPos="0.00" departSpeed="10.00" speedFactor="1.0000" arrival="1116.00">
        <route edges="2/0to2/1 2/1to1/1" exitTimes="116.00 1116.00"/>
    </vehicle>

    <vehicle id="2.5" depart="24.00" departPos="0.00" departSpeed="10.00" speedFactor="1.0000" arrival="1120.00">
        <route edges="2/0to2/1 2/1to1/1" exitTimes="120.00 1120.00"/>
    </vehicle>

    <vehicle id="0.14" depart="70.00" departPos="0.00" departSpeed="10.00" speedFactor="1.0000" arrival="1122.00">
        <route edges="4/1to3/1 3/1to2/1 2/1to1/1 1/1to0/1" exitTimes="1002.00 1082.00 1122.00 -1"/>
    </vehicle>

    <vehicle id="2.6" depart="30.00" departPos="0.00" departSpeed="10.00" speedFactor="1.0000" arrival="1124.00">
        <route edges="2/0to2/1 2/1to1/1" exitTimes="124.00 1124.00"/>
    </vehicle>

    <vehicle id="1.0" depart="0.00" departPos="0.00" departSpeed="10.00" speedFactor="1.0000" arrival="1126.00">
        <route edges="3/0to3/1 3/1to2/1" exitTimes="100.00 1126.00"/>
    </vehicle>

    <vehicle id="1.1" depart="1.00" departPos="0.00" departSpeed="8.08" speedFactor="1.0000" arrival="1126.00">
        <route edges="3/0to3/1 3/1to2/1" exitTimes="104.00 1126.00"/>
    </vehicle>

    <vehicle id="1.2" depart="10.00" departPos="0.00" departSpeed="10.00" speedFactor="1.0000" arrival="1127.00">
        <route edges="3/0to3/1 3/1to2/1" exitTimes="108.00 1127.00"/>
    </vehicle>

    <vehicle id="2.7" depart="34.00" departPos="0.00" departSpeed="10.00" speedFactor="1.0000" arrival="1128.00">
        <route edges="2/0to2/1 2/1to1/1" exitTimes="128.00 1128.00"/>
    </vehicle>

    <vehicle id="1.3" depart="14.00" departPos="0.00" departSpeed="10.00" speedFactor="1.0000" arrival="1131.00">
        <route edges="3/0to3/1 3/1to2/1" exitTimes="112.00 1131.00"/>
    </vehicle>

    <vehicle id="2.8" depart="40.00" departPos="0.00" departSpeed="10.00" speedFactor="1.0000" arrival="1132.00">
        <route edges="2/0to2/1 2/1to1/1" exitTimes="131.00 1132.00"/>
    </vehicle>

    <vehicle id="1.4" depart="20.00" departPos="0.00" departSpeed="10.00" speedFactor="1.0000" arrival="1136.00">
        <route edges="3/0to3/1 3/1to2/1" exitTimes="116.00 1136.00"/>
    </vehicle>

    <vehicle id="2.9" depart="44.00" departPos="0.00" departSpeed="10.00" speedFactor="1.0000" arrival="1136.00">
        <route edges="2/0to2/1 2/1to1/1" exitTimes="134.00 1136.00"/>
    </vehicle>

    <vehicle id="0.3" depart="14.00" departPos="0.00" departSpeed="10.00" speedFactor="1.0000" arrival="1140.00">
        <route edges="4/1to3/1 3/1to2/1 2/1to1/1 1/1to0/1" exitTimes="54.00 94.00 1100.00 1140.00"/>
    </vehicle>

    <vehicle id="1.5" depart="24.00" departPos="0.00" departSpeed="10.00" speedFactor="1.0000" arrival="1140.00">
        <route edges="3/0to3/1 3/1to2/1" exitTimes="120.00 1140.00"/>
    </vehicle>

    <vehicle id="2.10" depart="50.00" departPos="0.00" departSpeed="10.00" speedFactor="1.0000" arrival="1140.00">
        <route edges="2/0to2/1 2/1to1/1" exitTimes="138.00 1140.00"/>
    </vehicle>

    <vehicle id="2.11" depart="54.00" departPos="0.00" departSpeed="10.00" speedFactor="1.0000" arrival="1143.00">
        <route edges="2/0to2/1 2/1to1/1" exitTimes="142.00 1143.00"/>
    </vehicle>

    <vehicle id="1.6" depart="30.00" departPos="0.00" departSpeed="10.00" speedFactor="1.0000" arrival="1144.00">
        <route edges="3/0to3/1 3/1to2/1" exitTimes="124.00 1144.00"/>
    </vehicle>

    <vehicle id="2.12" depart="60.00" departPos="0.00" departSpeed="10.00" speedFactor="1.0000" arrival="1146.00">
        <route edges="2/0to2/1 2/1to1/1" exitTimes="423.00 1146.00"/>
    </vehicle>

    <vehicle id="1.7" depart="34.00" departPos="0.00" departSpeed="10.00" speedFactor="1.0000" arrival="1148.00">
        <route edges="3/0to3/1 3/1to2/1" exitTimes="128.00 1148.00"/>
    </vehicle>

    <vehicle id="2.13" depart="64.00" departPos="0.00" departSpeed="10.00" speedFactor="1.0000" arrival="1150.00">
        <route edges="2/0to2/1 2/1to1/1" exitTimes="728.00 1150.00"/>
    </vehicle>

    <vehicle id="1.8" depart="40.00" departPos="0.00" departSpeed="10.00" speedFactor="1.0000" arrival="1152.00">
        <route edges="3/0to3/1 3/1to2/1" exitTimes="401.00 1152.00"/>
    </vehicle>

    <vehicle id="2.14" depart="75.00" departPos="0.00" departSpeed="10.00" speedFactor="1.0000" arrival="1154.00">
        <route edges="2/0to2/1 2/1to1/1" exitTimes="1034.00 1154.00"/>
    </vehicle>

    <vehicle id="1.9" depart="44.00" departPos="0.00" departSpeed="10.00" speedFactor="1.0000" arrival="1156.00">
        <route edges="3/0to3/1 3/1to2/1" exitTimes="701.00 1156.00"/>
    </vehicle>

    <vehicle id="1.10" depart="50.00" departPos="0.00" departSpeed="10.00" speedFactor="1.0000" arrival="1160.00">
        <route edges="3/0to3/1 3/1to2/1" exitTimes="1002.00 1160.00"/>
    </vehicle>

    <vehicle id="0.7" depart="34.00" departPos="0.00" departSpeed="10.00" speedFactor="1.0000" arrival="1198.00">
        <route edges="4/1to3/1 3/1to2/1 2/1to1/1 1/1to0/1" exitTimes="74.00 1102.00 1158.00 1198.00"/>
    </vehicle>

    <vehicle id="0.8" depart="40.00" departPos="0.00" departSpeed="10.00" speedFactor="1.0000" arrival="1202.00">
        <route edges="4/1to3/1 3/1to2/1 2/1to1/1 1/1to0/1" exitTimes="80.00 1107.00 1162.00 1202.00"/>
    </vehicle>

    <vehicle id="0.9" depart="44.00" departPos="0.00" departSpeed="10.00" speedFactor="1.0000" arrival="1206.00">
        <route edges="4/1to3/1 3/1to2/1 2/1to1/1 1/1to0/1" exitTimes="84.00 1112.00 1166.00 1206.00"/>
    </vehicle>

    <vehicle id="0.10" depart="50.00" departPos="0.00" departSpeed="10.00" speedFactor="1.0000" arrival="1210.00">
        <route edges="4/1to3/1 3/1to2/1 2/1to1/1 1/1to0/1" exitTimes="90.00 1116.00 1170.00 1210.00"/>
    </vehicle>

    <vehicle id="0.11" depart="54.00" departPos="0.00" departSpeed="10.00" speedFactor="1.0000" arrival="1213.00">
        <route edges="4/1to3/1 3/1to2/1 2/1to1/1 1/1to0/1" exitTimes="94.00 1121.00 1173.00 1213.00"/>
    </vehicle>

    <vehicle id="0.15" depart="74.00" departPos="0.00" departSpeed="10.00" speedFactor="1.0000" arrival="1535.00">
        <route edges="4/1to3/1 3/1to2/1 2/1to1/1 1/1to0/1" exitTimes="1102.00 1164.00 1505.00 1535.00"/>
    </vehicle>

    <vehicle id="0.25" depart="124.00" departPos="0.00" departSpeed="10.00" speedFactor="1.0000" arrival="1583.00">
        <route edges="4/1to3/1 3/1to2/1 2/1to1/1 1/1to0/1" exitTimes="1150.00 1503.00 1543.00 1583.00"/>
    </vehicle>

    <vehicle id="0.36" depart="1135.00" departPos="0.00" departSpeed="10.00" speedFactor="1.0000" arrival="1622.00">
        <route edges="4/1to3/1 3/1to2/1 2/1to1/1 1/1to0/1" exitTimes="1502.00 1582.00 1622.00 -1"/>
    </vehicle>

    <vehicle id="0.16" depart="80.00" departPos="0.00" departSpeed="10.00" speedFactor="1.0000" arrival="1840.00">
        <route edges="4/1to3/1 3/1to2/1 2/1to1/1 1/1to0/1" exitTimes="1107.00 1167.00 1810.00 1840.00"/>
    </vehicle>

    <vehicle id="0.26" depart="136.00" departPos="0.00" departSpeed="10.00" speedFactor="1.0000" arrival="1883.00">
        <route edges="4/1to3/1 3/1to2/1 2/1to1/1 1/1to0/1" exitTimes="1154.00 1803.00 1843.00 1883.00"/>
    </vehicle>

    <vehicle id="0.37" depart="1141.00" departPos="0.00" departSpeed="10.00" speedFactor="1.0000" arrival="1922.00">
        <route edges="4/1to3/1 3/1to2/1 2/1to1/1 1/1to0/1" exitTimes="1802.00 1882.00 1922.00 -1"/>
    </vehicle>

    <vehicle id="0.17" depart="84.00" departPos="0.00" departSpeed="10.00" speedFactor="1.0000" arrival="2145.00">
        <route edges="4/1to3/1 3/1to2/1 2/1to1/1 1/1to0/1" exitTimes="1112.00 1171.00 2115.00 2145.00"/>
    </vehicle>

    <vehicle id="0.27" depart="146.00" departPos="0.00" departSpeed="10.00" speedFactor="1.0000" arrival="2184.00">
        <route edges="4/1to3/1 3/1to2/1 2/1to1/1 1/1to0/1" exitTimes="1159.00 2104.00 2144.00 2184.00"/>
    </vehicle>

    <vehicle id="0.38" depart="1145.00" departPos="0.00" departSpeed="10.00" speedFactor="1.0000" arrival="2223.00">
        <route edges="4/1to3/1 3/1to2/1 2/1to1/1 1/1to0/1" exitTimes="2103.00 2183.00 2223.00 -1"/>
    </vehicle>

    <vehicle id="2.15" depart="84.00" departPos="0.00" departSpeed="10.00" speedFactor="1.0000" arrival="2227.00">
        <route edges="2/0to2/1 2/1to1/1" exitTimes="1202.00 2227.00"/>
    </vehicle>

    <vehicle id="2.16" depart="100.00" departPos="0.00" departSpeed="10.00" speedFactor="1.0000" arrival="2229.00">
        <route edges="2/0to2/1 2/1to1/1" exitTimes="1206.00 2229.00"/>
    </vehicle>

    <vehicle id="2.17" depart="105.00" departPos="0.00" departSpeed="10.00" speedFactor="1.0000" arrival="2234.00">
        <route edges="2/0to2/1 2/1to1/1" exitTimes="1210.00 2234.00"/>
    </vehicle>

    <vehicle id="2.18" depart="117.00" departPos="0.00" departSpeed="10.00" speedFactor="1.0000" arrival="2238.00">
        <route edges="2/0to2/1 2/1to1/1" exitTimes="1214.00 2238.00"/>
    </vehicle>

    <vehicle id="1.11" depart="54.00" departPos="0.00" departSpeed="10.00" speedFactor="1.0000" arrival="2240.00">
        <route edges="3/0to3/1 3/1to2/1" exitTimes="1200.00 2240.00"/>
    </vehicle>

    <vehicle id="1.12" depart="60.00" departPos="0.00" departSpeed="10.00" speedFactor="1.0000" arrival="2240.00">
        <route edges="3/0to3/1 3/1to2/1" exitTimes="1205.00 2240.00"/>
    </vehicle>

    <vehicle id="1.13" depart="64.00" departPos="0.00" departSpeed="10.00" speedFactor="1.0000" arrival="2240.00">
        <route edges="3/0to3/1 3/1to2/1" exitTimes="1210.00 2240.00"/>
    </vehicle>

    <vehicle id="0.18" depart="90.00" departPos="0.00" departSpeed="10.00" speedFactor="1.0000" arrival="2240.00">
        <route edges="4/1to3/1 3/1to2/1 2/1to1/1 1/1to0/1" exitTimes="1117.00 1174.00 2200.00 2240.00"/>
    </vehicle>

    <vehicle id="2.19" depart="124.00" departPos="0.00" departSpeed="10.00" speedFactor="1.0000" arrival="2242.00">
        <route edges="2/0to2/1 2/1to1/1" exitTimes="1218.00 2242.00"/>
    </vehicle>

    <vehicle id="0.19" depart="94.00" departPos="0.00" departSpeed="10.00" speedFactor="1.0000" arrival="2244.00">
        <route edges="4/1to3/1 3/1to2/1 2/1to1/1 1/1to0/1" exitTimes="1121.00 1178.00 2204.00 2244.00"/>
    </vehicle>

    <vehicle id="1.14" depart="75.00" departPos="0.00" departSpeed="10.00" speedFactor="1.0000" arrival="2245.00">
        <route edges="3/0to3/1 3/1to2/1" exitTimes="1214.00 2245.00"/>
    </vehicle>

    <vehicle id="2.20" depart="128.00" departPos="0.00" departSpeed="10.00" speedFactor="1.0000" arrival="2246.00">
        <route edges="2/0to2/1 2/1to1/1" exitTimes="1222.00 2246.00"/>
    </vehicle>

    <vehicle id="0.20" depart="100.00" departPos="0.00" departSpeed="10.00" speedFactor="1.0000" arrival="2248.00">
        <route edges="4/1to3/1 3/1to2/1 2/1to1/1 1/1to0/1" exitTimes="1126.00 1182.00 2208.00 2248.00"/>
    </vehicle>

    <vehicle id="1.15" depart="85.00" departPos="0.00" departSpeed="10.00" speedFactor="1.0000" arrival="2250.00">
        <route edges="3/0to3/1 3/1to2/1" exitTimes="1219.00 2250.00"/>
    </vehicle>

    <vehicle id="2.21" depart="134.00" departPos="0.00" departSpeed="10.00" speedFactor="1.0000" arrival="2250.00">
        <route edges="2/0to2/1 2/1to1/1" exitTimes="1507.00 2250.00"/>
    </vehicle>

    <vehicle id="0.21" depart="104.00" departPos="0.00" departSpeed="10.00" speedFactor="1.0000" arrival="2252.00">
        <route edges="4/1to3/1 3/1to2/1 2/1to1/1 1/1to0/1" exitTimes="1131.00 1186.00 2212.00 2252.00"/>
    </vehicle>

    <vehicle id="1.16" depart="100.00" departPos="0.00" departSpeed="10.00" speedFactor="1.0000" arrival="2254.00">
        <route edges="3/0to3/1 3/1to2/1" exitTimes="1503.00 2254.00"/>
    </vehicle>

    <vehicle id="2.22" depart="138.00" departPos="0.00" departSpeed="10.00" speedFactor="1.0000" arrival="2254.00">
        <route edges="2/0to2/1 2/1to1/1" exitTimes="1812.00 2254.00"/>
    </vehicle>

    <vehicle id="0.22" depart="110.00" departPos="0.00" departSpeed="10.00" speedFactor="1.0000" arrival="2256.00">
        <route edges="4/1to3/1 3/1to2/1 2/1to1/1 1/1to0/1" exitTimes="1135.00 1190.00 2216.00 2256.00"/>
    </vehicle>

    <vehicle id="1.17" depart="105.00" departPos="0.00" departSpeed="10.00" speedFactor="1.0000" arrival="2258.00">
        <route edges="3/0to3/1 3/1to2/1" exitTimes="1803.00 2258.00"/>
    </vehicle>

    <vehicle id="2.23" depart="144.00" departPos="0.00" departSpeed="10.00" speedFactor="1.0000" arrival="2258.00">
        <route edges="2/0to2/1 2/1to1/1" exitTimes="2117.00 2258.00"/>
    </vehicle>

    <vehicle id="0.23" depart="114.00" departPos="0.00" departSpeed="10.00" speedFactor="1.0000" arrival="2260.00">
        <route edges="4/1to3/1 3/1to2/1 2/1to1/1 1/1to0/1" exitTimes="1140.00 1194.00 2220.00 2260.00"/>
    </vehicle>

    <vehicle id="1.18" depart="117.00" departPos="0.00" departSpeed="10.00" speedFactor="1.0000" arrival="2262.00">
        <route edges="3/0to3/1 3/1to2/1" exitTimes="2104.00 2262.00"/>
    </vehicle>

    <vehicle id="0.24" depart="120.00" departPos="0.00" departSpeed="10.00" speedFactor="1.0000" arrival="2264.00">
        <route edges="4/1to3/1 3/1to2/1 2/1to1/1 1/1to0/1" exitTimes="1145.00 1198.00 2224.00 2264.00"/>
    </vehicle>

    <vehicle id="0.28" depart="401.00" departPos="0.00" departSpeed="10.00" speedFactor="1.0000" arrival="2301.00">
        <route edges="4/1to3/1 3/1to2/1 2/1to1/1 1/1to0/1" exitTimes="1164.00 2202.00 2261.00 2301.00"/>
    </vehicle>

    <vehicle id="0.29" depart="701.00" departPos="0.00" departSpeed="10.00" speedFactor="1.0000" arrival="2305.00">
        <route edges="4/1to3/1 3/1to2/1 2/1to1/1 1/1to0/1" exitTimes="1169.00 2206.00 2265.00 2305.00"/>
    </vehicle>

    <vehicle id="0.30" depart="1002.00" departPos="0.00" departSpeed="10.00" speedFactor="1.0000" arrival="2309.00">
        <route edges="4/1to3/1 3/1to2/1 2/1to1/1 1/1to0/1" exitTimes="1173.00 2211.00 2269.00 2309.00"/>
    </vehicle>

    <vehicle id="0.31" depart="1102.00" departPos="0.00" departSpeed="10.00" speedFactor="1.0000" arrival="2313.00">
        <route edges="4/1to3/1 3/1to2/1 2/1to1/1 1/1to0/1" exitTimes="1178.00 2216.00 2273.00 2313.00"/>
    </vehicle>

    <vehicle id="0.32" depart="1107.00" departPos="0.00" departSpeed="10.00" speedFactor="1.0000" arrival="2317.00">
        <route edges="4/1to3/1 3/1to2/1 2/1to1/1 1/1to0/1" exitTimes="1183.00 2221.00 2277.00 2317.00"/>
    </vehicle>

    <vehicle id="0.33" depart="1112.00" departPos="0.00" departSpeed="10.00" speedFactor="1.0000" arrival="2321.00">
        <route edges="4/1to3/1 3/1to2/1 2/1to1/1 1/1to0/1" exitTimes="1187.00 2225.00 2281.00 2321.00"/>
    </vehicle>

    <vehicle id="0.34" depart="1125.00" departPos="0.00" departSpeed="10.00" speedFactor="1.0000" arrival="2324.00">
        <route edges="4/1to3/1 3/1to2/1 2/1to1/1 1/1to0/1" exitTimes="1192.00 2230.00 2284.00 2324.00"/>
    </vehicle>

    <vehicle id="0.35" depart="1131.00" departPos="0.00" departSpeed="10.00" speedFactor="1.0000" arrival="2327.00">
        <route edges="4/1to3/1 3/1to2/1 2/1to1/1 1/1to0/1" exitTimes="1197.00 2235.00 2287.00 2327.00"/>
    </vehicle>

    <vehicle id="0.39" depart="1151.00" departPos="0.00" departSpeed="10.00" speedFactor="1.0000" arrival="2637.00">
        <route edges="4/1to3/1 3/1to2/1 2/1to1/1 1/1to0/1" exitTimes="2202.00 2266.00 2607.00 2637.00"/>
    </vehicle>

    <vehicle id="0.48" depart="1195.00" departPos="0.00" departSpeed="10.00" speedFactor="1.0000" arrival="2681.00">
        <route edges="4/1to3/1 3/1to2/1 2/1to1/1 1/1to0/1" exitTimes="2244.00 2601.00 2641.00 2681.00"/>
    </vehicle>

    <vehicle id="0.40" depart="1155.00" departPos="0.00" departSpeed="10.00" speedFactor="1.0000" arrival="2941.00">
        <route edges="4/1to3/1 3/1to2/1 2/1to1/1 1/1to0/1" exitTimes="2206.00 2269.00 2911.00 2941.00"/>
    </vehicle>

    <vehicle id="0.49" depart="1201.00" departPos="0.00" departSpeed="10.00" speedFactor="1.0000" arrival="2981.00">
        <route edges="4/1to3/1 3/1to2/1 2/1to1/1 1/1to0/1" exitTimes="2249.00 2901.00 2941.00 2981.00"/>
    </vehicle>

    <vehicle id="1.19" depart="124.00" departPos="0.00" departSpeed="10.00" speedFactor="1.0000" arrival="3202.00">
        <route edges="3/0to3/1 3/1to2/1" exitTimes="2300.00 3202.00"/>
    </vehicle>

    <vehicle id="1.20" depart="128.00" departPos="0.00" departSpeed="10.00" speedFactor="1.0000" arrival="3202.00">
        <route edges="3/0to3/1 3/1to2/1" exitTimes="2303.00 3202.00"/>
    </vehicle>

    <vehicle id="1.21" depart="134.00" departPos="0.00" departSpeed="10.00" speedFactor="1.0000" arrival="3202.00">
        <route edges="3/0to3/1 3/1to2/1" exitTimes="2307.00 3202.00"/>
    </vehicle>

    <vehicle id="1.22" depart="145.00" departPos="0.00" departSpeed="10.00" speedFactor="1.0000" arrival="3212.00">
        <route edges="3/0to3/1 3/1to2/1" exitTimes="2311.00 3212.00"/>
    </vehicle>

    <vehicle id="1.23" depart="155.00" departPos="0.00" departSpeed="10.00" speedFactor="1.0000" arrival="3216.00">
        <route edges="3/0to3/1 3/1to2/1" exitTimes="2315.00 3216.00"/>
    </vehicle>

    <vehicle id="1.24" depart="401.00" departPos="0.00" departSpeed="10.00" speedFactor="1.0000" arrival="3220.00">
        <route edges="3/0to3/1 3/1to2/1" exitTimes="2319.00 3220.00"/>
    </vehicle>

    <vehicle id="1.25" depart="701.00" departPos="0.00" departSpeed="10.00" speedFactor="1.0000" arrival="3224.00">
        <route edges="3/0to3/1 3/1to2/1" exitTimes="2323.00 3224.00"/>
    </vehicle>

    <vehicle id="1.26" depart="1002.00" departPos="0.00" departSpeed="10.00" speedFactor="1.0000" arrival="3228.00">
        <route edges="3/0to3/1 3/1to2/1" exitTimes="2327.00 3228.00"/>
    </vehicle>

    <vehicle id="1.27" depart="1200.00" departPos="0.00" departSpeed="10.00" speedFactor="1.0000" arrival="3232.00">
        <route edges="3/0to3/1 3/1to2/1" exitTimes="2331.00 3232.00"/>
    </vehicle>

    <vehicle id="1.28" depart="1205.00" departPos="0.00" departSpeed="10.00" speedFactor="1.0000" arrival="3236.00">
        <route edges="3/0to3/1 3/1to2/1" exitTimes="2334.00 3236.00"/>
    </vehicle>

    <vehicle id="1.29" depart="1210.00" departPos="0.00" departSpeed="10.00" speedFactor="1.0000" arrival="3240.00">
        <route edges="3/0to3/1 3/1to2/1" exitTimes="2338.00 3240.00"/>
    </vehicle>

    <vehicle id="1.30" depart="1223.00" departPos="0.00" departSpeed="10.00" speedFactor="1.0000" arrival="3243.00">
        <route edges="3/0to3/1 3/1to2/1" exitTimes="2342.00 3243.00"/>
    </vehicle>

    <vehicle id="1.31" depart="1232.00" departPos="0.00" departSpeed="10.00" speedFactor="1.0000" arrival="3246.00">
        <route edges="3/0to3/1 3/1to2/1" exitTimes="2346.00 3246.00"/>
    </vehicle>

    <vehicle id="0.41" depart="1161.00" departPos="0.00" departSpeed="10.00" speedFactor="1.0000" arrival="3246.00">
        <route edges="4/1to3/1 3/1to2/1 2/1to1/1 1/1to0/1" exitTimes="2211.00 2273.00 3216.00 3246.00"/>
    </vehicle>

    <vehicle id="1.32" depart="1503.00" departPos="0.00" departSpeed="10.00" speedFactor="1.0000" arrival="3250.00">
        <route edges="3/0to3/1 3/1to2/1" exitTimes="2604.00 3250.00"/>
    </vehicle>

    <vehicle id="1.33" depart="1803.00" departPos="0.00" departSpeed="10.00" speedFactor="1.0000" arrival="3254.00">
        <route edges="3/0to3/1 3/1to2/1" exitTimes="2902.00 3254.00"/>
    </vehicle>

    <vehicle id="1.34" depart="2104.00" departPos="0.00" departSpeed="10.00" speedFactor="1.0000" arrival="3258.00">
        <route edges="3/0to3/1 3/1to2/1" exitTimes="3202.00 3258.00"/>
    </vehicle>

    <vehicle id="1.35" depart="2300.00" departPos="0.00" departSpeed="10.00" speedFactor="1.0000" arrival="3262.00">
        <route edges="3/0to3/1 3/1to2/1" exitTimes="3206.00 3262.00"/>
    </vehicle>

    <vehicle id="1.36" depart="2304.00" departPos="0.00" departSpeed="10.00" speedFactor="1.0000" arrival="3266.00">
        <route edges="3/0to3/1 3/1to2/1" exitTimes="3211.00 3266.00"/>
    </vehicle>

    <vehicle id="1.37" depart="2309.00" departPos="0.00" departSpeed="10.00" speedFactor="1.0000" arrival="3270.00">
        <route edges="3/0to3/1 3/1to2/1" exitTimes="3216.00 3270.00"/>
    </vehicle>

    <vehicle id="1.38" depart="2322.00" departPos="0.00" departSpeed="10.00" speedFactor="1.0000" arrival="3274.00">
        <route edges="3/0to3/1 3/1to2/1" exitTimes="3221.00 3274.00"/>
    </vehicle>

    <vehicle id="1.39" depart="2328.00" departPos="0.00" departSpeed="10.00" speedFactor="1.0000" arrival="3278.00">
        <route edges="3/0to3/1 3/1to2/1" exitTimes="3225.00 3278.00"/>
    </vehicle>

    <vehicle id="1.40" depart="2333.00" departPos="0.00" departSpeed="10.00" speedFactor="1.0000" arrival="3281.00">
        <route edges="3/0to3/1 3/1to2/1" exitTimes="3230.00 3281.00"/>
    </vehicle>

    <vehicle id="2" depart="1211.00" departPos="0.00" departSpeed="10.00" speedFactor="1.0000" arrival="3282.00">
        <route edges="4/1to3/1 3/1to2/1 2/1to1/1 1/1to0/1" exitTimes="2254.00 3202.00 3242.00 3282.00"/>
    </vehicle>

    <vehicle id="1.41" depart="2338.00" departPos="0.00" departSpeed="10.00" speedFactor="1.0000" arrival="3285.00">
        <route edges="3/0to3/1 3/1to2/1" exitTimes="3235.00 3285.00"/>
    </vehicle>

    <vehicle id="1.42" depart="2343.00" departPos="0.00" departSpeed="10.00" speedFactor="1.0000" arrival="3288.00">
        <route edges="3/0to3/1 3/1to2/1" exitTimes="3240.00 3288.00"/>
    </vehicle>

    <vehicle id="1.43" depart="2348.00" departPos="0.00" departSpeed="10.00" speedFactor="1.0000" arrival="3292.00">
        <route edges="3/0to3/1 3/1to2/1" exitTimes="3244.00 3292.00"/>
    </vehicle>

    <vehicle id="1.44" depart="2353.00" departPos="0.00" departSpeed="10.00" speedFactor="1.0000" arrival="3296.00">
        <route edges="3/0to3/1 3/1to2/1" exitTimes="3249.00 3296.00"/>
    </vehicle>

    <vehicle id="1.45" depart="2358.00" departPos="0.00" departSpeed="10.00" speedFactor="1.0000" arrival="3300.00">
        <route edges="3/0to3/1 3/1to2/1" exitTimes="3254.00 3300.00"/>
    </vehicle>

    <vehicle id="1.46" depart="2369.00" departPos="0.00" departSpeed="10.00" speedFactor="1.0000" arrival="3304.00">
        <route edges="3/0to3/1 3/1to2/1" exitTimes="3258.00 3304.00"/>
    </vehicle>

    <vehicle id="1.47" depart="2378.00" departPos="0.00" departSpeed="10.00" speedFactor="1.0000" arrival="3308.00">
        <route edges="3/0to3/1 3/1to2/1" exitTimes="3263.00 3308.00"/>
    </vehicle>

    <vehicle id="1.48" depart="2605.00" departPos="0.00" departSpeed="10.00" speedFactor="1.0000" arrival="3312.00">
        <route edges="3/0to3/1 3/1to2/1" exitTimes="3267.00 3312.00"/>
    </vehicle>

    <vehicle id="1.49" depart="2903.00" departPos="0.00" departSpeed="10.00" speedFactor="1.0000" arrival="3315.00">
        <route edges="3/0to3/1 3/1to2/1" exitTimes="3271.00 3315.00"/>
    </vehicle>

    <vehicle id="2.24" depart="148.00" departPos="0.00" departSpeed="10.00" speedFactor="1.0000" arrival="3324.00">
        <route edges="2/0to2/1 2/1to1/1" exitTimes="2300.00 3324.00"/>
    </vehicle>

    <vehicle id="2.25" depart="154.00" departPos="0.00" departSpeed="10.00" speedFactor="1.0000" arrival="3325.00">
        <route edges="2/0to2/1 2/1to1/1" exitTimes="2304.00 3325.00"/>
    </vehicle>

    <vehicle id="2.26" depart="164.00" departPos="0.00" departSpeed="10.00" speedFactor="1.0000" arrival="3330.00">
        <route edges="2/0to2/1 2/1to1/1" exitTimes="2308.00 3330.00"/>
    </vehicle>

    <vehicle id="2.27" depart="173.00" departPos="0.00" departSpeed="10.00" speedFactor="1.0000" arrival="3335.00">
        <route edges="2/0to2/1 2/1to1/1" exitTimes="2312.00 3335.00"/>
    </vehicle>

    <vehicle id="2.28" depart="425.00" departPos="0.00" departSpeed="10.00" speedFactor="1.0000" arrival="3339.00">
        <route edges="2/0to2/1 2/1to1/1" exitTimes="2316.00 3339.00"/>
    </vehicle>

    <vehicle id="0.42" depart="1165.00" departPos="0.00" departSpeed="10.00" speedFactor="1.0000" arrival="3340.00">
        <route edges="4/1to3/1 3/1to2/1 2/1to1/1 1/1to0/1" exitTimes="2216.00 2277.00 3300.00 3340.00"/>
    </vehicle>

    <vehicle id="2.29" depart="730.00" departPos="0.00" departSpeed="10.00" speedFactor="1.0000" arrival="3343.00">
        <route edges="2/0to2/1 2/1to1/1" exitTimes="2320.00 3343.00"/>
    </vehicle>

    <vehicle id="0.43" depart="1171.00" departPos="0.00" departSpeed="10.00" speedFactor="1.0000" arrival="3344.00">
        <route edges="4/1to3/1 3/1to2/1 2/1to1/1 1/1to0/1" exitTimes="2221.00 2281.00 3304.00 3344.00"/>
    </vehicle>

    <vehicle id="2.30" depart="1036.00" departPos="0.00" departSpeed="10.00" speedFactor="1.0000" arrival="3347.00">
        <route edges="2/0to2/1 2/1to1/1" exitTimes="2324.00 3347.00"/>
    </vehicle>

    <vehicle id="0.44" depart="1175.00" departPos="0.00" departSpeed="10.00" speedFactor="1.0000" arrival="3348.00">
        <route edges="4/1to3/1 3/1to2/1 2/1to1/1 1/1to0/1" exitTimes="2225.00 2284.00 3308.00 3348.00"/>
    </vehicle>

    <vehicle id="2.31" depart="1202.00" departPos="0.00" departSpeed="10.00" speedFactor="1.0000" arrival="3351.00">
        <route edges="2/0to2/1 2/1to1/1" exitTimes="2608.00 3351.00"/>
    </vehicle>

    <vehicle id="0.45" depart="1181.00" departPos="0.00" departSpeed="10.00" speedFactor="1.0000" arrival="3352.00">
        <route edges="4/1to3/1 3/1to2/1 2/1to1/1 1/1to0/1" exitTimes="2230.00 2288.00 3312.00 3352.00"/>
    </vehicle>
