<?xml version="1.0" encoding="UTF-8"?>

<!-- generated on 09/07/18 09:50:12 by Eclipse SUMO Version UNKNOWN
<configuration xmlns:xsi="http://www.w3.org/2001/XMLSchema-instance" xsi:noNamespaceSchemaLocation="https://sumo.dlr.de/xsd/sumoConfiguration.xsd">

    <input>
        <net-file value="net.net.xml"/>
        <route-files value="input_routes.rou.xml"/>
        <additional-files value="input_additional.add.xml"/>
    </input>

    <output>
        <vehroute-output value="vehroutes.xml"/>
    </output>

    <processing>
        <pedestrian.model value="nonInteracting"/>
    </processing>

    <report>
        <no-step-log value="true"/>
    </report>

    <mesoscopic>
        <mesosim value="true"/>
    </mesoscopic>

</configuration>
-->

<routes xmlns:xsi="http://www.w3.org/2001/XMLSchema-instance" xsi:noNamespaceSchemaLocation="https://sumo.dlr.de/xsd/routes_file.xsd">
    <vehicle id="bus.0" type="bus" depart="0.00" line="bus" arrival="108.00">
        <routeDistribution>
            <route replacedOnEdge="" reason="device.rerouting" replacedAtTime="0.00" probability="0" edges="beg beg end end"/>
            <route edges="beg middle end"/>
        </routeDistribution>
        <stop busStop="beg_0" until="0.00"/>
        <stop busStop="end_0" until="100.00"/>
    </vehicle>

    <vehicle id="bus.1" type="bus" depart="100.00" line="bus" arrival="208.00">
        <routeDistribution>
            <route replacedOnEdge="" reason="device.rerouting" replacedAtTime="100.00" probability="0" edges="beg beg end end"/>
            <route edges="beg middle end"/>
        </routeDistribution>
        <stop busStop="beg_0" until="100.00"/>
        <stop busStop="end_0" until="200.00"/>
    </vehicle>

    <vehicle id="bus.2" type="bus" depart="200.00" line="bus" arrival="308.00">
        <routeDistribution>
            <route replacedOnEdge="" reason="device.rerouting" replacedAtTime="200.00" probability="0" edges="beg beg end end"/>
            <route edges="beg middle end"/>
        </routeDistribution>
        <stop busStop="beg_0" until="200.00"/>
        <stop busStop="end_0" until="300.00"/>
    </vehicle>

    <vehicle id="bus.3" type="bus" depart="300.00" line="bus" arrival="408.00">
        <routeDistribution>
            <route replacedOnEdge="" reason="device.rerouting" replacedAtTime="300.00" probability="0" edges="beg beg end end"/>
            <route edges="beg middle end"/>
        </routeDistribution>
        <stop busStop="beg_0" until="300.00"/>
        <stop busStop="end_0" until="400.00"/>
    </vehicle>

    <person id="p0" depart="0.00" arrival="410.00">
        <walk edges="beg" busStop="beg_0"/>
        <ride from="beg" to="end" busStop="end_0" lines="bus" intended="bus.3" depart="300.00"/>
        <walk edges="end"/>
    </person>

    <vehicle id="bus.4" type="bus" depart="400.00" line="bus" arrival="508.00">
        <routeDistribution>
            <route replacedOnEdge="" reason="device.rerouting" replacedAtTime="400.00" probability="0" edges="beg beg end end"/>
            <route edges="beg middle end"/>
        </routeDistribution>
        <stop busStop="beg_0" until="400.00"/>
        <stop busStop="end_0" until="500.00"/>
    </vehicle>

</routes>
