<?xml version="1.0" encoding="UTF-8"?>

<!-- generated on Thu May  8 13:31:48 2014 by SUMO sumo Version dev-SVN-r16321
<?xml version="1.0" encoding="UTF-8"?>

<configuration xmlns:xsi="http://www.w3.org/2001/XMLSchema-instance" xsi:noNamespaceSchemaLocation="http://sumo.dlr.de/xsd/sumoConfiguration.xsd">

    <input>
        <net-file value="net.net.xml"/>
        <additional-files value="input_additional.add.xml,input_additional2.add.xml"/>
    </input>

    <output>
        <netstate-dump value="rawdump.xml"/>
    </output>

    <processing>
        <pedestrian.model value="striping"/>
        <pedestrian.striping.dawdling value="0"/>
    </processing>

    <report>
        <xml-validation value="never"/>
        <no-step-log value="true"/>
    </report>

</configuration>
-->

<netstate xmlns:xsi="http://www.w3.org/2001/XMLSchema-instance" xsi:noNamespaceSchemaLocation="http://sumo.dlr.de/xsd/netstate_file.xsd">
    <timestep time="0.00"/>
    <timestep time="1.00"/>
    <timestep time="2.00"/>
    <timestep time="3.00"/>
    <timestep time="4.00"/>
    <timestep time="5.00"/>
    <timestep time="6.00"/>
    <timestep time="7.00"/>
    <timestep time="8.00"/>
    <timestep time="9.00"/>
    <timestep time="10.00">
        <edge id="SC">
            <person id="p0" pos="65.68" angle="-180.00" stage="walking"/>
        </edge>
    </timestep>
    <timestep time="11.00">
        <edge id="SC">
            <person id="p0" pos="67.07" angle="-180.00" stage="walking"/>
        </edge>
    </timestep>
    <timestep time="12.00">
        <edge id="SC">
            <person id="p0" pos="68.46" angle="-180.00" stage="walking"/>
        </edge>
    </timestep>
    <timestep time="13.00">
        <edge id="SC">
            <person id="p0" pos="69.85" angle="-180.00" stage="walking"/>
        </edge>
    </timestep>
    <timestep time="14.00">
        <edge id="SC">
            <person id="p0" pos="71.24" angle="-180.00" stage="walking"/>
        </edge>
    </timestep>
    <timestep time="15.00">
        <edge id="SC">
            <person id="p0" pos="72.62" angle="-180.00" stage="walking"/>
        </edge>
    </timestep>
    <timestep time="16.00">
        <edge id="SC">
            <person id="p0" pos="74.01" angle="-180.00" stage="walking"/>
        </edge>
    </timestep>
    <timestep time="17.00">
        <edge id="SC">
            <person id="p0" pos="75.40" angle="-180.00" stage="walking"/>
        </edge>
    </timestep>
    <timestep time="18.00">
        <edge id="SC">
            <person id="p0" pos="76.79" angle="-180.00" stage="walking"/>
        </edge>
    </timestep>
    <timestep time="19.00">
        <edge id="SC">
            <person id="p0" pos="78.18" angle="-180.00" stage="walking"/>
        </edge>
    </timestep>
    <timestep time="20.00">
        <edge id="SC">
            <person id="p0" pos="79.57" angle="-180.00" stage="walking"/>
        </edge>
    </timestep>
    <timestep time="21.00">
        <edge id="SC">
            <person id="p0" pos="80.96" angle="-180.00" stage="walking"/>
        </edge>
    </timestep>
    <timestep time="22.00">
        <edge id="SC">
            <person id="p0" pos="82.35" angle="-180.00" stage="walking"/>
        </edge>
    </timestep>
    <timestep time="23.00">
        <edge id="SC">
            <person id="p0" pos="83.74" angle="-180.00" stage="walking"/>
        </edge>
    </timestep>
    <timestep time="24.00">
        <edge id="SC">
            <person id="p0" pos="85.12" angle="-180.00" stage="walking"/>
        </edge>
    </timestep>
    <timestep time="25.00">
        <edge id=":C_w2">
            <person id="p0" pos="0.83" angle="-149.75" stage="walking"/>
        </edge>
    </timestep>
    <timestep time="26.00">
        <edge id=":C_w2">
            <person id="p0" pos="2.22" angle="-149.75" stage="walking"/>
        </edge>
    </timestep>
    <timestep time="27.00">
        <edge id=":C_c2">
            <person id="p0" pos="18.08" angle="-90.00" stage="walking"/>
        </edge>
    </timestep>
    <timestep time="28.00">
        <edge id=":C_c2">
            <person id="p0" pos="16.69" angle="-90.00" stage="walking"/>
        </edge>
    </timestep>
    <timestep time="29.00">
        <edge id=":C_c2">
            <person id="p0" pos="15.30" angle="-90.00" stage="walking"/>
        </edge>
    </timestep>
    <timestep time="30.00">
        <edge id=":C_c2">
            <person id="p0" pos="13.91" angle="-90.00" stage="walking"/>
        </edge>
    </timestep>
    <timestep time="31.00">
        <edge id=":C_c2">
            <person id="p0" pos="12.52" angle="-90.00" stage="walking"/>
        </edge>
    </timestep>
    <timestep time="32.00">
        <edge id=":C_c2">
            <person id="p0" pos="11.13" angle="-90.00" stage="walking"/>
        </edge>
    </timestep>
    <timestep time="33.00">
        <edge id=":C_c2">
            <person id="p0" pos="9.74" angle="-90.00" stage="walking"/>
        </edge>
    </timestep>
    <timestep time="34.00">
        <edge id=":C_c2">
            <person id="p0" pos="8.35" angle="-90.00" stage="walking"/>
        </edge>
    </timestep>
    <timestep time="35.00">
        <edge id=":C_c2">
            <person id="p0" pos="6.96" angle="-90.00" stage="walking"/>
        </edge>
    </timestep>
    <timestep time="36.00">
        <edge id=":C_c2">
            <person id="p0" pos="5.58" angle="-90.00" stage="walking"/>
        </edge>
    </timestep>
    <timestep time="37.00">
        <edge id=":C_c2">
            <person id="p0" pos="4.19" angle="-90.00" stage="walking"/>
        </edge>
    </timestep>
    <timestep time="38.00">
        <edge id=":C_c2">
            <person id="p0" pos="2.80" angle="-90.00" stage="walking"/>
        </edge>
    </timestep>
    <timestep time="39.00">
        <edge id=":C_c2">
            <person id="p0" pos="1.41" angle="-90.00" stage="walking"/>
        </edge>
    </timestep>
    <timestep time="40.00">
        <edge id=":C_c2">
            <person id="p0" pos="0.02" angle="-90.00" stage="walking"/>
        </edge>
    </timestep>
    <timestep time="41.00">
        <edge id=":C_w3">
            <person id="p0" pos="2.92" angle="-141.21" stage="walking"/>
        </edge>
    </timestep>
    <timestep time="42.00">
        <edge id=":C_w3">
            <person id="p0" pos="1.53" angle="-141.21" stage="walking"/>
        </edge>
    </timestep>
    <timestep time="43.00">
        <edge id=":C_w3">
            <person id="p0" pos="0.14" angle="180.00" stage="walking"/>
        </edge>
    </timestep>
    <timestep time="44.00">
        <edge id=":C_c3">
            <person id="p0" pos="17.25" angle="180.00" stage="walking"/>
        </edge>
    </timestep>
    <timestep time="45.00">
        <edge id=":C_c3">
            <person id="p0" pos="15.86" angle="180.00" stage="walking"/>
        </edge>
    </timestep>
    <timestep time="46.00">
        <edge id=":C_c3">
            <person id="p0" pos="14.47" angle="180.00" stage="walking"/>
        </edge>
    </timestep>
    <timestep time="47.00">
        <edge id=":C_c3">
            <person id="p0" pos="13.08" angle="180.00" stage="walking"/>
        </edge>
    </timestep>
    <timestep time="48.00">
        <edge id=":C_c3">
            <person id="p0" pos="11.70" angle="180.00" stage="walking"/>
        </edge>
    </timestep>
    <timestep time="49.00">
        <edge id=":C_c3">
            <person id="p0" pos="10.31" angle="180.00" stage="walking"/>
        </edge>
    </timestep>
    <timestep time="50.00">
        <edge id=":C_c3">
            <person id="p0" pos="8.92" angle="180.00" stage="walking"/>
        </edge>
    </timestep>
    <timestep time="51.00">
        <edge id=":C_c3">
            <person id="p0" pos="7.53" angle="180.00" stage="walking"/>
        </edge>
    </timestep>
    <timestep time="52.00">
        <edge id=":C_c3">
            <person id="p0" pos="6.14" angle="180.00" stage="walking"/>
        </edge>
    </timestep>
    <timestep time="53.00">
        <edge id=":C_c3">
            <person id="p0" pos="4.75" angle="180.00" stage="walking"/>
        </edge>
    </timestep>
    <timestep time="54.00">
        <edge id=":C_c3">
            <person id="p0" pos="3.36" angle="180.00" stage="walking"/>
        </edge>
    </timestep>
    <timestep time="55.00">
        <edge id=":C_c3">
            <person id="p0" pos="1.97" angle="180.00" stage="walking"/>
        </edge>
    </timestep>
    <timestep time="56.00">
        <edge id=":C_c3">
            <person id="p0" pos="0.58" angle="180.00" stage="walking"/>
        </edge>
    </timestep>
    <timestep time="57.00">
        <edge id=":C_w0">
            <person id="p0" pos="3.68" angle="180.00" stage="walking"/>
        </edge>
    </timestep>
    <timestep time="58.00">
        <edge id=":C_w0">
            <person id="p0" pos="2.29" angle="158.14" stage="walking"/>
        </edge>
    </timestep>
    <timestep time="59.00">
        <edge id=":C_w0">
            <person id="p0" pos="0.90" angle="180.00" stage="walking"/>
        </edge>
    </timestep>
    <timestep time="60.00">
        <edge id="NC">
            <person id="p0" pos="85.94" angle="180.00" stage="walking"/>
        </edge>
    </timestep>
    <timestep time="61.00">
        <edge id="NC">
            <person id="p0" pos="84.55" angle="180.00" stage="walking"/>
        </edge>
    </timestep>
    <timestep time="62.00">
        <edge id="NC">
            <person id="p0" pos="83.17" angle="180.00" stage="walking"/>
        </edge>
    </timestep>
    <timestep time="63.00">
        <edge id="NC">
            <person id="p0" pos="81.78" angle="180.00" stage="walking"/>
        </edge>
    </timestep>
    <timestep time="64.00">
        <edge id="NC">
            <person id="p0" pos="80.39" angle="180.00" stage="walking"/>
        </edge>
    </timestep>
    <timestep time="65.00">
        <edge id="NC">
            <person id="p0" pos="79.00" angle="180.00" stage="walking"/>
        </edge>
    </timestep>
    <timestep time="66.00">
        <edge id="NC">
            <person id="p0" pos="77.61" angle="180.00" stage="walking"/>
        </edge>
    </timestep>
    <timestep time="67.00">
        <edge id="NC">
            <person id="p0" pos="76.22" angle="180.00" stage="walking"/>
        </edge>
    </timestep>
    <timestep time="68.00">
        <edge id="NC">
            <person id="p0" pos="74.83" angle="180.00" stage="walking"/>
        </edge>
    </timestep>
    <timestep time="69.00">
        <edge id="NC">
            <person id="p0" pos="73.44" angle="180.00" stage="walking"/>
        </edge>
    </timestep>
    <timestep time="70.00">
        <edge id="NC">
            <person id="p0" pos="72.05" angle="180.00" stage="walking"/>
        </edge>
    </timestep>
    <timestep time="71.00">
        <edge id="NC">
            <person id="p0" pos="70.67" angle="180.00" stage="walking"/>
        </edge>
    </timestep>
    <timestep time="72.00">
        <edge id="NC">
            <person id="p0" pos="69.28" angle="180.00" stage="walking"/>
        </edge>
    </timestep>
    <timestep time="73.00">
        <edge id="NC">
            <person id="p0" pos="67.89" angle="180.00" stage="walking"/>
        </edge>
    </timestep>
    <timestep time="74.00">
        <edge id="NC">
            <person id="p0" pos="66.50" angle="180.00" stage="walking"/>
        </edge>
    </timestep>
    <timestep time="75.00"/>
</netstate>
