<?xml version="1.0" encoding="UTF-8"?>

<!-- generated on Wed Jan  3 09:20:58 2018 by SUMO Version v0_32_0+0043-24523c2
<?xml version="1.0" encoding="UTF-8"?>

<configuration xmlns:xsi="http://www.w3.org/2001/XMLSchema-instance" xsi:noNamespaceSchemaLocation="http://sumo.dlr.de/xsd/sumoConfiguration.xsd">

    <input>
        <net-file value="net.net.xml"/>
        <route-files value="input_routes.rou.xml"/>
    </input>

    <output>
        <tripinfo-output value="tripinfos.xml"/>
    </output>

    <report>
        <xml-validation value="never"/>
        <duration-log.disable value="true"/>
        <no-step-log value="true"/>
    </report>

</configuration>
-->

<tripinfos xmlns:xsi="http://www.w3.org/2001/XMLSchema-instance" xsi:noNamespaceSchemaLocation="http://sumo.dlr.de/xsd/tripinfo_file.xsd">
    <tripinfo id="right" depart="0.00" departLane="beg_0" departPos="388.50" departSpeed="2.00" departDelay="0.00" arrival="86.00" arrivalLane="end_0" arrivalPos="1098.50" arrivalSpeed="13.46" duration="86.00" routeLength="1112.23" waitingTime="0.00" stopTime="0.00" timeLoss="5.93" rerouteNo="0" devices="tripinfo_right" vType="DEFAULT_VEHTYPE" speedFactor="1.00" vaporized=""/>
    <tripinfo id="left" depart="0.00" departLane="beg_1" departPos="388.50" departSpeed="2.00" departDelay="0.00" arrival="89.00" arrivalLane="end_0" arrivalPos="1098.50" arrivalSpeed="13.47" duration="89.00" routeLength="1112.23" waitingTime="2.00" stopTime="0.00" timeLoss="8.80" rerouteNo="0" devices="tripinfo_left" vType="DEFAULT_VEHTYPE" speedFactor="1.00" vaporized=""/>
</tripinfos>
