<?xml version="1.0" encoding="UTF-8"?>

<!-- generated on 2026-01-23T11:05:48.684683+01:00 by Eclipse SUMO sumo v1_25_0+1151-2ef687ab93b
<sumoConfiguration xmlns:xsi="http://www.w3.org/2001/XMLSchema-instance" xsi:noNamespaceSchemaLocation="http://sumo.dlr.de/xsd/sumoConfiguration.xsd">

    <input>
        <net-file value="input_net2.net.xml"/>
        <route-files value="input_routes.rou.xml"/>
    </input>

    <output>
        <tripinfo-output value="tripinfo.xml"/>
        <vehroute-output value="vehroutes.xml"/>
        <save-state.times value="20"/>
        <save-state.files value="state.xml"/>
    </output>

    <report>
        <duration-log.disable value="true"/>
        <no-step-log value="true"/>
    </report>

    <mesoscopic>
        <mesosim value="true"/>
    </mesoscopic>

</sumoConfiguration>
-->

<snapshot type="meso" version="v1_25_0+1151-2ef687ab93b" time="20.00" xmlns:xsi="http://www.w3.org/2001/XMLSchema-instance" xsi:noNamespaceSchemaLocation="http://sumo.dlr.de/xsd/state_file.xsd">
    <route id="r0" state="1" edges="SC"/>
    <delay number="8" begin="10" end="1" depart="3.00" time="19.00"/>
    <vType id="DEFAULT_VEHTYPE" maxSpeed="5.00" sigma="0"/>
    <vehicle id="f.1" depart="2.00" arrivalPos="random" route="r0" distance="0 0" arrivalPosRandomized="65.51" speedFactor="0.9383" state="10432 2000 0 0 0 1 20390 2000 9223372036854774807">
        <device id="vehroute_f.1" state="5.00 0.00 0"/>
        <device id="tripinfo_f.1" state="SC_0 5 -0 0 0 0 0 -1 -1000 NONE -1 0 -1"/>
    </vehicle>
    <vehicle id="f.2" depart="4.00" arrivalPos="random" route="r0" distance="0 0" arrivalPosRandomized="4.18" speedFactor="1.0104" state="10432 4000 0 0 0 0 22390 4000 9223372036854774807">
        <device id="vehroute_f.2" state="5.00 0.00 0"/>
        <device id="tripinfo_f.2" state="SC_0 5 -0 0 0 0 0 -1 -1000 NONE -1 0 -1"/>
    </vehicle>
    <vehicle id="f.3" depart="6.00" arrivalPos="random" route="r0" distance="0 0" arrivalPosRandomized="45.19" speedFactor="1.0827" state="10432 6000 0 0 0 1 24390 6000 9223372036854774807">
        <device id="vehroute_f.3" state="5.00 0.00 0"/>
        <device id="tripinfo_f.3" state="SC_0 5 -0 0 0 0 0 -1 -1000 NONE -1 0 -1"/>
    </vehicle>
    <vehicle id="f.4" depart="8.00" arrivalPos="random" route="r0" distance="0 0" arrivalPosRandomized="54.25" speedFactor="1.0303" state="10432 8000 0 0 0 0 26390 8000 9223372036854774807">
        <device id="vehroute_f.4" state="5.00 0.00 0"/>
        <device id="tripinfo_f.4" state="SC_0 5 -0 0 0 0 0 -1 -1000 NONE -1 0 -1"/>
    </vehicle>
    <vehicle id="f.5" depart="10.00" arrivalPos="random" route="r0" distance="0 0" arrivalPosRandomized="4.01" speedFactor="0.8310" state="10432 10000 0 0 0 1 28390 10000 9223372036854774807">
        <device id="vehroute_f.5" state="5.00 0.00 0"/>
        <device id="tripinfo_f.5" state="SC_0 5 -0 0 0 0 0 -1 -1000 NONE -1 0 -1"/>
    </vehicle>
    <vehicle id="f.6" depart="12.00" arrivalPos="random" route="r0" distance="0 0" arrivalPosRandomized="68.34" speedFactor="1.0458" state="10432 12000 0 0 0 0 30390 12000 9223372036854774807">
        <device id="vehroute_f.6" state="5.00 0.00 0"/>
        <device id="tripinfo_f.6" state="SC_0 5 -0 0 0 0 0 -1 -1000 NONE -1 0 -1"/>
    </vehicle>
    <vehicle id="f.7" depart="14.00" arrivalPos="random" route="r0" distance="0 0" arrivalPosRandomized="22.76" speedFactor="0.8860" state="10432 14000 0 0 0 1 32390 14000 9223372036854774807">
        <device id="vehroute_f.7" state="5.00 0.00 0"/>
        <device id="tripinfo_f.7" state="SC_0 5 -0 0 0 0 0 -1 -1000 NONE -1 0 -1"/>
    </vehicle>
    <vehicle id="f.8" depart="16.00" arrivalPos="random" route="r0" distance="0 0" arrivalPosRandomized="50.14" speedFactor="0.9379" state="10432 19000 0 0 0 0 37390 19000 9223372036854774807">
        <device id="vehroute_f.8" state="5.00 0.00 0"/>
        <device id="tripinfo_f.8" state="SC_0 5 -0 0 0 0 0 -1 -1000 NONE -1 0 -1"/>
    </vehicle>
    <vehicle id="f.9" depart="18.00" arrivalPos="random" route="r0" distance="0 0" arrivalPosRandomized="68.51" speedFactor="0.8569" state="10432 9223372036854774807 0 -1000 -1 0 -9223372036854775808 -9223372036854775808 9223372036854774807">
        <device id="vehroute_f.9" state="-1.00 -1.00 0"/>
        <device id="tripinfo_f.9"/>
    </vehicle>
    <segment id="SC:0">
        <vehicles time="18390" blockTime="-9223372036854775808" value="f.8 f.6 f.4 f.2"/>
        <vehicles time="-1" blockTime="-9223372036854775808" value="f.7 f.5 f.3 f.1"/>
    </segment>
    <tlLogic id="C" programID="0" phase="0" duration="20000" active="1"/>
</snapshot>
