<?xml version="1.0" encoding="UTF-8"?>

<!-- generated on 2025-01-02 14:50:48 by Eclipse SUMO sumo Version v1_21_0+1626-a687a18afd4
<sumoConfiguration xmlns:xsi="http://www.w3.org/2001/XMLSchema-instance" xsi:noNamespaceSchemaLocation="http://sumo.dlr.de/xsd/sumoConfiguration.xsd">

    <input>
        <net-file value="input_net2.net.xml"/>
        <load-state value="state.xml"/>
    </input>

    <output>
        <tripinfo-output value="tripinfo2.xml"/>
        <vehroute-output value="vehroutes2.xml"/>
    </output>

    <report>
        <duration-log.disable value="true"/>
        <no-step-log value="true"/>
    </report>

</sumoConfiguration>
-->

<tripinfos xmlns:xsi="http://www.w3.org/2001/XMLSchema-instance" xsi:noNamespaceSchemaLocation="http://sumo.dlr.de/xsd/tripinfo_file.xsd">
    <tripinfo id="f.8" depart="17.00" departLane="SC_0" departPos="5.10" departSpeed="0.00" departDelay="1.00" arrival="20.00" arrivalLane="SC_0" arrivalPos="4.18" arrivalSpeed="5.00" duration="3.00" routeLength="-0.92" waitingTime="0.00" waitingCount="0" stopTime="0.00" timeLoss="0.76" rerouteNo="0" devices="vehroute_f.8 tripinfo_f.8" vType="DEFAULT_VEHTYPE" speedFactor="0.94" vaporized=""/>
