<?xml version="1.0" encoding="UTF-8"?>

<!-- generated on 2025-01-02 14:50:48 by Eclipse SUMO sumo Version v1_21_0+1626-a687a18afd4
<sumoConfiguration xmlns:xsi="http://www.w3.org/2001/XMLSchema-instance" xsi:noNamespaceSchemaLocation="http://sumo.dlr.de/xsd/sumoConfiguration.xsd">

    <input>
        <net-file value="input_net2.net.xml"/>
        <route-files value="input_routes.rou.xml"/>
    </input>

    <output>
        <tripinfo-output value="tripinfo.xml"/>
        <vehroute-output value="vehroutes.xml"/>
        <save-state.times value="20"/>
        <save-state.files value="state.xml"/>
    </output>

    <report>
        <duration-log.disable value="true"/>
        <no-step-log value="true"/>
    </report>

</sumoConfiguration>
-->

<tripinfos xmlns:xsi="http://www.w3.org/2001/XMLSchema-instance" xsi:noNamespaceSchemaLocation="http://sumo.dlr.de/xsd/tripinfo_file.xsd">
    <tripinfo id="f.2" depart="5.00" departLane="SC_0" departPos="5.10" departSpeed="0.00" departDelay="1.00" arrival="6.00" arrivalLane="SC_0" arrivalPos="4.18" arrivalSpeed="1.80" duration="1.00" routeLength="-0.92" waitingTime="0.00" waitingCount="0" stopTime="0.00" timeLoss="0.64" rerouteNo="0" devices="vehroute_f.2 tripinfo_f.2" vType="DEFAULT_VEHTYPE" speedFactor="1.01" vaporized=""/>
    <tripinfo id="f.5" depart="11.00" departLane="SC_0" departPos="5.10" departSpeed="0.00" departDelay="1.00" arrival="12.00" arrivalLane="SC_0" arrivalPos="4.01" arrivalSpeed="1.80" duration="1.00" routeLength="-1.09" waitingTime="0.00" waitingCount="0" stopTime="0.00" timeLoss="0.64" rerouteNo="0" devices="vehroute_f.5 tripinfo_f.5" vType="DEFAULT_VEHTYPE" speedFactor="0.83" vaporized=""/>
    <tripinfo id="f.3" depart="6.00" departLane="SC_0" departPos="5.10" departSpeed="0.00" departDelay="0.00" arrival="15.00" arrivalLane="SC_0" arrivalPos="45.19" arrivalSpeed="5.00" duration="9.00" routeLength="40.09" waitingTime="0.00" waitingCount="0" stopTime="0.00" timeLoss="0.48" rerouteNo="0" devices="vehroute_f.3 tripinfo_f.3" vType="DEFAULT_VEHTYPE" speedFactor="1.08" vaporized=""/>
    <tripinfo id="f.0" depart="0.00" departLane="SC_0" departPos="5.10" departSpeed="0.00" departDelay="0.00" arrival="16.00" arrivalLane="SC_0" arrivalPos="81.93" arrivalSpeed="5.00" duration="16.00" routeLength="76.83" waitingTime="0.00" waitingCount="0" stopTime="0.00" timeLoss="0.48" rerouteNo="0" devices="vehroute_f.0 tripinfo_f.0" vType="DEFAULT_VEHTYPE" speedFactor="1.06" vaporized=""/>
    <tripinfo id="f.1" depart="2.00" departLane="SC_0" departPos="5.10" departSpeed="0.00" departDelay="0.00" arrival="16.00" arrivalLane="SC_0" arrivalPos="65.51" arrivalSpeed="5.00" duration="14.00" routeLength="60.41" waitingTime="0.00" waitingCount="0" stopTime="0.00" timeLoss="1.24" rerouteNo="0" devices="vehroute_f.1 tripinfo_f.1" vType="DEFAULT_VEHTYPE" speedFactor="0.94" vaporized=""/>
    <tripinfo id="f.7" depart="14.00" departLane="SC_0" departPos="5.10" departSpeed="0.00" departDelay="0.00" arrival="19.00" arrivalLane="SC_0" arrivalPos="22.76" arrivalSpeed="5.00" duration="5.00" routeLength="17.66" waitingTime="0.00" waitingCount="0" stopTime="0.00" timeLoss="1.24" rerouteNo="0" devices="vehroute_f.7 tripinfo_f.7" vType="DEFAULT_VEHTYPE" speedFactor="0.89" vaporized=""/>
    <tripinfo id="f.4" depart="8.00" departLane="SC_0" departPos="5.10" departSpeed="0.00" departDelay="0.00" arrival="20.00" arrivalLane="SC_0" arrivalPos="54.25" arrivalSpeed="5.00" duration="12.00" routeLength="49.15" waitingTime="0.00" waitingCount="0" stopTime="0.00" timeLoss="1.24" rerouteNo="0" devices="vehroute_f.4 tripinfo_f.4" vType="DEFAULT_VEHTYPE" speedFactor="1.03" vaporized=""/>
    <tripinfo id="f.6" depart="12.00" departLane="SC_0" departPos="5.10" departSpeed="0.00" departDelay="0.00" arrival="26.00" arrivalLane="SC_0" arrivalPos="68.34" arrivalSpeed="5.00" duration="14.00" routeLength="63.24" waitingTime="0.00" waitingCount="0" stopTime="0.00" timeLoss="0.48" rerouteNo="0" devices="vehroute_f.6 tripinfo_f.6" vType="DEFAULT_VEHTYPE" speedFactor="1.05" vaporized=""/>
    <tripinfo id="f.8" depart="17.00" departLane="SC_0" departPos="5.10" departSpeed="0.00" departDelay="1.00" arrival="27.00" arrivalLane="SC_0" arrivalPos="50.14" arrivalSpeed="5.00" duration="10.00" routeLength="45.04" waitingTime="0.00" waitingCount="0" stopTime="0.00" timeLoss="0.76" rerouteNo="0" devices="vehroute_f.8 tripinfo_f.8" vType="DEFAULT_VEHTYPE" speedFactor="0.94" vaporized=""/>
    <tripinfo id="f.9" depart="20.00" departLane="SC_0" departPos="5.10" departSpeed="0.00" departDelay="2.00" arrival="34.00" arrivalLane="SC_0" arrivalPos="68.51" arrivalSpeed="5.00" duration="14.00" routeLength="63.41" waitingTime="0.00" waitingCount="0" stopTime="0.00" timeLoss="0.48" rerouteNo="0" devices="vehroute_f.9 tripinfo_f.9" vType="DEFAULT_VEHTYPE" speedFactor="0.86" vaporized=""/>
</tripinfos>
