<?xml version="1.0" encoding="UTF-8"?>

<!-- generated on Sun Aug 11 18:29:29 2019 by Eclipse SUMO Version v1_2_0+1522-fd29d6db72
<configuration xmlns:xsi="http://www.w3.org/2001/XMLSchema-instance" xsi:noNamespaceSchemaLocation="http://sumo.dlr.de/xsd/sumoConfiguration.xsd">

    <input>
        <net-file value="input_net2.net.xml"/>
        <route-files value="input_routes.rou.xml"/>
    </input>

    <output>
        <fcd-output value="fcd.xml"/>
        <vehroute-output value="vehroutes.xml"/>
    </output>

    <report>
        <no-step-log value="true"/>
    </report>

    <traci_server>
        <remote-port value="50831"/>
    </traci_server>

</configuration>
-->

<fcd-export xmlns:xsi="http://www.w3.org/2001/XMLSchema-instance" xsi:noNamespaceSchemaLocation="http://sumo.dlr.de/xsd/fcd_file.xsd">
    <timestep time="0.00">
        <person id="p0" x="106.23" y="81.95" angle="0.00" speed="0.00" pos="81.95" edge="SC" slope="0.00"/>
    </timestep>
    <timestep time="1.00">
        <person id="p0" x="106.23" y="83.16" angle="0.00" speed="1.21" pos="83.16" edge="SC" slope="0.00"/>
    </timestep>
    <timestep time="2.00">
        <person id="p0" x="106.23" y="84.42" angle="0.00" speed="1.26" pos="84.42" edge="SC" slope="0.00"/>
    </timestep>
    <timestep time="3.00">
        <person id="p0" x="106.23" y="85.88" angle="0.00" speed="1.46" pos="85.88" edge="SC" slope="0.00"/>
    </timestep>
    <timestep time="4.00">
        <person id="p0" x="106.23" y="87.21" angle="0.00" speed="1.33" pos="87.21" edge="SC" slope="0.00"/>
    </timestep>
    <timestep time="5.00">
        <person id="p0" x="106.23" y="88.51" angle="0.00" speed="1.30" pos="88.51" edge="SC" slope="0.00"/>
    </timestep>
    <timestep time="6.00">
        <person id="p0" x="106.23" y="89.97" angle="0.00" speed="1.46" pos="89.97" edge="SC" slope="0.00"/>
    </timestep>
    <timestep time="7.00">
        <person id="p0" x="106.23" y="91.22" angle="0.00" speed="1.25" pos="91.22" edge="SC" slope="0.00"/>
    </timestep>
    <timestep time="8.00">
        <person id="p0" x="106.23" y="92.62" angle="0.00" speed="1.40" pos="0.67" edge=":C_11" slope="0.00"/>
    </timestep>
    <timestep time="9.00">
        <person id="p0" x="106.23" y="93.93" angle="0.00" speed="1.31" pos="1.98" edge=":C_11" slope="0.00"/>
    </timestep>
    <timestep time="10.00">
        <person id="p0" x="106.23" y="95.18" angle="0.00" speed="1.25" pos="3.23" edge=":C_11" slope="0.00"/>
    </timestep>
    <timestep time="11.00">
        <person id="p0" x="106.23" y="96.65" angle="0.00" speed="1.47" pos="4.70" edge=":C_11" slope="0.00"/>
    </timestep>
    <timestep time="12.00">
        <person id="p0" x="106.23" y="97.93" angle="0.00" speed="1.27" pos="5.98" edge=":C_11" slope="0.00"/>
    </timestep>
    <timestep time="13.00">
        <person id="p0" x="106.23" y="99.26" angle="0.00" speed="1.33" pos="7.31" edge=":C_11" slope="0.00"/>
    </timestep>
    <timestep time="14.00">
        <person id="p0" x="106.23" y="100.60" angle="0.00" speed="1.34" pos="8.65" edge=":C_11" slope="0.00"/>
    </timestep>
    <timestep time="15.00">
        <person id="p0" x="106.23" y="101.91" angle="0.00" speed="1.31" pos="9.96" edge=":C_11" slope="0.00"/>
    </timestep>
    <timestep time="16.00">
        <person id="p0" x="106.23" y="103.30" angle="0.00" speed="1.39" pos="11.35" edge=":C_11" slope="0.00"/>
    </timestep>
    <timestep time="17.00">
        <person id="p0" x="106.23" y="104.76" angle="0.00" speed="1.45" pos="12.81" edge=":C_11" slope="0.00"/>
    </timestep>
    <timestep time="18.00">
        <person id="p0" x="106.23" y="105.97" angle="0.00" speed="1.21" pos="14.02" edge=":C_11" slope="0.00"/>
    </timestep>
    <timestep time="19.00">
        <person id="p0" x="106.23" y="107.35" angle="0.00" speed="1.38" pos="15.40" edge=":C_11" slope="0.00"/>
    </timestep>
    <timestep time="20.00">
        <person id="p0" x="106.23" y="108.62" angle="0.00" speed="1.27" pos="0.57" edge="CN" slope="0.00"/>
    </timestep>
    <timestep time="21.00">
        <person id="p0" x="106.23" y="110.08" angle="0.00" speed="1.46" pos="2.03" edge="CN" slope="0.00"/>
    </timestep>
    <timestep time="22.00">
        <person id="p0" x="106.23" y="111.40" angle="0.00" speed="1.32" pos="3.35" edge="CN" slope="0.00"/>
    </timestep>
    <timestep time="23.00">
        <person id="p0" x="106.23" y="112.78" angle="0.00" speed="1.38" pos="4.73" edge="CN" slope="0.00"/>
    </timestep>
    <timestep time="24.00">
        <person id="p0" x="106.23" y="114.07" angle="0.00" speed="1.29" pos="6.02" edge="CN" slope="0.00"/>
    </timestep>
    <timestep time="25.00">
        <person id="p0" x="106.23" y="115.26" angle="0.00" speed="1.20" pos="7.21" edge="CN" slope="0.00"/>
    </timestep>
    <timestep time="26.00">
        <person id="p0" x="106.23" y="116.49" angle="0.00" speed="1.23" pos="8.44" edge="CN" slope="0.00"/>
    </timestep>
    <timestep time="27.00">
        <person id="p0" x="106.23" y="117.70" angle="0.00" speed="1.21" pos="9.65" edge="CN" slope="0.00"/>
    </timestep>
    <timestep time="28.00"/>
</fcd-export>
