<?xml version="1.0" encoding="UTF-8"?>

<!-- generated on 2025-11-18T16:33:54.640756+01:00 by Eclipse SUMO sumo v1_25_0+0086-b1f02afa5bd
This data file and the accompanying materials
are made available under the terms of the Eclipse Public License v2.0
which accompanies this distribution, and is available at
http://www.eclipse.org/legal/epl-v20.html
This file may also be made available under the following Secondary
Licenses when the conditions for such availability set forth in the Eclipse
Public License 2.0 are satisfied: GNU General Public License, version 2
or later which is available at
https://www.gnu.org/licenses/old-licenses/gpl-2.0-standalone.html
SPDX-License-Identifier: EPL-2.0 OR GPL-2.0-or-later
<sumoConfiguration xmlns:xsi="http://www.w3.org/2001/XMLSchema-instance" xsi:noNamespaceSchemaLocation="http://sumo.dlr.de/xsd/sumoConfiguration.xsd">

    <input>
        <net-file value="net.net.xml"/>
        <route-files value="input_routes.rou.xml"/>
        <additional-files value="input_additional.add.xml,input_additional2.add.xml"/>
    </input>

    <output>
        <write-license value="true"/>
        <tripinfo-output.write-unfinished value="true"/>
    </output>

    <time>
        <begin value="0"/>
        <end value="300"/>
        <step-length value="0.1"/>
    </time>

    <processing>
        <default.speeddev value="0"/>
    </processing>

    <report>
        <xml-validation value="never"/>
        <duration-log.statistics value="true"/>
        <no-step-log value="true"/>
    </report>

</sumoConfiguration>
-->

<meandata xmlns:xsi="http://www.w3.org/2001/XMLSchema-instance" xsi:noNamespaceSchemaLocation="http://sumo.dlr.de/xsd/meandata_file.xsd">
    <interval begin="0.00" end="6.00" id="dump_6">
        <edge id="1/1to2/1" sampledSeconds="14.96" traveltime="49.41" overlapTraveltime="44.26" density="21.54" overlapDensity="25.93" laneDensity="21.54" occupancy="12.07" waitingTime="1.00" timeLoss="13.21" speed="2.28" speedRelative="0.12" departed="6" arrived="0" entered="0" left="2" laneChangedFrom="0" laneChangedTo="0" flow="150.88"/>
        <edge id="2/1to3/1" sampledSeconds="6.16" traveltime="10.46" overlapTraveltime="11.00" density="10.68" overlapDensity="10.68" laneDensity="10.68" occupancy="4.58" waitingTime="0.00" timeLoss="3.27" speed="9.19" speedRelative="0.47" departed="0" arrived="0" entered="2" left="0" laneChangedFrom="0" laneChangedTo="0" flow="353.28"/>
    </interval>
    <interval begin="6.00" end="12.00" id="dump_6">
        <edge id="1/1to2/1" sampledSeconds="34.67" traveltime="28.53" overlapTraveltime="27.80" density="57.17" overlapDensity="60.11" laneDensity="57.17" occupancy="29.33" waitingTime="1.70" timeLoss="28.23" speed="3.64" speedRelative="0.19" departed="6" arrived="0" entered="0" left="3" laneChangedFrom="0" laneChangedTo="0" flow="693.42"/>
        <edge id="2/1to3/1" sampledSeconds="19.64" traveltime="6.93" overlapTraveltime="7.23" density="33.08" overlapDensity="34.04" laneDensity="33.08" occupancy="16.09" waitingTime="0.00" timeLoss="5.62" speed="13.99" speedRelative="0.71" departed="0" arrived="0" entered="3" left="2" laneChangedFrom="0" laneChangedTo="0" flow="1652.22"/>
        <edge id="3/1to4/1" sampledSeconds="2.95" traveltime="5.11" overlapTraveltime="5.37" density="5.11" overlapDensity="5.11" laneDensity="5.11" occupancy="2.32" waitingTime="0.00" timeLoss="0.12" speed="18.82" speedRelative="0.96" departed="0" arrived="0" entered="2" left="0" laneChangedFrom="0" laneChangedTo="0" flow="346.14"/>
    </interval>
    <interval begin="12.00" end="18.00" id="dump_6">
        <edge id="1/1to2/1" sampledSeconds="46.07" traveltime="19.27" overlapTraveltime="19.34" density="76.99" overlapDensity="79.88" laneDensity="76.99" occupancy="38.09" waitingTime="0.90" timeLoss="33.78" speed="5.23" speedRelative="0.27" departed="3" arrived="0" entered="0" left="4" laneChangedFrom="0" laneChangedTo="0" flow="1382.42"/>
        <edge id="2/1to3/1" sampledSeconds="22.33" traveltime="6.56" overlapTraveltime="6.86" density="37.17" overlapDensity="38.71" laneDensity="37.17" occupancy="18.34" waitingTime="0.00" timeLoss="5.54" speed="14.73" speedRelative="0.75" departed="0" arrived="0" entered="4" left="3" laneChangedFrom="0" laneChangedTo="0" flow="1959.83"/>
        <edge id="3/1to4/1" sampledSeconds="15.10" traveltime="5.32" overlapTraveltime="5.59" density="25.27" overlapDensity="26.18" laneDensity="25.27" occupancy="12.48" waitingTime="0.00" timeLoss="1.16" speed="18.09" speedRelative="0.92" departed="0" arrived="0" entered="3" left="2" laneChangedFrom="0" laneChangedTo="0" flow="1642.51"/>
        <edge id="4/1to5/1" sampledSeconds="4.36" traveltime="4.96" overlapTraveltime="5.22" density="7.56" overlapDensity="7.56" laneDensity="7.56" occupancy="3.55" waitingTime="0.00" timeLoss="0.05" speed="19.36" speedRelative="0.99" departed="0" arrived="0" entered="2" left="0" laneChangedFrom="0" laneChangedTo="0" flow="527.08"/>
    </interval>
    <interval begin="18.00" end="24.00" id="dump_6">
        <edge id="1/1to2/1" sampledSeconds="37.66" traveltime="12.16" overlapTraveltime="12.54" density="63.21" overlapDensity="65.29" laneDensity="63.21" occupancy="29.22" waitingTime="0.30" timeLoss="22.16" speed="8.07" speedRelative="0.41" departed="3" arrived="0" entered="0" left="3" laneChangedFrom="0" laneChangedTo="0" flow="1798.55"/>
        <edge id="2/1to3/1" sampledSeconds="23.49" traveltime="6.51" overlapTraveltime="6.83" density="39.11" overlapDensity="40.73" laneDensity="39.11" occupancy="19.38" waitingTime="0.00" timeLoss="5.73" speed="14.82" speedRelative="0.76" departed="0" arrived="0" entered="3" left="3" laneChangedFrom="0" laneChangedTo="0" flow="2078.64"/>
        <edge id="3/1to4/1" sampledSeconds="18.92" traveltime="5.68" overlapTraveltime="5.97" density="31.34" overlapDensity="32.81" laneDensity="31.34" occupancy="15.63" waitingTime="0.00" timeLoss="2.56" speed="16.95" speedRelative="0.86" departed="0" arrived="0" entered="3" left="3" laneChangedFrom="0" laneChangedTo="0" flow="1908.18"/>
        <edge id="4/1to5/1" sampledSeconds="14.33" traveltime="5.24" overlapTraveltime="5.50" density="23.94" overlapDensity="24.84" laneDensity="23.94" occupancy="11.83" waitingTime="0.00" timeLoss="0.89" speed="18.38" speedRelative="0.94" departed="0" arrived="0" entered="3" left="2" laneChangedFrom="0" laneChangedTo="0" flow="1581.79"/>
        <edge id="5/1to6/1" sampledSeconds="5.99" traveltime="4.96" overlapTraveltime="5.22" density="10.39" overlapDensity="10.39" laneDensity="10.39" occupancy="4.97" waitingTime="0.00" timeLoss="0.07" speed="19.38" speedRelative="0.99" departed="0" arrived="0" entered="2" left="0" laneChangedFrom="0" laneChangedTo="0" flow="724.93"/>
    </interval>
    <interval begin="24.00" end="30.00" id="dump_6">
        <edge id="1/1to2/1" sampledSeconds="30.64" traveltime="10.09" overlapTraveltime="10.42" density="50.71" overlapDensity="53.13" laneDensity="50.71" occupancy="23.11" waitingTime="0.20" timeLoss="15.46" speed="9.71" speedRelative="0.50" departed="2" arrived="0" entered="0" left="4" laneChangedFrom="0" laneChangedTo="0" flow="1738.89"/>
        <edge id="2/1to3/1" sampledSeconds="24.02" traveltime="6.53" overlapTraveltime="6.85" density="39.44" overlapDensity="41.65" laneDensity="39.44" occupancy="19.75" waitingTime="0.00" timeLoss="5.93" speed="14.76" speedRelative="0.75" departed="0" arrived="0" entered="4" left="4" laneChangedFrom="0" laneChangedTo="0" flow="2089.47"/>
        <edge id="3/1to4/1" sampledSeconds="20.56" traveltime="5.93" overlapTraveltime="6.23" density="34.09" overlapDensity="35.64" laneDensity="34.09" occupancy="16.93" waitingTime="0.00" timeLoss="3.52" speed="16.24" speedRelative="0.83" departed="0" arrived="0" entered="4" left="3" laneChangedFrom="0" laneChangedTo="0" flow="1990.09"/>
        <edge id="4/1to5/1" sampledSeconds="17.63" traveltime="5.55" overlapTraveltime="5.83" density="29.12" overlapDensity="30.57" laneDensity="29.12" occupancy="14.54" waitingTime="0.00" timeLoss="2.02" speed="17.35" speedRelative="0.89" departed="0" arrived="0" entered="3" left="3" laneChangedFrom="0" laneChangedTo="0" flow="1816.09"/>
        <edge id="5/1to6/1" sampledSeconds="13.94" traveltime="5.23" overlapTraveltime="5.49" density="23.18" overlapDensity="24.16" laneDensity="23.18" occupancy="11.49" waitingTime="0.00" timeLoss="0.83" speed="18.43" speedRelative="0.94" departed="0" arrived="0" entered="3" left="3" laneChangedFrom="0" laneChangedTo="0" flow="1535.25"/>
        <edge id="6/1to7/1" sampledSeconds="7.53" traveltime="4.96" overlapTraveltime="5.22" density="12.61" overlapDensity="13.05" laneDensity="12.61" occupancy="6.19" waitingTime="0.00" timeLoss="0.08" speed="19.38" speedRelative="0.99" departed="0" arrived="0" entered="2" left="1" laneChangedFrom="0" laneChangedTo="0" flow="879.65"/>
        <edge id="7/1to8/1" sampledSeconds="0.24" traveltime="4.90" overlapTraveltime="5.16" density="0.41" overlapDensity="0.41" laneDensity="0.41" occupancy="0.10" waitingTime="0.00" timeLoss="0.00" speed="19.60" speedRelative="1.00" departed="0" arrived="0" entered="1" left="0" laneChangedFrom="0" laneChangedTo="0" flow="29.23"/>
    </interval>
    <interval begin="30.00" end="36.00" id="dump_6">
        <edge id="1/1to2/1" sampledSeconds="24.26" traveltime="9.51" overlapTraveltime="9.85" density="40.65" overlapDensity="42.06" laneDensity="40.65" occupancy="17.83" waitingTime="0.20" timeLoss="11.55" speed="10.27" speedRelative="0.52" departed="2" arrived="0" entered="0" left="3" laneChangedFrom="0" laneChangedTo="0" flow="1479.34"/>
        <edge id="2/1to3/1" sampledSeconds="22.85" traveltime="6.51" overlapTraveltime="6.84" density="37.90" overlapDensity="39.62" laneDensity="37.90" occupancy="18.98" waitingTime="0.00" timeLoss="5.61" speed="14.79" speedRelative="0.75" departed="0" arrived="0" entered="2" left="3" laneChangedFrom="0" laneChangedTo="0" flow="2015.51"/>
        <edge id="3/1to4/1" sampledSeconds="22.18" traveltime="6.11" overlapTraveltime="6.42" density="36.85" overlapDensity="38.46" laneDensity="36.85" occupancy="18.35" waitingTime="0.00" timeLoss="4.36" speed="15.74" speedRelative="0.80" departed="0" arrived="0" entered="3" left="4" laneChangedFrom="0" laneChangedTo="0" flow="2085.53"/>
        <edge id="4/1to5/1" sampledSeconds="19.35" traveltime="5.77" overlapTraveltime="6.06" density="32.04" overlapDensity="33.55" laneDensity="32.04" occupancy="16.00" waitingTime="0.00" timeLoss="2.88" speed="16.69" speedRelative="0.85" departed="0" arrived="0" entered="3" left="3" laneChangedFrom="0" laneChangedTo="0" flow="1922.03"/>
        <edge id="5/1to6/1" sampledSeconds="16.61" traveltime="5.48" overlapTraveltime="5.76" density="27.45" overlapDensity="28.80" laneDensity="27.45" occupancy="13.67" waitingTime="0.00" timeLoss="1.73" speed="17.56" speedRelative="0.90" departed="0" arrived="0" entered="3" left="2" laneChangedFrom="0" laneChangedTo="0" flow="1732.89"/>
        <edge id="6/1to7/1" sampledSeconds="13.46" traveltime="5.22" overlapTraveltime="5.48" density="22.40" overlapDensity="23.33" laneDensity="22.40" occupancy="11.07" waitingTime="0.00" timeLoss="0.80" speed="18.44" speedRelative="0.94" departed="0" arrived="0" entered="3" left="2" laneChangedFrom="0" laneChangedTo="0" flow="1486.13"/>
        <edge id="7/1to8/1" sampledSeconds="8.57" traveltime="4.98" overlapTraveltime="5.24" density="14.42" overlapDensity="14.86" laneDensity="14.42" occupancy="7.09" waitingTime="0.00" timeLoss="0.13" speed="19.31" speedRelative="0.99" departed="0" arrived="0" entered="2" left="1" laneChangedFrom="0" laneChangedTo="0" flow="1002.16"/>
        <edge id="8/1to9/1" sampledSeconds="1.18" traveltime="4.90" overlapTraveltime="5.16" density="2.04" overlapDensity="2.04" laneDensity="2.04" occupancy="0.91" waitingTime="0.00" timeLoss="0.00" speed="19.60" speedRelative="1.00" departed="0" arrived="0" entered="1" left="0" laneChangedFrom="0" laneChangedTo="0" flow="144.20"/>
    </interval>
    <interval begin="36.00" end="42.00" id="dump_6">
        <edge id="1/1to2/1" sampledSeconds="22.41" traveltime="9.44" overlapTraveltime="9.69" density="37.41" overlapDensity="38.85" laneDensity="37.41" occupancy="16.57" waitingTime="0.30" timeLoss="10.48" speed="10.43" speedRelative="0.53" departed="3" arrived="0" entered="0" left="2" laneChangedFrom="0" laneChangedTo="0" flow="1371.31"/>
        <edge id="2/1to3/1" sampledSeconds="18.02" traveltime="5.99" overlapTraveltime="6.32" density="29.53" overlapDensity="31.25" laneDensity="29.53" occupancy="14.81" waitingTime="0.00" timeLoss="3.31" speed="16.00" speedRelative="0.82" departed="0" arrived="0" entered="3" left="3" laneChangedFrom="0" laneChangedTo="0" flow="1705.93"/>
        <edge id="3/1to4/1" sampledSeconds="22.35" traveltime="6.24" overlapTraveltime="6.56" density="36.56" overlapDensity="38.75" laneDensity="36.56" occupancy="18.39" waitingTime="0.00" timeLoss="4.77" speed="15.42" speedRelative="0.79" departed="0" arrived="0" entered="3" left="3" laneChangedFrom="0" laneChangedTo="0" flow="2026.19"/>
        <edge id="4/1to5/1" sampledSeconds="20.89" traveltime="5.94" overlapTraveltime="6.24" density="34.65" overlapDensity="36.22" laneDensity="34.65" occupancy="17.17" waitingTime="0.00" timeLoss="3.63" speed="16.20" speedRelative="0.83" departed="0" arrived="0" entered="4" left="3" laneChangedFrom="0" laneChangedTo="0" flow="2018.41"/>
        <edge id="5/1to6/1" sampledSeconds="18.49" traveltime="5.67" overlapTraveltime="5.96" density="30.56" overlapDensity="32.06" laneDensity="30.56" occupancy="15.26" waitingTime="0.00" timeLoss="2.48" speed="16.97" speedRelative="0.87" departed="0" arrived="0" entered="3" left="3" laneChangedFrom="0" laneChangedTo="0" flow="1865.28"/>
        <edge id="6/1to7/1" sampledSeconds="16.15" traveltime="5.43" overlapTraveltime="5.71" density="27.05" overlapDensity="28.00" laneDensity="27.05" occupancy="13.39" waitingTime="0.00" timeLoss="1.55" speed="17.72" speedRelative="0.90" departed="0" arrived="0" entered="3" left="2" laneChangedFrom="0" laneChangedTo="0" flow="1723.98"/>
        <edge id="7/1to8/1" sampledSeconds="13.13" traveltime="5.20" overlapTraveltime="5.47" density="21.84" overlapDensity="22.76" laneDensity="21.84" occupancy="10.91" waitingTime="0.00" timeLoss="0.74" speed="18.49" speedRelative="0.94" departed="0" arrived="0" entered="2" left="2" laneChangedFrom="0" laneChangedTo="0" flow="1452.71"/>
        <edge id="8/1to9/1" sampledSeconds="9.08" traveltime="5.00" overlapTraveltime="5.26" density="15.30" overlapDensity="15.75" laneDensity="15.30" occupancy="7.53" waitingTime="0.00" timeLoss="0.17" speed="19.24" speedRelative="0.98" departed="0" arrived="0" entered="2" left="1" laneChangedFrom="0" laneChangedTo="0" flow="1059.13"/>
        <edge id="9/1to10/1" sampledSeconds="2.12" traveltime="4.94" overlapTraveltime="5.20" density="3.67" overlapDensity="3.67" laneDensity="3.67" occupancy="1.73" waitingTime="0.00" timeLoss="0.02" speed="19.44" speedRelative="0.99" departed="0" arrived="0" entered="1" left="0" laneChangedFrom="0" laneChangedTo="0" flow="257.07"/>
    </interval>
    <interval begin="42.00" end="48.00" id="dump_6">
        <edge id="1/1to2/1" sampledSeconds="21.76" traveltime="9.11" overlapTraveltime="9.42" density="36.74" overlapDensity="37.73" laneDensity="36.74" occupancy="16.28" waitingTime="0.10" timeLoss="9.84" speed="10.73" speedRelative="0.55" departed="1" arrived="0" entered="0" left="2" laneChangedFrom="0" laneChangedTo="0" flow="1395.59"/>
        <edge id="10/1to1/1" sampledSeconds="2.95" traveltime="5.45" overlapTraveltime="5.73" density="5.11" overlapDensity="5.11" laneDensity="5.11" occupancy="2.44" waitingTime="0.00" timeLoss="0.29" speed="17.65" speedRelative="0.90" departed="0" arrived="0" entered="1" left="0" laneChangedFrom="0" laneChangedTo="0" flow="324.73"/>
        <edge id="2/1to3/1" sampledSeconds="13.83" traveltime="5.47" overlapTraveltime="5.77" density="22.42" overlapDensity="23.98" laneDensity="22.42" occupancy="11.35" waitingTime="0.00" timeLoss="1.47" speed="17.52" speedRelative="0.89" departed="0" arrived="0" entered="2" left="3" laneChangedFrom="0" laneChangedTo="0" flow="1419.05"/>
        <edge id="3/1to4/1" sampledSeconds="19.89" traveltime="6.07" overlapTraveltime="6.39" density="32.81" overlapDensity="34.49" laneDensity="32.81" occupancy="16.44" waitingTime="0.00" timeLoss="3.84" speed="15.82" speedRelative="0.81" departed="0" arrived="0" entered="3" left="3" laneChangedFrom="0" laneChangedTo="0" flow="1870.40"/>
        <edge id="4/1to5/1" sampledSeconds="21.69" traveltime="6.08" overlapTraveltime="6.39" density="35.46" overlapDensity="37.60" laneDensity="35.46" occupancy="17.85" waitingTime="0.00" timeLoss="4.16" speed="15.84" speedRelative="0.81" departed="0" arrived="0" entered="3" left="4" laneChangedFrom="0" laneChangedTo="0" flow="2018.93"/>
        <edge id="5/1to6/1" sampledSeconds="19.85" traveltime="5.83" overlapTraveltime="6.12" density="32.87" overlapDensity="34.41" laneDensity="32.87" occupancy="16.29" waitingTime="0.00" timeLoss="3.12" speed="16.52" speedRelative="0.84" departed="0" arrived="0" entered="4" left="3" laneChangedFrom="0" laneChangedTo="0" flow="1952.95"/>
        <edge id="6/1to7/1" sampledSeconds="17.75" traveltime="5.60" overlapTraveltime="5.89" density="29.30" overlapDensity="30.78" laneDensity="29.30" occupancy="14.63" waitingTime="0.00" timeLoss="2.19" speed="17.18" speedRelative="0.88" departed="0" arrived="0" entered="3" left="3" laneChangedFrom="0" laneChangedTo="0" flow="1810.15"/>
        <edge id="7/1to8/1" sampledSeconds="15.99" traveltime="5.39" overlapTraveltime="5.67" density="26.29" overlapDensity="27.72" laneDensity="26.29" occupancy="13.13" waitingTime="0.00" timeLoss="1.43" speed="17.84" speedRelative="0.91" departed="0" arrived="0" entered="3" left="3" laneChangedFrom="0" laneChangedTo="0" flow="1687.16"/>
        <edge id="8/1to9/1" sampledSeconds="12.90" traveltime="5.20" overlapTraveltime="5.47" density="21.44" overlapDensity="22.36" laneDensity="21.44" occupancy="10.61" waitingTime="0.00" timeLoss="0.72" speed="18.50" speedRelative="0.94" departed="0" arrived="0" entered="3" left="2" laneChangedFrom="0" laneChangedTo="0" flow="1427.06"/>
        <edge id="9/1to10/1" sampledSeconds="9.74" traveltime="5.09" overlapTraveltime="5.36" density="16.42" overlapDensity="16.88" laneDensity="16.42" occupancy="8.10" waitingTime="0.00" timeLoss="0.36" speed="18.88" speedRelative="0.96" departed="0" arrived="0" entered="2" left="1" laneChangedFrom="0" laneChangedTo="0" flow="1116.72"/>
    </interval>
    <interval begin="48.00" end="54.00" id="dump_6">
        <edge id="1/1to2/1" sampledSeconds="13.77" traveltime="6.17" overlapTraveltime="6.45" density="22.53" overlapDensity="23.88" laneDensity="22.53" occupancy="11.43" waitingTime="0.00" timeLoss="2.75" speed="15.69" speedRelative="0.80" departed="0" arrived="0" entered="2" left="3" laneChangedFrom="0" laneChangedTo="0" flow="1263.81"/>
        <edge id="10/1to1/1" sampledSeconds="10.91" traveltime="5.29" overlapTraveltime="5.58" density="17.96" overlapDensity="18.92" laneDensity="17.96" occupancy="8.99" waitingTime="0.00" timeLoss="0.81" speed="18.14" speedRelative="0.93" departed="0" arrived="0" entered="2" left="2" laneChangedFrom="0" laneChangedTo="0" flow="1173.87"/>
        <edge id="2/1to3/1" sampledSeconds="13.02" traveltime="5.34" overlapTraveltime="5.61" density="21.61" overlapDensity="22.58" laneDensity="21.61" occupancy="10.78" waitingTime="0.00" timeLoss="1.05" speed="18.01" speedRelative="0.92" departed="0" arrived="0" entered="3" left="2" laneChangedFrom="0" laneChangedTo="0" flow="1401.74"/>
        <edge id="3/1to4/1" sampledSeconds="14.94" traveltime="5.58" overlapTraveltime="5.89" density="24.29" overlapDensity="25.90" laneDensity="24.29" occupancy="12.31" waitingTime="0.00" timeLoss="1.86" speed="17.17" speedRelative="0.88" departed="0" arrived="0" entered="2" left="3" laneChangedFrom="0" laneChangedTo="0" flow="1507.15"/>
        <edge id="4/1to5/1" sampledSeconds="20.69" traveltime="6.08" overlapTraveltime="6.40" density="34.24" overlapDensity="35.88" laneDensity="34.24" occupancy="17.13" waitingTime="0.00" timeLoss="4.00" speed="15.81" speedRelative="0.81" departed="0" arrived="0" entered="3" left="3" laneChangedFrom="0" laneChangedTo="0" flow="1948.92"/>
        <edge id="5/1to6/1" sampledSeconds="21.01" traveltime="5.95" overlapTraveltime="6.26" density="34.31" overlapDensity="36.42" laneDensity="34.31" occupancy="17.27" waitingTime="0.00" timeLoss="3.69" speed="16.16" speedRelative="0.82" departed="0" arrived="0" entered="3" left="4" laneChangedFrom="0" laneChangedTo="0" flow="1994.18"/>
        <edge id="6/1to7/1" sampledSeconds="19.05" traveltime="5.74" overlapTraveltime="6.03" density="31.50" overlapDensity="33.02" laneDensity="31.50" occupancy="15.65" waitingTime="0.00" timeLoss="2.76" speed="16.76" speedRelative="0.86" departed="0" arrived="0" entered="4" left="3" laneChangedFrom="0" laneChangedTo="0" flow="1899.02"/>
        <edge id="7/1to8/1" sampledSeconds="17.15" traveltime="5.55" overlapTraveltime="5.83" density="28.71" overlapDensity="29.74" laneDensity="28.71" occupancy="14.24" waitingTime="0.00" timeLoss="1.98" speed="17.34" speedRelative="0.88" departed="0" arrived="0" entered="3" left="3" laneChangedFrom="0" laneChangedTo="0" flow="1791.10"/>
        <edge id="8/1to9/1" sampledSeconds="15.34" traveltime="5.37" overlapTraveltime="5.64" density="25.17" overlapDensity="26.60" laneDensity="25.17" occupancy="12.67" waitingTime="0.00" timeLoss="1.30" speed="17.93" speedRelative="0.91" departed="0" arrived="0" entered="2" left="3" laneChangedFrom="0" laneChangedTo="0" flow="1623.38"/>
        <edge id="9/1to10/1" sampledSeconds="13.09" traveltime="5.21" overlapTraveltime="5.48" density="21.57" overlapDensity="22.70" laneDensity="21.57" occupancy="10.74" waitingTime="0.00" timeLoss="0.77" speed="18.45" speedRelative="0.94" departed="0" arrived="0" entered="3" left="3" laneChangedFrom="0" laneChangedTo="0" flow="1431.74"/>
    </interval>
    <interval begin="54.00" end="60.00" id="dump_6">
        <edge id="1/1to2/1" sampledSeconds="11.81" traveltime="5.23" overlapTraveltime="5.50" density="19.39" overlapDensity="20.48" laneDensity="19.39" occupancy="9.66" waitingTime="0.00" timeLoss="0.74" speed="18.37" speedRelative="0.94" departed="0" arrived="0" entered="2" left="2" laneChangedFrom="0" laneChangedTo="0" flow="1283.38"/>
        <edge id="10/1to1/1" sampledSeconds="12.99" traveltime="5.22" overlapTraveltime="5.49" density="21.57" overlapDensity="22.52" laneDensity="21.57" occupancy="10.67" waitingTime="0.00" timeLoss="0.78" speed="18.42" speedRelative="0.94" departed="0" arrived="0" entered="3" left="2" laneChangedFrom="0" laneChangedTo="0" flow="1430.47"/>
        <edge id="2/1to3/1" sampledSeconds="13.30" traveltime="5.30" overlapTraveltime="5.57" density="21.63" overlapDensity="23.05" laneDensity="21.63" occupancy="10.83" waitingTime="0.00" timeLoss="0.98" speed="18.15" speedRelative="0.93" departed="0" arrived="0" entered="2" left="3" laneChangedFrom="0" laneChangedTo="0" flow="1412.76"/>
        <edge id="3/1to4/1" sampledSeconds="13.61" traveltime="5.31" overlapTraveltime="5.60" density="22.14" overlapDensity="23.60" laneDensity="22.14" occupancy="11.08" waitingTime="0.00" timeLoss="1.06" speed="18.07" speedRelative="0.92" departed="0" arrived="0" entered="3" left="3" laneChangedFrom="0" laneChangedTo="0" flow="1441.72"/>
        <edge id="4/1to5/1" sampledSeconds="16.59" traveltime="5.74" overlapTraveltime="6.06" density="27.14" overlapDensity="28.77" laneDensity="27.14" occupancy="13.62" waitingTime="0.00" timeLoss="2.46" speed="16.70" speedRelative="0.85" departed="0" arrived="0" entered="3" left="3" laneChangedFrom="0" laneChangedTo="0" flow="1635.67"/>
        <edge id="5/1to6/1" sampledSeconds="20.71" traveltime="6.03" overlapTraveltime="6.34" density="34.29" overlapDensity="35.91" laneDensity="34.29" occupancy="17.14" waitingTime="0.00" timeLoss="3.85" speed="15.96" speedRelative="0.81" departed="0" arrived="0" entered="3" left="3" laneChangedFrom="0" laneChangedTo="0" flow="1969.55"/>
        <edge id="6/1to7/1" sampledSeconds="20.29" traveltime="5.86" overlapTraveltime="6.16" density="33.17" overlapDensity="35.18" laneDensity="33.17" occupancy="16.65" waitingTime="0.00" timeLoss="3.30" speed="16.42" speedRelative="0.84" departed="0" arrived="0" entered="3" left="4" laneChangedFrom="0" laneChangedTo="0" flow="1958.21"/>
        <edge id="7/1to8/1" sampledSeconds="18.42" traveltime="5.68" overlapTraveltime="5.97" density="30.37" overlapDensity="31.93" laneDensity="30.37" occupancy="15.13" waitingTime="0.00" timeLoss="2.49" speed="16.95" speedRelative="0.86" departed="0" arrived="0" entered="4" left="3" laneChangedFrom="0" laneChangedTo="0" flow="1851.49"/>
        <edge id="8/1to9/1" sampledSeconds="16.98" traveltime="5.50" overlapTraveltime="5.79" density="27.96" overlapDensity="29.44" laneDensity="27.96" occupancy="13.97" waitingTime="0.00" timeLoss="1.84" speed="17.48" speedRelative="0.89" departed="0" arrived="0" entered="3" left="3" laneChangedFrom="0" laneChangedTo="0" flow="1758.54"/>
        <edge id="9/1to10/1" sampledSeconds="14.61" traveltime="5.35" overlapTraveltime="5.62" density="24.11" overlapDensity="25.33" laneDensity="24.11" occupancy="11.98" waitingTime="0.00" timeLoss="1.20" speed="17.99" speedRelative="0.92" departed="0" arrived="0" entered="3" left="2" laneChangedFrom="0" laneChangedTo="0" flow="1560.43"/>
    </interval>
    <interval begin="60.00" end="66.00" id="dump_6">
        <edge id="1/1to2/1" sampledSeconds="12.85" traveltime="5.22" overlapTraveltime="5.49" density="21.34" overlapDensity="22.27" laneDensity="21.34" occupancy="10.66" waitingTime="0.00" timeLoss="0.77" speed="18.42" speedRelative="0.94" departed="0" arrived="0" entered="2" left="2" laneChangedFrom="0" laneChangedTo="0" flow="1414.59"/>
        <edge id="10/1to1/1" sampledSeconds="14.57" traveltime="5.33" overlapTraveltime="5.61" density="24.32" overlapDensity="25.27" laneDensity="24.32" occupancy="12.03" waitingTime="0.00" timeLoss="1.16" speed="18.04" speedRelative="0.92" departed="0" arrived="0" entered="3" left="2" laneChangedFrom="0" laneChangedTo="0" flow="1578.34"/>
        <edge id="2/1to3/1" sampledSeconds="11.87" traveltime="5.21" overlapTraveltime="5.48" density="19.63" overlapDensity="20.58" laneDensity="19.63" occupancy="9.82" waitingTime="0.00" timeLoss="0.69" speed="18.45" speedRelative="0.94" departed="0" arrived="0" entered="2" left="2" laneChangedFrom="0" laneChangedTo="0" flow="1304.73"/>
        <edge id="3/1to4/1" sampledSeconds="12.87" traveltime="5.26" overlapTraveltime="5.54" density="21.37" overlapDensity="22.32" laneDensity="21.37" occupancy="10.69" waitingTime="0.00" timeLoss="0.88" speed="18.27" speedRelative="0.93" departed="0" arrived="0" entered="2" left="2" laneChangedFrom="0" laneChangedTo="0" flow="1405.44"/>
        <edge id="4/1to5/1" sampledSeconds="14.10" traveltime="5.38" overlapTraveltime="5.67" density="22.95" overlapDensity="24.45" laneDensity="22.95" occupancy="11.60" waitingTime="0.00" timeLoss="1.27" speed="17.83" speedRelative="0.91" departed="0" arrived="0" entered="2" left="3" laneChangedFrom="0" laneChangedTo="0" flow="1476.18"/>
        <edge id="5/1to6/1" sampledSeconds="18.23" traveltime="5.85" overlapTraveltime="6.16" density="29.98" overlapDensity="31.60" laneDensity="29.98" occupancy="15.02" waitingTime="0.00" timeLoss="2.96" speed="16.42" speedRelative="0.84" departed="0" arrived="0" entered="3" left="3" laneChangedFrom="0" laneChangedTo="0" flow="1774.50"/>
        <edge id="6/1to7/1" sampledSeconds="20.42" traveltime="5.95" overlapTraveltime="6.26" density="33.75" overlapDensity="35.40" laneDensity="33.75" occupancy="16.87" waitingTime="0.00" timeLoss="3.58" speed="16.16" speedRelative="0.82" departed="0" arrived="0" entered="3" left="3" laneChangedFrom="0" laneChangedTo="0" flow="1962.45"/>
        <edge id="7/1to8/1" sampledSeconds="19.65" traveltime="5.79" overlapTraveltime="6.08" density="32.12" overlapDensity="34.07" laneDensity="32.12" occupancy="16.06" waitingTime="0.00" timeLoss="2.98" speed="16.62" speedRelative="0.85" departed="0" arrived="0" entered="3" left="3" laneChangedFrom="0" laneChangedTo="0" flow="1920.68"/>
        <edge id="8/1to9/1" sampledSeconds="17.99" traveltime="5.62" overlapTraveltime="5.91" density="29.74" overlapDensity="31.19" laneDensity="29.74" occupancy="14.78" waitingTime="0.00" timeLoss="2.29" speed="17.11" speedRelative="0.87" departed="0" arrived="0" entered="4" left="3" laneChangedFrom="0" laneChangedTo="0" flow="1830.14"/>
        <edge id="9/1to10/1" sampledSeconds="16.49" traveltime="5.47" overlapTraveltime="5.75" density="27.14" overlapDensity="28.60" laneDensity="27.14" occupancy="13.60" waitingTime="0.00" timeLoss="1.70" speed="17.59" speedRelative="0.90" departed="0" arrived="0" entered="3" left="3" laneChangedFrom="0" laneChangedTo="0" flow="1716.85"/>
    </interval>
    <interval begin="66.00" end="72.00" id="dump_6">
        <edge id="1/1to2/1" sampledSeconds="14.75" traveltime="5.32" overlapTraveltime="5.59" density="24.54" overlapDensity="25.58" laneDensity="24.54" occupancy="12.18" waitingTime="0.00" timeLoss="1.14" speed="18.08" speedRelative="0.92" departed="0" arrived="0" entered="3" left="3" laneChangedFrom="0" laneChangedTo="0" flow="1596.57"/>
        <edge id="10/1to1/1" sampledSeconds="16.02" traveltime="5.44" overlapTraveltime="5.72" density="26.33" overlapDensity="27.78" laneDensity="26.33" occupancy="13.15" waitingTime="0.00" timeLoss="1.58" speed="17.67" speedRelative="0.90" departed="0" arrived="0" entered="3" left="3" laneChangedFrom="0" laneChangedTo="0" flow="1673.45"/>