<?xml version="1.0"?>

<!-- generated on Fri Apr 19 09:00:50 2013 by SUMO sumo Version dev-SVN-r13657
<?xml version="1.0" encoding="UTF-8"?>

<configuration xmlns:xsi="http://www.w3.org/2001/XMLSchema-instance" xsi:noNamespaceSchemaLocation="http://sumo.sf.net/xsd/sumoConfiguration.xsd">

    <input>
        <net-file value="net.net.xml"/>
        <route-files value="input_routes.rou.xml"/>
        <additional-files value="input_additional.add.xml"/>
    </input>

    <report>
        <no-duration-log value="true"/>
        <no-step-log value="true"/>
    </report>

</configuration>
-->

<detector>
   <interval begin="0.00" end="45.00" id="test" nVehContrib="1" flow="80.00" occupancy="1.11" speed="10.04" length="5.00" nVehEntered="1"/>
</detector>
