<?xml version="1.0"?>

<!-- generated on 11/03/08 14:22:25 by SUMO sumo Version dev-SVN-r6273
<configuration>

   <input>
      <net-file>three_split.net.xml</net-file>
      <additional-files>input_routes.rou.xml</additional-files>
   </input>

   <output>
      <vehroute-output>vehroutes.xml</vehroute-output>
   </output>

   <time>
      <begin>0</begin>
   </time>

   <processing>
      <no-duration-log>true</no-duration-log>
      <no-step-log>true</no-step-log>
   </processing>

   <routing>
      <device.routing.probability>1</device.routing.probability>
   </routing>

</configuration>
-->

<routes>
   <vehicle id="0" depart="0" arrival="80">
      <replaced_route replacedOnEdge="beg"  replacedAtTime="0">beg beg2right right right2end end rend</replaced_route>

      <route>beg middle end rend</route>
   </vehicle>

   <vehicle id="1" depart="20" arrival="100">
      <replaced_route replacedOnEdge="beg"  replacedAtTime="20">beg beg2right right right2end end rend</replaced_route>

      <route>beg middle end rend</route>
   </vehicle>

   <vehicle id="2" depart="40" arrival="120">
      <replaced_route replacedOnEdge="beg"  replacedAtTime="40">beg beg2right right right2end end rend</replaced_route>

      <route>beg middle end rend</route>
   </vehicle>

   <vehicle id="3" depart="60" arrival="141">
      <replaced_route replacedOnEdge="beg"  replacedAtTime="60">beg beg2right right right2end end rend</replaced_route>

      <route>beg middle end rend</route>
   </vehicle>

   <vehicle id="4" depart="80" arrival="160">
      <replaced_route replacedOnEdge="beg"  replacedAtTime="80">beg beg2right right right2end end rend</replaced_route>

      <route>beg middle end rend</route>
   </vehicle>

   <vehicle id="5" depart="100" arrival="181">
      <replaced_route replacedOnEdge="beg"  replacedAtTime="100">beg beg2right right right2end end rend</replaced_route>

      <route>beg middle end rend</route>
   </vehicle>

   <vehicle id="6" depart="120" arrival="199">
      <replaced_route replacedOnEdge="beg"  replacedAtTime="120">beg beg2right right right2end end rend</replaced_route>

      <route>beg middle end rend</route>
   </vehicle>

   <vehicle id="7" depart="140" arrival="221">
      <replaced_route replacedOnEdge="beg"  replacedAtTime="140">beg beg2right right right2end end rend</replaced_route>

      <route>beg middle end rend</route>
   </vehicle>

   <vehicle id="8" depart="160" arrival="240">
      <replaced_route replacedOnEdge="beg"  replacedAtTime="160">beg beg2right right right2end end rend</replaced_route>

      <route>beg middle end rend</route>
   </vehicle>

   <vehicle id="9" depart="180" arrival="260">
      <replaced_route replacedOnEdge="beg"  replacedAtTime="180">beg beg2right right right2end end rend</replaced_route>

      <route>beg middle end rend</route>
   </vehicle>

</routes>
