<?xml version="1.0" encoding="UTF-8"?>

<!-- generated on 2022-08-28 19:21:47 by Eclipse SUMO sumo Version v1_14_1+0598-02ca306
This data file and the accompanying materials
are made available under the terms of the Eclipse Public License v2.0
which accompanies this distribution, and is available at
http://www.eclipse.org/legal/epl-v20.html
This file may also be made available under the following Secondary
Licenses when the conditions for such availability set forth in the Eclipse
Public License 2.0 are satisfied: GNU General Public License, version 2
or later which is available at
https://www.gnu.org/licenses/old-licenses/gpl-2.0-standalone.html
SPDX-License-Identifier: EPL-2.0 OR GPL-2.0-or-later
<configuration xmlns:xsi="http://www.w3.org/2001/XMLSchema-instance" xsi:noNamespaceSchemaLocation="http://sumo.dlr.de/xsd/sumoConfiguration.xsd">

    <input>
        <net-file value="net.net.xml"/>
        <route-files value="input_routes.rou.xml,input_routes2.rou.xml"/>
    </input>

    <output>
        <write-license value="true"/>
        <tripinfo-output value="tripinfos.xml"/>
        <tripinfo-output.write-unfinished value="true"/>
    </output>

    <processing>
        <default.speeddev value="0"/>
    </processing>

    <report>
        <xml-validation value="never"/>
        <duration-log.statistics value="true"/>
        <no-step-log value="true"/>
    </report>

    <taxi_device>
        <device.taxi.dispatch-algorithm value="greedyShared"/>
    </taxi_device>

</configuration>
-->

<tripinfos xmlns:xsi="http://www.w3.org/2001/XMLSchema-instance" xsi:noNamespaceSchemaLocation="http://sumo.dlr.de/xsd/tripinfo_file.xsd">
    <personinfo id="0" depart="0.00" type="DEFAULT_PEDTYPE" speedFactor="1.00">
        <ride waitingTime="67.00" vehicle="trip_A" depart="67.00" arrival="260.00" arrivalPos="285.60" duration="193.00" routeLength="1480.61" timeLoss="26.41"/>
    </personinfo>
    <personinfo id="1" depart="0.00" type="DEFAULT_PEDTYPE" speedFactor="1.00">
        <ride waitingTime="124.00" vehicle="trip_A" depart="124.00" arrival="261.00" arrivalPos="285.60" duration="137.00" routeLength="880.67" timeLoss="13.60"/>
    </personinfo>
    <tripinfo id="trip_A" depart="0.00" departLane="A0B0_1" departPos="5.10" departSpeed="0.00" departDelay="0.00" arrival="-1.00" arrivalLane="" arrivalPos="-1.00" arrivalSpeed="-1.00" duration="263.00" routeLength="2162.82" waitingTime="4.00" waitingCount="1" stopTime="65.00" timeLoss="40.21" rerouteNo="2" devices="tripinfo_trip_A routing_trip_A taxi_trip_A person_trip_A" vType="taxi" speedFactor="1.00" vaporized="">
        <taxi customers="2" occupiedDistance="1480.61" occupiedTime="136.00"/>
    </tripinfo>
    <tripinfo id="trip_B" depart="0.00" departLane="A2B2_1" departPos="5.10" departSpeed="0.00" departDelay="0.00" arrival="-1.00" arrivalLane="" arrivalPos="-1.00" arrivalSpeed="-1.00" duration="263.00" routeLength="0.05" waitingTime="0.00" waitingCount="0" stopTime="263.00" timeLoss="0.00" rerouteNo="0" devices="tripinfo_trip_B routing_trip_B taxi_trip_B" vType="taxi" speedFactor="1.00" vaporized="">
        <taxi customers="0" occupiedDistance="0.00" occupiedTime="0.00"/>
    </tripinfo>
</tripinfos>
