<?xml version="1.0" encoding="UTF-8"?>

<!-- generated on 2025-05-07 09:19:25 by Eclipse SUMO sumo Version v1_23_0+0022-59be8a79842
This data file and the accompanying materials
are made available under the terms of the Eclipse Public License v2.0
which accompanies this distribution, and is available at
http://www.eclipse.org/legal/epl-v20.html
This file may also be made available under the following Secondary
Licenses when the conditions for such availability set forth in the Eclipse
Public License 2.0 are satisfied: GNU General Public License, version 2
or later which is available at
https://www.gnu.org/licenses/old-licenses/gpl-2.0-standalone.html
SPDX-License-Identifier: EPL-2.0 OR GPL-2.0-or-later
<sumoConfiguration xmlns:xsi="http://www.w3.org/2001/XMLSchema-instance" xsi:noNamespaceSchemaLocation="http://sumo.dlr.de/xsd/sumoConfiguration.xsd">

    <input>
        <net-file value="net.net.xml"/>
        <route-files value="input_routes2.rou.xml"/>
        <additional-files value="input_additional.add.xml,input_additional2.add.xml,input_routes.rou.xml"/>
    </input>

    <output>
        <write-license value="true"/>
        <tripinfo-output value="tripinfos.xml"/>
        <vehroute-output value="vehroutes.xml"/>
        <railsignal-block-output value="railsignal_blocks.xml"/>
    </output>

    <processing>
        <time-to-teleport value="1800"/>
        <time-to-teleport.railsignal-deadlock value="200"/>
        <default.speeddev value="0"/>
    </processing>

    <report>
        <xml-validation value="never"/>
        <no-step-log value="true"/>
    </report>

</sumoConfiguration>
-->

<routes xmlns:xsi="http://www.w3.org/2001/XMLSchema-instance" xsi:noNamespaceSchemaLocation="http://sumo.dlr.de/xsd/routes_file.xsd">
    <vehicle id="v0" type="train" depart="5.00" departSpeed="44.44" departEdge="2" speedFactor="1.0000" arrival="125.00">
        <routeDistribution>
            <route replacedOnEdge="E2" replacedOnIndex="2" reason="rr_0:stationReroute" replacedAtTime="5.00" probability="0" edges="E0 E1 E2 E3 E4 E5 E6 E7 E8 E9"/>
            <route edges="E0 E1 E2 E3 E4b E5c E6c E6.1b E7 E8 E9"/>
        </routeDistribution>
        <stop busStop="ts_5c" duration="10.00" until="60.00"/>
    </vehicle>

    <vehicle id="blocker2" type="train" depart="0.00" departPos="143.64" arrival="602.00">
        <route edges="E5b"/>
        <stop busStop="ts_5b" duration="10.00" until="600.00"/>
    </vehicle>

    <vehicle id="blocker" type="train" depart="0.00" departPos="99.00" departEdge="5" arrival="656.00">
        <route edges="E0 E1 E2 E3 E4 E5 E6 E7 E8 E9"/>
        <stop busStop="ts_5" duration="10.00" until="600.00"/>
    </vehicle>

</routes>
