<?xml version="1.0" encoding="UTF-8"?>

<!-- generated on 2026-01-22T16:25:24.405192+01:00 by Eclipse SUMO sumo v1_25_0+1143-5cfd67bbee0
This data file and the accompanying materials
are made available under the terms of the Eclipse Public License v2.0
which accompanies this distribution, and is available at
http://www.eclipse.org/legal/epl-v20.html
This file may also be made available under the following Secondary
Licenses when the conditions for such availability set forth in the Eclipse
Public License 2.0 are satisfied: GNU General Public License, version 2
or later which is available at
https://www.gnu.org/licenses/old-licenses/gpl-2.0-standalone.html
SPDX-License-Identifier: EPL-2.0 OR GPL-2.0-or-later
<sumoConfiguration xmlns:xsi="http://www.w3.org/2001/XMLSchema-instance" xsi:noNamespaceSchemaLocation="http://sumo.dlr.de/xsd/sumoConfiguration.xsd">

    <input>
        <net-file value="net.net.xml"/>
        <route-files value="input_routes.rou.xml"/>
    </input>

    <output>
        <write-license value="true"/>
        <tripinfo-output value="tripinfos.xml"/>
        <railsignal-block-output value="railsignal_blocks.xml"/>
    </output>

    <processing>
        <time-to-teleport.railsignal-deadlock value="200"/>
        <default.speeddev value="0"/>
    </processing>

    <report>
        <xml-validation value="never"/>
        <duration-log.disable value="true"/>
        <no-step-log value="true"/>
    </report>

</sumoConfiguration>
-->

<tripinfos xmlns:xsi="http://www.w3.org/2001/XMLSchema-instance" xsi:noNamespaceSchemaLocation="http://sumo.dlr.de/xsd/tripinfo_file.xsd">
    <tripinfo id="t0" depart="0.00" departLane="a_0" departPos="50.10" departSpeed="13.89" departDelay="0.00" arrival="99.00" arrivalLane="g_0" arrivalPos="100.00" arrivalSpeed="12.25" duration="99.00" routeLength="650.32" waitingTime="0.00" waitingCount="0" stopTime="20.00" timeLoss="0.00" rerouteNo="1" devices="tripinfo_t0 routing_t0" vType="train" speedFactor="1.00" vaporized=""/>
    <tripinfo id="t1" depart="0.00" departLane="-g_0" departPos="50.10" departSpeed="13.89" departDelay="0.00" arrival="157.00" arrivalLane="-a_0" arrivalPos="100.00" arrivalSpeed="13.00" duration="157.00" routeLength="732.15" waitingTime="46.00" waitingCount="1" stopTime="20.00" timeLoss="74.15" rerouteNo="1" devices="tripinfo_t1 routing_t1" vType="train" speedFactor="1.00" vaporized=""/>
    <tripinfo id="t2" depart="20.00" departLane="a_0" departPos="50.10" departSpeed="10.74" departDelay="0.00" arrival="209.00" arrivalLane="g_0" arrivalPos="100.00" arrivalSpeed="12.25" duration="189.00" routeLength="650.32" waitingTime="58.00" waitingCount="2" stopTime="20.00" timeLoss="85.39" rerouteNo="1" devices="tripinfo_t2 routing_t2" vType="train" speedFactor="1.00" vaporized=""/>
    <tripinfo id="t3" depart="99.00" departLane="-g_0" departPos="50.10" departSpeed="10.74" departDelay="79.00" arrival="258.00" arrivalLane="-a_0" arrivalPos="100.00" arrivalSpeed="13.00" duration="159.00" routeLength="732.15" waitingTime="17.00" waitingCount="1" stopTime="20.00" timeLoss="23.24" rerouteNo="1" devices="tripinfo_t3 routing_t3" vType="train" speedFactor="1.00" vaporized=""/>
</tripinfos>
