<?xml version="1.0" encoding="UTF-8"?>

<!-- generated on 2023-01-18 14:09:41 by Eclipse SUMO sumo Version v1_15_0+1721-da6a1b6
This data file and the accompanying materials
are made available under the terms of the Eclipse Public License v2.0
which accompanies this distribution, and is available at
http://www.eclipse.org/legal/epl-v20.html
This file may also be made available under the following Secondary
Licenses when the conditions for such availability set forth in the Eclipse
Public License 2.0 are satisfied: GNU General Public License, version 2
or later which is available at
https://www.gnu.org/licenses/old-licenses/gpl-2.0-standalone.html
SPDX-License-Identifier: EPL-2.0 OR GPL-2.0-or-later
<configuration xmlns:xsi="http://www.w3.org/2001/XMLSchema-instance" xsi:noNamespaceSchemaLocation="http://sumo.dlr.de/xsd/sumoConfiguration.xsd">

    <input>
        <net-file value="net3.net.xml"/>
        <route-files value="input_routes.rou.xml"/>
        <additional-files value="input_additional2.add.xml"/>
    </input>

    <output>
        <write-license value="true"/>
        <tripinfo-output value="tripinfos.xml"/>
    </output>

    <processing>
        <collision.check-junctions value="true"/>
        <default.speeddev value="0"/>
        <pedestrian.model value="striping"/>
        <pedestrian.striping.dawdling value="0"/>
    </processing>

    <report>
        <xml-validation value="never"/>
        <no-step-log value="true"/>
    </report>

</configuration>
-->

<tripinfos xmlns:xsi="http://www.w3.org/2001/XMLSchema-instance" xsi:noNamespaceSchemaLocation="http://sumo.dlr.de/xsd/tripinfo_file.xsd">
    <tripinfo id="car_SE.0" depart="46.00" departLane="SC_1" departPos="5.10" departSpeed="0.00" departDelay="0.00" arrival="63.00" arrivalLane="CE_1" arrivalPos="89.10" arrivalSpeed="13.89" duration="17.00" routeLength="182.80" waitingTime="0.00" waitingCount="0" stopTime="0.00" timeLoss="2.99" rerouteNo="0" devices="tripinfo_car_SE.0" vType="car" speedFactor="1.00" vaporized=""/>
    <tripinfo id="car_SE.1" depart="50.00" departLane="SC_1" departPos="5.10" departSpeed="0.00" departDelay="0.00" arrival="73.00" arrivalLane="CE_1" arrivalPos="89.10" arrivalSpeed="13.89" duration="23.00" routeLength="182.80" waitingTime="4.00" waitingCount="1" stopTime="0.00" timeLoss="9.71" rerouteNo="0" devices="tripinfo_car_SE.1" vType="car" speedFactor="1.00" vaporized=""/>
    <personinfo id="p0" depart="0.00" type="p0" speedFactor="1.00">
        <walk depart="0.00" departPos="71.85" arrival="132.00" arrivalPos="0.00" duration="132.00" routeLength="183.23" timeLoss="0.07" maxSpeed="1.39"/>
    </personinfo>
</tripinfos>
