<?xml version="1.0" encoding="UTF-8"?>

<!-- generated on 2024-08-26 15:59:42 by Eclipse SUMO sumo Version v1_20_0+1726-b296604fe17
<sumoConfiguration xmlns:xsi="http://www.w3.org/2001/XMLSchema-instance" xsi:noNamespaceSchemaLocation="http://sumo.dlr.de/xsd/sumoConfiguration.xsd">

    <input>
        <net-file value="net.net.xml"/>
        <load-state value="state.xml"/>
    </input>

    <output>
        <tripinfo-output value="tripinfo2.xml"/>
    </output>

    <report>
        <verbose value="true"/>
        <duration-log.disable value="true"/>
        <no-step-log value="true"/>
    </report>

    <mesoscopic>
        <mesosim value="true"/>
    </mesoscopic>

</sumoConfiguration>
-->

<tripinfos xmlns:xsi="http://www.w3.org/2001/XMLSchema-instance" xsi:noNamespaceSchemaLocation="http://sumo.dlr.de/xsd/tripinfo_file.xsd">
    <tripinfo id="vehicle_0" depart="0.00" departLane="gneE1_0" departPos="0.00" departSpeed="20.00" departDelay="0.00" arrival="18.00" arrivalLane="gneE2_0" arrivalPos="197.74" arrivalSpeed="30.00" duration="18.00" routeLength="412.69" waitingTime="0.00" waitingCount="0" stopTime="0.00" timeLoss="0.00" rerouteNo="0" devices="tripinfo_vehicle_0 routing_vehicle_0" vType="train" speedFactor="1.00" vaporized=""/>
</tripinfos>
