<?xml version="1.0" encoding="UTF-8"?>

<!-- generated on 2022-09-05 22:45:33 by Eclipse SUMO sumo Version v1_14_1+0851-e3ca057
<configuration xmlns:xsi="http://www.w3.org/2001/XMLSchema-instance" xsi:noNamespaceSchemaLocation="http://sumo.dlr.de/xsd/sumoConfiguration.xsd">

    <input>
        <net-file value="input_net2.net.xml"/>
        <route-files value="input_routes.rou.xml"/>
    </input>

    <output>
        <tripinfo-output value="tripinfo.xml"/>
    </output>

    <report>
        <no-step-log value="true"/>
    </report>

    <traci_server>
        <remote-port value="50550"/>
    </traci_server>

</configuration>
-->

<tripinfos xmlns:xsi="http://www.w3.org/2001/XMLSchema-instance" xsi:noNamespaceSchemaLocation="http://sumo.dlr.de/xsd/tripinfo_file.xsd">
    <personinfo id="p0" depart="0.00" type="DEFAULT_PEDTYPE" speedFactor="1.06">
        <ride waitingTime="0.00" vehicle="p0_0" depart="0.00" arrival="10.00" arrivalPos="81.28" duration="10.00" routeLength="76.18" timeLoss="3.16"/>
    </personinfo>
    <personinfo id="p0" depart="10.00" type="DEFAULT_PEDTYPE" speedFactor="1.06">
        <walk depart="10.00" departPos="81.28" arrival="18.00" arrivalPos="90.95" duration="8.00" routeLength="9.67" timeLoss="1.43" maxSpeed="1.47"/>
    </personinfo>
    <tripinfo id="p0_0" depart="0.00" departLane="SC_0" departPos="5.10" departSpeed="0.00" departDelay="0.00" arrival="19.00" arrivalLane="CN_0" arrivalPos="45.98" arrivalSpeed="0.10" duration="19.00" routeLength="148.93" waitingTime="0.00" waitingCount="0" stopTime="0.00" timeLoss="7.57" rerouteNo="1" devices="tripinfo_p0_0 person_p0_0" vType="DEFAULT_VEHTYPE" speedFactor="0.94" vaporized=""/>
</tripinfos>
