<?xml version="1.0" encoding="UTF-8"?>

<!-- generated on 2025-10-09T21:49:59.574826+01:00 by Eclipse SUMO sumo v1_24_0+1329-e45c39789b9
This data file and the accompanying materials
are made available under the terms of the Eclipse Public License v2.0
which accompanies this distribution, and is available at
http://www.eclipse.org/legal/epl-v20.html
This file may also be made available under the following Secondary
Licenses when the conditions for such availability set forth in the Eclipse
Public License 2.0 are satisfied: GNU General Public License, version 2
or later which is available at
https://www.gnu.org/licenses/old-licenses/gpl-2.0-standalone.html
SPDX-License-Identifier: EPL-2.0 OR GPL-2.0-or-later
<sumoConfiguration xmlns:xsi="http://www.w3.org/2001/XMLSchema-instance" xsi:noNamespaceSchemaLocation="http://sumo.dlr.de/xsd/sumoConfiguration.xsd">

    <input>
        <net-file value="net.net.xml"/>
        <additional-files value="input_additional.add.xml"/>
    </input>

    <output>
        <write-license value="true"/>
        <fcd-output value="fcd.xml"/>
    </output>

    <processing>
        <intermodal-collision.action value="none"/>
        <railsignal-moving-block value="true"/>
        <default.speeddev value="0"/>
    </processing>

    <report>
        <xml-validation value="never"/>
        <duration-log.disable value="true"/>
        <no-step-log value="true"/>
    </report>

    <fcd_replay_device>
        <device.fcd-replay.file value="input_state.xml"/>
    </fcd_replay_device>

</sumoConfiguration>
-->

<fcd-export xmlns:xsi="http://www.w3.org/2001/XMLSchema-instance" xsi:noNamespaceSchemaLocation="http://sumo.dlr.de/xsd/fcd_file.xsd">
    <timestep time="0.00">
        <vehicle id="S1.0" x="149.98" y="196.22" angle="90.10" type="SBahn" speed="0.00" pos="40.10" lane="E9_0" slope="0.00"/>
        <person id="pf_0.0" x="-0.29" y="200.70" angle="89.86" type="DEFAULT_PEDTYPE@pf_0.0" speed="0.00" pos="0.00" edge="E3" slope="0.00"/>
    </timestep>
    <timestep time="1.00">
        <vehicle id="S1.0" x="151.77" y="196.22" angle="90.10" type="SBahn" speed="1.79" pos="41.89" lane="E9_0" slope="0.00"/>
        <person id="pf_0.0" x="1.18" y="200.70" angle="89.95" type="DEFAULT_PEDTYPE@pf_0.0" speed="1.47" pos="1.47" edge="E3" slope="0.00"/>
    </timestep>
    <timestep time="2.00">
        <vehicle id="S1.0" x="155.32" y="196.21" angle="90.10" type="SBahn" speed="3.55" pos="45.44" lane="E9_0" slope="0.00"/>
        <person id="pf_0.0" x="2.65" y="200.70" angle="89.95" type="DEFAULT_PEDTYPE@pf_0.0" speed="1.47" pos="2.94" edge="E3" slope="0.00"/>
    </timestep>
    <timestep time="3.00">
        <vehicle id="S1.0" x="160.60" y="196.20" angle="90.10" type="SBahn" speed="5.29" pos="50.72" lane="E9_0" slope="0.00"/>
        <person id="pf_0.0" x="4.13" y="200.70" angle="89.95" type="DEFAULT_PEDTYPE@pf_0.0" speed="1.48" pos="4.42" edge="E3" slope="0.00"/>
    </timestep>
    <timestep time="4.00">
        <vehicle id="S1.0" x="167.59" y="196.18" angle="90.12" type="SBahn" speed="7.00" pos="1.30" lane="E10_0" slope="0.00"/>
        <person id="pf_0.0" x="5.60" y="200.70" angle="89.95" type="DEFAULT_PEDTYPE@pf_0.0" speed="1.47" pos="5.89" edge="E3" slope="0.00"/>
    </timestep>
    <timestep time="5.00">
        <vehicle id="S1.0" x="175.57" y="196.15" angle="90.24" type="SBahn" speed="7.98" pos="9.28" lane="E10_0" slope="0.00"/>
        <person id="pf_0.0" x="7.07" y="200.71" angle="89.95" type="DEFAULT_PEDTYPE@pf_0.0" speed="1.47" pos="7.36" edge="E3" slope="0.00"/>
    </timestep>
    <timestep time="6.00">
        <vehicle id="S1.0" x="182.65" y="196.12" angle="90.25" type="SBahn" speed="7.08" pos="16.36" lane="E10_0" slope="0.00"/>
        <person id="pf_0.0" x="8.54" y="200.71" angle="89.95" type="DEFAULT_PEDTYPE@pf_0.0" speed="1.47" pos="8.83" edge="E3" slope="0.00"/>
    </timestep>
    <timestep time="7.00">
        <vehicle id="S1.0" x="188.84" y="196.09" angle="90.25" type="SBahn" speed="6.18" pos="22.55" lane="E10_0" slope="0.00"/>
        <person id="pf_0.0" x="10.02" y="200.71" angle="89.95" type="DEFAULT_PEDTYPE@pf_0.0" speed="1.48" pos="10.31" edge="E3" slope="0.00"/>
    </timestep>
    <timestep time="8.00">
        <vehicle id="S1.0" x="194.12" y="196.07" angle="90.25" type="SBahn" speed="5.28" pos="27.82" lane="E10_0" slope="0.00"/>
        <person id="pf_0.0" x="11.49" y="200.71" angle="89.95" type="DEFAULT_PEDTYPE@pf_0.0" speed="1.47" pos="11.78" edge="E3" slope="0.00"/>
    </timestep>
    <timestep time="9.00">
        <vehicle id="S1.0" x="198.50" y="196.05" angle="90.25" type="SBahn" speed="4.38" pos="32.20" lane="E10_0" slope="0.00"/>
        <person id="pf_0.0" x="12.96" y="200.71" angle="89.95" type="DEFAULT_PEDTYPE@pf_0.0" speed="1.47" pos="13.25" edge="E3" slope="0.00"/>
    </timestep>
    <timestep time="10.00">
        <vehicle id="S1.0" x="201.98" y="196.04" angle="90.25" type="SBahn" speed="3.48" pos="35.68" lane="E10_0" slope="0.00"/>
        <person id="pf_0.1" x="-0.29" y="200.70" angle="89.86" type="DEFAULT_PEDTYPE@pf_0.1" speed="0.00" pos="0.00" edge="E3" slope="0.00"/>
        <person id="pf_0.0" x="14.43" y="200.71" angle="89.95" type="DEFAULT_PEDTYPE@pf_0.0" speed="1.47" pos="14.72" edge="E3" slope="0.00"/>
    </timestep>
    <timestep time="11.00">
        <vehicle id="S1.0" x="204.56" y="196.02" angle="90.25" type="SBahn" speed="2.58" pos="38.26" lane="E10_0" slope="0.00"/>
        <person id="pf_0.1" x="1.01" y="200.70" angle="89.95" type="DEFAULT_PEDTYPE@pf_0.1" speed="1.30" pos="1.30" edge="E3" slope="0.00"/>
        <person id="pf_0.0" x="15.90" y="200.71" angle="89.95" type="DEFAULT_PEDTYPE@pf_0.0" speed="1.47" pos="16.19" edge="E3" slope="0.00"/>
    </timestep>
    <timestep time="12.00">
        <vehicle id="S1.0" x="206.24" y="196.02" angle="90.25" type="SBahn" speed="1.68" pos="39.94" lane="E10_0" slope="0.00"/>
        <person id="pf_0.1" x="2.32" y="200.70" angle="89.95" type="DEFAULT_PEDTYPE@pf_0.1" speed="1.31" pos="2.61" edge="E3" slope="0.00"/>
        <person id="pf_0.0" x="17.38" y="200.71" angle="89.95" type="DEFAULT_PEDTYPE@pf_0.0" speed="1.48" pos="17.67" edge="E3" slope="0.00"/>
    </timestep>
    <timestep time="13.00">
        <vehicle id="S1.0" x="207.02" y="196.01" angle="90.25" type="SBahn" speed="0.78" pos="40.72" lane="E10_0" slope="0.00"/>
        <person id="pf_0.1" x="3.62" y="200.70" angle="89.95" type="DEFAULT_PEDTYPE@pf_0.1" speed="1.30" pos="3.91" edge="E3" slope="0.00"/>
        <person id="pf_0.0" x="18.85" y="200.72" angle="89.95" type="DEFAULT_PEDTYPE@pf_0.0" speed="1.47" pos="19.14" edge="E3" slope="0.00"/>
    </timestep>
    <timestep time="14.00">
        <vehicle id="S1.0" x="207.02" y="196.01" angle="90.25" type="SBahn" speed="0.00" pos="40.72" lane="E10_0" slope="0.00"/>
        <person id="pf_0.1" x="4.92" y="200.70" angle="89.95" type="DEFAULT_PEDTYPE@pf_0.1" speed="1.30" pos="5.21" edge="E3" slope="0.00"/>
        <person id="pf_0.0" x="20.32" y="200.72" angle="89.95" type="DEFAULT_PEDTYPE@pf_0.0" speed="1.47" pos="20.61" edge="E3" slope="0.00"/>
    </timestep>
    <timestep time="15.00">
        <vehicle id="S1.0" x="207.02" y="196.01" angle="90.25" type="SBahn" speed="0.00" pos="40.72" lane="E10_0" slope="0.00"/>
        <person id="pf_0.1" x="6.23" y="200.71" angle="89.95" type="DEFAULT_PEDTYPE@pf_0.1" speed="1.31" pos="6.52" edge="E3" slope="0.00"/>
        <person id="pf_0.0" x="21.79" y="200.72" angle="89.95" type="DEFAULT_PEDTYPE@pf_0.0" speed="1.47" pos="22.08" edge="E3" slope="0.00"/>
    </timestep>
    <timestep time="16.00">
        <vehicle id="S1.0" x="207.02" y="196.01" angle="90.25" type="SBahn" speed="0.00" pos="40.72" lane="E10_0" slope="0.00"/>
        <person id="pf_0.1" x="7.53" y="200.71" angle="89.95" type="DEFAULT_PEDTYPE@pf_0.1" speed="1.30" pos="7.82" edge="E3" slope="0.00"/>
        <person id="pf_0.0" x="23.27" y="200.72" angle="89.95" type="DEFAULT_PEDTYPE@pf_0.0" speed="1.48" pos="23.56" edge="E3" slope="0.00"/>
    </timestep>
    <timestep time="17.00">
        <vehicle id="S1.0" x="207.02" y="196.01" angle="90.25" type="SBahn" speed="0.00" pos="40.72" lane="E10_0" slope="0.00"/>
        <person id="pf_0.1" x="8.83" y="200.71" angle="89.95" type="DEFAULT_PEDTYPE@pf_0.1" speed="1.30" pos="9.12" edge="E3" slope="0.00"/>
        <person id="pf_0.0" x="24.74" y="200.72" angle="89.95" type="DEFAULT_PEDTYPE@pf_0.0" speed="1.47" pos="25.03" edge="E3" slope="0.00"/>
    </timestep>
    <timestep time="18.00">
        <vehicle id="S1.0" x="207.02" y="196.01" angle="90.25" type="SBahn" speed="0.00" pos="40.72" lane="E10_0" slope="0.00"/>
        <person id="pf_0.1" x="10.14" y="200.71" angle="89.95" type="DEFAULT_PEDTYPE@pf_0.1" speed="1.31" pos="10.43" edge="E3" slope="0.00"/>
        <person id="pf_0.0" x="26.21" y="200.72" angle="89.95" type="DEFAULT_PEDTYPE@pf_0.0" speed="1.47" pos="26.50" edge="E3" slope="0.00"/>
    </timestep>
    <timestep time="19.00">
        <vehicle id="S1.0" x="207.02" y="196.01" angle="90.25" type="SBahn" speed="0.00" pos="40.72" lane="E10_0" slope="0.00"/>
        <person id="pf_0.1" x="11.44" y="200.71" angle="89.95" type="DEFAULT_PEDTYPE@pf_0.1" speed="1.30" pos="11.73" edge="E3" slope="0.00"/>
        <person id="pf_0.0" x="27.68" y="200.72" angle="89.95" type="DEFAULT_PEDTYPE@pf_0.0" speed="1.47" pos="27.97" edge="E3" slope="0.00"/>
    </timestep>
    <timestep time="20.00">
        <vehicle id="S1.0" x="207.02" y="196.01" angle="90.25" type="SBahn" speed="0.00" pos="40.72" lane="E10_0" slope="0.00"/>
        <person id="pf_0.2" x="-0.29" y="200.70" angle="89.86" type="DEFAULT_PEDTYPE@pf_0.2" speed="0.00" pos="0.00" edge="E3" slope="0.00"/>
        <person id="pf_0.1" x="12.74" y="200.71" angle="89.95" type="DEFAULT_PEDTYPE@pf_0.1" speed="1.30" pos="13.03" edge="E3" slope="0.00"/>
        <person id="pf_0.0" x="29.15" y="200.72" angle="89.95" type="DEFAULT_PEDTYPE@pf_0.0" speed="1.47" pos="29.44" edge="E3" slope="0.00"/>
    </timestep>
    <timestep time="21.00">
        <vehicle id="S1.0" x="207.02" y="196.01" angle="90.25" type="SBahn" speed="0.00" pos="40.72" lane="E10_0" slope="0.00"/>
        <person id="pf_0.2" x="1.11" y="200.70" angle="89.95" type="DEFAULT_PEDTYPE@pf_0.2" speed="1.40" pos="1.40" edge="E3" slope="0.00"/>
        <person id="pf_0.1" x="14.05" y="200.71" angle="89.95" type="DEFAULT_PEDTYPE@pf_0.1" speed="1.31" pos="14.34" edge="E3" slope="0.00"/>
        <person id="pf_0.0" x="30.63" y="200.72" angle="89.95" type="DEFAULT_PEDTYPE@pf_0.0" speed="1.48" pos="30.92" edge="E3" slope="0.00"/>
    </timestep>
    <timestep time="22.00">
        <vehicle id="S1.0" x="207.02" y="196.01" angle="90.25" type="SBahn" speed="0.00" pos="40.72" lane="E10_0" slope="0.00"/>
        <person id="pf_0.2" x="2.52" y="200.70" angle="89.95" type="DEFAULT_PEDTYPE@pf_0.2" speed="1.41" pos="2.81" edge="E3" slope="0.00"/>
        <person id="pf_0.1" x="15.35" y="200.71" angle="89.95" type="DEFAULT_PEDTYPE@pf_0.1" speed="1.30" pos="15.64" edge="E3" slope="0.00"/>
        <person id="pf_0.0" x="32.10" y="200.73" angle="89.95" type="DEFAULT_PEDTYPE@pf_0.0" speed="1.47" pos="32.39" edge="E3" slope="0.00"/>
    </timestep>
    <timestep time="23.00">
        <vehicle id="S1.0" x="207.02" y="196.01" angle="90.25" type="SBahn" speed="0.00" pos="40.72" lane="E10_0" slope="0.00"/>
        <person id="pf_0.2" x="3.92" y="200.70" angle="89.95" type="DEFAULT_PEDTYPE@pf_0.2" speed="1.40" pos="4.21" edge="E3" slope="0.00"/>
        <person id="pf_0.1" x="16.65" y="200.71" angle="89.95" type="DEFAULT_PEDTYPE@pf_0.1" speed="1.30" pos="16.94" edge="E3" slope="0.00"/>
        <person id="pf_0.0" x="33.57" y="200.73" angle="89.95" type="DEFAULT_PEDTYPE@pf_0.0" speed="1.47" pos="33.86" edge="E3" slope="0.00"/>
    </timestep>
    <timestep time="24.00">
        <vehicle id="S1.0" x="207.02" y="196.01" angle="90.25" type="SBahn" speed="0.00" pos="40.72" lane="E10_0" slope="0.00"/>
        <person id="pf_0.2" x="5.32" y="200.70" angle="89.95" type="DEFAULT_PEDTYPE@pf_0.2" speed="1.40" pos="5.61" edge="E3" slope="0.00"/>
        <person id="pf_0.1" x="17.95" y="200.71" angle="89.95" type="DEFAULT_PEDTYPE@pf_0.1" speed="1.30" pos="18.24" edge="E3" slope="0.00"/>
        <person id="pf_0.0" x="35.04" y="200.73" angle="89.95" type="DEFAULT_PEDTYPE@pf_0.0" speed="1.47" pos="35.33" edge="E3" slope="0.00"/>
    </timestep>
    <timestep time="25.00">
        <vehicle id="S1.0" x="207.02" y="196.01" angle="90.25" type="SBahn" speed="0.00" pos="40.72" lane="E10_0" slope="0.00"/>
        <person id="pf_0.2" x="6.73" y="200.71" angle="89.95" type="DEFAULT_PEDTYPE@pf_0.2" speed="1.41" pos="7.02" edge="E3" slope="0.00"/>
        <person id="pf_0.1" x="19.26" y="200.72" angle="89.95" type="DEFAULT_PEDTYPE@pf_0.1" speed="1.31" pos="19.55" edge="E3" slope="0.00"/>
        <person id="pf_0.0" x="36.52" y="200.73" angle="89.95" type="DEFAULT_PEDTYPE@pf_0.0" speed="1.48" pos="36.81" edge="E3" slope="0.00"/>
    </timestep>
    <timestep time="26.00">
        <vehicle id="S1.0" x="207.02" y="196.01" angle="90.25" type="SBahn" speed="0.00" pos="40.72" lane="E10_0" slope="0.00"/>
        <person id="pf_0.2" x="8.13" y="200.71" angle="89.95" type="DEFAULT_PEDTYPE@pf_0.2" speed="1.40" pos="8.42" edge="E3" slope="0.00"/>
        <person id="pf_0.1" x="20.56" y="200.72" angle="89.95" type="DEFAULT_PEDTYPE@pf_0.1" speed="1.30" pos="20.85" edge="E3" slope="0.00"/>
        <person id="pf_0.0" x="37.99" y="200.73" angle="89.95" type="DEFAULT_PEDTYPE@pf_0.0" speed="1.47" pos="38.28" edge="E3" slope="0.00"/>
    </timestep>
    <timestep time="27.00">
        <vehicle id="S1.0" x="207.02" y="196.01" angle="90.25" type="SBahn" speed="0.00" pos="40.72" lane="E10_0" slope="0.00"/>
        <person id="pf_0.2" x="9.53" y="200.71" angle="89.95" type="DEFAULT_PEDTYPE@pf_0.2" speed="1.40" pos="9.82" edge="E3" slope="0.00"/>
        <person id="pf_0.1" x="21.86" y="200.72" angle="89.95" type="DEFAULT_PEDTYPE@pf_0.1" speed="1.30" pos="22.15" edge="E3" slope="0.00"/>
        <person id="pf_0.0" x="39.46" y="200.73" angle="89.95" type="DEFAULT_PEDTYPE@pf_0.0" speed="1.47" pos="39.75" edge="E3" slope="0.00"/>
    </timestep>
    <timestep time="28.00">
        <vehicle id="S1.0" x="207.02" y="196.01" angle="90.25" type="SBahn" speed="0.00" pos="40.72" lane="E10_0" slope="0.00"/>
        <person id="pf_0.2" x="10.94" y="200.71" angle="89.95" type="DEFAULT_PEDTYPE@pf_0.2" speed="1.41" pos="11.23" edge="E3" slope="0.00"/>
        <person id="pf_0.1" x="23.17" y="200.72" angle="89.95" type="DEFAULT_PEDTYPE@pf_0.1" speed="1.31" pos="23.46" edge="E3" slope="0.00"/>
        <person id="pf_0.0" x="40.93" y="200.73" angle="89.95" type="DEFAULT_PEDTYPE@pf_0.0" speed="1.47" pos="41.22" edge="E3" slope="0.00"/>
    </timestep>
    <timestep time="29.00">
        <vehicle id="S1.0" x="207.02" y="196.01" angle="90.25" type="SBahn" speed="0.00" pos="40.72" lane="E10_0" slope="0.00"/>
        <person id="pf_0.2" x="12.34" y="200.71" angle="89.95" type="DEFAULT_PEDTYPE@pf_0.2" speed="1.40" pos="12.63" edge="E3" slope="0.00"/>
        <person id="pf_0.1" x="24.47" y="200.72" angle="89.95" type="DEFAULT_PEDTYPE@pf_0.1" speed="1.30" pos="24.76" edge="E3" slope="0.00"/>
        <person id="pf_0.0" x="42.40" y="200.73" angle="89.95" type="DEFAULT_PEDTYPE@pf_0.0" speed="1.47" pos="42.69" edge="E3" slope="0.00"/>
    </timestep>
    <timestep time="30.00">
        <vehicle id="S1.0" x="207.02" y="196.01" angle="90.25" type="SBahn" speed="0.00" pos="40.72" lane="E10_0" slope="0.00"/>
        <person id="pf_0.3" x="-0.29" y="200.70" angle="89.86" type="DEFAULT_PEDTYPE@pf_0.3" speed="0.00" pos="0.00" edge="E3" slope="0.00"/>
        <person id="pf_0.2" x="13.74" y="200.71" angle="89.95" type="DEFAULT_PEDTYPE@pf_0.2" speed="1.40" pos="14.03" edge="E3" slope="0.00"/>
        <person id="pf_0.1" x="25.77" y="200.72" angle="89.95" type="DEFAULT_PEDTYPE@pf_0.1" speed="1.30" pos="26.06" edge="E3" slope="0.00"/>
        <person id="pf_0.0" x="43.88" y="200.74" angle="89.95" type="DEFAULT_PEDTYPE@pf_0.0" speed="1.48" pos="44.17" edge="E3" slope="0.00"/>
    </timestep>
    <timestep time="31.00">
        <vehicle id="S1.0" x="207.02" y="196.01" angle="90.25" type="SBahn" speed="0.00" pos="40.72" lane="E10_0" slope="0.00"/>
        <person id="pf_0.3" x="1.21" y="200.70" angle="89.95" type="DEFAULT_PEDTYPE@pf_0.3" speed="1.50" pos="1.50" edge="E3" slope="0.00"/>
        <person id="pf_0.2" x="15.15" y="200.71" angle="89.95" type="DEFAULT_PEDTYPE@pf_0.2" speed="1.41" pos="15.44" edge="E3" slope="0.00"/>
        <person id="pf_0.1" x="27.08" y="200.72" angle="89.95" type="DEFAULT_PEDTYPE@pf_0.1" speed="1.31" pos="27.37" edge="E3" slope="0.00"/>
        <person id="pf_0.0" x="45.35" y="200.74" angle="89.95" type="DEFAULT_PEDTYPE@pf_0.0" speed="1.47" pos="45.64" edge="E3" slope="0.00"/>
    </timestep>
    <timestep time="32.00">
        <vehicle id="S1.0" x="207.02" y="196.01" angle="90.25" type="SBahn" speed="0.00" pos="40.72" lane="E10_0" slope="0.00"/>
        <person id="pf_0.3" x="2.72" y="200.70" angle="89.95" type="DEFAULT_PEDTYPE@pf_0.3" speed="1.51" pos="3.01" edge="E3" slope="0.00"/>
        <person id="pf_0.2" x="16.55" y="200.71" angle="89.95" type="DEFAULT_PEDTYPE@pf_0.2" speed="1.40" pos="16.84" edge="E3" slope="0.00"/>
        <person id="pf_0.1" x="28.38" y="200.72" angle="89.95" type="DEFAULT_PEDTYPE@pf_0.1" speed="1.30" pos="28.67" edge="E3" slope="0.00"/>
        <person id="pf_0.0" x="46.82" y="200.74" angle="89.95" type="DEFAULT_PEDTYPE@pf_0.0" speed="1.47" pos="47.11" edge="E3" slope="0.00"/>
    </timestep>
    <timestep time="33.00">
        <vehicle id="S1.0" x="207.02" y="196.01" angle="90.25" type="SBahn" speed="0.00" pos="40.72" lane="E10_0" slope="0.00"/>
        <person id="pf_0.3" x="4.22" y="200.70" angle="89.95" type="DEFAULT_PEDTYPE@pf_0.3" speed="1.50" pos="4.51" edge="E3" slope="0.00"/>
        <person id="pf_0.2" x="17.95" y="200.71" angle="89.95" type="DEFAULT_PEDTYPE@pf_0.2" speed="1.40" pos="18.24" edge="E3" slope="0.00"/>
        <person id="pf_0.1" x="29.68" y="200.72" angle="89.95" type="DEFAULT_PEDTYPE@pf_0.1" speed="1.30" pos="29.97" edge="E3" slope="0.00"/>
        <person id="pf_0.0" x="48.29" y="200.74" angle="89.95" type="DEFAULT_PEDTYPE@pf_0.0" speed="1.47" pos="48.58" edge="E3" slope="0.00"/>
    </timestep>
    <timestep time="34.00">
        <vehicle id="S1.0" x="207.02" y="196.01" angle="90.25" type="SBahn" speed="0.00" pos="40.72" lane="E10_0" slope="0.00"/>
        <person id="pf_0.3" x="5.72" y="200.70" angle="89.95" type="DEFAULT_PEDTYPE@pf_0.3" speed="1.50" pos="6.01" edge="E3" slope="0.00"/>
        <person id="pf_0.2" x="19.36" y="200.72" angle="89.95" type="DEFAULT_PEDTYPE@pf_0.2" speed="1.41" pos="19.65" edge="E3" slope="0.00"/>
        <person id="pf_0.1" x="30.99" y="200.72" angle="89.95" type="DEFAULT_PEDTYPE@pf_0.1" speed="1.31" pos="31.28" edge="E3" slope="0.00"/>
        <person id="pf_0.0" x="49.77" y="200.74" angle="89.95" type="DEFAULT_PEDTYPE@pf_0.0" speed="1.48" pos="50.06" edge="E3" slope="0.00"/>
    </timestep>
    <timestep time="35.00">
        <vehicle id="S1.0" x="207.02" y="196.01" angle="90.25" type="SBahn" speed="0.00" pos="40.72" lane="E10_0" slope="0.00"/>
        <person id="pf_0.3" x="7.23" y="200.71" angle="89.95" type="DEFAULT_PEDTYPE@pf_0.3" speed="1.51" pos="7.52" edge="E3" slope="0.00"/>
        <person id="pf_0.2" x="20.76" y="200.72" angle="89.95" type="DEFAULT_PEDTYPE@pf_0.2" speed="1.40" pos="21.05" edge="E3" slope="0.00"/>
        <person id="pf_0.1" x="32.29" y="200.73" angle="89.95" type="DEFAULT_PEDTYPE@pf_0.1" speed="1.30" pos="32.58" edge="E3" slope="0.00"/>
        <person id="pf_0.0" x="51.24" y="200.74" angle="89.95" type="DEFAULT_PEDTYPE@pf_0.0" speed="1.47" pos="51.53" edge="E3" slope="0.00"/>
    </timestep>
    <timestep time="36.00">
        <vehicle id="S1.0" x="207.02" y="196.01" angle="90.25" type="SBahn" speed="0.00" pos="40.72" lane="E10_0" slope="0.00"/>
        <person id="pf_0.3" x="8.73" y="200.71" angle="89.95" type="DEFAULT_PEDTYPE@pf_0.3" speed="1.50" pos="9.02" edge="E3" slope="0.00"/>
        <person id="pf_0.2" x="22.16" y="200.72" angle="89.95" type="DEFAULT_PEDTYPE@pf_0.2" speed="1.40" pos="22.45" edge="E3" slope="0.00"/>
        <person id="pf_0.1" x="33.59" y="200.73" angle="89.95" type="DEFAULT_PEDTYPE@pf_0.1" speed="1.30" pos="33.88" edge="E3" slope="0.00"/>
        <person id="pf_0.0" x="52.71" y="200.74" angle="89.95" type="DEFAULT_PEDTYPE@pf_0.0" speed="1.47" pos="53.00" edge="E3" slope="0.00"/>
    </timestep>
    <timestep time="37.00">
        <vehicle id="S1.0" x="207.02" y="196.01" angle="90.25" type="SBahn" speed="0.00" pos="40.72" lane="E10_0" slope="0.00"/>
        <person id="pf_0.3" x="10.24" y="200.71" angle="89.95" type="DEFAULT_PEDTYPE@pf_0.3" speed="1.51" pos="10.53" edge="E3" slope="0.00"/>
        <person id="pf_0.2" x="23.57" y="200.72" angle="89.95" type="DEFAULT_PEDTYPE@pf_0.2" speed="1.41" pos="23.86" edge="E3" slope="0.00"/>
        <person id="pf_0.1" x="34.90" y="200.73" angle="89.95" type="DEFAULT_PEDTYPE@pf_0.1" speed="1.31" pos="35.19" edge="E3" slope="0.00"/>
        <person id="pf_0.0" x="54.18" y="200.74" angle="89.95" type="DEFAULT_PEDTYPE@pf_0.0" speed="1.47" pos="54.47" edge="E3" slope="0.00"/>
    </timestep>
    <timestep time="38.00">
        <vehicle id="S1.0" x="207.02" y="196.01" angle="90.25" type="SBahn" speed="0.00" pos="40.72" lane="E10_0" slope="0.00"/>
        <person id="pf_0.3" x="11.74" y="200.71" angle="89.95" type="DEFAULT_PEDTYPE@pf_0.3" speed="1.50" pos="12.03" edge="E3" slope="0.00"/>
        <person id="pf_0.2" x="24.97" y="200.72" angle="89.95" type="DEFAULT_PEDTYPE@pf_0.2" speed="1.40" pos="25.26" edge="E3" slope="0.00"/>
        <person id="pf_0.1" x="36.20" y="200.73" angle="89.95" type="DEFAULT_PEDTYPE@pf_0.1" speed="1.30" pos="36.49" edge="E3" slope="0.00"/>
        <person id="pf_0.0" x="55.65" y="200.74" angle="89.95" type="DEFAULT_PEDTYPE@pf_0.0" speed="1.47" pos="55.94" edge="E3" slope="0.00"/>
    </timestep>
    <timestep time="39.00">
        <vehicle id="S1.0" x="207.02" y="196.01" angle="90.25" type="SBahn" speed="0.00" pos="40.72" lane="E10_0" slope="0.00"/>
        <person id="pf_0.3" x="13.24" y="200.71" angle="89.95" type="DEFAULT_PEDTYPE@pf_0.3" speed="1.50" pos="13.53" edge="E3" slope="0.00"/>
        <person id="pf_0.2" x="26.37" y="200.72" angle="89.95" type="DEFAULT_PEDTYPE@pf_0.2" speed="1.40" pos="26.66" edge="E3" slope="0.00"/>
        <person id="pf_0.1" x="37.50" y="200.73" angle="89.95" type="DEFAULT_PEDTYPE@pf_0.1" speed="1.30" pos="37.79" edge="E3" slope="0.00"/>
        <person id="pf_0.0" x="57.13" y="200.75" angle="89.95" type="DEFAULT_PEDTYPE@pf_0.0" speed="1.48" pos="57.42" edge="E3" slope="0.00"/>
    </timestep>
    <timestep time="40.00">
        <vehicle id="S1.0" x="207.02" y="196.01" angle="90.25" type="SBahn" speed="0.00" pos="40.72" lane="E10_0" slope="0.00"/>
        <person id="pf_0.4" x="-0.29" y="200.70" angle="89.86" type="DEFAULT_PEDTYPE@pf_0.4" speed="0.00" pos="0.00" edge="E3" slope="0.00"/>
        <person id="pf_0.3" x="14.75" y="200.71" angle="89.95" type="DEFAULT_PEDTYPE@pf_0.3" speed="1.51" pos="15.04" edge="E3" slope="0.00"/>
        <person id="pf_0.2" x="27.78" y="200.72" angle="89.95" type="DEFAULT_PEDTYPE@pf_0.2" speed="1.41" pos="28.07" edge="E3" slope="0.00"/>
        <person id="pf_0.1" x="38.81" y="200.73" angle="89.95" type="DEFAULT_PEDTYPE@pf_0.1" speed="1.31" pos="39.10" edge="E3" slope="0.00"/>
        <person id="pf_0.0" x="58.60" y="200.75" angle="89.95" type="DEFAULT_PEDTYPE@pf_0.0" speed="1.47" pos="58.89" edge="E3" slope="0.00"/>
    </timestep>
    <timestep time="41.00">
        <vehicle id="S1.0" x="207.02" y="196.01" angle="90.25" type="SBahn" speed="0.00" pos="40.72" lane="E10_0" slope="0.00"/>
        <person id="pf_0.4" x="1.14" y="200.70" angle="89.95" type="DEFAULT_PEDTYPE@pf_0.4" speed="1.43" pos="1.43" edge="E3" slope="0.00"/>
        <person id="pf_0.3" x="16.25" y="200.71" angle="89.95" type="DEFAULT_PEDTYPE@pf_0.3" speed="1.50" pos="16.54" edge="E3" slope="0.00"/>
        <person id="pf_0.2" x="29.18" y="200.72" angle="89.95" type="DEFAULT_PEDTYPE@pf_0.2" speed="1.40" pos="29.47" edge="E3" slope="0.00"/>
        <person id="pf_0.1" x="40.11" y="200.73" angle="89.95" type="DEFAULT_PEDTYPE@pf_0.1" speed="1.30" pos="40.40" edge="E3" slope="0.00"/>
        <person id="pf_0.0" x="60.07" y="200.75" angle="89.95" type="DEFAULT_PEDTYPE@pf_0.0" speed="1.47" pos="60.36" edge="E3" slope="0.00"/>
    </timestep>
    <timestep time="42.00">
        <vehicle id="S1.0" x="207.02" y="196.01" angle="90.25" type="SBahn" speed="0.00" pos="40.72" lane="E10_0" slope="0.00"/>
        <person id="pf_0.4" x="2.57" y="200.70" angle="89.95" type="DEFAULT_PEDTYPE@pf_0.4" speed="1.43" pos="2.86" edge="E3" slope="0.00"/>
        <person id="pf_0.3" x="17.75" y="200.71" angle="89.95" type="DEFAULT_PEDTYPE@pf_0.3" speed="1.50" pos="18.04" edge="E3" slope="0.00"/>
        <person id="pf_0.2" x="30.58" y="200.72" angle="89.95" type="DEFAULT_PEDTYPE@pf_0.2" speed="1.40" pos="30.87" edge="E3" slope="0.00"/>
        <person id="pf_0.1" x="41.41" y="200.73" angle="89.95" type="DEFAULT_PEDTYPE@pf_0.1" speed="1.30" pos="41.70" edge="E3" slope="0.00"/>
        <person id="pf_0.0" x="61.54" y="200.75" angle="89.95" type="DEFAULT_PEDTYPE@pf_0.0" speed="1.47" pos="61.83" edge="E3" slope="0.00"/>
    </timestep>
    <timestep time="43.00">
        <vehicle id="S1.0" x="207.02" y="196.01" angle="90.25" type="SBahn" speed="0.00" pos="40.72" lane="E10_0" slope="0.00"/>
        <person id="pf_0.4" x="4.00" y="200.70" angle="89.95" type="DEFAULT_PEDTYPE@pf_0.4" speed="1.43" pos="4.29" edge="E3" slope="0.00"/>
        <person id="pf_0.3" x="19.26" y="200.72" angle="89.95" type="DEFAULT_PEDTYPE@pf_0.3" speed="1.51" pos="19.55" edge="E3" slope="0.00"/>
        <person id="pf_0.2" x="31.99" y="200.73" angle="89.95" type="DEFAULT_PEDTYPE@pf_0.2" speed="1.41" pos="32.28" edge="E3" slope="0.00"/>
        <person id="pf_0.1" x="42.72" y="200.73" angle="89.95" type="DEFAULT_PEDTYPE@pf_0.1" speed="1.31" pos="43.01" edge="E3" slope="0.00"/>
        <person id="pf_0.0" x="63.02" y="200.75" angle="89.95" type="DEFAULT_PEDTYPE@pf_0.0" speed="1.48" pos="63.31" edge="E3" slope="0.00"/>
    </timestep>
    <timestep time="44.00">
        <vehicle id="S1.0" x="207.02" y="196.01" angle="90.25" type="SBahn" speed="0.00" pos="40.72" lane="E10_0" slope="0.00"/>
        <person id="pf_0.4" x="5.43" y="200.70" angle="89.95" type="DEFAULT_PEDTYPE@pf_0.4" speed="1.43" pos="5.72" edge="E3" slope="0.00"/>
        <person id="pf_0.3" x="20.76" y="200.72" angle="89.95" type="DEFAULT_PEDTYPE@pf_0.3" speed="1.50" pos="21.05" edge="E3" slope="0.00"/>
        <person id="pf_0.2" x="33.39" y="200.73" angle="89.95" type="DEFAULT_PEDTYPE@pf_0.2" speed="1.40" pos="33.68" edge="E3" slope="0.00"/>
        <person id="pf_0.1" x="44.02" y="200.74" angle="89.95" type="DEFAULT_PEDTYPE@pf_0.1" speed="1.30" pos="44.31" edge="E3" slope="0.00"/>
        <person id="pf_0.0" x="64.49" y="200.75" angle="89.95" type="DEFAULT_PEDTYPE@pf_0.0" speed="1.47" pos="64.78" edge="E3" slope="0.00"/>
    </timestep>
    <timestep time="45.00">
        <vehicle id="S1.0" x="207.02" y="196.01" angle="90.25" type="SBahn" speed="0.00" pos="40.72" lane="E10_0" slope="0.00"/>
        <person id="pf_0.4" x="6.86" y="200.71" angle="89.95" type="DEFAULT_PEDTYPE@pf_0.4" speed="1.43" pos="7.15" edge="E3" slope="0.00"/>
        <person id="pf_0.3" x="22.27" y="200.72" angle="89.95" type="DEFAULT_PEDTYPE@pf_0.3" speed="1.51" pos="22.56" edge="E3" slope="0.00"/>
        <person id="pf_0.2" x="34.79" y="200.73" angle="89.95" type="DEFAULT_PEDTYPE@pf_0.2" speed="1.40" pos="35.08" edge="E3" slope="0.00"/>
        <person id="pf_0.1" x="45.32" y="200.74" angle="89.95" type="DEFAULT_PEDTYPE@pf_0.1" speed="1.30" pos="45.61" edge="E3" slope="0.00"/>
        <person id="pf_0.0" x="65.96" y="200.75" angle="89.95" type="DEFAULT_PEDTYPE@pf_0.0" speed="1.47" pos="66.25" edge="E3" slope="0.00"/>
    </timestep>
    <timestep time="46.00">
        <vehicle id="S1.0" x="207.02" y="196.01" angle="90.25" type="SBahn" speed="0.00" pos="40.72" lane="E10_0" slope="0.00"/>
        <person id="pf_0.4" x="8.30" y="200.71" angle="89.95" type="DEFAULT_PEDTYPE@pf_0.4" speed="1.44" pos="8.59" edge="E3" slope="0.00"/>
        <person id="pf_0.3" x="23.77" y="200.72" angle="89.95" type="DEFAULT_PEDTYPE@pf_0.3" speed="1.50" pos="24.06" edge="E3" slope="0.00"/>
        <person id="pf_0.2" x="36.20" y="200.73" angle="89.95" type="DEFAULT_PEDTYPE@pf_0.2" speed="1.41" pos="36.49" edge="E3" slope="0.00"/>
        <person id="pf_0.1" x="46.62" y="200.74" angle="89.95" type="DEFAULT_PEDTYPE@pf_0.1" speed="1.30" pos="46.91" edge="E3" slope="0.00"/>
        <person id="pf_0.0" x="67.43" y="200.75" angle="89.95" type="DEFAULT_PEDTYPE@pf_0.0" speed="1.47" pos="67.72" edge="E3" slope="0.00"/>
    </timestep>
    <timestep time="47.00">
        <vehicle id="S1.0" x="207.02" y="196.01" angle="90.25" type="SBahn" speed="0.00" pos="40.72" lane="E10_0" slope="0.00"/>
        <person id="pf_0.4" x="9.73" y="200.71" angle="89.95" type="DEFAULT_PEDTYPE@pf_0.4" speed="1.43" pos="10.02" edge="E3" slope="0.00"/>
        <person id="pf_0.3" x="25.27" y="200.72" angle="89.95" type="DEFAULT_PEDTYPE@pf_0.3" speed="1.50" pos="25.56" edge="E3" slope="0.00"/>
        <person id="pf_0.2" x="37.60" y="200.73" angle="89.95" type="DEFAULT_PEDTYPE@pf_0.2" speed="1.40" pos="37.89" edge="E3" slope="0.00"/>
        <person id="pf_0.1" x="47.93" y="200.74" angle="89.95" type="DEFAULT_PEDTYPE@pf_0.1" speed="1.31" pos="48.22" edge="E3" slope="0.00"/>
        <person id="pf_0.0" x="68.90" y="200.76" angle="89.95" type="DEFAULT_PEDTYPE@pf_0.0" speed="1.47" pos="69.19" edge="E3" slope="0.00"/>
    </timestep>
    <timestep time="48.00">