<?xml version="1.0" encoding="UTF-8"?>

<!-- generated on 2022-12-04 10:24:20 by Eclipse SUMO sumo Version v1_15_0+0749-de9f6f8
This data file and the accompanying materials
are made available under the terms of the Eclipse Public License v2.0
which accompanies this distribution, and is available at
http://www.eclipse.org/legal/epl-v20.html
This file may also be made available under the following Secondary
Licenses when the conditions for such availability set forth in the Eclipse
Public License 2.0 are satisfied: GNU General Public License, version 2
or later which is available at
https://www.gnu.org/licenses/old-licenses/gpl-2.0-standalone.html
SPDX-License-Identifier: EPL-2.0 OR GPL-2.0-or-later
<configuration xmlns:xsi="http://www.w3.org/2001/XMLSchema-instance" xsi:noNamespaceSchemaLocation="http://sumo.dlr.de/xsd/sumoConfiguration.xsd">

    <input>
        <net-file value="motorway.net.xml"/>
        <route-files value="input_routes.rou.xml"/>
        <additional-files value="input_additional.add.xml"/>
    </input>

    <output>
        <write-license value="true"/>
    </output>

    <processing>
        <default.speeddev value="0"/>
    </processing>

    <report>
        <xml-validation value="never"/>
        <duration-log.statistics value="true"/>
        <no-step-log value="true"/>
    </report>

</configuration>
-->

<meandata xmlns:xsi="http://www.w3.org/2001/XMLSchema-instance" xsi:noNamespaceSchemaLocation="http://sumo.dlr.de/xsd/meandata_file.xsd">
    <interval begin="0.00" end="1028.00" id="laneData">
        <edge id="beg">
            <lane id="beg_0" sampledSeconds="0.00" departed="0" arrived="0" entered="0" left="0" laneChangedFrom="0" laneChangedTo="0"/>
            <lane id="beg_1" sampledSeconds="0.00" departed="0" arrived="0" entered="0" left="0" laneChangedFrom="0" laneChangedTo="0"/>
            <lane id="beg_2" sampledSeconds="0.00" departed="0" arrived="0" entered="0" left="0" laneChangedFrom="0" laneChangedTo="0"/>
        </edge>
        <edge id="beg2">
            <lane id="beg2_0" sampledSeconds="2495.63" traveltime="110.51" overlapTraveltime="114.31" density="0.81" laneDensity="0.81" occupancy="0.39" waitingTime="15.00" timeLoss="647.11" speed="26.26" speedRelative="0.73" departed="375" arrived="0" entered="0" left="264" laneChangedFrom="112" laneChangedTo="1"/>
            <lane id="beg2_1" sampledSeconds="2245.54" traveltime="87.43" overlapTraveltime="87.62" density="0.73" laneDensity="0.73" occupancy="0.36" waitingTime="0.00" timeLoss="119.99" speed="34.26" speedRelative="0.95" departed="320" arrived="0" entered="0" left="431" laneChangedFrom="1" laneChangedTo="112"/>
        </edge>
        <edge id="end">
            <lane id="end_0" sampledSeconds="4517.04" traveltime="9.50" overlapTraveltime="9.67" density="22.30" laneDensity="22.30" occupancy="10.79" waitingTime="0.00" timeLoss="1855.43" speed="20.88" speedRelative="0.58" departed="0" arrived="468" entered="468" left="0" laneChangedFrom="0" laneChangedTo="0"/>
            <lane id="end_1" sampledSeconds="2731.13" traveltime="5.94" overlapTraveltime="6.08" density="13.49" laneDensity="13.49" occupancy="6.58" waitingTime="0.00" timeLoss="232.95" speed="33.22" speedRelative="0.92" departed="0" arrived="450" entered="450" left="0" laneChangedFrom="0" laneChangedTo="0"/>
        </edge>
        <edge id="end2">
            <lane id="end2_0" sampledSeconds="0.00" departed="0" arrived="0" entered="0" left="0" laneChangedFrom="0" laneChangedTo="0"/>
        </edge>
        <edge id="end3">
            <lane id="end3_0" sampledSeconds="0.00" departed="0" arrived="0" entered="0" left="0" laneChangedFrom="0" laneChangedTo="0"/>
        </edge>
        <edge id="merge">
            <lane id="merge_0" sampledSeconds="3045.49" traveltime="19.25" overlapTraveltime="20.24" density="30.54" laneDensity="30.54" occupancy="15.11" waitingTime="1243.00" timeLoss="2616.78" speed="5.04" speedRelative="0.14" departed="0" arrived="0" entered="223" left="0" laneChangedFrom="223" laneChangedTo="0"/>
            <lane id="merge_1" sampledSeconds="4053.98" traveltime="11.92" overlapTraveltime="12.42" density="40.66" laneDensity="40.66" occupancy="19.43" waitingTime="261.00" timeLoss="3111.63" speed="8.21" speedRelative="0.23" departed="0" arrived="0" entered="264" left="468" laneChangedFrom="19" laneChangedTo="223"/>
            <lane id="merge_2" sampledSeconds="1368.52" traveltime="2.95" overlapTraveltime="3.10" density="13.72" laneDensity="13.72" occupancy="6.52" waitingTime="0.00" timeLoss="129.00" speed="32.88" speedRelative="0.91" departed="0" arrived="0" entered="431" left="450" laneChangedFrom="0" laneChangedTo="19"/>
        </edge>
        <edge id="offRamp">
            <lane id="offRamp_0" sampledSeconds="0.00" departed="0" arrived="0" entered="0" left="0" laneChangedFrom="0" laneChangedTo="0"/>
        </edge>
        <edge id="onRamp">
            <lane id="onRamp_0" sampledSeconds="2260.56" traveltime="10.02" overlapTraveltime="10.31" density="7.28" laneDensity="7.28" occupancy="3.59" waitingTime="0.00" timeLoss="384.98" speed="29.80" speedRelative="0.83" departed="223" arrived="0" entered="0" left="223" laneChangedFrom="0" laneChangedTo="0"/>
        </edge>
    </interval>
</meandata>
