<?xml version="1.0" encoding="UTF-8"?>

<!-- generated on 2024-07-08 12:22:31 by Eclipse SUMO sumo Version v1_20_0+1080-242b29eec60
This data file and the accompanying materials
are made available under the terms of the Eclipse Public License v2.0
which accompanies this distribution, and is available at
http://www.eclipse.org/legal/epl-v20.html
This file may also be made available under the following Secondary
Licenses when the conditions for such availability set forth in the Eclipse
Public License 2.0 are satisfied: GNU General Public License, version 2
or later which is available at
https://www.gnu.org/licenses/old-licenses/gpl-2.0-standalone.html
SPDX-License-Identifier: EPL-2.0 OR GPL-2.0-or-later
<sumoConfiguration xmlns:xsi="http://www.w3.org/2001/XMLSchema-instance" xsi:noNamespaceSchemaLocation="http://sumo.dlr.de/xsd/sumoConfiguration.xsd">

    <input>
        <net-file value="net.net.xml"/>
        <route-files value="input_routes.rou.xml"/>
    </input>

    <output>
        <write-license value="true"/>
        <netstate-dump value="rawdump.xml"/>
    </output>

    <processing>
        <default.speeddev value="0"/>
    </processing>

    <report>
        <xml-validation value="never"/>
        <duration-log.disable value="true"/>
        <no-step-log value="true"/>
    </report>

</sumoConfiguration>
-->

<netstate xmlns:xsi="http://www.w3.org/2001/XMLSchema-instance" xsi:noNamespaceSchemaLocation="http://sumo.dlr.de/xsd/netstate_file.xsd">
    <timestep time="0.00">
        <edge id="1fi">
            <lane id="1fi_0">
                <vehicle id="ego" pos="400.00" speed="0.00"/>
            </lane>
            <lane id="1fi_1"/>
        </edge>
    </timestep>
    <timestep time="1.00">
        <edge id="1fi">
            <lane id="1fi_0">
                <vehicle id="ego" pos="402.60" speed="2.60"/>
            </lane>
            <lane id="1fi_1"/>
        </edge>
    </timestep>
    <timestep time="2.00">
        <edge id="1fi">
            <lane id="1fi_0"/>
            <lane id="1fi_1">
                <vehicle id="ego" pos="407.80" speed="5.20"/>
            </lane>
        </edge>
    </timestep>
    <timestep time="3.00">
        <edge id="1fi">
            <lane id="1fi_0"/>
            <lane id="1fi_1">
                <vehicle id="ego" pos="415.60" speed="7.80"/>
            </lane>
        </edge>
    </timestep>
    <timestep time="4.00">
        <edge id="1fi">
            <lane id="1fi_0"/>
            <lane id="1fi_1">
                <vehicle id="ego" pos="426.00" speed="10.40"/>
            </lane>
        </edge>
    </timestep>
    <timestep time="5.00">
        <edge id="1fi">
            <lane id="1fi_0"/>
            <lane id="1fi_1">
                <vehicle id="ego" pos="439.00" speed="13.00"/>
            </lane>
        </edge>
    </timestep>
    <timestep time="6.00">
        <edge id="1fi">
            <lane id="1fi_0"/>
            <lane id="1fi_1">
                <vehicle id="ego" pos="454.60" speed="15.60"/>
            </lane>
        </edge>
    </timestep>
    <timestep time="7.00">
        <edge id="1fi">
            <lane id="1fi_0"/>
            <lane id="1fi_1">
                <vehicle id="ego" pos="470.60" speed="16.00"/>
            </lane>
        </edge>
    </timestep>
    <timestep time="8.00">
        <edge id="1fi">
            <lane id="1fi_0"/>
            <lane id="1fi_1">
                <vehicle id="ego" pos="482.18" speed="11.58"/>
            </lane>
        </edge>
    </timestep>
    <timestep time="9.00">
        <edge id="1fi">
            <lane id="1fi_0"/>
            <lane id="1fi_1">
                <vehicle id="ego" pos="489.27" speed="7.08"/>
            </lane>
        </edge>
    </timestep>
    <timestep time="10.00">
        <edge id="1fi">
            <lane id="1fi_0"/>
            <lane id="1fi_1">
                <vehicle id="ego" pos="491.85" speed="2.58"/>
            </lane>
        </edge>
    </timestep>
    <timestep time="11.00">
        <edge id="1fi">
            <lane id="1fi_0"/>
            <lane id="1fi_1">
                <vehicle id="ego" pos="491.85" speed="0.00"/>
            </lane>
        </edge>
    </timestep>
    <timestep time="12.00">
        <edge id="1fi">
            <lane id="1fi_0"/>
            <lane id="1fi_1">
                <vehicle id="ego" pos="491.85" speed="0.00"/>
            </lane>
        </edge>
    </timestep>
    <timestep time="13.00">
        <edge id="1fi">
            <lane id="1fi_0"/>
            <lane id="1fi_1">
                <vehicle id="ego" pos="491.85" speed="0.00"/>
            </lane>
        </edge>
    </timestep>
    <timestep time="14.00">
        <edge id=":0_13">
            <lane id=":0_13_0">
                <vehicle id="ego" pos="2.50" speed="2.60"/>
            </lane>
        </edge>
    </timestep>
    <timestep time="15.00">
        <edge id=":0_13">
            <lane id=":0_13_0">
                <vehicle id="ego" pos="7.70" speed="5.20"/>
            </lane>
        </edge>
    </timestep>
    <timestep time="16.00">
        <edge id=":0_13">
            <lane id=":0_13_0">
                <vehicle id="ego" pos="15.50" speed="7.80"/>
            </lane>
        </edge>
    </timestep>
    <timestep time="17.00">
        <edge id="2o">
            <lane id="2o_0">
                <vehicle id="ego" pos="9.80" speed="10.40"/>
            </lane>
        </edge>
    </timestep>
    <timestep time="18.00">
        <edge id="2o">
            <lane id="2o_0">
                <vehicle id="ego" pos="22.80" speed="13.00"/>
            </lane>
        </edge>
    </timestep>
    <timestep time="19.00">
        <edge id="2o">
            <lane id="2o_0">
                <vehicle id="ego" pos="38.40" speed="15.60"/>
            </lane>
        </edge>
    </timestep>
    <timestep time="20.00">
        <edge id="2o">
            <lane id="2o_0">
                <vehicle id="ego" pos="54.40" speed="16.00"/>
            </lane>
        </edge>
    </timestep>
    <timestep time="21.00">
        <edge id="2o">
            <lane id="2o_0">
                <vehicle id="ego" pos="70.40" speed="16.00"/>
            </lane>
        </edge>
    </timestep>
    <timestep time="22.00">
        <edge id="2o">
            <lane id="2o_0">
                <vehicle id="ego" pos="86.40" speed="16.00"/>
            </lane>
        </edge>
    </timestep>
    <timestep time="23.00"/>
</netstate>
