<?xml version="1.0" encoding="UTF-8"?>

<!-- generated on 2024-09-26 10:41:14 by Eclipse SUMO sumo Version v1_14_1+14996-47cf6512255
This data file and the accompanying materials
are made available under the terms of the Eclipse Public License v2.0
which accompanies this distribution, and is available at
http://www.eclipse.org/legal/epl-v20.html
This file may also be made available under the following Secondary
Licenses when the conditions for such availability set forth in the Eclipse
Public License 2.0 are satisfied: GNU General Public License, version 2
or later which is available at
https://www.gnu.org/licenses/old-licenses/gpl-2.0-standalone.html
SPDX-License-Identifier: EPL-2.0 OR GPL-2.0-or-later
<sumoConfiguration xmlns:xsi="http://www.w3.org/2001/XMLSchema-instance" xsi:noNamespaceSchemaLocation="http://sumo.dlr.de/xsd/sumoConfiguration.xsd">

    <input>
        <net-file value="net.net.xml"/>
        <route-files value="input_routes.rou.xml"/>
        <additional-files value="input_additional.add.xml"/>
    </input>

    <output>
        <write-license value="true"/>
        <battery-output value="battery.xml"/>
        <battery-output.precision value="4"/>
        <chargingstations-output value="chargingstations.xml"/>
        <tripinfo-output value="tripinfos.xml"/>
    </output>

    <processing>
        <default.speeddev value="0"/>
    </processing>

    <report>
        <xml-validation value="never"/>
        <duration-log.disable value="true"/>
        <no-step-log value="true"/>
    </report>

    <battery>
        <device.stationfinder.probability value="1"/>
    </battery>

</sumoConfiguration>
-->

<tripinfos xmlns:xsi="http://www.w3.org/2001/XMLSchema-instance" xsi:noNamespaceSchemaLocation="http://sumo.dlr.de/xsd/tripinfo_file.xsd">
    <tripinfo id="veh_remove" depart="25.00" departLane="E0E1_0" departPos="12.10" departSpeed="0.00" departDelay="0.00" arrival="28.00" arrivalLane="E0E1_0" arrivalPos="14.10" arrivalSpeed="0.00" duration="3.00" routeLength="2.00" waitingTime="0.00" waitingCount="0" stopTime="1.00" timeLoss="1.86" rerouteNo="1" devices="tripinfo_veh_remove stationfinder_veh_remove battery_veh_remove" vType="ElectricVehicle1" speedFactor="1.00" vaporized="end">
        <battery depleted="0"/>
    </tripinfo>
    <tripinfo id="veh_tow" depart="20.00" departLane="E0E1_0" departPos="30.00" departSpeed="0.00" departDelay="0.00" arrival="2563.00" arrivalLane="A3A4_0" arrivalPos="500.00" arrivalSpeed="13.89" duration="2543.00" routeLength="3022.23" waitingTime="129.00" waitingCount="4" stopTime="2188.00" timeLoss="170.65" rerouteNo="2" devices="tripinfo_veh_tow stationfinder_veh_tow battery_veh_tow" vType="ElectricVehicle1" speedFactor="1.00" vaporized="">
        <battery depleted="2"/>
    </tripinfo>
    <tripinfo id="veh_none" depart="0.00" departLane="E0E1_0" departPos="12.10" departSpeed="0.00" departDelay="0.00" arrival="2565.00" arrivalLane="A3A4_0" arrivalPos="500.00" arrivalSpeed="13.89" duration="2565.00" routeLength="4077.56" waitingTime="426.00" waitingCount="4" stopTime="1791.00" timeLoss="477.68" rerouteNo="1" devices="tripinfo_veh_none stationfinder_veh_none battery_veh_none" vType="ElectricVehicle1" speedFactor="1.00" vaporized="">
        <battery depleted="4"/>
    </tripinfo>
</tripinfos>
