<?xml version="1.0" encoding="UTF-8"?>

<!-- generated on Wed May  6 14:41:52 2020 by Eclipse SUMO Version v1_6_0+0116-fc17f5a0a5
This data file and the accompanying materials
are made available under the terms of the Eclipse Public License v2.0
which accompanies this distribution, and is available at
http://www.eclipse.org/legal/epl-v20.html
SPDX-License-Identifier: EPL-2.0
<configuration xmlns:xsi="http://www.w3.org/2001/XMLSchema-instance" xsi:noNamespaceSchemaLocation="http://sumo.dlr.de/xsd/sumoConfiguration.xsd">

    <input>
        <net-file value="net.net.xml"/>
        <route-files value="input_routes.rou.xml"/>
    </input>

    <output>
        <write-license value="true"/>
        <fcd-output value="fcd.xml"/>
    </output>

    <processing>
        <default.speeddev value="0"/>
        <pedestrian.model value="nonInteracting"/>
    </processing>

    <report>
        <xml-validation value="never"/>
        <no-step-log value="true"/>
    </report>

    <mesoscopic>
        <mesosim value="true"/>
    </mesoscopic>

</configuration>
-->

<fcd-export xmlns:xsi="http://www.w3.org/2001/XMLSchema-instance" xsi:noNamespaceSchemaLocation="http://sumo.dlr.de/xsd/fcd_file.xsd">
    <timestep time="0.00">
        <vehicle id="veh1" x="0.00" y="48.35" angle="90.00" type="1" speed="13.89" pos="0.00" edge="WC" slope="0.00"/>
    </timestep>
    <timestep time="1.00">
        <vehicle id="veh1" x="0.00" y="48.35" angle="90.00" type="1" speed="13.89" pos="0.00" edge="WC" slope="0.00"/>
        <vehicle id="veh2" x="98.35" y="150.00" angle="180.00" type="1" speed="13.89" pos="0.00" edge="NC" slope="0.00"/>
    </timestep>
    <timestep time="2.00">
        <vehicle id="veh1" x="0.00" y="48.35" angle="90.00" type="1" speed="13.89" pos="0.00" edge="WC" slope="0.00"/>
        <vehicle id="veh2" x="98.35" y="150.00" angle="180.00" type="1" speed="13.89" pos="0.00" edge="NC" slope="0.00"/>
    </timestep>
    <timestep time="3.00">
        <vehicle id="veh1" x="0.00" y="48.35" angle="90.00" type="1" speed="13.89" pos="0.00" edge="WC" slope="0.00"/>
        <vehicle id="veh2" x="98.35" y="150.00" angle="180.00" type="1" speed="13.89" pos="0.00" edge="NC" slope="0.00"/>
    </timestep>
    <timestep time="4.00">
        <vehicle id="veh1" x="0.00" y="48.35" angle="90.00" type="1" speed="13.89" pos="0.00" edge="WC" slope="0.00"/>
        <vehicle id="veh2" x="98.35" y="150.00" angle="180.00" type="1" speed="13.89" pos="0.00" edge="NC" slope="0.00"/>
    </timestep>
    <timestep time="5.00">
        <vehicle id="veh1" x="0.00" y="48.35" angle="90.00" type="1" speed="13.89" pos="0.00" edge="WC" slope="0.00"/>
        <vehicle id="veh2" x="98.35" y="150.00" angle="180.00" type="1" speed="13.89" pos="0.00" edge="NC" slope="0.00"/>
    </timestep>
    <timestep time="6.00">
        <vehicle id="veh1" x="0.00" y="48.35" angle="90.00" type="1" speed="13.89" pos="0.00" edge="WC" slope="0.00"/>
        <vehicle id="veh2" x="98.35" y="150.00" angle="180.00" type="1" speed="13.89" pos="0.00" edge="NC" slope="0.00"/>
    </timestep>
    <timestep time="7.00">
        <vehicle id="veh1" x="104.75" y="48.35" angle="90.00" type="1" speed="13.89" pos="0.00" edge="CE" slope="0.00"/>
        <vehicle id="veh2" x="98.35" y="150.00" angle="180.00" type="1" speed="13.89" pos="0.00" edge="NC" slope="0.00"/>
    </timestep>
    <timestep time="8.00">
        <vehicle id="veh1" x="104.75" y="48.35" angle="90.00" type="1" speed="13.89" pos="0.00" edge="CE" slope="0.00"/>
        <vehicle id="veh2" x="98.35" y="45.25" angle="180.00" type="1" speed="13.89" pos="0.00" edge="CS" slope="0.00"/>
    </timestep>
    <timestep time="9.00">
        <vehicle id="veh1" x="104.75" y="48.35" angle="90.00" type="1" speed="13.89" pos="0.00" edge="CE" slope="0.00"/>
        <vehicle id="veh2" x="98.35" y="45.25" angle="180.00" type="1" speed="13.89" pos="0.00" edge="CS" slope="0.00"/>
    </timestep>
    <timestep time="10.00">
        <vehicle id="veh1" x="104.75" y="48.35" angle="90.00" type="1" speed="13.89" pos="0.00" edge="CE" slope="0.00"/>
        <vehicle id="veh2" x="98.35" y="45.25" angle="180.00" type="1" speed="13.89" pos="0.00" edge="CS" slope="0.00"/>
    </timestep>
    <timestep time="11.00">
        <vehicle id="veh1" x="104.75" y="48.35" angle="90.00" type="1" speed="13.89" pos="0.00" edge="CE" slope="0.00"/>
        <vehicle id="veh2" x="98.35" y="45.25" angle="180.00" type="1" speed="13.89" pos="0.00" edge="CS" slope="0.00"/>
    </timestep>
    <timestep time="12.00">
        <vehicle id="veh1" x="104.75" y="48.35" angle="90.00" type="1" speed="13.89" pos="0.00" edge="CE" slope="0.00"/>
        <vehicle id="veh2" x="98.35" y="45.25" angle="180.00" type="1" speed="13.89" pos="0.00" edge="CS" slope="0.00"/>
    </timestep>
    <timestep time="13.00">
        <vehicle id="veh1" x="104.75" y="48.35" angle="90.00" type="1" speed="13.89" pos="0.00" edge="CE" slope="0.00"/>
        <vehicle id="veh2" x="98.35" y="45.25" angle="180.00" type="1" speed="13.89" pos="0.00" edge="CS" slope="0.00"/>
    </timestep>
    <timestep time="14.00">
        <vehicle id="veh2" x="98.35" y="45.25" angle="180.00" type="1" speed="13.89" pos="0.00" edge="CS" slope="0.00"/>
    </timestep>
    <timestep time="15.00"/>
</fcd-export>
