<?xml version="1.0" encoding="UTF-8"?>

<!-- generated on 2026-04-09T16:35:17.158226+01:00 by Eclipse SUMO sumo v1_26_0+1034-8d7c6592743
This data file and the accompanying materials
are made available under the terms of the Eclipse Public License v2.0
which accompanies this distribution, and is available at
http://www.eclipse.org/legal/epl-v20.html
This file may also be made available under the following Secondary
Licenses when the conditions for such availability set forth in the Eclipse
Public License 2.0 are satisfied: GNU General Public License, version 2
or later which is available at
https://www.gnu.org/licenses/old-licenses/gpl-2.0-standalone.html
SPDX-License-Identifier: EPL-2.0 OR GPL-2.0-or-later
<sumoConfiguration xmlns:xsi="http://www.w3.org/2001/XMLSchema-instance" xsi:noNamespaceSchemaLocation="http://sumo.dlr.de/xsd/sumoConfiguration.xsd">

    <input>
        <net-file value="net.net.xml"/>
        <route-files value="input_routes.rou.xml"/>
        <additional-files value="input_additional.add.xml"/>
    </input>

    <output>
        <write-license value="true"/>
    </output>

    <time>
        <end value="5400"/>
    </time>

    <processing>
        <time-to-teleport value="-1"/>
        <max-depart-delay value="1"/>
        <default.speeddev value="0"/>
    </processing>

    <report>
        <verbose value="true"/>
        <xml-validation value="never"/>
        <no-step-log value="true"/>
    </report>

    <mesoscopic>
        <mesosim value="true"/>
        <meso-junction-control value="true"/>
    </mesoscopic>

</sumoConfiguration>
-->

<meandata xmlns:xsi="http://www.w3.org/2001/XMLSchema-instance" xsi:noNamespaceSchemaLocation="http://sumo.dlr.de/xsd/meandata_file.xsd">
    <interval begin="0.00" end="360.00" id="dump">
        <edge id="CW" sampledSeconds="6838.37" traveltime="151.07" overlapTraveltime="159.50" density="212.00" overlapDensity="212.00" laneDensity="106.00" occupancy="53.00" waitingTime="306.79" timeLoss="6546.37" speed="0.59" speedRelative="0.04" departed="46" arrived="0" entered="0" left="23" laneChangedFrom="0" laneChangedTo="0" flow="452.67"/>
        <edge id="WC" sampledSeconds="7286.69" traveltime="339.92" overlapTraveltime="358.89" density="225.90" overlapDensity="225.90" laneDensity="112.95" occupancy="56.48" waitingTime="690.00" timeLoss="7148.41" speed="0.26" speedRelative="0.02" departed="0" arrived="0" entered="22" left="0" laneChangedFrom="0" laneChangedTo="0" flow="214.37"/>
    </interval>
    <interval begin="360.00" end="720.00" id="dump">
        <edge id="CW" sampledSeconds="8280.00" traveltime="11698.31" overlapTraveltime="12351.12" density="256.70" overlapDensity="256.70" laneDensity="128.35" occupancy="64.17" waitingTime="8280.00" timeLoss="8275.43" speed="0.01" speedRelative="0.00" departed="0" arrived="0" entered="0" left="0" laneChangedFrom="0" laneChangedTo="0" flow="7.08"/>
        <edge id="WC" sampledSeconds="7920.00" traveltime="14520.63" overlapTraveltime="15330.94" density="245.54" overlapDensity="245.54" laneDensity="122.77" occupancy="61.38" waitingTime="7920.00" timeLoss="7916.48" speed="0.01" speedRelative="0.00" departed="0" arrived="0" entered="0" left="0" laneChangedFrom="0" laneChangedTo="0" flow="5.45"/>
    </interval>
    <interval begin="720.00" end="1080.00" id="dump">
        <edge id="CW" sampledSeconds="8280.00" traveltime="100000.00" overlapTraveltime="100000.00" density="256.70" overlapDensity="256.70" laneDensity="128.35" occupancy="64.17" waitingTime="8280.00" timeLoss="8279.84" speed="0.00" speedRelative="0.00" departed="0" arrived="0" entered="0" left="0" laneChangedFrom="0" laneChangedTo="0" flow="0.24"/>
        <edge id="WC" sampledSeconds="7920.00" traveltime="100000.00" overlapTraveltime="100000.00" density="245.54" overlapDensity="245.54" laneDensity="122.77" occupancy="61.38" waitingTime="7920.00" timeLoss="7919.89" speed="0.00" speedRelative="0.00" departed="0" arrived="0" entered="0" left="0" laneChangedFrom="0" laneChangedTo="0" flow="0.17"/>
    </interval>
    <interval begin="1080.00" end="1440.00" id="dump">
        <edge id="CW" sampledSeconds="8280.00" traveltime="100000.00" overlapTraveltime="100000.00" density="256.70" overlapDensity="256.70" laneDensity="128.35" occupancy="64.17" waitingTime="8280.00" timeLoss="8279.99" speed="0.00" speedRelative="0.00" departed="0" arrived="0" entered="0" left="0" laneChangedFrom="0" laneChangedTo="0" flow="0.01"/>
        <edge id="WC" sampledSeconds="7920.00" traveltime="100000.00" overlapTraveltime="100000.00" density="245.54" overlapDensity="245.54" laneDensity="122.77" occupancy="61.38" waitingTime="7920.00" timeLoss="7920.00" speed="0.00" speedRelative="0.00" departed="0" arrived="0" entered="0" left="0" laneChangedFrom="0" laneChangedTo="0" flow="0.01"/>
    </interval>
    <interval begin="1440.00" end="1800.00" id="dump">
        <edge id="CW" sampledSeconds="8280.00" traveltime="100000.00" overlapTraveltime="100000.00" density="256.70" overlapDensity="256.70" laneDensity="128.35" occupancy="64.17" waitingTime="8280.00" timeLoss="8280.00" speed="0.00" speedRelative="0.00" departed="0" arrived="0" entered="0" left="0" laneChangedFrom="0" laneChangedTo="0" flow="0.00"/>
        <edge id="WC" sampledSeconds="7920.00" traveltime="100000.00" overlapTraveltime="100000.00" density="245.54" overlapDensity="245.54" laneDensity="122.77" occupancy="61.38" waitingTime="7920.00" timeLoss="7920.00" speed="0.00" speedRelative="0.00" departed="0" arrived="0" entered="0" left="0" laneChangedFrom="0" laneChangedTo="0" flow="0.00"/>
    </interval>
    <interval begin="1800.00" end="2160.00" id="dump">
        <edge id="CW" sampledSeconds="8280.00" overlapTraveltime="100000.00" density="256.70" overlapDensity="256.70" laneDensity="128.35" occupancy="64.17" waitingTime="8280.00" timeLoss="8280.00" speed="0.00" speedRelative="0.00" departed="0" arrived="0" entered="0" left="0" laneChangedFrom="0" laneChangedTo="0" flow="0.00"/>
        <edge id="WC" sampledSeconds="7920.00" overlapTraveltime="100000.00" density="245.54" overlapDensity="245.54" laneDensity="122.77" occupancy="61.38" waitingTime="7920.00" timeLoss="7920.00" speed="0.00" speedRelative="0.00" departed="0" arrived="0" entered="0" left="0" laneChangedFrom="0" laneChangedTo="0" flow="0.00"/>
    </interval>
    <interval begin="2160.00" end="2520.00" id="dump">
        <edge id="CW" sampledSeconds="8280.00" overlapTraveltime="100000.00" density="256.70" overlapDensity="256.70" laneDensity="128.35" occupancy="64.17" waitingTime="8280.00" timeLoss="8280.00" speed="0.00" speedRelative="0.00" departed="0" arrived="0" entered="0" left="0" laneChangedFrom="0" laneChangedTo="0" flow="0.00"/>
        <edge id="WC" sampledSeconds="7920.00" overlapTraveltime="100000.00" density="245.54" overlapDensity="245.54" laneDensity="122.77" occupancy="61.38" waitingTime="7920.00" timeLoss="7920.00" speed="0.00" speedRelative="0.00" departed="0" arrived="0" entered="0" left="0" laneChangedFrom="0" laneChangedTo="0" flow="0.00"/>
    </interval>
    <interval begin="2520.00" end="2880.00" id="dump">
        <edge id="CW" sampledSeconds="8280.00" overlapTraveltime="100000.00" density="256.70" overlapDensity="256.70" laneDensity="128.35" occupancy="64.17" waitingTime="8280.00" timeLoss="8280.00" speed="0.00" speedRelative="0.00" departed="0" arrived="0" entered="0" left="0" laneChangedFrom="0" laneChangedTo="0" flow="0.00"/>
        <edge id="WC" sampledSeconds="7920.00" overlapTraveltime="100000.00" density="245.54" overlapDensity="245.54" laneDensity="122.77" occupancy="61.38" waitingTime="7920.00" timeLoss="7920.00" speed="0.00" speedRelative="0.00" departed="0" arrived="0" entered="0" left="0" laneChangedFrom="0" laneChangedTo="0" flow="0.00"/>
    </interval>
    <interval begin="2880.00" end="3240.00" id="dump">
        <edge id="CW" sampledSeconds="8280.00" overlapTraveltime="100000.00" density="256.70" overlapDensity="256.70" laneDensity="128.35" occupancy="64.17" waitingTime="8280.00" timeLoss="8280.00" speed="0.00" speedRelative="0.00" departed="0" arrived="0" entered="0" left="0" laneChangedFrom="0" laneChangedTo="0" flow="0.00"/>
        <edge id="WC" sampledSeconds="7920.00" overlapTraveltime="100000.00" density="245.54" overlapDensity="245.54" laneDensity="122.77" occupancy="61.38" waitingTime="7920.00" timeLoss="7920.00" speed="0.00" speedRelative="0.00" departed="0" arrived="0" entered="0" left="0" laneChangedFrom="0" laneChangedTo="0" flow="0.00"/>
    </interval>
    <interval begin="3240.00" end="3600.00" id="dump">
        <edge id="CW" sampledSeconds="8280.00" overlapTraveltime="100000.00" density="256.70" overlapDensity="256.70" laneDensity="128.35" occupancy="64.17" waitingTime="8280.00" timeLoss="8280.00" speed="0.00" speedRelative="0.00" departed="0" arrived="0" entered="0" left="0" laneChangedFrom="0" laneChangedTo="0" flow="0.00"/>
        <edge id="WC" sampledSeconds="7920.00" overlapTraveltime="100000.00" density="245.54" overlapDensity="245.54" laneDensity="122.77" occupancy="61.38" waitingTime="7920.00" timeLoss="7920.00" speed="0.00" speedRelative="0.00" departed="0" arrived="0" entered="0" left="0" laneChangedFrom="0" laneChangedTo="0" flow="0.00"/>
    </interval>
    <interval begin="3600.00" end="3960.00" id="dump">
        <edge id="CW" sampledSeconds="8280.00" overlapTraveltime="100000.00" density="256.70" overlapDensity="256.70" laneDensity="128.35" occupancy="64.17" waitingTime="8280.00" timeLoss="8280.00" speed="0.00" speedRelative="0.00" departed="0" arrived="0" entered="0" left="0" laneChangedFrom="0" laneChangedTo="0" flow="0.00"/>
        <edge id="WC" sampledSeconds="7920.00" overlapTraveltime="100000.00" density="245.54" overlapDensity="245.54" laneDensity="122.77" occupancy="61.38" waitingTime="7920.00" timeLoss="7920.00" speed="0.00" speedRelative="0.00" departed="0" arrived="0" entered="0" left="0" laneChangedFrom="0" laneChangedTo="0" flow="0.00"/>
    </interval>
    <interval begin="3960.00" end="4320.00" id="dump">
        <edge id="CW" sampledSeconds="8280.00" overlapTraveltime="100000.00" density="256.70" overlapDensity="256.70" laneDensity="128.35" occupancy="64.17" waitingTime="8280.00" timeLoss="8280.00" speed="0.00" speedRelative="0.00" departed="0" arrived="0" entered="0" left="0" laneChangedFrom="0" laneChangedTo="0" flow="0.00"/>
        <edge id="WC" sampledSeconds="7920.00" overlapTraveltime="100000.00" density="245.54" overlapDensity="245.54" laneDensity="122.77" occupancy="61.38" waitingTime="7920.00" timeLoss="7920.00" speed="0.00" speedRelative="0.00" departed="0" arrived="0" entered="0" left="0" laneChangedFrom="0" laneChangedTo="0" flow="0.00"/>
    </interval>
    <interval begin="4320.00" end="4680.00" id="dump">
        <edge id="CW" sampledSeconds="8280.00" overlapTraveltime="100000.00" density="256.70" overlapDensity="256.70" laneDensity="128.35" occupancy="64.17" waitingTime="8280.00" timeLoss="8280.00" speed="0.00" speedRelative="0.00" departed="0" arrived="0" entered="0" left="0" laneChangedFrom="0" laneChangedTo="0" flow="0.00"/>
        <edge id="WC" sampledSeconds="7920.00" overlapTraveltime="100000.00" density="245.54" overlapDensity="245.54" laneDensity="122.77" occupancy="61.38" waitingTime="7920.00" timeLoss="7920.00" speed="0.00" speedRelative="0.00" departed="0" arrived="0" entered="0" left="0" laneChangedFrom="0" laneChangedTo="0" flow="0.00"/>
    </interval>
    <interval begin="4680.00" end="5040.00" id="dump">
        <edge id="CW" sampledSeconds="8280.00" overlapTraveltime="100000.00" density="256.70" overlapDensity="256.70" laneDensity="128.35" occupancy="64.17" waitingTime="8280.00" timeLoss="8280.00" speed="0.00" speedRelative="0.00" departed="0" arrived="0" entered="0" left="0" laneChangedFrom="0" laneChangedTo="0" flow="0.00"/>
        <edge id="WC" sampledSeconds="7920.00" overlapTraveltime="100000.00" density="245.54" overlapDensity="245.54" laneDensity="122.77" occupancy="61.38" waitingTime="7920.00" timeLoss="7920.00" speed="0.00" speedRelative="0.00" departed="0" arrived="0" entered="0" left="0" laneChangedFrom="0" laneChangedTo="0" flow="0.00"/>
    </interval>
    <interval begin="5040.00" end="5400.00" id="dump">
        <edge id="CW" sampledSeconds="8280.00" overlapTraveltime="100000.00" density="256.70" overlapDensity="256.70" laneDensity="128.35" occupancy="64.17" waitingTime="8280.00" timeLoss="8280.00" speed="0.00" speedRelative="0.00" departed="0" arrived="0" entered="0" left="0" laneChangedFrom="0" laneChangedTo="0" flow="0.00"/>
        <edge id="WC" sampledSeconds="7920.00" overlapTraveltime="100000.00" density="245.54" overlapDensity="245.54" laneDensity="122.77" occupancy="61.38" waitingTime="7920.00" timeLoss="7920.00" speed="0.00" speedRelative="0.00" departed="0" arrived="0" entered="0" left="0" laneChangedFrom="0" laneChangedTo="0" flow="0.00"/>
    </interval>
</meandata>
