<?xml version="1.0" encoding="UTF-8"?>

<!-- generated on Tue Mar 31 12:21:58 2020 by Eclipse SUMO Version v1_5_0+1025-83bc0d0af0
This data file and the accompanying materials
are made available under the terms of the Eclipse Public License v2.0
which accompanies this distribution, and is available at
http://www.eclipse.org/legal/epl-v20.html
SPDX-License-Identifier: EPL-2.0
<configuration xmlns:xsi="http://www.w3.org/2001/XMLSchema-instance" xsi:noNamespaceSchemaLocation="http://sumo.dlr.de/xsd/sumoConfiguration.xsd">

    <input>
        <net-file value="net.net.xml"/>
        <route-files value="input_routes.rou.xml"/>
        <additional-files value="input_additional.add.xml"/>
    </input>

    <output>
        <write-license value="true"/>
    </output>

    <time>
        <end value="5400"/>
    </time>

    <processing>
        <time-to-teleport value="-1"/>
        <max-depart-delay value="1"/>
        <default.speeddev value="0"/>
        <pedestrian.model value="nonInteracting"/>
    </processing>

    <report>
        <verbose value="true"/>
        <xml-validation value="never"/>
        <no-step-log value="true"/>
    </report>

    <mesoscopic>
        <mesosim value="true"/>
        <meso-junction-control value="true"/>
    </mesoscopic>

</configuration>
-->

<meandata xmlns:xsi="http://www.w3.org/2001/XMLSchema-instance" xsi:noNamespaceSchemaLocation="http://sumo.dlr.de/xsd/meandata_file.xsd">
    <interval begin="0.00" end="360.00" id="dump">
        <edge id="CW" sampledSeconds="6841.37" traveltime="151.29" overlapTraveltime="159.74" density="212.10" laneDensity="106.05" occupancy="53.02" waitingTime="0.00" speed="0.59" departed="46" arrived="0" entered="0" left="23" laneChangedFrom="0" laneChangedTo="0"/>
        <edge id="WC" sampledSeconds="7602.63" traveltime="335.93" overlapTraveltime="354.68" density="235.70" laneDensity="117.85" occupancy="58.92" waitingTime="0.00" speed="0.27" departed="0" arrived="0" entered="23" left="0" laneChangedFrom="0" laneChangedTo="0"/>
    </interval>
    <interval begin="360.00" end="720.00" id="dump">
        <edge id="CW" sampledSeconds="8280.00" traveltime="10986.65" overlapTraveltime="11599.75" density="256.70" laneDensity="128.35" occupancy="64.17" waitingTime="8280.00" speed="0.01" departed="0" arrived="0" entered="0" left="0" laneChangedFrom="0" laneChangedTo="0"/>
        <edge id="WC" sampledSeconds="8280.00" traveltime="22891.09" overlapTraveltime="24168.50" density="256.70" laneDensity="128.35" occupancy="64.17" waitingTime="8280.00" speed="0.00" departed="0" arrived="0" entered="0" left="0" laneChangedFrom="0" laneChangedTo="0"/>
    </interval>
    <interval begin="720.00" end="1080.00" id="dump">
        <edge id="CW" sampledSeconds="8280.00" traveltime="100000.00" overlapTraveltime="100000.00" density="256.70" laneDensity="128.35" occupancy="64.17" waitingTime="8280.00" speed="0.00" departed="0" arrived="0" entered="0" left="0" laneChangedFrom="0" laneChangedTo="0"/>
        <edge id="WC" sampledSeconds="8280.00" traveltime="100000.00" overlapTraveltime="100000.00" density="256.70" laneDensity="128.35" occupancy="64.17" waitingTime="8280.00" speed="0.00" departed="0" arrived="0" entered="0" left="0" laneChangedFrom="0" laneChangedTo="0"/>
    </interval>
    <interval begin="1080.00" end="1440.00" id="dump">
        <edge id="CW" sampledSeconds="8280.00" traveltime="100000.00" overlapTraveltime="100000.00" density="256.70" laneDensity="128.35" occupancy="64.17" waitingTime="8280.00" speed="0.00" departed="0" arrived="0" entered="0" left="0" laneChangedFrom="0" laneChangedTo="0"/>
        <edge id="WC" sampledSeconds="8280.00" traveltime="100000.00" overlapTraveltime="100000.00" density="256.70" laneDensity="128.35" occupancy="64.17" waitingTime="8280.00" speed="0.00" departed="0" arrived="0" entered="0" left="0" laneChangedFrom="0" laneChangedTo="0"/>
    </interval>
    <interval begin="1440.00" end="1800.00" id="dump">
        <edge id="CW" sampledSeconds="8280.00" traveltime="100000.00" overlapTraveltime="100000.00" density="256.70" laneDensity="128.35" occupancy="64.17" waitingTime="8280.00" speed="0.00" departed="0" arrived="0" entered="0" left="0" laneChangedFrom="0" laneChangedTo="0"/>
        <edge id="WC" sampledSeconds="8280.00" overlapTraveltime="100000.00" density="256.70" laneDensity="128.35" occupancy="64.17" waitingTime="8280.00" speed="0.00" departed="0" arrived="0" entered="0" left="0" laneChangedFrom="0" laneChangedTo="0"/>
    </interval>
    <interval begin="1800.00" end="2160.00" id="dump">
        <edge id="CW" sampledSeconds="8280.00" overlapTraveltime="100000.00" density="256.70" laneDensity="128.35" occupancy="64.17" waitingTime="8280.00" speed="0.00" departed="0" arrived="0" entered="0" left="0" laneChangedFrom="0" laneChangedTo="0"/>
        <edge id="WC" sampledSeconds="8280.00" overlapTraveltime="100000.00" density="256.70" laneDensity="128.35" occupancy="64.17" waitingTime="8280.00" speed="0.00" departed="0" arrived="0" entered="0" left="0" laneChangedFrom="0" laneChangedTo="0"/>
    </interval>
    <interval begin="2160.00" end="2520.00" id="dump">
        <edge id="CW" sampledSeconds="8280.00" overlapTraveltime="100000.00" density="256.70" laneDensity="128.35" occupancy="64.17" waitingTime="8280.00" speed="0.00" departed="0" arrived="0" entered="0" left="0" laneChangedFrom="0" laneChangedTo="0"/>
        <edge id="WC" sampledSeconds="8280.00" overlapTraveltime="100000.00" density="256.70" laneDensity="128.35" occupancy="64.17" waitingTime="8280.00" speed="0.00" departed="0" arrived="0" entered="0" left="0" laneChangedFrom="0" laneChangedTo="0"/>
    </interval>
    <interval begin="2520.00" end="2880.00" id="dump">
        <edge id="CW" sampledSeconds="8280.00" overlapTraveltime="100000.00" density="256.70" laneDensity="128.35" occupancy="64.17" waitingTime="8280.00" speed="0.00" departed="0" arrived="0" entered="0" left="0" laneChangedFrom="0" laneChangedTo="0"/>
        <edge id="WC" sampledSeconds="8280.00" overlapTraveltime="100000.00" density="256.70" laneDensity="128.35" occupancy="64.17" waitingTime="8280.00" speed="0.00" departed="0" arrived="0" entered="0" left="0" laneChangedFrom="0" laneChangedTo="0"/>
    </interval>
    <interval begin="2880.00" end="3240.00" id="dump">
        <edge id="CW" sampledSeconds="8280.00" overlapTraveltime="100000.00" density="256.70" laneDensity="128.35" occupancy="64.17" waitingTime="8280.00" speed="0.00" departed="0" arrived="0" entered="0" left="0" laneChangedFrom="0" laneChangedTo="0"/>
        <edge id="WC" sampledSeconds="8280.00" overlapTraveltime="100000.00" density="256.70" laneDensity="128.35" occupancy="64.17" waitingTime="8280.00" speed="0.00" departed="0" arrived="0" entered="0" left="0" laneChangedFrom="0" laneChangedTo="0"/>
    </interval>
    <interval begin="3240.00" end="3600.00" id="dump">
        <edge id="CW" sampledSeconds="8280.00" overlapTraveltime="100000.00" density="256.70" laneDensity="128.35" occupancy="64.17" waitingTime="8280.00" speed="0.00" departed="0" arrived="0" entered="0" left="0" laneChangedFrom="0" laneChangedTo="0"/>
        <edge id="WC" sampledSeconds="8280.00" overlapTraveltime="100000.00" density="256.70" laneDensity="128.35" occupancy="64.17" waitingTime="8280.00" speed="0.00" departed="0" arrived="0" entered="0" left="0" laneChangedFrom="0" laneChangedTo="0"/>
    </interval>
    <interval begin="3600.00" end="3960.00" id="dump">
        <edge id="CW" sampledSeconds="8280.00" overlapTraveltime="100000.00" density="256.70" laneDensity="128.35" occupancy="64.17" waitingTime="8280.00" speed="0.00" departed="0" arrived="0" entered="0" left="0" laneChangedFrom="0" laneChangedTo="0"/>
        <edge id="WC" sampledSeconds="8280.00" overlapTraveltime="100000.00" density="256.70" laneDensity="128.35" occupancy="64.17" waitingTime="8280.00" speed="0.00" departed="0" arrived="0" entered="0" left="0" laneChangedFrom="0" laneChangedTo="0"/>
    </interval>
    <interval begin="3960.00" end="4320.00" id="dump">
        <edge id="CW" sampledSeconds="8280.00" overlapTraveltime="100000.00" density="256.70" laneDensity="128.35" occupancy="64.17" waitingTime="8280.00" speed="0.00" departed="0" arrived="0" entered="0" left="0" laneChangedFrom="0" laneChangedTo="0"/>
        <edge id="WC" sampledSeconds="8280.00" overlapTraveltime="100000.00" density="256.70" laneDensity="128.35" occupancy="64.17" waitingTime="8280.00" speed="0.00" departed="0" arrived="0" entered="0" left="0" laneChangedFrom="0" laneChangedTo="0"/>
    </interval>
    <interval begin="4320.00" end="4680.00" id="dump">
        <edge id="CW" sampledSeconds="8280.00" overlapTraveltime="100000.00" density="256.70" laneDensity="128.35" occupancy="64.17" waitingTime="8280.00" speed="0.00" departed="0" arrived="0" entered="0" left="0" laneChangedFrom="0" laneChangedTo="0"/>
        <edge id="WC" sampledSeconds="8280.00" overlapTraveltime="100000.00" density="256.70" laneDensity="128.35" occupancy="64.17" waitingTime="8280.00" speed="0.00" departed="0" arrived="0" entered="0" left="0" laneChangedFrom="0" laneChangedTo="0"/>
    </interval>
    <interval begin="4680.00" end="5040.00" id="dump">
        <edge id="CW" sampledSeconds="8280.00" overlapTraveltime="100000.00" density="256.70" laneDensity="128.35" occupancy="64.17" waitingTime="8280.00" speed="0.00" departed="0" arrived="0" entered="0" left="0" laneChangedFrom="0" laneChangedTo="0"/>
        <edge id="WC" sampledSeconds="8280.00" overlapTraveltime="100000.00" density="256.70" laneDensity="128.35" occupancy="64.17" waitingTime="8280.00" speed="0.00" departed="0" arrived="0" entered="0" left="0" laneChangedFrom="0" laneChangedTo="0"/>
    </interval>
    <interval begin="5040.00" end="5400.00" id="dump">
        <edge id="CW" sampledSeconds="8280.00" overlapTraveltime="100000.00" density="256.70" laneDensity="128.35" occupancy="64.17" waitingTime="8280.00" speed="0.00" departed="0" arrived="0" entered="0" left="0" laneChangedFrom="0" laneChangedTo="0"/>
        <edge id="WC" sampledSeconds="8280.00" overlapTraveltime="100000.00" density="256.70" laneDensity="128.35" occupancy="64.17" waitingTime="8280.00" speed="0.00" departed="0" arrived="0" entered="0" left="0" laneChangedFrom="0" laneChangedTo="0"/>
    </interval>
</meandata>
