<?xml version="1.0" encoding="UTF-8"?>

<!-- generated on Fri Aug 11 10:26:55 2017 by SUMO Version dev-SVN-r25537
<?xml version="1.0" encoding="UTF-8"?>

<configuration xmlns:xsi="http://www.w3.org/2001/XMLSchema-instance" xsi:noNamespaceSchemaLocation="http://sumo.dlr.de/xsd/sumoConfiguration.xsd">

    <input>
        <net-file value="net2.net.xml"/>
        <route-files value="input_routes.rou.xml"/>
    </input>

    <output>
        <fcd-output value="fcd.xml"/>
        <tripinfo-output value="tripinfos.xml"/>
    </output>

    <report>
        <xml-validation value="never"/>
        <no-step-log value="true"/>
    </report>

</configuration>
-->

<tripinfos xmlns:xsi="http://www.w3.org/2001/XMLSchema-instance" xsi:noNamespaceSchemaLocation="http://sumo.dlr.de/xsd/tripinfo_file.xsd">
    <tripinfo id="overtaking" depart="4.00" departLane="VODUGES_beg_0" departPos="0.00" departSpeed="0.00" departDelay="0.00" arrival="22.00" arrivalLane="VODUGES_end_0" arrivalPos="140.50" arrivalSpeed="13.50" duration="18.00" routeLength="195.25" waitSteps="0" timeLoss="3.82" rerouteNo="0" devices="tripinfo_overtaking" vType="DEFAULT_VEHTYPE" speedFactor="1.00" vaporized=""/>
    <tripinfo id="oncoming1" depart="2.00" departLane="NC_0" departPos="40.00" departSpeed="0.00" departDelay="0.00" arrival="26.00" arrivalLane="VODUGES_end_0" arrivalPos="140.50" arrivalSpeed="13.28" duration="24.00" routeLength="206.07" waitSteps="1" timeLoss="8.83" rerouteNo="0" devices="tripinfo_oncoming1" vType="DEFAULT_VEHTYPE" speedFactor="1.00" vaporized=""/>
    <tripinfo id="oncoming2" depart="2.00" departLane="NC_0" departPos="20.00" departSpeed="0.00" departDelay="0.00" arrival="28.00" arrivalLane="VODUGES_end_0" arrivalPos="140.50" arrivalSpeed="13.71" duration="26.00" routeLength="226.07" waitSteps="0" timeLoss="9.14" rerouteNo="0" devices="tripinfo_oncoming2" vType="DEFAULT_VEHTYPE" speedFactor="1.00" vaporized=""/>
    <tripinfo id="oncoming3" depart="2.00" departLane="NC_0" departPos="0.00" departSpeed="0.00" departDelay="0.00" arrival="30.00" arrivalLane="VODUGES_end_0" arrivalPos="140.50" arrivalSpeed="13.38" duration="28.00" routeLength="246.07" waitSteps="0" timeLoss="9.72" rerouteNo="0" devices="tripinfo_oncoming3" vType="DEFAULT_VEHTYPE" speedFactor="1.00" vaporized=""/>
    <tripinfo id="stopped2" depart="2.00" departLane="VODUGES_beg_0" departPos="40.00" departSpeed="0.00" departDelay="0.00" arrival="123.00" arrivalLane="VODUGES_end_0" arrivalPos="140.50" arrivalSpeed="13.64" duration="121.00" routeLength="155.25" waitSteps="0" timeLoss="7.90" rerouteNo="0" devices="tripinfo_stopped2" vType="DEFAULT_VEHTYPE" speedFactor="1.00" vaporized=""/>
</tripinfos>
