<?xml version="1.0" encoding="UTF-8"?>

<!-- generated on 2025-10-30T14:22:27.470988+01:00 by Eclipse SUMO sumo v1_24_0+1690-94ea55fefa3
This data file and the accompanying materials
are made available under the terms of the Eclipse Public License v2.0
which accompanies this distribution, and is available at
http://www.eclipse.org/legal/epl-v20.html
This file may also be made available under the following Secondary
Licenses when the conditions for such availability set forth in the Eclipse
Public License 2.0 are satisfied: GNU General Public License, version 2
or later which is available at
https://www.gnu.org/licenses/old-licenses/gpl-2.0-standalone.html
SPDX-License-Identifier: EPL-2.0 OR GPL-2.0-or-later
<sumoConfiguration xmlns:xsi="http://www.w3.org/2001/XMLSchema-instance" xsi:noNamespaceSchemaLocation="http://sumo.dlr.de/xsd/sumoConfiguration.xsd">

    <input>
        <net-file value="net.net.xml"/>
        <additional-files value="input_routes.rou.xml,input_additional2.add.xml"/>
    </input>

    <output>
        <write-license value="true"/>
        <summary-output value="summary.xml"/>
    </output>

    <time>
        <begin value="0"/>
        <end value="40"/>
    </time>

    <processing>
        <default.speeddev value="0"/>
    </processing>

    <report>
        <xml-validation value="never"/>
        <duration-log.disable value="true"/>
        <no-step-log value="true"/>
    </report>

    <mesoscopic>
        <mesosim value="true"/>
    </mesoscopic>

</sumoConfiguration>
-->

<summary xmlns:xsi="http://www.w3.org/2001/XMLSchema-instance" xsi:noNamespaceSchemaLocation="http://sumo.dlr.de/xsd/summary_file.xsd">
    <step time="0.00" loaded="1" inserted="1" running="1" waiting="0" ended="0" arrived="0" collisions="0" teleports="0" halting="0" stopped="0" meanWaitingTime="0.00" meanTravelTime="-1.00" meanSpeed="10.00" meanSpeedRelative="1.00" discarded="0"/>
    <step time="1.00" loaded="2" inserted="2" running="2" waiting="0" ended="0" arrived="0" collisions="0" teleports="0" halting="0" stopped="0" meanWaitingTime="0.00" meanTravelTime="-1.00" meanSpeed="9.70" meanSpeedRelative="0.97" discarded="0"/>
    <step time="2.00" loaded="3" inserted="3" running="3" waiting="0" ended="0" arrived="0" collisions="0" teleports="0" halting="0" stopped="0" meanWaitingTime="0.00" meanTravelTime="-1.00" meanSpeed="9.43" meanSpeedRelative="0.94" discarded="0"/>
    <step time="3.00" loaded="4" inserted="4" running="4" waiting="0" ended="0" arrived="0" collisions="0" teleports="0" halting="0" stopped="0" meanWaitingTime="0.00" meanTravelTime="-1.00" meanSpeed="9.17" meanSpeedRelative="0.92" discarded="0"/>
    <step time="4.00" loaded="5" inserted="5" running="5" waiting="0" ended="0" arrived="0" collisions="0" teleports="0" halting="0" stopped="0" meanWaitingTime="0.00" meanTravelTime="-1.00" meanSpeed="8.94" meanSpeedRelative="0.89" discarded="0"/>
    <step time="5.00" loaded="6" inserted="6" running="6" waiting="0" ended="0" arrived="0" collisions="0" teleports="0" halting="0" stopped="0" meanWaitingTime="0.00" meanTravelTime="-1.00" meanSpeed="8.72" meanSpeedRelative="0.87" discarded="0"/>
    <step time="6.00" loaded="7" inserted="7" running="7" waiting="0" ended="0" arrived="0" collisions="0" teleports="0" halting="0" stopped="0" meanWaitingTime="0.00" meanTravelTime="-1.00" meanSpeed="8.51" meanSpeedRelative="0.85" discarded="0"/>
    <step time="7.00" loaded="8" inserted="8" running="8" waiting="0" ended="0" arrived="0" collisions="0" teleports="0" halting="0" stopped="0" meanWaitingTime="0.00" meanTravelTime="-1.00" meanSpeed="8.31" meanSpeedRelative="0.83" discarded="0"/>
    <step time="8.00" loaded="9" inserted="9" running="9" waiting="0" ended="0" arrived="0" collisions="0" teleports="0" halting="0" stopped="0" meanWaitingTime="0.00" meanTravelTime="-1.00" meanSpeed="8.13" meanSpeedRelative="0.81" discarded="0"/>
    <step time="9.00" loaded="10" inserted="9" running="9" waiting="1" ended="0" arrived="0" collisions="0" teleports="0" halting="0" stopped="0" meanWaitingTime="0.00" meanTravelTime="-1.00" meanSpeed="8.13" meanSpeedRelative="0.81" discarded="0"/>
    <step time="10.00" loaded="11" inserted="10" running="10" waiting="1" ended="0" arrived="0" collisions="0" teleports="0" halting="0" stopped="0" meanWaitingTime="0.10" meanTravelTime="-1.00" meanSpeed="8.00" meanSpeedRelative="0.80" discarded="0"/>
    <step time="11.00" loaded="12" inserted="10" running="10" waiting="2" ended="0" arrived="0" collisions="0" teleports="0" halting="0" stopped="0" meanWaitingTime="0.10" meanTravelTime="-1.00" meanSpeed="8.00" meanSpeedRelative="0.80" discarded="0"/>
    <step time="12.00" loaded="13" inserted="11" running="11" waiting="2" ended="0" arrived="0" collisions="0" teleports="0" halting="0" stopped="0" meanWaitingTime="0.27" meanTravelTime="-1.00" meanSpeed="7.96" meanSpeedRelative="0.80" discarded="0"/>
    <step time="13.00" loaded="14" inserted="11" running="11" waiting="3" ended="0" arrived="0" collisions="0" teleports="0" halting="0" stopped="0" meanWaitingTime="0.27" meanTravelTime="-1.00" meanSpeed="7.96" meanSpeedRelative="0.80" discarded="0"/>
    <step time="14.00" loaded="15" inserted="12" running="12" waiting="3" ended="0" arrived="0" collisions="0" teleports="0" halting="0" stopped="0" meanWaitingTime="0.50" meanTravelTime="-1.00" meanSpeed="7.99" meanSpeedRelative="0.80" discarded="0"/>
    <step time="15.00" loaded="16" inserted="13" running="13" waiting="3" ended="0" arrived="0" collisions="0" teleports="0" halting="0" stopped="0" meanWaitingTime="0.69" meanTravelTime="-1.00" meanSpeed="8.02" meanSpeedRelative="0.80" discarded="0"/>
    <step time="16.00" loaded="16" inserted="13" running="13" waiting="3" ended="0" arrived="0" collisions="0" teleports="0" halting="0" stopped="0" meanWaitingTime="0.69" meanTravelTime="-1.00" meanSpeed="8.02" meanSpeedRelative="0.80" discarded="0"/>
    <step time="17.00" loaded="16" inserted="14" running="14" waiting="2" ended="0" arrived="0" collisions="0" teleports="0" halting="0" stopped="0" meanWaitingTime="0.93" meanTravelTime="-1.00" meanSpeed="8.10" meanSpeedRelative="0.81" discarded="0"/>
    <step time="18.00" loaded="16" inserted="14" running="14" waiting="2" ended="0" arrived="0" collisions="0" teleports="0" halting="0" stopped="0" meanWaitingTime="0.93" meanTravelTime="-1.00" meanSpeed="8.10" meanSpeedRelative="0.81" discarded="0"/>
    <step time="19.00" loaded="16" inserted="15" running="15" waiting="1" ended="0" arrived="0" collisions="0" teleports="0" halting="0" stopped="0" meanWaitingTime="1.20" meanTravelTime="-1.00" meanSpeed="8.20" meanSpeedRelative="0.82" discarded="0"/>
    <step time="20.00" loaded="16" inserted="16" running="16" waiting="0" ended="0" arrived="0" collisions="0" teleports="0" halting="0" stopped="0" meanWaitingTime="1.44" meanTravelTime="-1.00" meanSpeed="8.29" meanSpeedRelative="0.83" discarded="0"/>
    <step time="21.00" loaded="16" inserted="16" running="16" waiting="0" ended="0" arrived="0" collisions="0" teleports="0" halting="0" stopped="0" meanWaitingTime="1.44" meanTravelTime="-1.00" meanSpeed="8.29" meanSpeedRelative="0.83" discarded="0"/>
    <step time="22.00" loaded="16" inserted="16" running="16" waiting="0" ended="0" arrived="0" collisions="0" teleports="0" halting="0" stopped="0" meanWaitingTime="1.44" meanTravelTime="-1.00" meanSpeed="8.48" meanSpeedRelative="0.85" discarded="0"/>
    <step time="23.00" loaded="16" inserted="16" running="16" waiting="0" ended="0" arrived="0" collisions="0" teleports="0" halting="0" stopped="0" meanWaitingTime="1.44" meanTravelTime="-1.00" meanSpeed="8.48" meanSpeedRelative="0.85" discarded="0"/>
    <step time="24.00" loaded="16" inserted="16" running="16" waiting="0" ended="0" arrived="0" collisions="0" teleports="0" halting="0" stopped="0" meanWaitingTime="1.44" meanTravelTime="-1.00" meanSpeed="8.69" meanSpeedRelative="0.87" discarded="0"/>
    <step time="25.00" loaded="16" inserted="16" running="16" waiting="0" ended="0" arrived="0" collisions="0" teleports="0" halting="0" stopped="0" meanWaitingTime="1.44" meanTravelTime="-1.00" meanSpeed="8.89" meanSpeedRelative="0.89" discarded="0"/>
    <step time="26.00" loaded="16" inserted="16" running="16" waiting="0" ended="0" arrived="0" collisions="0" teleports="0" halting="0" stopped="0" meanWaitingTime="1.44" meanTravelTime="-1.00" meanSpeed="8.89" meanSpeedRelative="0.89" discarded="0"/>
    <step time="27.00" loaded="16" inserted="16" running="16" waiting="0" ended="0" arrived="0" collisions="0" teleports="0" halting="0" stopped="0" meanWaitingTime="1.44" meanTravelTime="-1.00" meanSpeed="9.08" meanSpeedRelative="0.91" discarded="0"/>
    <step time="28.00" loaded="16" inserted="16" running="16" waiting="0" ended="0" arrived="0" collisions="0" teleports="0" halting="0" stopped="0" meanWaitingTime="1.44" meanTravelTime="-1.00" meanSpeed="9.25" meanSpeedRelative="0.93" discarded="0"/>
    <step time="29.00" loaded="16" inserted="16" running="16" waiting="0" ended="0" arrived="0" collisions="0" teleports="0" halting="0" stopped="0" meanWaitingTime="1.44" meanTravelTime="-1.00" meanSpeed="9.25" meanSpeedRelative="0.93" discarded="0"/>
    <step time="30.00" loaded="16" inserted="16" running="16" waiting="0" ended="0" arrived="0" collisions="0" teleports="0" halting="0" stopped="0" meanWaitingTime="1.44" meanTravelTime="-1.00" meanSpeed="9.45" meanSpeedRelative="0.95" discarded="0"/>
    <step time="31.00" loaded="16" inserted="16" running="16" waiting="0" ended="0" arrived="0" collisions="0" teleports="0" halting="0" stopped="0" meanWaitingTime="1.44" meanTravelTime="-1.00" meanSpeed="9.45" meanSpeedRelative="0.95" discarded="0"/>
    <step time="32.00" loaded="16" inserted="16" running="16" waiting="0" ended="0" arrived="0" collisions="0" teleports="0" halting="0" stopped="0" meanWaitingTime="1.44" meanTravelTime="-1.00" meanSpeed="9.63" meanSpeedRelative="0.96" discarded="0"/>
    <step time="33.00" loaded="16" inserted="16" running="16" waiting="0" ended="0" arrived="0" collisions="0" teleports="0" halting="0" stopped="0" meanWaitingTime="1.44" meanTravelTime="-1.00" meanSpeed="9.81" meanSpeedRelative="0.98" discarded="0"/>
    <step time="34.00" loaded="16" inserted="16" running="16" waiting="0" ended="0" arrived="0" collisions="0" teleports="0" halting="0" stopped="0" meanWaitingTime="1.44" meanTravelTime="-1.00" meanSpeed="9.81" meanSpeedRelative="0.98" discarded="0"/>
    <step time="35.00" loaded="16" inserted="16" running="16" waiting="0" ended="0" arrived="0" collisions="0" teleports="0" halting="0" stopped="0" meanWaitingTime="1.44" meanTravelTime="-1.00" meanSpeed="10.00" meanSpeedRelative="1.00" discarded="0"/>
    <step time="36.00" loaded="16" inserted="16" running="16" waiting="0" ended="0" arrived="0" collisions="0" teleports="0" halting="0" stopped="0" meanWaitingTime="1.44" meanTravelTime="-1.00" meanSpeed="10.00" meanSpeedRelative="1.00" discarded="0"/>
    <step time="37.00" loaded="16" inserted="16" running="16" waiting="0" ended="0" arrived="0" collisions="0" teleports="0" halting="0" stopped="0" meanWaitingTime="1.44" meanTravelTime="-1.00" meanSpeed="10.00" meanSpeedRelative="1.00" discarded="0"/>
    <step time="38.00" loaded="16" inserted="16" running="16" waiting="0" ended="0" arrived="0" collisions="0" teleports="0" halting="0" stopped="0" meanWaitingTime="1.44" meanTravelTime="-1.00" meanSpeed="10.00" meanSpeedRelative="1.00" discarded="0"/>
    <step time="39.00" loaded="16" inserted="16" running="16" waiting="0" ended="0" arrived="0" collisions="0" teleports="0" halting="0" stopped="0" meanWaitingTime="1.44" meanTravelTime="-1.00" meanSpeed="10.00" meanSpeedRelative="1.00" discarded="0"/>
</summary>
