<?xml version="1.0" encoding="UTF-8"?>

<!-- generated on Sun Aug 26 22:38:18 2018 by Eclipse SUMO Version 80ef8e6
This data file and the accompanying materials
are made available under the terms of the Eclipse Public License v2.0
which accompanies this distribution, and is available at
http://www.eclipse.org/legal/epl-v20.html
SPDX-License-Identifier: EPL-2.0
<configuration xmlns:xsi="http://www.w3.org/2001/XMLSchema-instance" xsi:noNamespaceSchemaLocation="http://sumo.dlr.de/xsd/sumoConfiguration.xsd">

    <input>
        <net-file value="net3.net.xml"/>
        <route-files value="input_routes.rou.xml"/>
    </input>

    <output>
        <write-license value="true"/>
        <fcd-output value="fcd.xml"/>
    </output>

    <processing>
        <default.speeddev value="0"/>
        <default.emergencydecel value="9"/>
    </processing>

    <report>
        <xml-validation value="never"/>
        <duration-log.disable value="true"/>
        <no-step-log value="true"/>
    </report>

    <fcd_device>
        <device.fcd.explicit value="4"/>
    </fcd_device>

</configuration>
-->

<fcd-export xmlns:xsi="http://www.w3.org/2001/XMLSchema-instance" xsi:noNamespaceSchemaLocation="http://sumo.dlr.de/xsd/fcd_file.xsd">
    <timestep time="0.00"/>
    <timestep time="1.00"/>
    <timestep time="2.00"/>
    <timestep time="3.00"/>
    <timestep time="4.00"/>
    <timestep time="5.00"/>
    <timestep time="6.00"/>
    <timestep time="7.00"/>
    <timestep time="8.00"/>
    <timestep time="9.00">
        <vehicle id="4" x="104.95" y="5.10" angle="0.00" type="DEFAULT_VEHTYPE" speed="0.00" pos="5.10" lane="SC_3" slope="0.00"/>
    </timestep>
    <timestep time="10.00">
        <vehicle id="4" x="104.95" y="7.03" angle="0.00" type="DEFAULT_VEHTYPE" speed="1.93" pos="7.03" lane="SC_3" slope="0.00"/>
    </timestep>
    <timestep time="11.00">
        <vehicle id="4" x="104.95" y="10.49" angle="0.00" type="DEFAULT_VEHTYPE" speed="3.46" pos="10.49" lane="SC_3" slope="0.00"/>
    </timestep>
    <timestep time="12.00">
        <vehicle id="4" x="104.95" y="16.25" angle="0.00" type="DEFAULT_VEHTYPE" speed="5.75" pos="16.25" lane="SC_3" slope="0.00"/>
    </timestep>
    <timestep time="13.00">
        <vehicle id="4" x="104.95" y="24.40" angle="0.00" type="DEFAULT_VEHTYPE" speed="8.15" pos="24.40" lane="SC_3" slope="0.00"/>
    </timestep>
    <timestep time="14.00">
        <vehicle id="4" x="104.95" y="34.97" angle="0.00" type="DEFAULT_VEHTYPE" speed="10.58" pos="34.97" lane="SC_3" slope="0.00"/>
    </timestep>
    <timestep time="15.00">
        <vehicle id="4" x="104.95" y="47.67" angle="0.00" type="DEFAULT_VEHTYPE" speed="12.69" pos="47.67" lane="SC_3" slope="0.00"/>
    </timestep>
    <timestep time="16.00">
        <vehicle id="4" x="104.95" y="56.50" angle="0.00" type="DEFAULT_VEHTYPE" speed="8.84" pos="56.50" lane="SC_3" slope="0.00"/>
    </timestep>
    <timestep time="17.00">
        <vehicle id="4" x="104.95" y="60.84" angle="0.00" type="DEFAULT_VEHTYPE" speed="4.34" pos="60.84" lane="SC_3" slope="0.00"/>
    </timestep>
    <timestep time="18.00">
        <vehicle id="4" x="104.95" y="61.66" angle="0.00" type="DEFAULT_VEHTYPE" speed="0.82" pos="61.66" lane="SC_3" slope="0.00"/>
    </timestep>
    <timestep time="19.00">
        <vehicle id="4" x="104.95" y="61.84" angle="0.00" type="DEFAULT_VEHTYPE" speed="0.19" pos="61.84" lane="SC_3" slope="0.00"/>
    </timestep>
    <timestep time="20.00">
        <vehicle id="4" x="104.95" y="61.89" angle="0.00" type="DEFAULT_VEHTYPE" speed="0.04" pos="61.89" lane="SC_3" slope="0.00"/>
    </timestep>
    <timestep time="21.00">
        <vehicle id="4" x="104.95" y="61.89" angle="0.00" type="DEFAULT_VEHTYPE" speed="0.01" pos="61.89" lane="SC_3" slope="0.00"/>
    </timestep>
    <timestep time="22.00">
        <vehicle id="4" x="104.95" y="61.89" angle="0.00" type="DEFAULT_VEHTYPE" speed="0.00" pos="61.89" lane="SC_3" slope="0.00"/>
    </timestep>
    <timestep time="23.00">
        <vehicle id="4" x="104.95" y="61.90" angle="0.00" type="DEFAULT_VEHTYPE" speed="0.00" pos="61.90" lane="SC_3" slope="0.00"/>
    </timestep>
    <timestep time="24.00">
        <vehicle id="4" x="104.95" y="61.90" angle="0.00" type="DEFAULT_VEHTYPE" speed="0.00" pos="61.90" lane="SC_3" slope="0.00"/>
    </timestep>
    <timestep time="25.00">
        <vehicle id="4" x="104.95" y="61.90" angle="0.00" type="DEFAULT_VEHTYPE" speed="0.00" pos="61.90" lane="SC_3" slope="0.00"/>
    </timestep>
    <timestep time="26.00">
        <vehicle id="4" x="104.95" y="61.90" angle="0.00" type="DEFAULT_VEHTYPE" speed="0.00" pos="61.90" lane="SC_3" slope="0.00"/>
    </timestep>
    <timestep time="27.00">
        <vehicle id="4" x="104.95" y="61.90" angle="0.00" type="DEFAULT_VEHTYPE" speed="0.00" pos="61.90" lane="SC_3" slope="0.00"/>
    </timestep>
    <timestep time="28.00">
        <vehicle id="4" x="104.95" y="61.90" angle="0.00" type="DEFAULT_VEHTYPE" speed="0.00" pos="61.90" lane="SC_3" slope="0.00"/>
    </timestep>
    <timestep time="29.00">
        <vehicle id="4" x="104.95" y="61.90" angle="0.00" type="DEFAULT_VEHTYPE" speed="0.00" pos="61.90" lane="SC_3" slope="0.00"/>
    </timestep>
    <timestep time="30.00">
        <vehicle id="4" x="104.95" y="61.90" angle="0.00" type="DEFAULT_VEHTYPE" speed="0.00" pos="61.90" lane="SC_3" slope="0.00"/>
    </timestep>
    <timestep time="31.00">
        <vehicle id="4" x="104.95" y="61.90" angle="0.00" type="DEFAULT_VEHTYPE" speed="0.00" pos="61.90" lane="SC_3" slope="0.00"/>
    </timestep>
    <timestep time="32.00">
        <vehicle id="4" x="104.95" y="61.90" angle="0.00" type="DEFAULT_VEHTYPE" speed="0.00" pos="61.90" lane="SC_3" slope="0.00"/>
    </timestep>
    <timestep time="33.00">
        <vehicle id="4" x="104.95" y="61.90" angle="0.00" type="DEFAULT_VEHTYPE" speed="0.00" pos="61.90" lane="SC_3" slope="0.00"/>
    </timestep>
    <timestep time="34.00">
        <vehicle id="4" x="104.95" y="61.90" angle="0.00" type="DEFAULT_VEHTYPE" speed="0.00" pos="61.90" lane="SC_3" slope="0.00"/>
    </timestep>
    <timestep time="35.00">
        <vehicle id="4" x="104.95" y="61.90" angle="0.00" type="DEFAULT_VEHTYPE" speed="0.00" pos="61.90" lane="SC_3" slope="0.00"/>
    </timestep>
    <timestep time="36.00">
        <vehicle id="4" x="104.95" y="61.90" angle="0.00" type="DEFAULT_VEHTYPE" speed="0.00" pos="61.90" lane="SC_3" slope="0.00"/>
    </timestep>
    <timestep time="37.00">
        <vehicle id="4" x="104.95" y="61.90" angle="0.00" type="DEFAULT_VEHTYPE" speed="0.00" pos="61.90" lane="SC_3" slope="0.00"/>
    </timestep>
    <timestep time="38.00">
        <vehicle id="4" x="104.95" y="61.90" angle="0.00" type="DEFAULT_VEHTYPE" speed="0.00" pos="61.90" lane="SC_3" slope="0.00"/>
    </timestep>
    <timestep time="39.00">
        <vehicle id="4" x="104.95" y="61.90" angle="0.00" type="DEFAULT_VEHTYPE" speed="0.00" pos="61.90" lane="SC_3" slope="0.00"/>
    </timestep>
    <timestep time="40.00">
        <vehicle id="4" x="104.95" y="61.90" angle="0.00" type="DEFAULT_VEHTYPE" speed="0.00" pos="61.90" lane="SC_3" slope="0.00"/>
    </timestep>
    <timestep time="41.00">
        <vehicle id="4" x="104.95" y="61.90" angle="0.00" type="DEFAULT_VEHTYPE" speed="0.00" pos="61.90" lane="SC_3" slope="0.00"/>
    </timestep>
    <timestep time="42.00">
        <vehicle id="4" x="104.95" y="61.90" angle="0.00" type="DEFAULT_VEHTYPE" speed="0.00" pos="61.90" lane="SC_3" slope="0.00"/>
    </timestep>
    <timestep time="43.00">
        <vehicle id="4" x="104.95" y="61.90" angle="0.00" type="DEFAULT_VEHTYPE" speed="0.00" pos="61.90" lane="SC_3" slope="0.00"/>
    </timestep>
    <timestep time="44.00">
        <vehicle id="4" x="104.95" y="61.90" angle="0.00" type="DEFAULT_VEHTYPE" speed="0.00" pos="61.90" lane="SC_3" slope="0.00"/>
    </timestep>
    <timestep time="45.00">
        <vehicle id="4" x="104.95" y="61.90" angle="0.00" type="DEFAULT_VEHTYPE" speed="0.00" pos="61.90" lane="SC_3" slope="0.00"/>
    </timestep>
    <timestep time="46.00">
        <vehicle id="4" x="104.95" y="61.90" angle="0.00" type="DEFAULT_VEHTYPE" speed="0.00" pos="61.90" lane="SC_3" slope="0.00"/>
    </timestep>
    <timestep time="47.00">
        <vehicle id="4" x="104.95" y="61.90" angle="0.00" type="DEFAULT_VEHTYPE" speed="0.00" pos="61.90" lane="SC_3" slope="0.00"/>
    </timestep>
    <timestep time="48.00">
        <vehicle id="4" x="104.95" y="62.98" angle="0.00" type="DEFAULT_VEHTYPE" speed="1.08" pos="62.98" lane="SC_3" slope="0.00"/>
    </timestep>
    <timestep time="49.00">
        <vehicle id="4" x="104.95" y="64.97" angle="0.00" type="DEFAULT_VEHTYPE" speed="1.99" pos="64.97" lane="SC_3" slope="0.00"/>
    </timestep>
    <timestep time="50.00">
        <vehicle id="4" x="104.95" y="68.28" angle="0.00" type="DEFAULT_VEHTYPE" speed="3.31" pos="68.28" lane="SC_3" slope="0.00"/>
    </timestep>
    <timestep time="51.00">
        <vehicle id="4" x="104.95" y="72.95" angle="0.00" type="DEFAULT_VEHTYPE" speed="4.67" pos="72.95" lane="SC_3" slope="0.00"/>
    </timestep>
    <timestep time="52.00">
        <vehicle id="4" x="104.95" y="79.66" angle="0.00" type="DEFAULT_VEHTYPE" speed="6.70" pos="79.66" lane="SC_3" slope="0.00"/>
    </timestep>
    <timestep time="53.00">
        <vehicle id="4" x="105.18" y="87.16" angle="2.69" type="DEFAULT_VEHTYPE" speed="7.52" pos="1.78" lane=":C_14_0" slope="0.00"/>
    </timestep>
    <timestep time="54.00">
        <vehicle id="4" x="109.79" y="94.34" angle="46.51" type="DEFAULT_VEHTYPE" speed="9.05" pos="5.23" lane=":C_31_0" slope="0.00"/>
    </timestep>
    <timestep time="55.00">
        <vehicle id="4" x="121.31" y="95.05" angle="90.00" type="DEFAULT_VEHTYPE" speed="11.60" pos="7.46" lane="CE_3" slope="0.00"/>
    </timestep>
    <timestep time="56.00">
        <vehicle id="4" x="133.74" y="95.05" angle="90.00" type="DEFAULT_VEHTYPE" speed="12.43" pos="19.89" lane="CE_3" slope="0.00"/>
    </timestep>
    <timestep time="57.00">
        <vehicle id="4" x="145.72" y="95.05" angle="90.00" type="DEFAULT_VEHTYPE" speed="11.98" pos="31.87" lane="CE_3" slope="0.00"/>
    </timestep>
    <timestep time="58.00">
        <vehicle id="4" x="158.99" y="95.05" angle="90.00" type="DEFAULT_VEHTYPE" speed="13.27" pos="45.14" lane="CE_3" slope="0.00"/>
    </timestep>
    <timestep time="59.00">
        <vehicle id="4" x="172.22" y="95.05" angle="90.00" type="DEFAULT_VEHTYPE" speed="13.23" pos="58.37" lane="CE_3" slope="0.00"/>
    </timestep>
    <timestep time="60.00">
        <vehicle id="4" x="184.64" y="95.05" angle="90.00" type="DEFAULT_VEHTYPE" speed="12.42" pos="70.79" lane="CE_3" slope="0.00"/>
    </timestep>
    <timestep time="61.00">
        <vehicle id="4" x="198.33" y="95.05" angle="90.00" type="DEFAULT_VEHTYPE" speed="13.69" pos="84.48" lane="CE_3" slope="0.00"/>
    </timestep>
    <timestep time="62.00"/>
    <timestep time="63.00"/>
    <timestep time="64.00"/>
    <timestep time="65.00"/>
</fcd-export>
