<?xml version="1.0" encoding="UTF-8"?>

<!-- generated on Thu May 23 21:47:14 2019 by Eclipse SUMO Version v1_2_0+0112-7d384bbd43
This data file and the accompanying materials
are made available under the terms of the Eclipse Public License v2.0
which accompanies this distribution, and is available at
http://www.eclipse.org/legal/epl-v20.html
SPDX-License-Identifier: EPL-2.0
<configuration xmlns:xsi="http://www.w3.org/2001/XMLSchema-instance" xsi:noNamespaceSchemaLocation="http://sumo.dlr.de/xsd/sumoConfiguration.xsd">

    <input>
        <net-file value="net.net.xml"/>
        <route-files value="input_routes.rou.xml"/>
        <additional-files value="input_additional.add.xml,input_additional2.add.xml"/>
    </input>

    <output>
        <write-license value="true"/>
        <tripinfo-output value="tripinfos.xml"/>
        <vehroute-output value="vehroutes.xml"/>
        <railsignal-block-output value="railsignal_blocks.xml"/>
        <stop-output value="stopinfos.xml"/>
    </output>

    <processing>
        <default.speeddev value="0"/>
    </processing>

    <routing>
        <device.rerouting.period value="10"/>
        <device.rerouting.adaptation-steps value="10"/>
    </routing>

    <report>
        <verbose value="true"/>
        <xml-validation value="never"/>
        <duration-log.statistics value="true"/>
        <no-step-log value="true"/>
    </report>

</configuration>
-->

<stops xmlns:xsi="http://www.w3.org/2001/XMLSchema-instance" xsi:noNamespaceSchemaLocation="http://sumo.dlr.de/xsd/stopinfo_file.xsd">
    <stopinfo id="tram2" type="RB628" lane="TrightLoop_1_0" pos="400.00" parking="0" started="305.00" ended="326.00" delay="-1.00" initialPersons="0" loadedPersons="0" unloadedPersons="0" initialContainers="0" loadedContainers="0" unloadedContainers="0" busStop="rightStop"/>
    <stopinfo id="tram1" type="RB628" lane="TleftLoop_1_0" pos="400.00" parking="0" started="346.00" ended="367.00" delay="-1.00" initialPersons="0" loadedPersons="0" unloadedPersons="0" initialContainers="0" loadedContainers="0" unloadedContainers="0" busStop="leftStop"/>
    <stopinfo id="tram4" type="RB628" lane="TleftLoop_1_0" pos="400.00" parking="0" started="439.00" ended="460.00" delay="-1.00" initialPersons="0" loadedPersons="0" unloadedPersons="0" initialContainers="0" loadedContainers="0" unloadedContainers="0" busStop="leftStop"/>
    <stopinfo id="tram5" type="RB628" lane="TrightLoop_1_0" pos="400.00" parking="0" started="473.00" ended="494.00" delay="-1.00" initialPersons="0" loadedPersons="0" unloadedPersons="0" initialContainers="0" loadedContainers="0" unloadedContainers="0" busStop="rightStop"/>
    <stopinfo id="tram6" type="RB628" lane="TleftLoop_1_0" pos="400.00" parking="0" started="532.00" ended="553.00" delay="-1.00" initialPersons="0" loadedPersons="0" unloadedPersons="0" initialContainers="0" loadedContainers="0" unloadedContainers="0" busStop="leftStop"/>
    <stopinfo id="tram7" type="RB628" lane="TrightLoop_1_0" pos="400.00" parking="0" started="566.00" ended="587.00" delay="-1.00" initialPersons="0" loadedPersons="0" unloadedPersons="0" initialContainers="0" loadedContainers="0" unloadedContainers="0" busStop="rightStop"/>
    <stopinfo id="tram8" type="RB628" lane="TleftLoop_1_0" pos="400.00" parking="0" started="625.00" ended="646.00" delay="-1.00" initialPersons="0" loadedPersons="0" unloadedPersons="0" initialContainers="0" loadedContainers="0" unloadedContainers="0" busStop="leftStop"/>
    <stopinfo id="tram9" type="RB628" lane="TrightLoop_1_0" pos="400.00" parking="0" started="659.00" ended="680.00" delay="-1.00" initialPersons="0" loadedPersons="0" unloadedPersons="0" initialContainers="0" loadedContainers="0" unloadedContainers="0" busStop="rightStop"/>
    <stopinfo id="tram2" type="RB628" lane="TleftLoop_1_0" pos="400.00" parking="0" started="851.00" ended="872.00" delay="-1.00" initialPersons="0" loadedPersons="0" unloadedPersons="0" initialContainers="0" loadedContainers="0" unloadedContainers="0" busStop="leftStop"/>
    <stopinfo id="tram1" type="RB628" lane="TrightLoop_1_0" pos="400.00" parking="0" started="910.00" ended="931.00" delay="-1.00" initialPersons="0" loadedPersons="0" unloadedPersons="0" initialContainers="0" loadedContainers="0" unloadedContainers="0" busStop="rightStop"/>
    <stopinfo id="tram5" type="RB628" lane="TleftLoop_1_0" pos="400.00" parking="0" started="1004.00" ended="1025.00" delay="-1.00" initialPersons="0" loadedPersons="0" unloadedPersons="0" initialContainers="0" loadedContainers="0" unloadedContainers="0" busStop="leftStop"/>
    <stopinfo id="tram4" type="RB628" lane="TrightLoop_1_0" pos="400.00" parking="0" started="1024.00" ended="1045.00" delay="-1.00" initialPersons="0" loadedPersons="0" unloadedPersons="0" initialContainers="0" loadedContainers="0" unloadedContainers="0" busStop="rightStop"/>
    <stopinfo id="tram6" type="RB628" lane="TrightLoop_1_0" pos="400.00" parking="0" started="1117.00" ended="1138.00" delay="-1.00" initialPersons="0" loadedPersons="0" unloadedPersons="0" initialContainers="0" loadedContainers="0" unloadedContainers="0" busStop="rightStop"/>
    <stopinfo id="tram8" type="RB628" lane="TrightLoop_1_0" pos="400.00" parking="0" started="1269.00" ended="1290.00" delay="-1.00" initialPersons="0" loadedPersons="0" unloadedPersons="0" initialContainers="0" loadedContainers="0" unloadedContainers="0" busStop="rightStop"/>
    <stopinfo id="tram7" type="RB628" lane="TleftLoop_1_0" pos="400.00" parking="0" started="1353.00" ended="1374.00" delay="-1.00" initialPersons="0" loadedPersons="0" unloadedPersons="0" initialContainers="0" loadedContainers="0" unloadedContainers="0" busStop="leftStop"/>
    <stopinfo id="tram2" type="RB628" lane="TrightLoop_1_0" pos="400.00" parking="0" started="1423.00" ended="1444.00" delay="-1.00" initialPersons="0" loadedPersons="0" unloadedPersons="0" initialContainers="0" loadedContainers="0" unloadedContainers="0" busStop="rightStop"/>
    <stopinfo id="tram9" type="RB628" lane="TleftLoop_1_0" pos="400.00" parking="0" started="1447.00" ended="1468.00" delay="-1.00" initialPersons="0" loadedPersons="0" unloadedPersons="0" initialContainers="0" loadedContainers="0" unloadedContainers="0" busStop="leftStop"/>
    <stopinfo id="tram5" type="RB628" lane="TrightLoop_1_0" pos="400.00" parking="0" started="1516.00" ended="1537.00" delay="-1.00" initialPersons="0" loadedPersons="0" unloadedPersons="0" initialContainers="0" loadedContainers="0" unloadedContainers="0" busStop="rightStop"/>
    <stopinfo id="tram1" type="RB628" lane="TleftLoop_1_0" pos="400.00" parking="0" started="1598.00" ended="1619.00" delay="-1.00" initialPersons="0" loadedPersons="0" unloadedPersons="0" initialContainers="0" loadedContainers="0" unloadedContainers="0" busStop="leftStop"/>
    <stopinfo id="tram4" type="RB628" lane="TleftLoop_1_0" pos="400.00" parking="0" started="1752.00" ended="1773.00" delay="-1.00" initialPersons="0" loadedPersons="0" unloadedPersons="0" initialContainers="0" loadedContainers="0" unloadedContainers="0" busStop="leftStop"/>
    <stopinfo id="tram7" type="RB628" lane="TrightLoop_1_0" pos="400.00" parking="0" started="1816.00" ended="1837.00" delay="-1.00" initialPersons="0" loadedPersons="0" unloadedPersons="0" initialContainers="0" loadedContainers="0" unloadedContainers="0" busStop="rightStop"/>
    <stopinfo id="tram6" type="RB628" lane="TleftLoop_1_0" pos="400.00" parking="0" started="1846.00" ended="1867.00" delay="-1.00" initialPersons="0" loadedPersons="0" unloadedPersons="0" initialContainers="0" loadedContainers="0" unloadedContainers="0" busStop="leftStop"/>
    <stopinfo id="tram8" type="RB628" lane="TleftLoop_1_0" pos="400.00" parking="0" started="1938.00" ended="1959.00" delay="-1.00" initialPersons="0" loadedPersons="0" unloadedPersons="0" initialContainers="0" loadedContainers="0" unloadedContainers="0" busStop="leftStop"/>
    <stopinfo id="tram9" type="RB628" lane="TrightLoop_1_0" pos="400.00" parking="0" started="1993.00" ended="2014.00" delay="-1.00" initialPersons="0" loadedPersons="0" unloadedPersons="0" initialContainers="0" loadedContainers="0" unloadedContainers="0" busStop="rightStop"/>
    <stopinfo id="tram1" type="RB628" lane="TrightLoop_1_0" pos="400.00" parking="0" started="2086.00" ended="2107.00" delay="-1.00" initialPersons="0" loadedPersons="0" unloadedPersons="0" initialContainers="0" loadedContainers="0" unloadedContainers="0" busStop="rightStop"/>
    <stopinfo id="tram2" type="RB628" lane="TleftLoop_1_0" pos="400.00" parking="0" started="2087.00" ended="2108.00" delay="-1.00" initialPersons="0" loadedPersons="0" unloadedPersons="0" initialContainers="0" loadedContainers="0" unloadedContainers="0" busStop="leftStop"/>
    <stopinfo id="tram4" type="RB628" lane="TrightLoop_1_0" pos="400.00" parking="0" started="2207.00" ended="2228.00" delay="-1.00" initialPersons="0" loadedPersons="0" unloadedPersons="0" initialContainers="0" loadedContainers="0" unloadedContainers="0" busStop="rightStop"/>
    <stopinfo id="tram5" type="RB628" lane="TleftLoop_1_0" pos="400.00" parking="0" started="2325.00" ended="2346.00" delay="-1.00" initialPersons="0" loadedPersons="0" unloadedPersons="0" initialContainers="0" loadedContainers="0" unloadedContainers="0" busStop="leftStop"/>
    <stopinfo id="tram6" type="RB628" lane="TrightLoop_1_0" pos="400.00" parking="0" started="2384.00" ended="2405.00" delay="-1.00" initialPersons="0" loadedPersons="0" unloadedPersons="0" initialContainers="0" loadedContainers="0" unloadedContainers="0" busStop="rightStop"/>
    <stopinfo id="tram7" type="RB628" lane="TleftLoop_1_0" pos="400.00" parking="0" started="2479.00" ended="2500.00" delay="-1.00" initialPersons="0" loadedPersons="0" unloadedPersons="0" initialContainers="0" loadedContainers="0" unloadedContainers="0" busStop="leftStop"/>
    <stopinfo id="tram2" type="RB628" lane="TrightLoop_1_0" pos="400.00" parking="0" started="2540.00" ended="2561.00" delay="-1.00" initialPersons="0" loadedPersons="0" unloadedPersons="0" initialContainers="0" loadedContainers="0" unloadedContainers="0" busStop="rightStop"/>
    <stopinfo id="tram9" type="RB628" lane="TleftLoop_1_0" pos="400.00" parking="0" started="2645.00" ended="2666.00" delay="-1.00" initialPersons="0" loadedPersons="0" unloadedPersons="0" initialContainers="0" loadedContainers="0" unloadedContainers="0" busStop="leftStop"/>
    <stopinfo id="tram1" type="RB628" lane="TleftLoop_1_0" pos="400.00" parking="0" started="2813.00" ended="2834.00" delay="-1.00" initialPersons="0" loadedPersons="0" unloadedPersons="0" initialContainers="0" loadedContainers="0" unloadedContainers="0" busStop="leftStop"/>
    <stopinfo id="tram4" type="RB628" lane="TleftLoop_1_0" pos="400.00" parking="0" started="2907.00" ended="2928.00" delay="-1.00" initialPersons="0" loadedPersons="0" unloadedPersons="0" initialContainers="0" loadedContainers="0" unloadedContainers="0" busStop="leftStop"/>
    <stopinfo id="tram6" type="RB628" lane="TleftLoop_1_0" pos="400.00" parking="0" started="2999.00" ended="3020.00" delay="-1.00" initialPersons="0" loadedPersons="0" unloadedPersons="0" initialContainers="0" loadedContainers="0" unloadedContainers="0" busStop="leftStop"/>
    <stopinfo id="tram2" type="RB628" lane="TleftLoop_1_0" pos="400.00" parking="0" started="3092.00" ended="3113.00" delay="-1.00" initialPersons="0" loadedPersons="0" unloadedPersons="0" initialContainers="0" loadedContainers="0" unloadedContainers="0" busStop="leftStop"/>
</stops>
