<?xml version="1.0" encoding="UTF-8"?>

<!-- generated on 2025-12-19T17:42:42.635601+01:00 by Eclipse SUMO sumo v1_25_0+0642-06e43b453fc
This data file and the accompanying materials
are made available under the terms of the Eclipse Public License v2.0
which accompanies this distribution, and is available at
http://www.eclipse.org/legal/epl-v20.html
This file may also be made available under the following Secondary
Licenses when the conditions for such availability set forth in the Eclipse
Public License 2.0 are satisfied: GNU General Public License, version 2
or later which is available at
https://www.gnu.org/licenses/old-licenses/gpl-2.0-standalone.html
SPDX-License-Identifier: EPL-2.0 OR GPL-2.0-or-later
<sumoConfiguration xmlns:xsi="http://www.w3.org/2001/XMLSchema-instance" xsi:noNamespaceSchemaLocation="http://sumo.dlr.de/xsd/sumoConfiguration.xsd">

    <input>
        <net-file value="net.net.xml"/>
        <route-files value="input_routes.rou.xml"/>
        <additional-files value="input_additional.add.xml,input_additional2.add.xml"/>
    </input>

    <output>
        <write-license value="true"/>
        <tripinfo-output value="tripinfos.xml"/>
        <vehroute-output value="vehroutes.xml"/>
        <railsignal-block-output value="railsignal_blocks.xml"/>
        <stop-output value="stopinfos.xml"/>
    </output>

    <processing>
        <time-to-teleport.railsignal-deadlock value="200"/>
        <default.speeddev value="0"/>
    </processing>

    <routing>
        <device.rerouting.railsignal value="false"/>
    </routing>

    <report>
        <xml-validation value="never"/>
        <duration-log.statistics value="true"/>
        <no-step-log value="true"/>
    </report>

</sumoConfiguration>
-->

<stops xmlns:xsi="http://www.w3.org/2001/XMLSchema-instance" xsi:noNamespaceSchemaLocation="http://sumo.dlr.de/xsd/stopinfo_file.xsd">
    <stopinfo id="tram2" type="RB628" lane="TrightLoop_1_0" pos="400.00" parking="0" started="312.00" ended="332.00" busStop="rightStop" initialPersons="0" loadedPersons="0" unloadedPersons="0" initialContainers="0" loadedContainers="0" unloadedContainers="0" blockedDuration="0.00"/>
    <stopinfo id="tram1" type="RB628" lane="TleftLoop_1_0" pos="400.00" parking="0" started="346.00" ended="366.00" busStop="leftStop" initialPersons="0" loadedPersons="0" unloadedPersons="0" initialContainers="0" loadedContainers="0" unloadedContainers="0" blockedDuration="0.00"/>
    <stopinfo id="tram4" type="RB628" lane="TleftLoop_1_0" pos="400.00" parking="0" started="437.00" ended="457.00" busStop="leftStop" initialPersons="0" loadedPersons="0" unloadedPersons="0" initialContainers="0" loadedContainers="0" unloadedContainers="0" blockedDuration="0.00"/>
    <stopinfo id="tram5" type="RB628" lane="TrightLoop_1_0" pos="400.00" parking="0" started="484.00" ended="504.00" busStop="rightStop" initialPersons="0" loadedPersons="0" unloadedPersons="0" initialContainers="0" loadedContainers="0" unloadedContainers="0" blockedDuration="0.00"/>
    <stopinfo id="tram6" type="RB628" lane="TleftLoop_1_0" pos="400.00" parking="0" started="528.00" ended="548.00" busStop="leftStop" initialPersons="0" loadedPersons="0" unloadedPersons="0" initialContainers="0" loadedContainers="0" unloadedContainers="0" blockedDuration="0.00"/>
    <stopinfo id="tram7" type="RB628" lane="TrightLoop_1_0" pos="400.00" parking="0" started="575.00" ended="595.00" busStop="rightStop" initialPersons="0" loadedPersons="0" unloadedPersons="0" initialContainers="0" loadedContainers="0" unloadedContainers="0" blockedDuration="0.00"/>
    <stopinfo id="tram8" type="RB628" lane="TleftLoop_1_0" pos="400.00" parking="0" started="619.00" ended="639.00" busStop="leftStop" initialPersons="0" loadedPersons="0" unloadedPersons="0" initialContainers="0" loadedContainers="0" unloadedContainers="0" blockedDuration="0.00"/>
    <stopinfo id="tram9" type="RB628" lane="TrightLoop_1_0" pos="400.00" parking="0" started="666.00" ended="686.00" busStop="rightStop" initialPersons="0" loadedPersons="0" unloadedPersons="0" initialContainers="0" loadedContainers="0" unloadedContainers="0" blockedDuration="0.00"/>
    <stopinfo id="tram2" type="RB628" lane="TleftLoop_1_0" pos="400.00" parking="0" started="851.00" ended="871.00" busStop="leftStop" initialPersons="0" loadedPersons="0" unloadedPersons="0" initialContainers="0" loadedContainers="0" unloadedContainers="0" blockedDuration="0.00"/>
    <stopinfo id="tram1" type="RB628" lane="TrightLoop_1_0" pos="400.00" parking="0" started="919.00" ended="939.00" busStop="rightStop" initialPersons="0" loadedPersons="0" unloadedPersons="0" initialContainers="0" loadedContainers="0" unloadedContainers="0" blockedDuration="0.00"/>
    <stopinfo id="tram4" type="RB628" lane="TrightLoop_1_0" pos="400.00" parking="0" started="1010.00" ended="1030.00" busStop="rightStop" initialPersons="0" loadedPersons="0" unloadedPersons="0" initialContainers="0" loadedContainers="0" unloadedContainers="0" blockedDuration="0.00"/>
    <stopinfo id="tram5" type="RB628" lane="TleftLoop_1_0" pos="400.00" parking="0" started="1013.00" ended="1033.00" busStop="leftStop" initialPersons="0" loadedPersons="0" unloadedPersons="0" initialContainers="0" loadedContainers="0" unloadedContainers="0" blockedDuration="0.00"/>
    <stopinfo id="tram6" type="RB628" lane="TrightLoop_1_0" pos="400.00" parking="0" started="1125.00" ended="1145.00" busStop="rightStop" initialPersons="0" loadedPersons="0" unloadedPersons="0" initialContainers="0" loadedContainers="0" unloadedContainers="0" blockedDuration="0.00"/>
    <stopinfo id="tram8" type="RB628" lane="TrightLoop_1_0" pos="400.00" parking="0" started="1281.00" ended="1301.00" busStop="rightStop" initialPersons="0" loadedPersons="0" unloadedPersons="0" initialContainers="0" loadedContainers="0" unloadedContainers="0" blockedDuration="0.00"/>
    <stopinfo id="tram7" type="RB628" lane="TleftLoop_1_0" pos="400.00" parking="0" started="1286.00" ended="1306.00" busStop="leftStop" initialPersons="0" loadedPersons="0" unloadedPersons="0" initialContainers="0" loadedContainers="0" unloadedContainers="0" blockedDuration="0.00"/>
    <stopinfo id="tram2" type="RB628" lane="TrightLoop_1_0" pos="400.00" parking="0" started="1436.00" ended="1456.00" busStop="rightStop" initialPersons="0" loadedPersons="0" unloadedPersons="0" initialContainers="0" loadedContainers="0" unloadedContainers="0" blockedDuration="0.00"/>
    <stopinfo id="tram9" type="RB628" lane="TleftLoop_1_0" pos="400.00" parking="0" started="1454.00" ended="1474.00" busStop="leftStop" initialPersons="0" loadedPersons="0" unloadedPersons="0" initialContainers="0" loadedContainers="0" unloadedContainers="0" blockedDuration="0.00"/>
    <stopinfo id="tram5" type="RB628" lane="TrightLoop_1_0" pos="400.00" parking="0" started="1527.00" ended="1547.00" busStop="rightStop" initialPersons="0" loadedPersons="0" unloadedPersons="0" initialContainers="0" loadedContainers="0" unloadedContainers="0" blockedDuration="0.00"/>
    <stopinfo id="tram1" type="RB628" lane="TleftLoop_1_0" pos="400.00" parking="0" started="1610.00" ended="1630.00" busStop="leftStop" initialPersons="0" loadedPersons="0" unloadedPersons="0" initialContainers="0" loadedContainers="0" unloadedContainers="0" blockedDuration="0.00"/>
    <stopinfo id="tram7" type="RB628" lane="TrightLoop_1_0" pos="400.00" parking="0" started="1748.00" ended="1768.00" busStop="rightStop" initialPersons="0" loadedPersons="0" unloadedPersons="0" initialContainers="0" loadedContainers="0" unloadedContainers="0" blockedDuration="0.00"/>
    <stopinfo id="tram4" type="RB628" lane="TleftLoop_1_0" pos="400.00" parking="0" started="1765.00" ended="1785.00" busStop="leftStop" initialPersons="0" loadedPersons="0" unloadedPersons="0" initialContainers="0" loadedContainers="0" unloadedContainers="0" blockedDuration="0.00"/>
    <stopinfo id="tram6" type="RB628" lane="TleftLoop_1_0" pos="400.00" parking="0" started="1858.00" ended="1878.00" busStop="leftStop" initialPersons="0" loadedPersons="0" unloadedPersons="0" initialContainers="0" loadedContainers="0" unloadedContainers="0" blockedDuration="0.00"/>
    <stopinfo id="tram9" type="RB628" lane="TrightLoop_1_0" pos="400.00" parking="0" started="1916.00" ended="1936.00" busStop="rightStop" initialPersons="0" loadedPersons="0" unloadedPersons="0" initialContainers="0" loadedContainers="0" unloadedContainers="0" blockedDuration="0.00"/>
    <stopinfo id="tram8" type="RB628" lane="TleftLoop_1_0" pos="400.00" parking="0" started="2018.00" ended="2038.00" busStop="leftStop" initialPersons="0" loadedPersons="0" unloadedPersons="0" initialContainers="0" loadedContainers="0" unloadedContainers="0" blockedDuration="0.00"/>
    <stopinfo id="tram1" type="RB628" lane="TrightLoop_1_0" pos="400.00" parking="0" started="2074.00" ended="2094.00" busStop="rightStop" initialPersons="0" loadedPersons="0" unloadedPersons="0" initialContainers="0" loadedContainers="0" unloadedContainers="0" blockedDuration="0.00"/>
    <stopinfo id="tram2" type="RB628" lane="TleftLoop_1_0" pos="400.00" parking="0" started="2186.00" ended="2206.00" busStop="leftStop" initialPersons="0" loadedPersons="0" unloadedPersons="0" initialContainers="0" loadedContainers="0" unloadedContainers="0" blockedDuration="0.00"/>
    <stopinfo id="tram4" type="RB628" lane="TrightLoop_1_0" pos="400.00" parking="0" started="2230.00" ended="2250.00" busStop="rightStop" initialPersons="0" loadedPersons="0" unloadedPersons="0" initialContainers="0" loadedContainers="0" unloadedContainers="0" blockedDuration="0.00"/>
    <stopinfo id="tram5" type="RB628" lane="TleftLoop_1_0" pos="400.00" parking="0" started="2344.00" ended="2364.00" busStop="leftStop" initialPersons="0" loadedPersons="0" unloadedPersons="0" initialContainers="0" loadedContainers="0" unloadedContainers="0" blockedDuration="0.00"/>
    <stopinfo id="tram6" type="RB628" lane="TrightLoop_1_0" pos="400.00" parking="0" started="2406.00" ended="2426.00" busStop="rightStop" initialPersons="0" loadedPersons="0" unloadedPersons="0" initialContainers="0" loadedContainers="0" unloadedContainers="0" blockedDuration="0.00"/>
    <stopinfo id="tram7" type="RB628" lane="TleftLoop_1_0" pos="400.00" parking="0" started="2500.00" ended="2520.00" busStop="leftStop" initialPersons="0" loadedPersons="0" unloadedPersons="0" initialContainers="0" loadedContainers="0" unloadedContainers="0" blockedDuration="0.00"/>
    <stopinfo id="tram2" type="RB628" lane="TrightLoop_1_0" pos="400.00" parking="0" started="2649.00" ended="2669.00" busStop="rightStop" initialPersons="0" loadedPersons="0" unloadedPersons="0" initialContainers="0" loadedContainers="0" unloadedContainers="0" blockedDuration="0.00"/>
    <stopinfo id="tram9" type="RB628" lane="TleftLoop_1_0" pos="400.00" parking="0" started="2668.00" ended="2688.00" busStop="leftStop" initialPersons="0" loadedPersons="0" unloadedPersons="0" initialContainers="0" loadedContainers="0" unloadedContainers="0" blockedDuration="0.00"/>
    <stopinfo id="tram1" type="RB628" lane="TleftLoop_1_0" pos="400.00" parking="0" started="2761.00" ended="2781.00" busStop="leftStop" initialPersons="0" loadedPersons="0" unloadedPersons="0" initialContainers="0" loadedContainers="0" unloadedContainers="0" blockedDuration="0.00"/>
    <stopinfo id="tram4" type="RB628" lane="TleftLoop_1_0" pos="400.00" parking="0" started="2919.00" ended="2939.00" busStop="leftStop" initialPersons="0" loadedPersons="0" unloadedPersons="0" initialContainers="0" loadedContainers="0" unloadedContainers="0" blockedDuration="0.00"/>
    <stopinfo id="tram6" type="RB628" lane="TleftLoop_1_0" pos="400.00" parking="0" started="3012.00" ended="3032.00" busStop="leftStop" initialPersons="0" loadedPersons="0" unloadedPersons="0" initialContainers="0" loadedContainers="0" unloadedContainers="0" blockedDuration="0.00"/>
    <stopinfo id="tram2" type="RB628" lane="TleftLoop_1_0" pos="400.00" parking="0" started="3178.00" ended="3198.00" busStop="leftStop" initialPersons="0" loadedPersons="0" unloadedPersons="0" initialContainers="0" loadedContainers="0" unloadedContainers="0" blockedDuration="0.00"/>
</stops>
