<?xml version="1.0" encoding="UTF-8"?>

<!-- generated on Wed Aug 26 18:10:26 2020 by Eclipse SUMO sumo Version v1_6_0+1774-a7aaaf2373
This data file and the accompanying materials
are made available under the terms of the Eclipse Public License v2.0
which accompanies this distribution, and is available at
http://www.eclipse.org/legal/epl-v20.html
SPDX-License-Identifier: EPL-2.0
<configuration xmlns:xsi="http://www.w3.org/2001/XMLSchema-instance" xsi:noNamespaceSchemaLocation="http://sumo.dlr.de/xsd/sumoConfiguration.xsd">

    <input>
        <net-file value="net.net.xml"/>
        <route-files value="input_routes.rou.xml"/>
        <additional-files value="input_additional.add.xml,input_additional2.add.xml"/>
    </input>

    <output>
        <write-license value="true"/>
        <tripinfo-output value="tripinfos.xml"/>
        <vehroute-output value="vehroutes.xml"/>
        <railsignal-block-output value="railsignal_blocks.xml"/>
        <stop-output value="stopinfos.xml"/>
    </output>

    <processing>
        <default.speeddev value="0"/>
    </processing>

    <routing>
        <device.rerouting.railsignal value="false"/>
    </routing>

    <report>
        <verbose value="true"/>
        <xml-validation value="never"/>
        <xml-validation.routes value="never"/>
        <duration-log.statistics value="true"/>
        <no-step-log value="true"/>
    </report>

</configuration>
-->

<stops xmlns:xsi="http://www.w3.org/2001/XMLSchema-instance" xsi:noNamespaceSchemaLocation="http://sumo.dlr.de/xsd/stopinfo_file.xsd">
    <stopinfo id="tram2" type="RB628" lane="TrightLoop_1_0" pos="400.00" parking="0" started="305.00" ended="325.00" delay="-1.00" initialPersons="0" loadedPersons="0" unloadedPersons="0" initialContainers="0" loadedContainers="0" unloadedContainers="0" busStop="rightStop"/>
    <stopinfo id="tram1" type="RB628" lane="TleftLoop_1_0" pos="400.00" parking="0" started="346.00" ended="366.00" delay="-1.00" initialPersons="0" loadedPersons="0" unloadedPersons="0" initialContainers="0" loadedContainers="0" unloadedContainers="0" busStop="leftStop"/>
    <stopinfo id="tram4" type="RB628" lane="TleftLoop_1_0" pos="400.00" parking="0" started="437.00" ended="457.00" delay="-1.00" initialPersons="0" loadedPersons="0" unloadedPersons="0" initialContainers="0" loadedContainers="0" unloadedContainers="0" busStop="leftStop"/>
    <stopinfo id="tram5" type="RB628" lane="TrightLoop_1_0" pos="400.00" parking="0" started="473.00" ended="493.00" delay="-1.00" initialPersons="0" loadedPersons="0" unloadedPersons="0" initialContainers="0" loadedContainers="0" unloadedContainers="0" busStop="rightStop"/>
    <stopinfo id="tram6" type="RB628" lane="TleftLoop_1_0" pos="400.00" parking="0" started="528.00" ended="548.00" delay="-1.00" initialPersons="0" loadedPersons="0" unloadedPersons="0" initialContainers="0" loadedContainers="0" unloadedContainers="0" busStop="leftStop"/>
    <stopinfo id="tram7" type="RB628" lane="TrightLoop_1_0" pos="400.00" parking="0" started="564.00" ended="584.00" delay="-1.00" initialPersons="0" loadedPersons="0" unloadedPersons="0" initialContainers="0" loadedContainers="0" unloadedContainers="0" busStop="rightStop"/>
    <stopinfo id="tram8" type="RB628" lane="TleftLoop_1_0" pos="400.00" parking="0" started="619.00" ended="639.00" delay="-1.00" initialPersons="0" loadedPersons="0" unloadedPersons="0" initialContainers="0" loadedContainers="0" unloadedContainers="0" busStop="leftStop"/>
    <stopinfo id="tram9" type="RB628" lane="TrightLoop_1_0" pos="400.00" parking="0" started="655.00" ended="675.00" delay="-1.00" initialPersons="0" loadedPersons="0" unloadedPersons="0" initialContainers="0" loadedContainers="0" unloadedContainers="0" busStop="rightStop"/>
    <stopinfo id="tram1" type="RB628" lane="TrightLoop_1_0" pos="400.00" parking="0" started="797.00" ended="817.00" delay="-1.00" initialPersons="0" loadedPersons="0" unloadedPersons="0" initialContainers="0" loadedContainers="0" unloadedContainers="0" busStop="rightStop"/>
    <stopinfo id="tram2" type="RB628" lane="TleftLoop_1_0" pos="400.00" parking="0" started="851.00" ended="871.00" delay="-1.00" initialPersons="0" loadedPersons="0" unloadedPersons="0" initialContainers="0" loadedContainers="0" unloadedContainers="0" busStop="leftStop"/>
    <stopinfo id="tram4" type="RB628" lane="TrightLoop_1_0" pos="400.00" parking="0" started="1021.00" ended="1041.00" delay="-1.00" initialPersons="0" loadedPersons="0" unloadedPersons="0" initialContainers="0" loadedContainers="0" unloadedContainers="0" busStop="rightStop"/>
    <stopinfo id="tram5" type="RB628" lane="TleftLoop_1_0" pos="400.00" parking="0" started="1070.00" ended="1090.00" delay="-1.00" initialPersons="0" loadedPersons="0" unloadedPersons="0" initialContainers="0" loadedContainers="0" unloadedContainers="0" busStop="leftStop"/>
    <stopinfo id="tram6" type="RB628" lane="TrightLoop_1_0" pos="400.00" parking="0" started="1112.00" ended="1132.00" delay="-1.00" initialPersons="0" loadedPersons="0" unloadedPersons="0" initialContainers="0" loadedContainers="0" unloadedContainers="0" busStop="rightStop"/>
    <stopinfo id="tram8" type="RB628" lane="TrightLoop_1_0" pos="400.00" parking="0" started="1266.00" ended="1286.00" delay="-1.00" initialPersons="0" loadedPersons="0" unloadedPersons="0" initialContainers="0" loadedContainers="0" unloadedContainers="0" busStop="rightStop"/>
    <stopinfo id="tram7" type="RB628" lane="TleftLoop_1_0" pos="400.00" parking="0" started="1350.00" ended="1370.00" delay="-1.00" initialPersons="0" loadedPersons="0" unloadedPersons="0" initialContainers="0" loadedContainers="0" unloadedContainers="0" busStop="leftStop"/>
    <stopinfo id="tram2" type="RB628" lane="TrightLoop_1_0" pos="400.00" parking="0" started="1357.00" ended="1377.00" delay="-1.00" initialPersons="0" loadedPersons="0" unloadedPersons="0" initialContainers="0" loadedContainers="0" unloadedContainers="0" busStop="rightStop"/>
    <stopinfo id="tram9" type="RB628" lane="TleftLoop_1_0" pos="400.00" parking="0" started="1443.00" ended="1463.00" delay="-1.00" initialPersons="0" loadedPersons="0" unloadedPersons="0" initialContainers="0" loadedContainers="0" unloadedContainers="0" busStop="leftStop"/>
    <stopinfo id="tram5" type="RB628" lane="TrightLoop_1_0" pos="400.00" parking="0" started="1583.00" ended="1603.00" delay="-1.00" initialPersons="0" loadedPersons="0" unloadedPersons="0" initialContainers="0" loadedContainers="0" unloadedContainers="0" busStop="rightStop"/>
    <stopinfo id="tram1" type="RB628" lane="TleftLoop_1_0" pos="400.00" parking="0" started="1595.00" ended="1615.00" delay="-1.00" initialPersons="0" loadedPersons="0" unloadedPersons="0" initialContainers="0" loadedContainers="0" unloadedContainers="0" busStop="leftStop"/>
    <stopinfo id="tram4" type="RB628" lane="TleftLoop_1_0" pos="400.00" parking="0" started="1688.00" ended="1708.00" delay="-1.00" initialPersons="0" loadedPersons="0" unloadedPersons="0" initialContainers="0" loadedContainers="0" unloadedContainers="0" busStop="leftStop"/>
    <stopinfo id="tram7" type="RB628" lane="TrightLoop_1_0" pos="400.00" parking="0" started="1821.00" ended="1841.00" delay="-1.00" initialPersons="0" loadedPersons="0" unloadedPersons="0" initialContainers="0" loadedContainers="0" unloadedContainers="0" busStop="rightStop"/>
    <stopinfo id="tram6" type="RB628" lane="TleftLoop_1_0" pos="400.00" parking="0" started="1846.00" ended="1866.00" delay="-1.00" initialPersons="0" loadedPersons="0" unloadedPersons="0" initialContainers="0" loadedContainers="0" unloadedContainers="0" busStop="leftStop"/>
    <stopinfo id="tram9" type="RB628" lane="TrightLoop_1_0" pos="400.00" parking="0" started="1912.00" ended="1932.00" delay="-1.00" initialPersons="0" loadedPersons="0" unloadedPersons="0" initialContainers="0" loadedContainers="0" unloadedContainers="0" busStop="rightStop"/>
    <stopinfo id="tram8" type="RB628" lane="TleftLoop_1_0" pos="400.00" parking="0" started="1939.00" ended="1959.00" delay="-1.00" initialPersons="0" loadedPersons="0" unloadedPersons="0" initialContainers="0" loadedContainers="0" unloadedContainers="0" busStop="leftStop"/>
    <stopinfo id="tram1" type="RB628" lane="TrightLoop_1_0" pos="400.00" parking="0" started="2049.00" ended="2069.00" delay="-1.00" initialPersons="0" loadedPersons="0" unloadedPersons="0" initialContainers="0" loadedContainers="0" unloadedContainers="0" busStop="rightStop"/>
    <stopinfo id="tram2" type="RB628" lane="TleftLoop_1_0" pos="400.00" parking="0" started="2167.00" ended="2187.00" delay="-1.00" initialPersons="0" loadedPersons="0" unloadedPersons="0" initialContainers="0" loadedContainers="0" unloadedContainers="0" busStop="leftStop"/>
    <stopinfo id="tram4" type="RB628" lane="TrightLoop_1_0" pos="400.00" parking="0" started="2241.00" ended="2261.00" delay="-1.00" initialPersons="0" loadedPersons="0" unloadedPersons="0" initialContainers="0" loadedContainers="0" unloadedContainers="0" busStop="rightStop"/>
    <stopinfo id="tram5" type="RB628" lane="TleftLoop_1_0" pos="400.00" parking="0" started="2321.00" ended="2341.00" delay="-1.00" initialPersons="0" loadedPersons="0" unloadedPersons="0" initialContainers="0" loadedContainers="0" unloadedContainers="0" busStop="leftStop"/>
    <stopinfo id="tram6" type="RB628" lane="TrightLoop_1_0" pos="400.00" parking="0" started="2332.00" ended="2352.00" delay="-1.00" initialPersons="0" loadedPersons="0" unloadedPersons="0" initialContainers="0" loadedContainers="0" unloadedContainers="0" busStop="rightStop"/>
    <stopinfo id="tram7" type="RB628" lane="TleftLoop_1_0" pos="400.00" parking="0" started="2570.00" ended="2590.00" delay="-1.00" initialPersons="0" loadedPersons="0" unloadedPersons="0" initialContainers="0" loadedContainers="0" unloadedContainers="0" busStop="leftStop"/>
    <stopinfo id="tram2" type="RB628" lane="TrightLoop_1_0" pos="400.00" parking="0" started="2636.00" ended="2656.00" delay="-1.00" initialPersons="0" loadedPersons="0" unloadedPersons="0" initialContainers="0" loadedContainers="0" unloadedContainers="0" busStop="rightStop"/>
    <stopinfo id="tram9" type="RB628" lane="TleftLoop_1_0" pos="400.00" parking="0" started="2663.00" ended="2683.00" delay="-1.00" initialPersons="0" loadedPersons="0" unloadedPersons="0" initialContainers="0" loadedContainers="0" unloadedContainers="0" busStop="leftStop"/>
    <stopinfo id="tram1" type="RB628" lane="TleftLoop_1_0" pos="400.00" parking="0" started="2755.00" ended="2775.00" delay="-1.00" initialPersons="0" loadedPersons="0" unloadedPersons="0" initialContainers="0" loadedContainers="0" unloadedContainers="0" busStop="leftStop"/>
    <stopinfo id="tram4" type="RB628" lane="TleftLoop_1_0" pos="400.00" parking="0" started="2905.00" ended="2925.00" delay="-1.00" initialPersons="0" loadedPersons="0" unloadedPersons="0" initialContainers="0" loadedContainers="0" unloadedContainers="0" busStop="leftStop"/>
    <stopinfo id="tram6" type="RB628" lane="TleftLoop_1_0" pos="400.00" parking="0" started="2998.00" ended="3018.00" delay="-1.00" initialPersons="0" loadedPersons="0" unloadedPersons="0" initialContainers="0" loadedContainers="0" unloadedContainers="0" busStop="leftStop"/>
    <stopinfo id="tram2" type="RB628" lane="TleftLoop_1_0" pos="400.00" parking="0" started="3165.00" ended="3185.00" delay="-1.00" initialPersons="0" loadedPersons="0" unloadedPersons="0" initialContainers="0" loadedContainers="0" unloadedContainers="0" busStop="leftStop"/>
</stops>
