<?xml version="1.0" encoding="UTF-8"?>

<!-- generated on Wed Sep  2 13:21:20 2020 by Eclipse SUMO sumo Version v1_6_0+1918-ddac060898
This data file and the accompanying materials
are made available under the terms of the Eclipse Public License v2.0
which accompanies this distribution, and is available at
http://www.eclipse.org/legal/epl-v20.html
SPDX-License-Identifier: EPL-2.0
<configuration xmlns:xsi="http://www.w3.org/2001/XMLSchema-instance" xsi:noNamespaceSchemaLocation="http://sumo.dlr.de/xsd/sumoConfiguration.xsd">

    <input>
        <net-file value="net.net.xml"/>
        <route-files value="input_routes.rou.xml"/>
        <additional-files value="input_additional.add.xml,input_additional2.add.xml"/>
    </input>

    <output>
        <write-license value="true"/>
        <tripinfo-output value="tripinfos.xml"/>
        <vehroute-output value="vehroutes.xml"/>
        <railsignal-block-output value="railsignal_blocks.xml"/>
        <stop-output value="stopinfos.xml"/>
    </output>

    <processing>
        <default.speeddev value="0"/>
    </processing>

    <routing>
        <device.rerouting.railsignal value="false"/>
    </routing>

    <report>
        <verbose value="true"/>
        <xml-validation value="never"/>
        <xml-validation.routes value="never"/>
        <duration-log.statistics value="true"/>
        <no-step-log value="true"/>
    </report>

</configuration>
-->

<tripinfos xmlns:xsi="http://www.w3.org/2001/XMLSchema-instance" xsi:noNamespaceSchemaLocation="http://sumo.dlr.de/xsd/tripinfo_file.xsd">
    <tripinfo id="tram3" depart="10.00" departLane="TrightLoop_1_0" departPos="46.10" departSpeed="21.21" departDelay="0.00" arrival="695.00" arrivalLane="TleftLoop_1_0" arrivalPos="400.00" arrivalSpeed="16.02" duration="685.00" routeLength="10318.12" waitingTime="34.00" waitingCount="3" stopTime="0.00" timeLoss="374.24" rerouteNo="1" devices="vehroute_tram3 tripinfo_tram3 routing_tram3" vType="RB628" speedFactor="1.00" vaporized=""/>
    <tripinfo id="tram8" depart="210.00" departLane="Tdepot_1_0" departPos="46.10" departSpeed="9.56" departDelay="0.00" arrival="2219.00" arrivalLane="Tdepot_1_0" arrivalPos="150.00" arrivalSpeed="7.35" duration="2009.00" routeLength="31030.79" waitingTime="192.00" waitingCount="7" stopTime="60.00" timeLoss="1009.38" rerouteNo="1" devices="vehroute_tram8 tripinfo_tram8 routing_tram8" vType="RB628" speedFactor="1.00" vaporized=""/>
    <tripinfo id="tram5" depart="100.00" departLane="Tdepot_1_0" departPos="46.10" departSpeed="12.38" departDelay="0.00" arrival="2605.00" arrivalLane="Tdepot_1_0" arrivalPos="150.00" arrivalSpeed="7.35" duration="2505.00" routeLength="40292.86" waitingTime="242.00" waitingCount="5" stopTime="80.00" timeLoss="1199.42" rerouteNo="1" devices="vehroute_tram5 tripinfo_tram5 routing_tram5" vType="RB628" speedFactor="1.00" vaporized=""/>
    <tripinfo id="tram7" depart="200.00" departLane="Tdepot_1_0" departPos="46.10" departSpeed="12.38" departDelay="0.00" arrival="2759.00" arrivalLane="Tdepot_1_0" arrivalPos="150.00" arrivalSpeed="7.35" duration="2559.00" routeLength="40292.86" waitingTime="302.00" waitingCount="4" stopTime="80.00" timeLoss="1253.51" rerouteNo="1" devices="vehroute_tram7 tripinfo_tram7 routing_tram7" vType="RB628" speedFactor="1.00" vaporized=""/>
    <tripinfo id="tram9" depart="300.00" departLane="Tdepot_1_0" departPos="46.10" departSpeed="12.38" departDelay="0.00" arrival="2926.00" arrivalLane="Tdepot_1_0" arrivalPos="150.00" arrivalSpeed="7.35" duration="2626.00" routeLength="40292.86" waitingTime="287.00" waitingCount="6" stopTime="80.00" timeLoss="1320.30" rerouteNo="1" devices="vehroute_tram9 tripinfo_tram9 routing_tram9" vType="RB628" speedFactor="1.00" vaporized=""/>
    <tripinfo id="tram1" depart="1.00" departLane="Tdepot_1_0" departPos="46.10" departSpeed="12.45" departDelay="0.00" arrival="3025.00" arrivalLane="Tdepot_1_0" arrivalPos="150.00" arrivalSpeed="6.81" duration="3024.00" routeLength="50970.45" waitingTime="169.00" waitingCount="7" stopTime="100.00" timeLoss="1389.87" rerouteNo="1" devices="vehroute_tram1 tripinfo_tram1 routing_tram1" vType="RB628" speedFactor="1.00" vaporized=""/>
    <tripinfo id="tram4" depart="13.00" departLane="Tdepot_1_0" departPos="46.10" departSpeed="5.58" departDelay="2.00" arrival="3185.00" arrivalLane="Tdepot_1_0" arrivalPos="150.00" arrivalSpeed="7.35" duration="3172.00" routeLength="50970.45" waitingTime="281.00" waitingCount="8" stopTime="100.00" timeLoss="1535.38" rerouteNo="1" devices="vehroute_tram4 tripinfo_tram4 routing_tram4" vType="RB628" speedFactor="1.00" vaporized=""/>
    <tripinfo id="tram6" depart="110.00" departLane="Tdepot_1_0" departPos="46.10" departSpeed="9.56" departDelay="0.00" arrival="3284.00" arrivalLane="Tdepot_1_0" arrivalPos="150.00" arrivalSpeed="6.81" duration="3174.00" routeLength="50970.45" waitingTime="174.00" waitingCount="8" stopTime="100.00" timeLoss="1537.30" rerouteNo="1" devices="vehroute_tram6 tripinfo_tram6 routing_tram6" vType="RB628" speedFactor="1.00" vaporized=""/>
    <tripinfo id="tram2" depart="6.00" departLane="Tdepot_1_0" departPos="46.10" departSpeed="9.63" departDelay="4.00" arrival="3452.00" arrivalLane="Tdepot_1_0" arrivalPos="150.00" arrivalSpeed="7.35" duration="3446.00" routeLength="60232.52" waitingTime="170.00" waitingCount="4" stopTime="120.00" timeLoss="1500.88" rerouteNo="1" devices="vehroute_tram2 tripinfo_tram2 routing_tram2" vType="RB628" speedFactor="1.00" vaporized=""/>
</tripinfos>
