<?xml version="1.0" encoding="UTF-8"?>

<!-- generated on 01/21/15 16:33:35 by SUMO Version dev-SVN-r17640
<?xml version="1.0" encoding="UTF-8"?>

<configuration xmlns:xsi="http://www.w3.org/2001/XMLSchema-instance" xsi:noNamespaceSchemaLocation="http://sumo.dlr.de/xsd/sumoConfiguration.xsd">

    <input>
        <net-file value="three_split.net.xml"/>
        <route-files value="input_routes.rou.xml"/>
        <additional-files value="input_additional.add.xml"/>
    </input>

    <output>
        <vehroute-output value="vehroutes.xml"/>
    </output>

    <time>
        <begin value="0"/>
    </time>

    <processing>
        <ignore-route-errors value="true"/>
    </processing>

    <report>
        <xml-validation value="never"/>
        <no-duration-log value="true"/>
        <no-step-log value="true"/>
    </report>

    <random_number>
        <seed value="42"/>
    </random_number>

</configuration>
-->

<routes xmlns:xsi="http://www.w3.org/2001/XMLSchema-instance" xsi:noNamespaceSchemaLocation="http://sumo.dlr.de/xsd/routes_file.xsd">
    <vehicle id="flow_maybe_detour.0" depart="0.00" arrival="400.00">
        <route edges="beg middle end rend"/>
    </vehicle>

    <vehicle id="flow_maybe_detour.1" depart="10.00" arrival="703.00">
        <route edges="beg middle end rend"/>
    </vehicle>

    <vehicle id="flow_maybe_detour.2" depart="20.00" arrival="1006.00">
        <route edges="beg middle end rend"/>
    </vehicle>

    <vehicle id="flow_maybe_detour.3" depart="30.00" arrival="1040.00">
        <route edges="beg middle end rend"/>
    </vehicle>

    <vehicle id="flow_maybe_detour.4" depart="40.00" arrival="1042.00">
        <route edges="beg middle end rend"/>
    </vehicle>

    <vehicle id="flow_maybe_detour.5" depart="50.00" arrival="1043.00">
        <route edges="beg middle end rend"/>
    </vehicle>

    <vehicle id="flow_maybe_detour.6" depart="60.00" arrival="1044.00">
        <route edges="beg middle end rend"/>
    </vehicle>

    <vehicle id="flow_maybe_detour.7" depart="70.00" arrival="1045.00">
        <route edges="beg middle end rend"/>
    </vehicle>

    <vehicle id="flow_maybe_detour.8" depart="80.00" arrival="1046.00">
        <route edges="beg middle end rend"/>
    </vehicle>

    <vehicle id="flow_maybe_detour.9" depart="90.00" arrival="1047.00">
        <route edges="beg middle end rend"/>
    </vehicle>

    <vehicle id="flow_maybe_detour.10" depart="100.00" arrival="1049.00">
        <route edges="beg middle end rend"/>
    </vehicle>

    <vehicle id="flow_maybe_detour.11" depart="110.00" arrival="1050.00">
        <route edges="beg middle end rend"/>
    </vehicle>

    <vehicle id="flow_maybe_detour.12" depart="120.00" arrival="1051.00">
        <route edges="beg middle end rend"/>
    </vehicle>

    <vehicle id="flow_maybe_detour.13" depart="130.00" arrival="1052.00">
        <route edges="beg middle end rend"/>
    </vehicle>

    <vehicle id="flow_maybe_detour.14" depart="140.00" arrival="1053.00">
        <route edges="beg middle end rend"/>
    </vehicle>

    <vehicle id="flow_maybe_detour.15" depart="150.00" arrival="1054.00">
        <route edges="beg middle end rend"/>
    </vehicle>

    <vehicle id="flow_maybe_detour.16" depart="160.00" arrival="1056.00">
        <route edges="beg middle end rend"/>
    </vehicle>

    <vehicle id="flow_maybe_detour.17" depart="170.00" arrival="1057.00">
        <route edges="beg middle end rend"/>
    </vehicle>

    <vehicle id="flow_maybe_detour.18" depart="180.00" arrival="1058.00">
        <route edges="beg middle end rend"/>
    </vehicle>

    <vehicle id="flow_maybe_detour.19" depart="190.00" arrival="1059.00">
        <route edges="beg middle end rend"/>
    </vehicle>

</routes>
