<?xml version="1.0" encoding="UTF-8"?>

<!-- generated on 2024-05-02 14:13:39 by Eclipse SUMO sumo Version v1_19_0+2039-4ad79ae706e
<configuration xmlns:xsi="http://www.w3.org/2001/XMLSchema-instance" xsi:noNamespaceSchemaLocation="http://sumo.dlr.de/xsd/sumoConfiguration.xsd">

    <input>
        <net-file value="input_net4.net.xml"/>
        <route-files value="input_routes.rou.xml"/>
        <additional-files value="input_additional4.add.xml,input_additional.add.xml"/>
    </input>

    <output>
        <vehroute-output value="vehroutes.xml"/>
    </output>

    <processing>
        <time-to-teleport value="0"/>
    </processing>

    <routing>
        <device.rerouting.mode value="8"/>
    </routing>

    <report>
        <no-step-log value="true"/>
    </report>

    <traci_server>
        <remote-port value="33355"/>
    </traci_server>

</configuration>
-->

<routes xmlns:xsi="http://www.w3.org/2001/XMLSchema-instance" xsi:noNamespaceSchemaLocation="http://sumo.dlr.de/xsd/routes_file.xsd">
</routes>
