<?xml version="1.0" encoding="UTF-8"?>

<!-- generated on 2022-11-30 16:21:02 by Eclipse SUMO sumo Version v1_15_0+0679-5ca98c3
This data file and the accompanying materials
are made available under the terms of the Eclipse Public License v2.0
which accompanies this distribution, and is available at
http://www.eclipse.org/legal/epl-v20.html
This file may also be made available under the following Secondary
Licenses when the conditions for such availability set forth in the Eclipse
Public License 2.0 are satisfied: GNU General Public License, version 2
or later which is available at
https://www.gnu.org/licenses/old-licenses/gpl-2.0-standalone.html
SPDX-License-Identifier: EPL-2.0 OR GPL-2.0-or-later
<configuration xmlns:xsi="http://www.w3.org/2001/XMLSchema-instance" xsi:noNamespaceSchemaLocation="http://sumo.dlr.de/xsd/sumoConfiguration.xsd">

    <input>
        <net-file value="net.net.xml"/>
        <route-files value="input_routes.rou.xml"/>
    </input>

    <output>
        <write-license value="true"/>
        <tripinfo-output value="tripinfos.xml"/>
        <railsignal-block-output value="railsignal_blocks.xml"/>
    </output>

    <processing>
        <default.speeddev value="0"/>
    </processing>

    <routing>
        <device.rerouting.period value="10"/>
        <device.rerouting.adaptation-steps value="10"/>
    </routing>

    <report>
        <xml-validation value="never"/>
        <duration-log.disable value="true"/>
        <no-step-log value="true"/>
    </report>

</configuration>
-->

<tripinfos xmlns:xsi="http://www.w3.org/2001/XMLSchema-instance" xsi:noNamespaceSchemaLocation="http://sumo.dlr.de/xsd/tripinfo_file.xsd">
    <tripinfo id="rail1" depart="10.00" departLane="T7_0_0" departPos="135.10" departSpeed="44.44" departDelay="0.00" arrival="131.00" arrivalLane="T18_0_0" arrivalPos="408.12" arrivalSpeed="44.44" duration="121.00" routeLength="4612.18" waitingTime="0.00" waitingCount="0" stopTime="0.00" timeLoss="16.81" rerouteNo="2" devices="tripinfo_rail1 routing_rail1" vType="rail_rail" speedFactor="1.00" vaporized=""/>
    <tripinfo id="rail2" depart="20.00" departLane="T18_1_0" departPos="135.10" departSpeed="26.00" departDelay="0.00" arrival="253.00" arrivalLane="T7_1_0" arrivalPos="404.79" arrivalSpeed="40.25" duration="233.00" routeLength="4604.79" waitingTime="15.00" waitingCount="1" stopTime="0.00" timeLoss="128.91" rerouteNo="1" devices="tripinfo_rail2 routing_rail2" vType="rail_rail" speedFactor="1.00" vaporized=""/>
    <tripinfo id="rail3" depart="42.00" departLane="T7_0_0" departPos="135.10" departSpeed="25.83" departDelay="0.00" arrival="356.00" arrivalLane="T18_0_0" arrivalPos="408.12" arrivalSpeed="39.25" duration="314.00" routeLength="4564.90" waitingTime="71.00" waitingCount="1" stopTime="0.00" timeLoss="211.25" rerouteNo="2" devices="tripinfo_rail3 routing_rail3" vType="rail_rail" speedFactor="1.00" vaporized=""/>
    <tripinfo id="rail4" depart="300.00" departLane="T7_0_0" departPos="135.10" departSpeed="44.44" departDelay="0.00" arrival="404.00" arrivalLane="T18_0_0" arrivalPos="408.12" arrivalSpeed="44.44" duration="104.00" routeLength="4612.18" waitingTime="0.00" waitingCount="0" stopTime="0.00" timeLoss="0.00" rerouteNo="2" devices="tripinfo_rail4 routing_rail4" vType="rail_rail" speedFactor="1.00" vaporized=""/>
    <tripinfo id="rail5" depart="350.00" departLane="T7_0_0" departPos="135.10" departSpeed="44.44" departDelay="0.00" arrival="453.00" arrivalLane="T18_0_0" arrivalPos="408.12" arrivalSpeed="44.44" duration="103.00" routeLength="4564.90" waitingTime="0.00" waitingCount="0" stopTime="0.00" timeLoss="0.00" rerouteNo="1" devices="tripinfo_rail5 routing_rail5" vType="rail_rail" speedFactor="1.00" vaporized=""/>
    <tripinfo id="rail6" depart="400.00" departLane="T7_0_0" departPos="135.10" departSpeed="44.44" departDelay="0.00" arrival="503.00" arrivalLane="T18_0_0" arrivalPos="408.12" arrivalSpeed="44.44" duration="103.00" routeLength="4564.90" waitingTime="0.00" waitingCount="0" stopTime="0.00" timeLoss="0.00" rerouteNo="1" devices="tripinfo_rail6 routing_rail6" vType="rail_rail" speedFactor="1.00" vaporized=""/>
</tripinfos>
