<?xml version="1.0" encoding="UTF-8"?>

<!-- generated on Thu Jan 26 09:25:06 2017 by SUMO Version dev-SVN-r22703
<?xml version="1.0" encoding="UTF-8"?>

<configuration xmlns:xsi="http://www.w3.org/2001/XMLSchema-instance" xsi:noNamespaceSchemaLocation="http://sumo.dlr.de/xsd/sumoConfiguration.xsd">

    <input>
        <net-file value="net.net.xml"/>
        <route-files value="input_routes.rou.xml"/>
    </input>

    <output>
        <tripinfo-output value="tripinfos.xml"/>
    </output>

    <report>
        <xml-validation value="never"/>
        <duration-log.disable value="true"/>
        <no-step-log value="true"/>
    </report>

</configuration>
-->

<tripinfos xmlns:xsi="http://www.w3.org/2001/XMLSchema-instance" xsi:noNamespaceSchemaLocation="http://sumo.dlr.de/xsd/tripinfo_file.xsd">
    <tripinfo id="SN.0" depart="1.00" departLane="SC_0" departPos="5.10" departSpeed="13.89" departDelay="0.00" arrival="16.00" arrivalLane="CN_0" arrivalPos="95.25" arrivalSpeed="13.89" duration="15.00" routeLength="194.90" waitSteps="0" timeLoss="0.00" rerouteNo="0" devices="tripinfo_SN.0 routing_SN.0" vType="DEFAULT_VEHTYPE" speedFactor="1.00" vaporized=""/>
    <tripinfo id="SN.1" depart="2.00" departLane="SC_0" departPos="5.10" departSpeed="11.52" departDelay="0.00" arrival="17.00" arrivalLane="CN_0" arrivalPos="95.25" arrivalSpeed="13.89" duration="15.00" routeLength="194.90" waitSteps="0" timeLoss="0.53" rerouteNo="0" devices="tripinfo_SN.1 routing_SN.1" vType="DEFAULT_VEHTYPE" speedFactor="1.00" vaporized=""/>
    <tripinfo id="SN.2" depart="5.00" departLane="SC_0" departPos="5.10" departSpeed="13.89" departDelay="0.00" arrival="20.00" arrivalLane="CN_0" arrivalPos="95.25" arrivalSpeed="13.89" duration="15.00" routeLength="194.90" waitSteps="0" timeLoss="0.00" rerouteNo="0" devices="tripinfo_SN.2 routing_SN.2" vType="DEFAULT_VEHTYPE" speedFactor="1.00" vaporized=""/>
    <tripinfo id="EN.0" depart="3.00" departLane="EC_0" departPos="5.10" departSpeed="13.89" departDelay="0.00" arrival="23.00" arrivalLane="CN_0" arrivalPos="95.25" arrivalSpeed="13.89" duration="20.00" routeLength="190.40" waitSteps="2" timeLoss="5.71" rerouteNo="0" devices="tripinfo_EN.0 routing_EN.0" vType="DEFAULT_VEHTYPE" speedFactor="1.00" vaporized=""/>
    <tripinfo id="SN.3" depart="10.00" departLane="SC_0" departPos="5.10" departSpeed="13.89" departDelay="0.00" arrival="25.00" arrivalLane="CN_0" arrivalPos="95.25" arrivalSpeed="13.89" duration="15.00" routeLength="194.90" waitSteps="0" timeLoss="0.23" rerouteNo="0" devices="tripinfo_SN.3 routing_SN.3" vType="DEFAULT_VEHTYPE" speedFactor="1.00" vaporized=""/>
    <tripinfo id="EN.1" depart="4.00" departLane="EC_0" departPos="5.10" departSpeed="11.52" departDelay="0.00" arrival="28.00" arrivalLane="CN_0" arrivalPos="95.25" arrivalSpeed="13.89" duration="24.00" routeLength="190.40" waitSteps="3" timeLoss="9.70" rerouteNo="0" devices="tripinfo_EN.1 routing_EN.1" vType="DEFAULT_VEHTYPE" speedFactor="1.00" vaporized=""/>
    <tripinfo id="SN.4" depart="15.00" departLane="SC_0" departPos="5.10" departSpeed="13.89" departDelay="0.00" arrival="30.00" arrivalLane="CN_0" arrivalPos="95.25" arrivalSpeed="13.89" duration="15.00" routeLength="194.90" waitSteps="0" timeLoss="0.23" rerouteNo="0" devices="tripinfo_SN.4 routing_SN.4" vType="DEFAULT_VEHTYPE" speedFactor="1.00" vaporized=""/>
    <tripinfo id="EN.2" depart="7.00" departLane="EC_0" departPos="5.10" departSpeed="13.89" departDelay="0.00" arrival="33.00" arrivalLane="CN_0" arrivalPos="95.25" arrivalSpeed="13.89" duration="26.00" routeLength="190.40" waitSteps="3" timeLoss="11.70" rerouteNo="0" devices="tripinfo_EN.2 routing_EN.2" vType="DEFAULT_VEHTYPE" speedFactor="1.00" vaporized=""/>
    <tripinfo id="SN.5" depart="21.00" departLane="SC_0" departPos="5.10" departSpeed="13.89" departDelay="0.00" arrival="36.00" arrivalLane="CN_0" arrivalPos="95.25" arrivalSpeed="13.89" duration="15.00" routeLength="194.90" waitSteps="0" timeLoss="0.00" rerouteNo="0" devices="tripinfo_SN.5 routing_SN.5" vType="DEFAULT_VEHTYPE" speedFactor="1.00" vaporized=""/>
    <tripinfo id="SN.6" depart="24.00" departLane="SC_0" departPos="5.10" departSpeed="13.89" departDelay="0.00" arrival="39.00" arrivalLane="CN_0" arrivalPos="95.25" arrivalSpeed="13.89" duration="15.00" routeLength="194.90" waitSteps="0" timeLoss="0.46" rerouteNo="0" devices="tripinfo_SN.6 routing_SN.6" vType="DEFAULT_VEHTYPE" speedFactor="1.00" vaporized=""/>
    <tripinfo id="EN.3" depart="8.00" departLane="EC_0" departPos="5.10" departSpeed="11.52" departDelay="0.00" arrival="42.00" arrivalLane="CN_0" arrivalPos="95.25" arrivalSpeed="13.89" duration="34.00" routeLength="190.40" waitSteps="8" timeLoss="19.70" rerouteNo="0" devices="tripinfo_EN.3 routing_EN.3" vType="DEFAULT_VEHTYPE" speedFactor="1.00" vaporized=""/>
    <tripinfo id="EN.4" depart="12.00" departLane="EC_0" departPos="5.10" departSpeed="13.89" departDelay="0.00" arrival="47.00" arrivalLane="CN_0" arrivalPos="95.25" arrivalSpeed="13.89" duration="35.00" routeLength="190.40" waitSteps="8" timeLoss="20.69" rerouteNo="0" devices="tripinfo_EN.4 routing_EN.4" vType="DEFAULT_VEHTYPE" speedFactor="1.00" vaporized=""/>
    <tripinfo id="EN.5" depart="13.00" departLane="EC_0" departPos="5.10" departSpeed="11.52" departDelay="0.00" arrival="52.00" arrivalLane="CN_0" arrivalPos="95.25" arrivalSpeed="13.89" duration="39.00" routeLength="190.40" waitSteps="9" timeLoss="24.68" rerouteNo="0" devices="tripinfo_EN.5 routing_EN.5" vType="DEFAULT_VEHTYPE" speedFactor="1.00" vaporized=""/>
    <tripinfo id="EN.6" depart="21.00" departLane="EC_0" departPos="5.10" departSpeed="13.89" departDelay="0.00" arrival="53.00" arrivalLane="CN_0" arrivalPos="95.25" arrivalSpeed="13.89" duration="32.00" routeLength="190.40" waitSteps="7" timeLoss="18.23" rerouteNo="0" devices="tripinfo_EN.6 routing_EN.6" vType="DEFAULT_VEHTYPE" speedFactor="1.00" vaporized=""/>
    <tripinfo id="EN.7" depart="22.00" departLane="EC_0" departPos="5.10" departSpeed="11.52" departDelay="0.00" arrival="55.00" arrivalLane="CN_0" arrivalPos="95.25" arrivalSpeed="13.89" duration="33.00" routeLength="190.40" waitSteps="7" timeLoss="18.77" rerouteNo="0" devices="tripinfo_EN.7 routing_EN.7" vType="DEFAULT_VEHTYPE" speedFactor="1.00" vaporized=""/>
    <tripinfo id="EN.8" depart="23.00" departLane="EC_0" departPos="5.10" departSpeed="9.02" departDelay="0.00" arrival="57.00" arrivalLane="CN_0" arrivalPos="95.25" arrivalSpeed="13.89" duration="34.00" routeLength="190.40" waitSteps="7" timeLoss="19.32" rerouteNo="0" devices="tripinfo_EN.8 routing_EN.8" vType="DEFAULT_VEHTYPE" speedFactor="1.00" vaporized=""/>
    <tripinfo id="WE.0" depart="46.00" departLane="WC_0" departPos="5.10" departSpeed="13.89" departDelay="0.00" arrival="61.00" arrivalLane="CE_0" arrivalPos="95.25" arrivalSpeed="13.89" duration="15.00" routeLength="194.90" waitSteps="0" timeLoss="0.00" rerouteNo="0" devices="tripinfo_WE.0 routing_WE.0" vType="DEFAULT_VEHTYPE" speedFactor="1.00" vaporized=""/>
    <tripinfo id="SE.0" depart="45.00" departLane="SC_0" departPos="5.10" departSpeed="13.89" departDelay="0.00" arrival="64.00" arrivalLane="CE_0" arrivalPos="95.25" arrivalSpeed="13.89" duration="19.00" routeLength="190.40" waitSteps="1" timeLoss="4.71" rerouteNo="0" devices="tripinfo_SE.0 routing_SE.0" vType="DEFAULT_VEHTYPE" speedFactor="1.00" vaporized=""/>
    <tripinfo id="SE.1" depart="46.00" departLane="SC_0" departPos="5.10" departSpeed="11.52" departDelay="0.00" arrival="69.00" arrivalLane="CE_0" arrivalPos="95.25" arrivalSpeed="13.89" duration="23.00" routeLength="190.40" waitSteps="2" timeLoss="8.70" rerouteNo="0" devices="tripinfo_SE.1 routing_SE.1" vType="DEFAULT_VEHTYPE" speedFactor="1.00" vaporized=""/>
    <tripinfo id="WE.1" depart="59.00" departLane="WC_0" departPos="5.10" departSpeed="13.89" departDelay="0.00" arrival="74.00" arrivalLane="CE_0" arrivalPos="95.25" arrivalSpeed="13.89" duration="15.00" routeLength="194.90" waitSteps="0" timeLoss="0.00" rerouteNo="0" devices="tripinfo_WE.1 routing_WE.1" vType="DEFAULT_VEHTYPE" speedFactor="1.00" vaporized=""/>
    <tripinfo id="WE.2" depart="61.00" departLane="WC_0" departPos="5.10" departSpeed="13.89" departDelay="0.00" arrival="76.00" arrivalLane="CE_0" arrivalPos="95.25" arrivalSpeed="13.89" duration="15.00" routeLength="194.90" waitSteps="0" timeLoss="0.00" rerouteNo="0" devices="tripinfo_WE.2 routing_WE.2" vType="DEFAULT_VEHTYPE" speedFactor="1.00" vaporized=""/>
    <tripinfo id="SE.2" depart="49.00" departLane="SC_0" departPos="5.10" departSpeed="13.89" departDelay="0.00" arrival="79.00" arrivalLane="CE_0" arrivalPos="95.25" arrivalSpeed="13.89" duration="30.00" routeLength="190.40" waitSteps="7" timeLoss="15.70" rerouteNo="0" devices="tripinfo_SE.2 routing_SE.2" vType="DEFAULT_VEHTYPE" speedFactor="1.00" vaporized=""/>
    <tripinfo id="WE.3" depart="67.00" departLane="WC_0" departPos="5.10" departSpeed="13.89" departDelay="0.00" arrival="82.00" arrivalLane="CE_0" arrivalPos="95.25" arrivalSpeed="13.89" duration="15.00" routeLength="194.90" waitSteps="0" timeLoss="0.00" rerouteNo="0" devices="tripinfo_WE.3 routing_WE.3" vType="DEFAULT_VEHTYPE" speedFactor="1.00" vaporized=""/>
    <tripinfo id="SE.3" depart="55.00" departLane="SC_0" departPos="5.10" departSpeed="13.89" departDelay="0.00" arrival="85.00" arrivalLane="CE_0" arrivalPos="95.25" arrivalSpeed="13.89" duration="30.00" routeLength="190.40" waitSteps="8" timeLoss="15.70" rerouteNo="0" devices="tripinfo_SE.3 routing_SE.3" vType="DEFAULT_VEHTYPE" speedFactor="1.00" vaporized=""/>
    <tripinfo id="SE.4" depart="58.00" departLane="SC_0" departPos="5.10" departSpeed="13.89" departDelay="0.00" arrival="90.00" arrivalLane="CE_0" arrivalPos="95.25" arrivalSpeed="13.89" duration="32.00" routeLength="190.40" waitSteps="9" timeLoss="17.69" rerouteNo="0" devices="tripinfo_SE.4 routing_SE.4" vType="DEFAULT_VEHTYPE" speedFactor="1.00" vaporized=""/>
    <tripinfo id="SE.5" depart="60.00" departLane="SC_0" departPos="5.10" departSpeed="13.89" departDelay="0.00" arrival="95.00" arrivalLane="CE_0" arrivalPos="95.25" arrivalSpeed="13.89" duration="35.00" routeLength="190.40" waitSteps="9" timeLoss="20.70" rerouteNo="0" devices="tripinfo_SE.5 routing_SE.5" vType="DEFAULT_VEHTYPE" speedFactor="1.00" vaporized=""/>
    <tripinfo id="SE.6" depart="65.00" departLane="SC_0" departPos="5.10" departSpeed="13.89" departDelay="0.00" arrival="99.00" arrivalLane="CE_0" arrivalPos="95.25" arrivalSpeed="13.89" duration="34.00" routeLength="190.40" waitSteps="6" timeLoss="19.62" rerouteNo="0" devices="tripinfo_SE.6 routing_SE.6" vType="DEFAULT_VEHTYPE" speedFactor="1.00" vaporized=""/>
</tripinfos>
