<?xml version="1.0" encoding="UTF-8"?>

<!-- generated on Tue Mar  3 08:39:35 2020 by Eclipse SUMO Version v1_5_0+0337-8d59749
This data file and the accompanying materials
are made available under the terms of the Eclipse Public License v2.0
which accompanies this distribution, and is available at
http://www.eclipse.org/legal/epl-v20.html
SPDX-License-Identifier: EPL-2.0
<configuration xmlns:xsi="http://www.w3.org/2001/XMLSchema-instance" xsi:noNamespaceSchemaLocation="http://sumo.dlr.de/xsd/sumoConfiguration.xsd">

    <input>
        <net-file value="net.net.xml"/>
        <route-files value="input_routes.rou.xml"/>
    </input>

    <output>
        <write-license value="true"/>
        <emission-output value="rawdump.xml"/>
    </output>

    <processing>
        <default.speeddev value="0"/>
        <pedestrian.model value="nonInteracting"/>
    </processing>

    <report>
        <xml-validation value="never"/>
        <duration-log.disable value="true"/>
        <no-step-log value="true"/>
    </report>

    <emissions>
        <device.emissions.probability value="1"/>
    </emissions>

    <mesoscopic>
        <mesosim value="true"/>
    </mesoscopic>

</configuration>
-->

<emission-export xmlns:xsi="http://www.w3.org/2001/XMLSchema-instance" xsi:noNamespaceSchemaLocation="http://sumo.dlr.de/xsd/emission_file.xsd">
    <timestep time="0.00">
        <vehicle id="PHEMlight_PC_D_EU4" eclass="HBEFA3/PC_D_EU4" CO2="6146.52" CO="0.22" HC="0.27" NOx="33.00" PMx="0.00" fuel="2.31" electricity="0.00" noise="77.02" route="route0" type="PC_D_EU4" waiting="0.00" edge="e" pos="0.00" speed="37.00" angle="90.00" x="0.00" y="-1.60"/>
    </timestep>
    <timestep time="1.00">
        <vehicle id="PHEMlight_PC_D_EU4" eclass="HBEFA3/PC_D_EU4" CO2="6146.52" CO="0.22" HC="0.27" NOx="33.00" PMx="0.00" fuel="2.31" electricity="0.00" noise="77.02" route="route0" type="PC_D_EU4" waiting="0.00" edge="e" pos="0.00" speed="37.00" angle="90.00" x="0.00" y="-1.60"/>
    </timestep>
    <timestep time="2.00">
        <vehicle id="PHEMlight_PC_D_EU4" eclass="HBEFA3/PC_D_EU4" CO2="6146.52" CO="0.22" HC="0.27" NOx="33.00" PMx="0.00" fuel="2.31" electricity="0.00" noise="77.02" route="route0" type="PC_D_EU4" waiting="0.00" edge="e" pos="0.00" speed="37.00" angle="90.00" x="0.00" y="-1.60"/>
    </timestep>
    <timestep time="3.00">
        <vehicle id="PHEMlight_PC_D_EU4" eclass="HBEFA3/PC_D_EU4" CO2="6146.52" CO="0.22" HC="0.27" NOx="33.00" PMx="0.00" fuel="2.31" electricity="0.00" noise="77.02" route="route0" type="PC_D_EU4" waiting="0.00" edge="e" pos="100.00" speed="37.00" angle="90.00" x="100.00" y="-1.60"/>
    </timestep>
    <timestep time="4.00">
        <vehicle id="PHEMlight_PC_D_EU4" eclass="HBEFA3/PC_D_EU4" CO2="6146.52" CO="0.22" HC="0.27" NOx="33.00" PMx="0.00" fuel="2.31" electricity="0.00" noise="77.02" route="route0" type="PC_D_EU4" waiting="0.00" edge="e" pos="100.00" speed="37.00" angle="90.00" x="100.00" y="-1.60"/>
    </timestep>
    <timestep time="5.00">
        <vehicle id="PHEMlight_PC_D_EU4" eclass="HBEFA3/PC_D_EU4" CO2="6146.52" CO="0.22" HC="0.27" NOx="33.00" PMx="0.00" fuel="2.31" electricity="0.00" noise="77.02" route="route0" type="PC_D_EU4" waiting="0.00" edge="e" pos="100.00" speed="37.00" angle="90.00" x="100.00" y="-1.60"/>
    </timestep>
    <timestep time="6.00">
        <vehicle id="PHEMlight_PC_D_EU4" eclass="HBEFA3/PC_D_EU4" CO2="6146.52" CO="0.22" HC="0.27" NOx="33.00" PMx="0.00" fuel="2.31" electricity="0.00" noise="77.02" route="route0" type="PC_D_EU4" waiting="0.00" edge="e" pos="200.00" speed="37.00" angle="90.00" x="200.00" y="-1.60"/>
    </timestep>
    <timestep time="7.00">
        <vehicle id="PHEMlight_PC_D_EU4" eclass="HBEFA3/PC_D_EU4" CO2="6146.52" CO="0.22" HC="0.27" NOx="33.00" PMx="0.00" fuel="2.31" electricity="0.00" noise="77.02" route="route0" type="PC_D_EU4" waiting="0.00" edge="e" pos="200.00" speed="37.00" angle="90.00" x="200.00" y="-1.60"/>
    </timestep>
    <timestep time="8.00">
        <vehicle id="PHEMlight_PC_D_EU4" eclass="HBEFA3/PC_D_EU4" CO2="6146.52" CO="0.22" HC="0.27" NOx="33.00" PMx="0.00" fuel="2.31" electricity="0.00" noise="77.02" route="route0" type="PC_D_EU4" waiting="0.00" edge="e" pos="200.00" speed="37.00" angle="90.00" x="200.00" y="-1.60"/>
    </timestep>
    <timestep time="9.00">
        <vehicle id="PHEMlight_PC_D_EU4" eclass="HBEFA3/PC_D_EU4" CO2="6146.52" CO="0.22" HC="0.27" NOx="33.00" PMx="0.00" fuel="2.31" electricity="0.00" noise="77.02" route="route0" type="PC_D_EU4" waiting="0.00" edge="e" pos="300.00" speed="37.00" angle="90.00" x="300.00" y="-1.60"/>
    </timestep>
    <timestep time="10.00">
        <vehicle id="PHEMlight_PC_D_EU4" eclass="HBEFA3/PC_D_EU4" CO2="6146.52" CO="0.22" HC="0.27" NOx="33.00" PMx="0.00" fuel="2.31" electricity="0.00" noise="77.02" route="route0" type="PC_D_EU4" waiting="0.00" edge="e" pos="300.00" speed="37.00" angle="90.00" x="300.00" y="-1.60"/>
    </timestep>
    <timestep time="11.00">
        <vehicle id="PHEMlight_PC_D_EU4" eclass="HBEFA3/PC_D_EU4" CO2="6146.52" CO="0.22" HC="0.27" NOx="33.00" PMx="0.00" fuel="2.31" electricity="0.00" noise="77.02" route="route0" type="PC_D_EU4" waiting="0.00" edge="e" pos="400.00" speed="37.00" angle="90.00" x="400.00" y="-1.60"/>
    </timestep>
    <timestep time="12.00">
        <vehicle id="PHEMlight_PC_D_EU4" eclass="HBEFA3/PC_D_EU4" CO2="6146.52" CO="0.22" HC="0.27" NOx="33.00" PMx="0.00" fuel="2.31" electricity="0.00" noise="77.02" route="route0" type="PC_D_EU4" waiting="0.00" edge="e" pos="400.00" speed="37.00" angle="90.00" x="400.00" y="-1.60"/>
    </timestep>
    <timestep time="13.00">
        <vehicle id="PHEMlight_PC_D_EU4" eclass="HBEFA3/PC_D_EU4" CO2="6146.52" CO="0.22" HC="0.27" NOx="33.00" PMx="0.00" fuel="2.31" electricity="0.00" noise="77.02" route="route0" type="PC_D_EU4" waiting="0.00" edge="e" pos="400.00" speed="37.00" angle="90.00" x="400.00" y="-1.60"/>
    </timestep>
    <timestep time="14.00">
        <vehicle id="PHEMlight_PC_D_EU4" eclass="HBEFA3/PC_D_EU4" CO2="6146.52" CO="0.22" HC="0.27" NOx="33.00" PMx="0.00" fuel="2.31" electricity="0.00" noise="77.02" route="route0" type="PC_D_EU4" waiting="0.00" edge="e" pos="500.00" speed="37.00" angle="90.00" x="500.00" y="-1.60"/>
    </timestep>
    <timestep time="15.00">
        <vehicle id="PHEMlight_PC_D_EU4" eclass="HBEFA3/PC_D_EU4" CO2="6146.52" CO="0.22" HC="0.27" NOx="33.00" PMx="0.00" fuel="2.31" electricity="0.00" noise="77.02" route="route0" type="PC_D_EU4" waiting="0.00" edge="e" pos="500.00" speed="37.00" angle="90.00" x="500.00" y="-1.60"/>
    </timestep>
    <timestep time="16.00">
        <vehicle id="PHEMlight_PC_D_EU4" eclass="HBEFA3/PC_D_EU4" CO2="6146.52" CO="0.22" HC="0.27" NOx="33.00" PMx="0.00" fuel="2.31" electricity="0.00" noise="77.02" route="route0" type="PC_D_EU4" waiting="0.00" edge="e" pos="500.00" speed="37.00" angle="90.00" x="500.00" y="-1.60"/>
    </timestep>
    <timestep time="17.00"/>
    <timestep time="18.00"/>
    <timestep time="19.00"/>
    <timestep time="20.00"/>
    <timestep time="21.00"/>
    <timestep time="22.00"/>
    <timestep time="23.00"/>
    <timestep time="24.00"/>
    <timestep time="25.00"/>
    <timestep time="26.00"/>
    <timestep time="27.00"/>
    <timestep time="28.00"/>
    <timestep time="29.00"/>
    <timestep time="30.00"/>
    <timestep time="31.00"/>
    <timestep time="32.00"/>
    <timestep time="33.00"/>
    <timestep time="34.00"/>
    <timestep time="35.00"/>
    <timestep time="36.00"/>
    <timestep time="37.00"/>
    <timestep time="38.00"/>
    <timestep time="39.00"/>
    <timestep time="40.00"/>
    <timestep time="41.00"/>
    <timestep time="42.00"/>
    <timestep time="43.00"/>
    <timestep time="44.00"/>
    <timestep time="45.00"/>
    <timestep time="46.00"/>
    <timestep time="47.00"/>
    <timestep time="48.00"/>
    <timestep time="49.00"/>
    <timestep time="50.00"/>
    <timestep time="51.00"/>
    <timestep time="52.00"/>
    <timestep time="53.00"/>
    <timestep time="54.00"/>
    <timestep time="55.00"/>
    <timestep time="56.00"/>
    <timestep time="57.00"/>
    <timestep time="58.00"/>
    <timestep time="59.00"/>
    <timestep time="60.00"/>
    <timestep time="61.00"/>
    <timestep time="62.00"/>
    <timestep time="63.00"/>
    <timestep time="64.00"/>
    <timestep time="65.00"/>
    <timestep time="66.00"/>
    <timestep time="67.00"/>
    <timestep time="68.00"/>
    <timestep time="69.00"/>
    <timestep time="70.00"/>
    <timestep time="71.00"/>
    <timestep time="72.00"/>
    <timestep time="73.00"/>
    <timestep time="74.00"/>
    <timestep time="75.00"/>
    <timestep time="76.00"/>
    <timestep time="77.00"/>
    <timestep time="78.00"/>
    <timestep time="79.00"/>
    <timestep time="80.00"/>
    <timestep time="81.00"/>
    <timestep time="82.00"/>
    <timestep time="83.00"/>
    <timestep time="84.00"/>
    <timestep time="85.00"/>
    <timestep time="86.00"/>
    <timestep time="87.00"/>
    <timestep time="88.00"/>
    <timestep time="89.00"/>
    <timestep time="90.00"/>
    <timestep time="91.00"/>
    <timestep time="92.00"/>
    <timestep time="93.00"/>
    <timestep time="94.00"/>
    <timestep time="95.00"/>
    <timestep time="96.00"/>
    <timestep time="97.00"/>
    <timestep time="98.00"/>
    <timestep time="99.00"/>
    <timestep time="100.00">
        <vehicle id="PHEMlight_PC_G_EU4" eclass="HBEFA3/PC_G_EU4" CO2="8568.79" CO="205.10" HC="1.16" NOx="3.12" PMx="0.24" fuel="3.68" electricity="0.00" noise="77.02" route="route0" type="PC_G_EU4" waiting="0.00" edge="e" pos="0.00" speed="37.00" angle="90.00" x="0.00" y="-1.60"/>
    </timestep>
    <timestep time="101.00">
        <vehicle id="PHEMlight_PC_G_EU4" eclass="HBEFA3/PC_G_EU4" CO2="8568.79" CO="205.10" HC="1.16" NOx="3.12" PMx="0.24" fuel="3.68" electricity="0.00" noise="77.02" route="route0" type="PC_G_EU4" waiting="0.00" edge="e" pos="0.00" speed="37.00" angle="90.00" x="0.00" y="-1.60"/>
    </timestep>
    <timestep time="102.00">
        <vehicle id="PHEMlight_PC_G_EU4" eclass="HBEFA3/PC_G_EU4" CO2="8568.79" CO="205.10" HC="1.16" NOx="3.12" PMx="0.24" fuel="3.68" electricity="0.00" noise="77.02" route="route0" type="PC_G_EU4" waiting="0.00" edge="e" pos="0.00" speed="37.00" angle="90.00" x="0.00" y="-1.60"/>
    </timestep>
    <timestep time="103.00">
        <vehicle id="PHEMlight_PC_G_EU4" eclass="HBEFA3/PC_G_EU4" CO2="8568.79" CO="205.10" HC="1.16" NOx="3.12" PMx="0.24" fuel="3.68" electricity="0.00" noise="77.02" route="route0" type="PC_G_EU4" waiting="0.00" edge="e" pos="100.00" speed="37.00" angle="90.00" x="100.00" y="-1.60"/>
    </timestep>
    <timestep time="104.00">
        <vehicle id="PHEMlight_PC_G_EU4" eclass="HBEFA3/PC_G_EU4" CO2="8568.79" CO="205.10" HC="1.16" NOx="3.12" PMx="0.24" fuel="3.68" electricity="0.00" noise="77.02" route="route0" type="PC_G_EU4" waiting="0.00" edge="e" pos="100.00" speed="37.00" angle="90.00" x="100.00" y="-1.60"/>
    </timestep>
    <timestep time="105.00">
        <vehicle id="PHEMlight_PC_G_EU4" eclass="HBEFA3/PC_G_EU4" CO2="8568.79" CO="205.10" HC="1.16" NOx="3.12" PMx="0.24" fuel="3.68" electricity="0.00" noise="77.02" route="route0" type="PC_G_EU4" waiting="0.00" edge="e" pos="100.00" speed="37.00" angle="90.00" x="100.00" y="-1.60"/>
    </timestep>
    <timestep time="106.00">
        <vehicle id="PHEMlight_PC_G_EU4" eclass="HBEFA3/PC_G_EU4" CO2="8568.79" CO="205.10" HC="1.16" NOx="3.12" PMx="0.24" fuel="3.68" electricity="0.00" noise="77.02" route="route0" type="PC_G_EU4" waiting="0.00" edge="e" pos="200.00" speed="37.00" angle="90.00" x="200.00" y="-1.60"/>
    </timestep>
    <timestep time="107.00">
        <vehicle id="PHEMlight_PC_G_EU4" eclass="HBEFA3/PC_G_EU4" CO2="8568.79" CO="205.10" HC="1.16" NOx="3.12" PMx="0.24" fuel="3.68" electricity="0.00" noise="77.02" route="route0" type="PC_G_EU4" waiting="0.00" edge="e" pos="200.00" speed="37.00" angle="90.00" x="200.00" y="-1.60"/>
    </timestep>
    <timestep time="108.00">
        <vehicle id="PHEMlight_PC_G_EU4" eclass="HBEFA3/PC_G_EU4" CO2="8568.79" CO="205.10" HC="1.16" NOx="3.12" PMx="0.24" fuel="3.68" electricity="0.00" noise="77.02" route="route0" type="PC_G_EU4" waiting="0.00" edge="e" pos="200.00" speed="37.00" angle="90.00" x="200.00" y="-1.60"/>
    </timestep>
    <timestep time="109.00">
        <vehicle id="PHEMlight_PC_G_EU4" eclass="HBEFA3/PC_G_EU4" CO2="8568.79" CO="205.10" HC="1.16" NOx="3.12" PMx="0.24" fuel="3.68" electricity="0.00" noise="77.02" route="route0" type="PC_G_EU4" waiting="0.00" edge="e" pos="300.00" speed="37.00" angle="90.00" x="300.00" y="-1.60"/>
    </timestep>
    <timestep time="110.00">
        <vehicle id="PHEMlight_PC_G_EU4" eclass="HBEFA3/PC_G_EU4" CO2="8568.79" CO="205.10" HC="1.16" NOx="3.12" PMx="0.24" fuel="3.68" electricity="0.00" noise="77.02" route="route0" type="PC_G_EU4" waiting="0.00" edge="e" pos="300.00" speed="37.00" angle="90.00" x="300.00" y="-1.60"/>
    </timestep>
    <timestep time="111.00">
        <vehicle id="PHEMlight_PC_G_EU4" eclass="HBEFA3/PC_G_EU4" CO2="8568.79" CO="205.10" HC="1.16" NOx="3.12" PMx="0.24" fuel="3.68" electricity="0.00" noise="77.02" route="route0" type="PC_G_EU4" waiting="0.00" edge="e" pos="400.00" speed="37.00" angle="90.00" x="400.00" y="-1.60"/>
    </timestep>
    <timestep time="112.00">
        <vehicle id="PHEMlight_PC_G_EU4" eclass="HBEFA3/PC_G_EU4" CO2="8568.79" CO="205.10" HC="1.16" NOx="3.12" PMx="0.24" fuel="3.68" electricity="0.00" noise="77.02" route="route0" type="PC_G_EU4" waiting="0.00" edge="e" pos="400.00" speed="37.00" angle="90.00" x="400.00" y="-1.60"/>
    </timestep>
    <timestep time="113.00">
        <vehicle id="PHEMlight_PC_G_EU4" eclass="HBEFA3/PC_G_EU4" CO2="8568.79" CO="205.10" HC="1.16" NOx="3.12" PMx="0.24" fuel="3.68" electricity="0.00" noise="77.02" route="route0" type="PC_G_EU4" waiting="0.00" edge="e" pos="400.00" speed="37.00" angle="90.00" x="400.00" y="-1.60"/>
    </timestep>
    <timestep time="114.00">
        <vehicle id="PHEMlight_PC_G_EU4" eclass="HBEFA3/PC_G_EU4" CO2="8568.79" CO="205.10" HC="1.16" NOx="3.12" PMx="0.24" fuel="3.68" electricity="0.00" noise="77.02" route="route0" type="PC_G_EU4" waiting="0.00" edge="e" pos="500.00" speed="37.00" angle="90.00" x="500.00" y="-1.60"/>
    </timestep>
    <timestep time="115.00">
        <vehicle id="PHEMlight_PC_G_EU4" eclass="HBEFA3/PC_G_EU4" CO2="8568.79" CO="205.10" HC="1.16" NOx="3.12" PMx="0.24" fuel="3.68" electricity="0.00" noise="77.02" route="route0" type="PC_G_EU4" waiting="0.00" edge="e" pos="500.00" speed="37.00" angle="90.00" x="500.00" y="-1.60"/>
    </timestep>
    <timestep time="116.00">
        <vehicle id="PHEMlight_PC_G_EU4" eclass="HBEFA3/PC_G_EU4" CO2="8568.79" CO="205.10" HC="1.16" NOx="3.12" PMx="0.24" fuel="3.68" electricity="0.00" noise="77.02" route="route0" type="PC_G_EU4" waiting="0.00" edge="e" pos="500.00" speed="37.00" angle="90.00" x="500.00" y="-1.60"/>
    </timestep>
    <timestep time="117.00"/>
    <timestep time="118.00"/>
    <timestep time="119.00"/>
    <timestep time="120.00"/>
    <timestep time="121.00"/>
    <timestep time="122.00"/>
    <timestep time="123.00"/>
    <timestep time="124.00"/>
    <timestep time="125.00"/>
    <timestep time="126.00"/>
    <timestep time="127.00"/>
    <timestep time="128.00"/>
    <timestep time="129.00"/>
    <timestep time="130.00"/>
    <timestep time="131.00"/>
    <timestep time="132.00"/>
    <timestep time="133.00"/>
    <timestep time="134.00"/>
    <timestep time="135.00"/>
    <timestep time="136.00"/>
    <timestep time="137.00"/>
    <timestep time="138.00"/>
    <timestep time="139.00"/>
    <timestep time="140.00"/>
    <timestep time="141.00"/>
    <timestep time="142.00"/>
    <timestep time="143.00"/>
    <timestep time="144.00"/>
    <timestep time="145.00"/>
    <timestep time="146.00"/>
    <timestep time="147.00"/>
    <timestep time="148.00"/>
    <timestep time="149.00"/>
    <timestep time="150.00"/>
    <timestep time="151.00"/>
    <timestep time="152.00"/>
    <timestep time="153.00"/>
    <timestep time="154.00"/>
    <timestep time="155.00"/>
    <timestep time="156.00"/>
    <timestep time="157.00"/>
    <timestep time="158.00"/>
    <timestep time="159.00"/>
    <timestep time="160.00"/>
    <timestep time="161.00"/>
    <timestep time="162.00"/>
    <timestep time="163.00"/>
    <timestep time="164.00"/>
    <timestep time="165.00"/>
    <timestep time="166.00"/>
    <timestep time="167.00"/>
    <timestep time="168.00"/>
    <timestep time="169.00"/>
    <timestep time="170.00"/>
    <timestep time="171.00"/>
    <timestep time="172.00"/>
    <timestep time="173.00"/>
    <timestep time="174.00"/>
    <timestep time="175.00"/>
    <timestep time="176.00"/>
    <timestep time="177.00"/>
    <timestep time="178.00"/>
    <timestep time="179.00"/>
    <timestep time="180.00"/>
    <timestep time="181.00"/>
    <timestep time="182.00"/>
    <timestep time="183.00"/>
    <timestep time="184.00"/>
    <timestep time="185.00"/>
    <timestep time="186.00"/>
    <timestep time="187.00"/>
    <timestep time="188.00"/>
    <timestep time="189.00"/>
    <timestep time="190.00"/>
    <timestep time="191.00"/>
    <timestep time="192.00"/>
    <timestep time="193.00"/>
    <timestep time="194.00"/>
    <timestep time="195.00"/>
    <timestep time="196.00"/>
    <timestep time="197.00"/>
    <timestep time="198.00"/>
    <timestep time="199.00"/>
    <timestep time="200.00">
        <vehicle id="LDV" eclass="HBEFA3/LDV" CO2="9213.17" CO="556.56" HC="22.50" NOx="0.00" PMx="2.32" fuel="3.93" electricity="0.00" noise="77.02" route="route0" type="LDV" waiting="0.00" edge="e" pos="0.00" speed="37.00" angle="90.00" x="0.00" y="-1.60"/>
    </timestep>
    <timestep time="201.00">
        <vehicle id="LDV" eclass="HBEFA3/LDV" CO2="9213.17" CO="556.56" HC="22.50" NOx="0.00" PMx="2.32" fuel="3.93" electricity="0.00" noise="77.02" route="route0" type="LDV" waiting="0.00" edge="e" pos="0.00" speed="37.00" angle="90.00" x="0.00" y="-1.60"/>
    </timestep>
    <timestep time="202.00">
        <vehicle id="LDV" eclass="HBEFA3/LDV" CO2="9213.17" CO="556.56" HC="22.50" NOx="0.00" PMx="2.32" fuel="3.93" electricity="0.00" noise="77.02" route="route0" type="LDV" waiting="0.00" edge="e" pos="0.00" speed="37.00" angle="90.00" x="0.00" y="-1.60"/>
    </timestep>
    <timestep time="203.00">
        <vehicle id="LDV" eclass="HBEFA3/LDV" CO2="9213.17" CO="556.56" HC="22.50" NOx="0.00" PMx="2.32" fuel="3.93" electricity="0.00" noise="77.02" route="route0" type="LDV" waiting="0.00" edge="e" pos="100.00" speed="37.00" angle="90.00" x="100.00" y="-1.60"/>
    </timestep>
    <timestep time="204.00">
        <vehicle id="LDV" eclass="HBEFA3/LDV" CO2="9213.17" CO="556.56" HC="22.50" NOx="0.00" PMx="2.32" fuel="3.93" electricity="0.00" noise="77.02" route="route0" type="LDV" waiting="0.00" edge="e" pos="100.00" speed="37.00" angle="90.00" x="100.00" y="-1.60"/>
    </timestep>
    <timestep time="205.00">
        <vehicle id="LDV" eclass="HBEFA3/LDV" CO2="9213.17" CO="556.56" HC="22.50" NOx="0.00" PMx="2.32" fuel="3.93" electricity="0.00" noise="77.02" route="route0" type="LDV" waiting="0.00" edge="e" pos="100.00" speed="37.00" angle="90.00" x="100.00" y="-1.60"/>
    </timestep>
    <timestep time="206.00">
        <vehicle id="LDV" eclass="HBEFA3/LDV" CO2="9213.17" CO="556.56" HC="22.50" NOx="0.00" PMx="2.32" fuel="3.93" electricity="0.00" noise="77.02" route="route0" type="LDV" waiting="0.00" edge="e" pos="200.00" speed="37.00" angle="90.00" x="200.00" y="-1.60"/>
    </timestep>
    <timestep time="207.00">
        <vehicle id="LDV" eclass="HBEFA3/LDV" CO2="9213.17" CO="556.56" HC="22.50" NOx="0.00" PMx="2.32" fuel="3.93" electricity="0.00" noise="77.02" route="route0" type="LDV" waiting="0.00" edge="e" pos="200.00" speed="37.00" angle="90.00" x="200.00" y="-1.60"/>
    </timestep>
    <timestep time="208.00">
        <vehicle id="LDV" eclass="HBEFA3/LDV" CO2="9213.17" CO="556.56" HC="22.50" NOx="0.00" PMx="2.32" fuel="3.93" electricity="0.00" noise="77.02" route="route0" type="LDV" waiting="0.00" edge="e" pos="200.00" speed="37.00" angle="90.00" x="200.00" y="-1.60"/>
    </timestep>
    <timestep time="209.00">
        <vehicle id="LDV" eclass="HBEFA3/LDV" CO2="9213.17" CO="556.56" HC="22.50" NOx="0.00" PMx="2.32" fuel="3.93" electricity="0.00" noise="77.02" route="route0" type="LDV" waiting="0.00" edge="e" pos="300.00" speed="37.00" angle="90.00" x="300.00" y="-1.60"/>
    </timestep>
    <timestep time="210.00">
        <vehicle id="LDV" eclass="HBEFA3/LDV" CO2="9213.17" CO="556.56" HC="22.50" NOx="0.00" PMx="2.32" fuel="3.93" electricity="0.00" noise="77.02" route="route0" type="LDV" waiting="0.00" edge="e" pos="300.00" speed="37.00" angle="90.00" x="300.00" y="-1.60"/>
    </timestep>
    <timestep time="211.00">
        <vehicle id="LDV" eclass="HBEFA3/LDV" CO2="9213.17" CO="556.56" HC="22.50" NOx="0.00" PMx="2.32" fuel="3.93" electricity="0.00" noise="77.02" route="route0" type="LDV" waiting="0.00" edge="e" pos="400.00" speed="37.00" angle="90.00" x="400.00" y="-1.60"/>
    </timestep>
    <timestep time="212.00">
        <vehicle id="LDV" eclass="HBEFA3/LDV" CO2="9213.17" CO="556.56" HC="22.50" NOx="0.00" PMx="2.32" fuel="3.93" electricity="0.00" noise="77.02" route="route0" type="LDV" waiting="0.00" edge="e" pos="400.00" speed="37.00" angle="90.00" x="400.00" y="-1.60"/>
    </timestep>
    <timestep time="213.00">
        <vehicle id="LDV" eclass="HBEFA3/LDV" CO2="9213.17" CO="556.56" HC="22.50" NOx="0.00" PMx="2.32" fuel="3.93" electricity="0.00" noise="77.02" route="route0" type="LDV" waiting="0.00" edge="e" pos="400.00" speed="37.00" angle="90.00" x="400.00" y="-1.60"/>
    </timestep>
    <timestep time="214.00">
        <vehicle id="LDV" eclass="HBEFA3/LDV" CO2="9213.17" CO="556.56" HC="22.50" NOx="0.00" PMx="2.32" fuel="3.93" electricity="0.00" noise="77.02" route="route0" type="LDV" waiting="0.00" edge="e" pos="500.00" speed="37.00" angle="90.00" x="500.00" y="-1.60"/>
    </timestep>
    <timestep time="215.00">
        <vehicle id="LDV" eclass="HBEFA3/LDV" CO2="9213.17" CO="556.56" HC="22.50" NOx="0.00" PMx="2.32" fuel="3.93" electricity="0.00" noise="77.02" route="route0" type="LDV" waiting="0.00" edge="e" pos="500.00" speed="37.00" angle="90.00" x="500.00" y="-1.60"/>
    </timestep>
    <timestep time="216.00">
        <vehicle id="LDV" eclass="HBEFA3/LDV" CO2="9213.17" CO="556.56" HC="22.50" NOx="0.00" PMx="2.32" fuel="3.93" electricity="0.00" noise="77.02" route="route0" type="LDV" waiting="0.00" edge="e" pos="500.00" speed="37.00" angle="90.00" x="500.00" y="-1.60"/>
    </timestep>
    <timestep time="217.00"/>
    <timestep time="218.00"/>
    <timestep time="219.00"/>
    <timestep time="220.00"/>
    <timestep time="221.00"/>
    <timestep time="222.00"/>
    <timestep time="223.00"/>
    <timestep time="224.00"/>
    <timestep time="225.00"/>
    <timestep time="226.00"/>
    <timestep time="227.00"/>
    <timestep time="228.00"/>
    <timestep time="229.00"/>
    <timestep time="230.00"/>
    <timestep time="231.00"/>
    <timestep time="232.00"/>
    <timestep time="233.00"/>
    <timestep time="234.00"/>
    <timestep time="235.00"/>
    <timestep time="236.00"/>
    <timestep time="237.00"/>
    <timestep time="238.00"/>
    <timestep time="239.00"/>
    <timestep time="240.00"/>
    <timestep time="241.00"/>
    <timestep time="242.00"/>
    <timestep time="243.00"/>
    <timestep time="244.00"/>
    <timestep time="245.00"/>
    <timestep time="246.00"/>
    <timestep time="247.00"/>
    <timestep time="248.00"/>
    <timestep time="249.00"/>
    <timestep time="250.00"/>
    <timestep time="251.00"/>
    <timestep time="252.00"/>
    <timestep time="253.00"/>
    <timestep time="254.00"/>
    <timestep time="255.00"/>
    <timestep time="256.00"/>
    <timestep time="257.00"/>
    <timestep time="258.00"/>
    <timestep time="259.00"/>
    <timestep time="260.00"/>
    <timestep time="261.00"/>
    <timestep time="262.00"/>
    <timestep time="263.00"/>
    <timestep time="264.00"/>
    <timestep time="265.00"/>
    <timestep time="266.00"/>
    <timestep time="267.00"/>
    <timestep time="268.00"/>
    <timestep time="269.00"/>
    <timestep time="270.00"/>
    <timestep time="271.00"/>
    <timestep time="272.00"/>
    <timestep time="273.00"/>
    <timestep time="274.00"/>
    <timestep time="275.00"/>
    <timestep time="276.00"/>
    <timestep time="277.00"/>
    <timestep time="278.00"/>
    <timestep time="279.00"/>
    <timestep time="280.00"/>
    <timestep time="281.00"/>
    <timestep time="282.00"/>
    <timestep time="283.00"/>
    <timestep time="284.00"/>
    <timestep time="285.00"/>
    <timestep time="286.00"/>
    <timestep time="287.00"/>
    <timestep time="288.00"/>
    <timestep time="289.00"/>
    <timestep time="290.00"/>
    <timestep time="291.00"/>
    <timestep time="292.00"/>
    <timestep time="293.00"/>
    <timestep time="294.00"/>
    <timestep time="295.00"/>
    <timestep time="296.00"/>
    <timestep time="297.00"/>
    <timestep time="298.00"/>
    <timestep time="299.00"/>
    <timestep time="300.00">
        <vehicle id="LDV_G_EU0" eclass="HBEFA3/LDV_G_EU0" CO2="9595.56" CO="1662.84" HC="42.15" NOx="0.00" PMx="1.76" fuel="4.13" electricity="0.00" noise="77.02" route="route0" type="LDV_G_EU0" waiting="0.00" edge="e" pos="0.00" speed="37.00" angle="90.00" x="0.00" y="-1.60"/>
    </timestep>
    <timestep time="301.00">
        <vehicle id="LDV_G_EU0" eclass="HBEFA3/LDV_G_EU0" CO2="9595.56" CO="1662.84" HC="42.15" NOx="0.00" PMx="1.76" fuel="4.13" electricity="0.00" noise="77.02" route="route0" type="LDV_G_EU0" waiting="0.00" edge="e" pos="0.00" speed="37.00" angle="90.00" x="0.00" y="-1.60"/>
    </timestep>
    <timestep time="302.00">
        <vehicle id="LDV_G_EU0" eclass="HBEFA3/LDV_G_EU0" CO2="9595.56" CO="1662.84" HC="42.15" NOx="0.00" PMx="1.76" fuel="4.13" electricity="0.00" noise="77.02" route="route0" type="LDV_G_EU0" waiting="0.00" edge="e" pos="0.00" speed="37.00" angle="90.00" x="0.00" y="-1.60"/>
    </timestep>
    <timestep time="303.00">
        <vehicle id="LDV_G_EU0" eclass="HBEFA3/LDV_G_EU0" CO2="9595.56" CO="1662.84" HC="42.15" NOx="0.00" PMx="1.76" fuel="4.13" electricity="0.00" noise="77.02" route="route0" type="LDV_G_EU0" waiting="0.00" edge="e" pos="100.00" speed="37.00" angle="90.00" x="100.00" y="-1.60"/>
    </timestep>
    <timestep time="304.00">
        <vehicle id="LDV_G_EU0" eclass="HBEFA3/LDV_G_EU0" CO2="9595.56" CO="1662.84" HC="42.15" NOx="0.00" PMx="1.76" fuel="4.13" electricity="0.00" noise="77.02" route="route0" type="LDV_G_EU0" waiting="0.00" edge="e" pos="100.00" speed="37.00" angle="90.00" x="100.00" y="-1.60"/>
    </timestep>
    <timestep time="305.00">
        <vehicle id="LDV_G_EU0" eclass="HBEFA3/LDV_G_EU0" CO2="9595.56" CO="1662.84" HC="42.15" NOx="0.00" PMx="1.76" fuel="4.13" electricity="0.00" noise="77.02" route="route0" type="LDV_G_EU0" waiting="0.00" edge="e" pos="100.00" speed="37.00" angle="90.00" x="100.00" y="-1.60"/>
    </timestep>
    <timestep time="306.00">
        <vehicle id="LDV_G_EU0" eclass="HBEFA3/LDV_G_EU0" CO2="9595.56" CO="1662.84" HC="42.15" NOx="0.00" PMx="1.76" fuel="4.13" electricity="0.00" noise="77.02" route="route0" type="LDV_G_EU0" waiting="0.00" edge="e" pos="200.00" speed="37.00" angle="90.00" x="200.00" y="-1.60"/>
    </timestep>
    <timestep time="307.00">
        <vehicle id="LDV_G_EU0" eclass="HBEFA3/LDV_G_EU0" CO2="9595.56" CO="1662.84" HC="42.15" NOx="0.00" PMx="1.76" fuel="4.13" electricity="0.00" noise="77.02" route="route0" type="LDV_G_EU0" waiting="0.00" edge="e" pos="200.00" speed="37.00" angle="90.00" x="200.00" y="-1.60"/>
    </timestep>
    <timestep time="308.00">
        <vehicle id="LDV_G_EU0" eclass="HBEFA3/LDV_G_EU0" CO2="9595.56" CO="1662.84" HC="42.15" NOx="0.00" PMx="1.76" fuel="4.13" electricity="0.00" noise="77.02" route="route0" type="LDV_G_EU0" waiting="0.00" edge="e" pos="200.00" speed="37.00" angle="90.00" x="200.00" y="-1.60"/>
    </timestep>
    <timestep time="309.00">
        <vehicle id="LDV_G_EU0" eclass="HBEFA3/LDV_G_EU0" CO2="9595.56" CO="1662.84" HC="42.15" NOx="0.00" PMx="1.76" fuel="4.13" electricity="0.00" noise="77.02" route="route0" type="LDV_G_EU0" waiting="0.00" edge="e" pos="300.00" speed="37.00" angle="90.00" x="300.00" y="-1.60"/>
    </timestep>
    <timestep time="310.00">
        <vehicle id="LDV_G_EU0" eclass="HBEFA3/LDV_G_EU0" CO2="9595.56" CO="1662.84" HC="42.15" NOx="0.00" PMx="1.76" fuel="4.13" electricity="0.00" noise="77.02" route="route0" type="LDV_G_EU0" waiting="0.00" edge="e" pos="300.00" speed="37.00" angle="90.00" x="300.00" y="-1.60"/>
    </timestep>
    <timestep time="311.00">
        <vehicle id="LDV_G_EU0" eclass="HBEFA3/LDV_G_EU0" CO2="9595.56" CO="1662.84" HC="42.15" NOx="0.00" PMx="1.76" fuel="4.13" electricity="0.00" noise="77.02" route="route0" type="LDV_G_EU0" waiting="0.00" edge="e" pos="400.00" speed="37.00" angle="90.00" x="400.00" y="-1.60"/>
    </timestep>
    <timestep time="312.00">
        <vehicle id="LDV_G_EU0" eclass="HBEFA3/LDV_G_EU0" CO2="9595.56" CO="1662.84" HC="42.15" NOx="0.00" PMx="1.76" fuel="4.13" electricity="0.00" noise="77.02" route="route0" type="LDV_G_EU0" waiting="0.00" edge="e" pos="400.00" speed="37.00" angle="90.00" x="400.00" y="-1.60"/>
    </timestep>
    <timestep time="313.00">
        <vehicle id="LDV_G_EU0" eclass="HBEFA3/LDV_G_EU0" CO2="9595.56" CO="1662.84" HC="42.15" NOx="0.00" PMx="1.76" fuel="4.13" electricity="0.00" noise="77.02" route="route0" type="LDV_G_EU0" waiting="0.00" edge="e" pos="400.00" speed="37.00" angle="90.00" x="400.00" y="-1.60"/>
    </timestep>
    <timestep time="314.00">