<?xml version="1.0" encoding="UTF-8"?>

<!-- generated on Sun Mar  1 21:28:05 2020 by Eclipse SUMO Version v1_5_0+0309-1768c69365
This data file and the accompanying materials
are made available under the terms of the Eclipse Public License v2.0
which accompanies this distribution, and is available at
http://www.eclipse.org/legal/epl-v20.html
SPDX-License-Identifier: EPL-2.0
<configuration xmlns:xsi="http://www.w3.org/2001/XMLSchema-instance" xsi:noNamespaceSchemaLocation="http://sumo.dlr.de/xsd/sumoConfiguration.xsd">

    <input>
        <net-file value="net.net.xml"/>
        <route-files value="input_routes.rou.xml"/>
    </input>

    <output>
        <write-license value="true"/>
        <emission-output value="rawdump.xml"/>
    </output>

    <processing>
        <default.speeddev value="0"/>
    </processing>

    <report>
        <xml-validation value="never"/>
        <duration-log.disable value="true"/>
        <no-step-log value="true"/>
    </report>

    <emissions>
        <device.emissions.probability value="1"/>
    </emissions>

</configuration>
-->

<emission-export xmlns:xsi="http://www.w3.org/2001/XMLSchema-instance" xsi:noNamespaceSchemaLocation="http://sumo.dlr.de/xsd/emission_file.xsd">
    <timestep time="0.00">
        <vehicle id="PHEMlight_PC_D_EU4" eclass="HBEFA3/PC_D_EU4" CO2="1895.56" CO="0.58" HC="0.03" NOx="13.18" PMx="0.00" fuel="0.71" electricity="0.00" noise="55.94" route="route0" type="PC_D_EU4" waiting="0.00" lane="e_0" pos="5.10" speed="0.00" angle="90.00" x="5.10" y="-1.60"/>
    </timestep>
    <timestep time="1.00">
        <vehicle id="PHEMlight_PC_D_EU4" eclass="HBEFA3/PC_D_EU4" CO2="3179.29" CO="0.61" HC="0.08" NOx="18.08" PMx="0.00" fuel="1.20" electricity="0.00" noise="68.38" route="route0" type="PC_D_EU4" waiting="0.00" lane="e_0" pos="7.70" speed="2.60" angle="90.00" x="7.70" y="-1.60"/>
    </timestep>
    <timestep time="2.00">
        <vehicle id="PHEMlight_PC_D_EU4" eclass="HBEFA3/PC_D_EU4" CO2="4524.84" CO="0.64" HC="0.13" NOx="23.59" PMx="0.00" fuel="1.70" electricity="0.00" noise="69.46" route="route0" type="PC_D_EU4" waiting="0.00" lane="e_0" pos="12.90" speed="5.20" angle="90.00" x="12.90" y="-1.60"/>
    </timestep>
    <timestep time="3.00">
        <vehicle id="PHEMlight_PC_D_EU4" eclass="HBEFA3/PC_D_EU4" CO2="5932.20" CO="0.67" HC="0.18" NOx="29.71" PMx="0.00" fuel="2.23" electricity="0.00" noise="70.61" route="route0" type="PC_D_EU4" waiting="0.00" lane="e_0" pos="20.70" speed="7.80" angle="90.00" x="20.70" y="-1.60"/>
    </timestep>
    <timestep time="4.00">
        <vehicle id="PHEMlight_PC_D_EU4" eclass="HBEFA3/PC_D_EU4" CO2="7401.38" CO="0.70" HC="0.22" NOx="36.44" PMx="0.00" fuel="2.79" electricity="0.00" noise="71.82" route="route0" type="PC_D_EU4" waiting="0.00" lane="e_0" pos="31.10" speed="10.40" angle="90.00" x="31.10" y="-1.60"/>
    </timestep>
    <timestep time="5.00">
        <vehicle id="PHEMlight_PC_D_EU4" eclass="HBEFA3/PC_D_EU4" CO2="8932.38" CO="0.73" HC="0.27" NOx="43.77" PMx="0.00" fuel="3.36" electricity="0.00" noise="73.06" route="route0" type="PC_D_EU4" waiting="0.00" lane="e_0" pos="44.10" speed="13.00" angle="90.00" x="44.10" y="-1.60"/>
    </timestep>
    <timestep time="6.00">
        <vehicle id="PHEMlight_PC_D_EU4" eclass="HBEFA3/PC_D_EU4" CO2="10525.20" CO="0.76" HC="0.32" NOx="51.72" PMx="0.00" fuel="3.96" electricity="0.00" noise="74.32" route="route0" type="PC_D_EU4" waiting="0.00" lane="e_0" pos="59.70" speed="15.60" angle="90.00" x="59.70" y="-1.60"/>
    </timestep>
    <timestep time="7.00">
        <vehicle id="PHEMlight_PC_D_EU4" eclass="HBEFA3/PC_D_EU4" CO2="12179.83" CO="0.78" HC="0.36" NOx="60.27" PMx="0.00" fuel="4.58" electricity="0.00" noise="75.60" route="route0" type="PC_D_EU4" waiting="0.00" lane="e_0" pos="77.90" speed="18.20" angle="90.00" x="77.90" y="-1.60"/>
    </timestep>
    <timestep time="8.00">
        <vehicle id="PHEMlight_PC_D_EU4" eclass="HBEFA3/PC_D_EU4" CO2="13896.28" CO="0.81" HC="0.41" NOx="69.43" PMx="0.00" fuel="5.23" electricity="0.00" noise="76.87" route="route0" type="PC_D_EU4" waiting="0.00" lane="e_0" pos="98.70" speed="20.80" angle="90.00" x="98.70" y="-1.60"/>
    </timestep>
    <timestep time="9.00">
        <vehicle id="PHEMlight_PC_D_EU4" eclass="HBEFA3/PC_D_EU4" CO2="15674.54" CO="0.84" HC="0.46" NOx="79.19" PMx="0.00" fuel="5.90" electricity="0.00" noise="78.14" route="route0" type="PC_D_EU4" waiting="0.00" lane="e_0" pos="122.10" speed="23.40" angle="90.00" x="122.10" y="-1.60"/>
    </timestep>
    <timestep time="10.00">
        <vehicle id="PHEMlight_PC_D_EU4" eclass="HBEFA3/PC_D_EU4" CO2="17514.62" CO="0.87" HC="0.51" NOx="89.57" PMx="0.00" fuel="6.59" electricity="0.00" noise="79.40" route="route0" type="PC_D_EU4" waiting="0.00" lane="e_0" pos="148.10" speed="26.00" angle="90.00" x="148.10" y="-1.60"/>
    </timestep>
    <timestep time="11.00">
        <vehicle id="PHEMlight_PC_D_EU4" eclass="HBEFA3/PC_D_EU4" CO2="19416.52" CO="0.90" HC="0.55" NOx="100.55" PMx="0.00" fuel="7.31" electricity="0.00" noise="80.65" route="route0" type="PC_D_EU4" waiting="0.00" lane="e_0" pos="176.70" speed="28.60" angle="90.00" x="176.70" y="-1.60"/>
    </timestep>
    <timestep time="12.00">
        <vehicle id="PHEMlight_PC_D_EU4" eclass="HBEFA3/PC_D_EU4" CO2="21380.23" CO="0.93" HC="0.60" NOx="112.14" PMx="0.00" fuel="8.04" electricity="0.00" noise="81.89" route="route0" type="PC_D_EU4" waiting="0.00" lane="e_0" pos="207.90" speed="31.20" angle="90.00" x="207.90" y="-1.60"/>
    </timestep>
    <timestep time="13.00">
        <vehicle id="PHEMlight_PC_D_EU4" eclass="HBEFA3/PC_D_EU4" CO2="23405.76" CO="0.95" HC="0.65" NOx="124.34" PMx="0.00" fuel="8.81" electricity="0.00" noise="83.13" route="route0" type="PC_D_EU4" waiting="0.00" lane="e_0" pos="241.70" speed="33.80" angle="90.00" x="241.70" y="-1.60"/>
    </timestep>
    <timestep time="14.00">
        <vehicle id="PHEMlight_PC_D_EU4" eclass="HBEFA3/PC_D_EU4" CO2="25493.11" CO="0.98" HC="0.70" NOx="137.15" PMx="0.00" fuel="9.59" electricity="0.00" noise="84.36" route="route0" type="PC_D_EU4" waiting="0.00" lane="e_0" pos="278.10" speed="36.40" angle="90.00" x="278.10" y="-1.60"/>
    </timestep>
    <timestep time="15.00">
        <vehicle id="PHEMlight_PC_D_EU4" eclass="HBEFA3/PC_D_EU4" CO2="10725.19" CO="0.39" HC="0.37" NOx="57.74" PMx="0.00" fuel="4.04" electricity="0.00" noise="78.19" route="route0" type="PC_D_EU4" waiting="0.00" lane="e_0" pos="315.10" speed="37.00" angle="90.00" x="315.10" y="-1.60"/>
    </timestep>
    <timestep time="16.00">
        <vehicle id="PHEMlight_PC_D_EU4" eclass="HBEFA3/PC_D_EU4" CO2="6147.68" CO="0.22" HC="0.27" NOx="33.01" PMx="0.00" fuel="2.31" electricity="0.00" noise="77.02" route="route0" type="PC_D_EU4" waiting="0.00" lane="e_0" pos="352.10" speed="37.00" angle="90.00" x="352.10" y="-1.60"/>
    </timestep>
    <timestep time="17.00">
        <vehicle id="PHEMlight_PC_D_EU4" eclass="HBEFA3/PC_D_EU4" CO2="6147.68" CO="0.22" HC="0.27" NOx="33.01" PMx="0.00" fuel="2.31" electricity="0.00" noise="77.02" route="route0" type="PC_D_EU4" waiting="0.00" lane="e_0" pos="389.10" speed="37.00" angle="90.00" x="389.10" y="-1.60"/>
    </timestep>
    <timestep time="18.00">
        <vehicle id="PHEMlight_PC_D_EU4" eclass="HBEFA3/PC_D_EU4" CO2="6147.68" CO="0.22" HC="0.27" NOx="33.01" PMx="0.00" fuel="2.31" electricity="0.00" noise="77.02" route="route0" type="PC_D_EU4" waiting="0.00" lane="e_0" pos="426.10" speed="37.00" angle="90.00" x="426.10" y="-1.60"/>
    </timestep>
    <timestep time="19.00">
        <vehicle id="PHEMlight_PC_D_EU4" eclass="HBEFA3/PC_D_EU4" CO2="6147.68" CO="0.22" HC="0.27" NOx="33.01" PMx="0.00" fuel="2.31" electricity="0.00" noise="77.02" route="route0" type="PC_D_EU4" waiting="0.00" lane="e_0" pos="463.10" speed="37.00" angle="90.00" x="463.10" y="-1.60"/>
    </timestep>
    <timestep time="20.00">
        <vehicle id="PHEMlight_PC_D_EU4" eclass="HBEFA3/PC_D_EU4" CO2="6147.68" CO="0.22" HC="0.27" NOx="33.01" PMx="0.00" fuel="2.31" electricity="0.00" noise="77.02" route="route0" type="PC_D_EU4" waiting="0.00" lane="e_0" pos="500.10" speed="37.00" angle="90.00" x="500.10" y="-1.60"/>
    </timestep>
    <timestep time="21.00">
        <vehicle id="PHEMlight_PC_D_EU4" eclass="HBEFA3/PC_D_EU4" CO2="6147.68" CO="0.22" HC="0.27" NOx="33.01" PMx="0.00" fuel="2.31" electricity="0.00" noise="77.02" route="route0" type="PC_D_EU4" waiting="0.00" lane="e_0" pos="537.10" speed="37.00" angle="90.00" x="537.10" y="-1.60"/>
    </timestep>
    <timestep time="22.00">
        <vehicle id="PHEMlight_PC_D_EU4" eclass="HBEFA3/PC_D_EU4" CO2="6147.68" CO="0.22" HC="0.27" NOx="33.01" PMx="0.00" fuel="2.31" electricity="0.00" noise="77.02" route="route0" type="PC_D_EU4" waiting="0.00" lane="e_0" pos="574.10" speed="37.00" angle="90.00" x="574.10" y="-1.60"/>
    </timestep>
    <timestep time="23.00"/>
    <timestep time="24.00"/>
    <timestep time="25.00"/>
    <timestep time="26.00"/>
    <timestep time="27.00"/>
    <timestep time="28.00"/>
    <timestep time="29.00"/>
    <timestep time="30.00"/>
    <timestep time="31.00"/>
    <timestep time="32.00"/>
    <timestep time="33.00"/>
    <timestep time="34.00"/>
    <timestep time="35.00"/>
    <timestep time="36.00"/>
    <timestep time="37.00"/>
    <timestep time="38.00"/>
    <timestep time="39.00"/>
    <timestep time="40.00"/>
    <timestep time="41.00"/>
    <timestep time="42.00"/>
    <timestep time="43.00"/>
    <timestep time="44.00"/>
    <timestep time="45.00"/>
    <timestep time="46.00"/>
    <timestep time="47.00"/>
    <timestep time="48.00"/>
    <timestep time="49.00"/>
    <timestep time="50.00"/>
    <timestep time="51.00"/>
    <timestep time="52.00"/>
    <timestep time="53.00"/>
    <timestep time="54.00"/>
    <timestep time="55.00"/>
    <timestep time="56.00"/>
    <timestep time="57.00"/>
    <timestep time="58.00"/>
    <timestep time="59.00"/>
    <timestep time="60.00"/>
    <timestep time="61.00"/>
    <timestep time="62.00"/>
    <timestep time="63.00"/>
    <timestep time="64.00"/>
    <timestep time="65.00"/>
    <timestep time="66.00"/>
    <timestep time="67.00"/>
    <timestep time="68.00"/>
    <timestep time="69.00"/>
    <timestep time="70.00"/>
    <timestep time="71.00"/>
    <timestep time="72.00"/>
    <timestep time="73.00"/>
    <timestep time="74.00"/>
    <timestep time="75.00"/>
    <timestep time="76.00"/>
    <timestep time="77.00"/>
    <timestep time="78.00"/>
    <timestep time="79.00"/>
    <timestep time="80.00"/>
    <timestep time="81.00"/>
    <timestep time="82.00"/>
    <timestep time="83.00"/>
    <timestep time="84.00"/>
    <timestep time="85.00"/>
    <timestep time="86.00"/>
    <timestep time="87.00"/>
    <timestep time="88.00"/>
    <timestep time="89.00"/>
    <timestep time="90.00"/>
    <timestep time="91.00"/>
    <timestep time="92.00"/>
    <timestep time="93.00"/>
    <timestep time="94.00"/>
    <timestep time="95.00"/>
    <timestep time="96.00"/>
    <timestep time="97.00"/>
    <timestep time="98.00"/>
    <timestep time="99.00"/>
    <timestep time="100.00">
        <vehicle id="PHEMlight_PC_G_EU4" eclass="HBEFA3/PC_G_EU4" CO2="2624.72" CO="164.78" HC="0.81" NOx="1.20" PMx="0.07" fuel="1.13" electricity="0.00" noise="55.94" route="route0" type="PC_G_EU4" waiting="0.00" lane="e_0" pos="5.10" speed="0.00" angle="90.00" x="5.10" y="-1.60"/>
    </timestep>
    <timestep time="101.00">
        <vehicle id="PHEMlight_PC_G_EU4" eclass="HBEFA3/PC_G_EU4" CO2="4102.54" CO="152.07" HC="0.79" NOx="1.83" PMx="0.09" fuel="1.76" electricity="0.00" noise="68.38" route="route0" type="PC_G_EU4" waiting="0.00" lane="e_0" pos="7.70" speed="2.60" angle="90.00" x="7.70" y="-1.60"/>
    </timestep>
    <timestep time="102.00">
        <vehicle id="PHEMlight_PC_G_EU4" eclass="HBEFA3/PC_G_EU4" CO2="5686.50" CO="147.20" HC="0.81" NOx="2.51" PMx="0.12" fuel="2.44" electricity="0.00" noise="69.46" route="route0" type="PC_G_EU4" waiting="0.00" lane="e_0" pos="12.90" speed="5.20" angle="90.00" x="12.90" y="-1.60"/>
    </timestep>
    <timestep time="103.00">
        <vehicle id="PHEMlight_PC_G_EU4" eclass="HBEFA3/PC_G_EU4" CO2="7376.59" CO="150.16" HC="0.86" NOx="3.24" PMx="0.16" fuel="3.17" electricity="0.00" noise="70.61" route="route0" type="PC_G_EU4" waiting="0.00" lane="e_0" pos="20.70" speed="7.80" angle="90.00" x="20.70" y="-1.60"/>
    </timestep>
    <timestep time="104.00">
        <vehicle id="PHEMlight_PC_G_EU4" eclass="HBEFA3/PC_G_EU4" CO2="9172.80" CO="160.95" HC="0.95" NOx="4.02" PMx="0.20" fuel="3.94" electricity="0.00" noise="71.82" route="route0" type="PC_G_EU4" waiting="0.00" lane="e_0" pos="31.10" speed="10.40" angle="90.00" x="31.10" y="-1.60"/>
    </timestep>
    <timestep time="105.00">
        <vehicle id="PHEMlight_PC_G_EU4" eclass="HBEFA3/PC_G_EU4" CO2="11075.16" CO="179.58" HC="1.09" NOx="4.85" PMx="0.24" fuel="4.76" electricity="0.00" noise="73.06" route="route0" type="PC_G_EU4" waiting="0.00" lane="e_0" pos="44.10" speed="13.00" angle="90.00" x="44.10" y="-1.60"/>
    </timestep>
    <timestep time="106.00">
        <vehicle id="PHEMlight_PC_G_EU4" eclass="HBEFA3/PC_G_EU4" CO2="13083.64" CO="206.05" HC="1.26" NOx="5.73" PMx="0.29" fuel="5.62" electricity="0.00" noise="74.32" route="route0" type="PC_G_EU4" waiting="0.00" lane="e_0" pos="59.70" speed="15.60" angle="90.00" x="59.70" y="-1.60"/>
    </timestep>
    <timestep time="107.00">
        <vehicle id="PHEMlight_PC_G_EU4" eclass="HBEFA3/PC_G_EU4" CO2="15198.25" CO="240.34" HC="1.47" NOx="6.67" PMx="0.35" fuel="6.53" electricity="0.00" noise="75.60" route="route0" type="PC_G_EU4" waiting="0.00" lane="e_0" pos="77.90" speed="18.20" angle="90.00" x="77.90" y="-1.60"/>
    </timestep>
    <timestep time="108.00">
        <vehicle id="PHEMlight_PC_G_EU4" eclass="HBEFA3/PC_G_EU4" CO2="17419.00" CO="282.48" HC="1.72" NOx="7.65" PMx="0.41" fuel="7.49" electricity="0.00" noise="76.87" route="route0" type="PC_G_EU4" waiting="0.00" lane="e_0" pos="98.70" speed="20.80" angle="90.00" x="98.70" y="-1.60"/>
    </timestep>
    <timestep time="109.00">
        <vehicle id="PHEMlight_PC_G_EU4" eclass="HBEFA3/PC_G_EU4" CO2="19745.88" CO="332.44" HC="2.00" NOx="8.69" PMx="0.47" fuel="8.49" electricity="0.00" noise="78.14" route="route0" type="PC_G_EU4" waiting="0.00" lane="e_0" pos="122.10" speed="23.40" angle="90.00" x="122.10" y="-1.60"/>
    </timestep>
    <timestep time="110.00">
        <vehicle id="PHEMlight_PC_G_EU4" eclass="HBEFA3/PC_G_EU4" CO2="22178.89" CO="390.24" HC="2.33" NOx="9.78" PMx="0.54" fuel="9.53" electricity="0.00" noise="79.40" route="route0" type="PC_G_EU4" waiting="0.00" lane="e_0" pos="148.10" speed="26.00" angle="90.00" x="148.10" y="-1.60"/>
    </timestep>
    <timestep time="111.00">
        <vehicle id="PHEMlight_PC_G_EU4" eclass="HBEFA3/PC_G_EU4" CO2="24718.03" CO="455.87" HC="2.69" NOx="10.92" PMx="0.61" fuel="10.63" electricity="0.00" noise="80.65" route="route0" type="PC_G_EU4" waiting="0.00" lane="e_0" pos="176.70" speed="28.60" angle="90.00" x="176.70" y="-1.60"/>
    </timestep>
    <timestep time="112.00">
        <vehicle id="PHEMlight_PC_G_EU4" eclass="HBEFA3/PC_G_EU4" CO2="27363.31" CO="529.34" HC="3.10" NOx="12.11" PMx="0.69" fuel="11.76" electricity="0.00" noise="81.89" route="route0" type="PC_G_EU4" waiting="0.00" lane="e_0" pos="207.90" speed="31.20" angle="90.00" x="207.90" y="-1.60"/>
    </timestep>
    <timestep time="113.00">
        <vehicle id="PHEMlight_PC_G_EU4" eclass="HBEFA3/PC_G_EU4" CO2="30114.71" CO="610.64" HC="3.54" NOx="13.36" PMx="0.78" fuel="12.94" electricity="0.00" noise="83.13" route="route0" type="PC_G_EU4" waiting="0.00" lane="e_0" pos="241.70" speed="33.80" angle="90.00" x="241.70" y="-1.60"/>
    </timestep>
    <timestep time="114.00">
        <vehicle id="PHEMlight_PC_G_EU4" eclass="HBEFA3/PC_G_EU4" CO2="32972.25" CO="699.78" HC="4.02" NOx="14.65" PMx="0.87" fuel="14.17" electricity="0.00" noise="84.36" route="route0" type="PC_G_EU4" waiting="0.00" lane="e_0" pos="278.10" speed="36.40" angle="90.00" x="278.10" y="-1.60"/>
    </timestep>
    <timestep time="115.00">
        <vehicle id="PHEMlight_PC_G_EU4" eclass="HBEFA3/PC_G_EU4" CO2="14357.42" CO="324.33" HC="1.85" NOx="5.86" PMx="0.39" fuel="6.17" electricity="0.00" noise="78.19" route="route0" type="PC_G_EU4" waiting="0.00" lane="e_0" pos="315.10" speed="37.00" angle="90.00" x="315.10" y="-1.60"/>
    </timestep>
    <timestep time="116.00">
        <vehicle id="PHEMlight_PC_G_EU4" eclass="HBEFA3/PC_G_EU4" CO2="8570.62" CO="205.19" HC="1.16" NOx="3.13" PMx="0.24" fuel="3.68" electricity="0.00" noise="77.02" route="route0" type="PC_G_EU4" waiting="0.00" lane="e_0" pos="352.10" speed="37.00" angle="90.00" x="352.10" y="-1.60"/>
    </timestep>
    <timestep time="117.00">
        <vehicle id="PHEMlight_PC_G_EU4" eclass="HBEFA3/PC_G_EU4" CO2="8570.62" CO="205.19" HC="1.16" NOx="3.13" PMx="0.24" fuel="3.68" electricity="0.00" noise="77.02" route="route0" type="PC_G_EU4" waiting="0.00" lane="e_0" pos="389.10" speed="37.00" angle="90.00" x="389.10" y="-1.60"/>
    </timestep>
    <timestep time="118.00">
        <vehicle id="PHEMlight_PC_G_EU4" eclass="HBEFA3/PC_G_EU4" CO2="8570.62" CO="205.19" HC="1.16" NOx="3.13" PMx="0.24" fuel="3.68" electricity="0.00" noise="77.02" route="route0" type="PC_G_EU4" waiting="0.00" lane="e_0" pos="426.10" speed="37.00" angle="90.00" x="426.10" y="-1.60"/>
    </timestep>
    <timestep time="119.00">
        <vehicle id="PHEMlight_PC_G_EU4" eclass="HBEFA3/PC_G_EU4" CO2="8570.62" CO="205.19" HC="1.16" NOx="3.13" PMx="0.24" fuel="3.68" electricity="0.00" noise="77.02" route="route0" type="PC_G_EU4" waiting="0.00" lane="e_0" pos="463.10" speed="37.00" angle="90.00" x="463.10" y="-1.60"/>
    </timestep>
    <timestep time="120.00">
        <vehicle id="PHEMlight_PC_G_EU4" eclass="HBEFA3/PC_G_EU4" CO2="8570.62" CO="205.19" HC="1.16" NOx="3.13" PMx="0.24" fuel="3.68" electricity="0.00" noise="77.02" route="route0" type="PC_G_EU4" waiting="0.00" lane="e_0" pos="500.10" speed="37.00" angle="90.00" x="500.10" y="-1.60"/>
    </timestep>
    <timestep time="121.00">
        <vehicle id="PHEMlight_PC_G_EU4" eclass="HBEFA3/PC_G_EU4" CO2="8570.62" CO="205.19" HC="1.16" NOx="3.13" PMx="0.24" fuel="3.68" electricity="0.00" noise="77.02" route="route0" type="PC_G_EU4" waiting="0.00" lane="e_0" pos="537.10" speed="37.00" angle="90.00" x="537.10" y="-1.60"/>
    </timestep>
    <timestep time="122.00">
        <vehicle id="PHEMlight_PC_G_EU4" eclass="HBEFA3/PC_G_EU4" CO2="8570.62" CO="205.19" HC="1.16" NOx="3.13" PMx="0.24" fuel="3.68" electricity="0.00" noise="77.02" route="route0" type="PC_G_EU4" waiting="0.00" lane="e_0" pos="574.10" speed="37.00" angle="90.00" x="574.10" y="-1.60"/>
    </timestep>
    <timestep time="123.00"/>
    <timestep time="124.00"/>
    <timestep time="125.00"/>
    <timestep time="126.00"/>
    <timestep time="127.00"/>
    <timestep time="128.00"/>
    <timestep time="129.00"/>
    <timestep time="130.00"/>
    <timestep time="131.00"/>
    <timestep time="132.00"/>
    <timestep time="133.00"/>
    <timestep time="134.00"/>
    <timestep time="135.00"/>
    <timestep time="136.00"/>
    <timestep time="137.00"/>
    <timestep time="138.00"/>
    <timestep time="139.00"/>
    <timestep time="140.00"/>
    <timestep time="141.00"/>
    <timestep time="142.00"/>
    <timestep time="143.00"/>
    <timestep time="144.00"/>
    <timestep time="145.00"/>
    <timestep time="146.00"/>
    <timestep time="147.00"/>
    <timestep time="148.00"/>
    <timestep time="149.00"/>
    <timestep time="150.00"/>
    <timestep time="151.00"/>
    <timestep time="152.00"/>
    <timestep time="153.00"/>
    <timestep time="154.00"/>
    <timestep time="155.00"/>
    <timestep time="156.00"/>
    <timestep time="157.00"/>
    <timestep time="158.00"/>
    <timestep time="159.00"/>
    <timestep time="160.00"/>
    <timestep time="161.00"/>
    <timestep time="162.00"/>
    <timestep time="163.00"/>
    <timestep time="164.00"/>
    <timestep time="165.00"/>
    <timestep time="166.00"/>
    <timestep time="167.00"/>
    <timestep time="168.00"/>
    <timestep time="169.00"/>
    <timestep time="170.00"/>
    <timestep time="171.00"/>
    <timestep time="172.00"/>
    <timestep time="173.00"/>
    <timestep time="174.00"/>
    <timestep time="175.00"/>
    <timestep time="176.00"/>
    <timestep time="177.00"/>
    <timestep time="178.00"/>
    <timestep time="179.00"/>
    <timestep time="180.00"/>
    <timestep time="181.00"/>
    <timestep time="182.00"/>
    <timestep time="183.00"/>
    <timestep time="184.00"/>
    <timestep time="185.00"/>
    <timestep time="186.00"/>
    <timestep time="187.00"/>
    <timestep time="188.00"/>
    <timestep time="189.00"/>
    <timestep time="190.00"/>
    <timestep time="191.00"/>
    <timestep time="192.00"/>
    <timestep time="193.00"/>
    <timestep time="194.00"/>
    <timestep time="195.00"/>
    <timestep time="196.00"/>
    <timestep time="197.00"/>
    <timestep time="198.00"/>
    <timestep time="199.00"/>
    <timestep time="200.00">
        <vehicle id="LDV" eclass="HBEFA3/LDV" CO2="1997.78" CO="267.06" HC="16.57" NOx="0.00" PMx="1.58" fuel="0.86" electricity="0.00" noise="55.94" route="route0" type="LDV" waiting="0.00" lane="e_0" pos="5.10" speed="0.00" angle="90.00" x="5.10" y="-1.60"/>
    </timestep>
    <timestep time="201.00">
        <vehicle id="LDV" eclass="HBEFA3/LDV" CO2="3844.40" CO="322.05" HC="16.72" NOx="0.00" PMx="1.53" fuel="1.65" electricity="0.00" noise="68.38" route="route0" type="LDV" waiting="0.00" lane="e_0" pos="7.70" speed="2.60" angle="90.00" x="7.70" y="-1.60"/>
    </timestep>
    <timestep time="202.00">
        <vehicle id="LDV" eclass="HBEFA3/LDV" CO2="5778.63" CO="391.52" HC="17.47" NOx="0.00" PMx="1.66" fuel="2.47" electricity="0.00" noise="69.46" route="route0" type="LDV" waiting="0.00" lane="e_0" pos="12.90" speed="5.20" angle="90.00" x="12.90" y="-1.60"/>
    </timestep>
    <timestep time="203.00">
        <vehicle id="LDV" eclass="HBEFA3/LDV" CO2="7800.49" CO="475.44" HC="18.82" NOx="0.00" PMx="1.93" fuel="3.33" electricity="0.00" noise="70.61" route="route0" type="LDV" waiting="0.00" lane="e_0" pos="20.70" speed="7.80" angle="90.00" x="20.70" y="-1.60"/>
    </timestep>
    <timestep time="204.00">
        <vehicle id="LDV" eclass="HBEFA3/LDV" CO2="9909.96" CO="573.83" HC="20.77" NOx="0.00" PMx="2.33" fuel="4.23" electricity="0.00" noise="71.82" route="route0" type="LDV" waiting="0.00" lane="e_0" pos="31.10" speed="10.40" angle="90.00" x="31.10" y="-1.60"/>
    </timestep>
    <timestep time="205.00">
        <vehicle id="LDV" eclass="HBEFA3/LDV" CO2="12107.05" CO="686.68" HC="23.31" NOx="0.00" PMx="2.83" fuel="5.17" electricity="0.00" noise="73.06" route="route0" type="LDV" waiting="0.00" lane="e_0" pos="44.10" speed="13.00" angle="90.00" x="44.10" y="-1.60"/>
    </timestep>
    <timestep time="206.00">
        <vehicle id="LDV" eclass="HBEFA3/LDV" CO2="14391.75" CO="813.99" HC="26.45" NOx="0.00" PMx="3.42" fuel="6.14" electricity="0.00" noise="74.32" route="route0" type="LDV" waiting="0.00" lane="e_0" pos="59.70" speed="15.60" angle="90.00" x="59.70" y="-1.60"/>
    </timestep>
    <timestep time="207.00">
        <vehicle id="LDV" eclass="HBEFA3/LDV" CO2="16764.07" CO="955.76" HC="30.18" NOx="0.00" PMx="4.07" fuel="7.16" electricity="0.00" noise="75.60" route="route0" type="LDV" waiting="0.00" lane="e_0" pos="77.90" speed="18.20" angle="90.00" x="77.90" y="-1.60"/>
    </timestep>
    <timestep time="208.00">
        <vehicle id="LDV" eclass="HBEFA3/LDV" CO2="19224.01" CO="1112.00" HC="34.52" NOx="0.00" PMx="4.76" fuel="8.21" electricity="0.00" noise="76.87" route="route0" type="LDV" waiting="0.00" lane="e_0" pos="98.70" speed="20.80" angle="90.00" x="98.70" y="-1.60"/>
    </timestep>
    <timestep time="209.00">
        <vehicle id="LDV" eclass="HBEFA3/LDV" CO2="21771.57" CO="1282.70" HC="39.45" NOx="0.00" PMx="5.46" fuel="9.29" electricity="0.00" noise="78.14" route="route0" type="LDV" waiting="0.00" lane="e_0" pos="122.10" speed="23.40" angle="90.00" x="122.10" y="-1.60"/>
    </timestep>
    <timestep time="210.00">
        <vehicle id="LDV" eclass="HBEFA3/LDV" CO2="24406.74" CO="1467.87" HC="44.97" NOx="0.00" PMx="6.16" fuel="10.42" electricity="0.00" noise="79.40" route="route0" type="LDV" waiting="0.00" lane="e_0" pos="148.10" speed="26.00" angle="90.00" x="148.10" y="-1.60"/>
    </timestep>
    <timestep time="211.00">
        <vehicle id="LDV" eclass="HBEFA3/LDV" CO2="27129.54" CO="1667.49" HC="51.10" NOx="0.00" PMx="6.84" fuel="11.58" electricity="0.00" noise="80.65" route="route0" type="LDV" waiting="0.00" lane="e_0" pos="176.70" speed="28.60" angle="90.00" x="176.70" y="-1.60"/>
    </timestep>
    <timestep time="212.00">
        <vehicle id="LDV" eclass="HBEFA3/LDV" CO2="29939.94" CO="1881.58" HC="57.82" NOx="0.00" PMx="7.47" fuel="12.78" electricity="0.00" noise="81.89" route="route0" type="LDV" waiting="0.00" lane="e_0" pos="207.90" speed="31.20" angle="90.00" x="207.90" y="-1.60"/>
    </timestep>
    <timestep time="213.00">
        <vehicle id="LDV" eclass="HBEFA3/LDV" CO2="32837.97" CO="2110.13" HC="65.14" NOx="0.00" PMx="8.03" fuel="14.02" electricity="0.00" noise="83.13" route="route0" type="LDV" waiting="0.00" lane="e_0" pos="241.70" speed="33.80" angle="90.00" x="241.70" y="-1.60"/>
    </timestep>
    <timestep time="214.00">
        <vehicle id="LDV" eclass="HBEFA3/LDV" CO2="35823.61" CO="2353.14" HC="73.05" NOx="0.00" PMx="8.50" fuel="15.30" electricity="0.00" noise="84.36" route="route0" type="LDV" waiting="0.00" lane="e_0" pos="278.10" speed="36.40" angle="90.00" x="278.10" y="-1.60"/>
    </timestep>
    <timestep time="215.00">
        <vehicle id="LDV" eclass="HBEFA3/LDV" CO2="15517.27" CO="984.72" HC="34.62" NOx="0.00" PMx="3.76" fuel="6.63" electricity="0.00" noise="78.19" route="route0" type="LDV" waiting="0.00" lane="e_0" pos="315.10" speed="37.00" angle="90.00" x="315.10" y="-1.60"/>
    </timestep>
    <timestep time="216.00">
        <vehicle id="LDV" eclass="HBEFA3/LDV" CO2="9214.94" CO="556.76" HC="22.51" NOx="0.00" PMx="2.32" fuel="3.94" electricity="0.00" noise="77.02" route="route0" type="LDV" waiting="0.00" lane="e_0" pos="352.10" speed="37.00" angle="90.00" x="352.10" y="-1.60"/>
    </timestep>
    <timestep time="217.00">
        <vehicle id="LDV" eclass="HBEFA3/LDV" CO2="9214.94" CO="556.76" HC="22.51" NOx="0.00" PMx="2.32" fuel="3.94" electricity="0.00" noise="77.02" route="route0" type="LDV" waiting="0.00" lane="e_0" pos="389.10" speed="37.00" angle="90.00" x="389.10" y="-1.60"/>
    </timestep>
    <timestep time="218.00">
        <vehicle id="LDV" eclass="HBEFA3/LDV" CO2="9214.94" CO="556.76" HC="22.51" NOx="0.00" PMx="2.32" fuel="3.94" electricity="0.00" noise="77.02" route="route0" type="LDV" waiting="0.00" lane="e_0" pos="426.10" speed="37.00" angle="90.00" x="426.10" y="-1.60"/>
    </timestep>
    <timestep time="219.00">
        <vehicle id="LDV" eclass="HBEFA3/LDV" CO2="9214.94" CO="556.76" HC="22.51" NOx="0.00" PMx="2.32" fuel="3.94" electricity="0.00" noise="77.02" route="route0" type="LDV" waiting="0.00" lane="e_0" pos="463.10" speed="37.00" angle="90.00" x="463.10" y="-1.60"/>
    </timestep>
    <timestep time="220.00">
        <vehicle id="LDV" eclass="HBEFA3/LDV" CO2="9214.94" CO="556.76" HC="22.51" NOx="0.00" PMx="2.32" fuel="3.94" electricity="0.00" noise="77.02" route="route0" type="LDV" waiting="0.00" lane="e_0" pos="500.10" speed="37.00" angle="90.00" x="500.10" y="-1.60"/>
    </timestep>
    <timestep time="221.00">
        <vehicle id="LDV" eclass="HBEFA3/LDV" CO2="9214.94" CO="556.76" HC="22.51" NOx="0.00" PMx="2.32" fuel="3.94" electricity="0.00" noise="77.02" route="route0" type="LDV" waiting="0.00" lane="e_0" pos="537.10" speed="37.00" angle="90.00" x="537.10" y="-1.60"/>
    </timestep>
    <timestep time="222.00">
        <vehicle id="LDV" eclass="HBEFA3/LDV" CO2="9214.94" CO="556.76" HC="22.51" NOx="0.00" PMx="2.32" fuel="3.94" electricity="0.00" noise="77.02" route="route0" type="LDV" waiting="0.00" lane="e_0" pos="574.10" speed="37.00" angle="90.00" x="574.10" y="-1.60"/>
    </timestep>
    <timestep time="223.00"/>
    <timestep time="224.00"/>
    <timestep time="225.00"/>
    <timestep time="226.00"/>
    <timestep time="227.00"/>
    <timestep time="228.00"/>
    <timestep time="229.00"/>
    <timestep time="230.00"/>
    <timestep time="231.00"/>
    <timestep time="232.00"/>
    <timestep time="233.00"/>
    <timestep time="234.00"/>
    <timestep time="235.00"/>
    <timestep time="236.00"/>
    <timestep time="237.00"/>
    <timestep time="238.00"/>
    <timestep time="239.00"/>
    <timestep time="240.00"/>
    <timestep time="241.00"/>
    <timestep time="242.00"/>
    <timestep time="243.00"/>
    <timestep time="244.00"/>
    <timestep time="245.00"/>
    <timestep time="246.00"/>
    <timestep time="247.00"/>
    <timestep time="248.00"/>
    <timestep time="249.00"/>
    <timestep time="250.00"/>
    <timestep time="251.00"/>
    <timestep time="252.00"/>
    <timestep time="253.00"/>
    <timestep time="254.00"/>
    <timestep time="255.00"/>
    <timestep time="256.00"/>
    <timestep time="257.00"/>
    <timestep time="258.00"/>
    <timestep time="259.00"/>
    <timestep time="260.00"/>
    <timestep time="261.00"/>
    <timestep time="262.00"/>
    <timestep time="263.00"/>
    <timestep time="264.00"/>
    <timestep time="265.00"/>
    <timestep time="266.00"/>
    <timestep time="267.00"/>
    <timestep time="268.00"/>
    <timestep time="269.00"/>
    <timestep time="270.00"/>
    <timestep time="271.00"/>
    <timestep time="272.00"/>
    <timestep time="273.00"/>
    <timestep time="274.00"/>
    <timestep time="275.00"/>
    <timestep time="276.00"/>
    <timestep time="277.00"/>
    <timestep time="278.00"/>
    <timestep time="279.00"/>
    <timestep time="280.00"/>