<?xml version="1.0" encoding="UTF-8"?>

<!-- generated on Wed Jan  3 13:34:06 2018 by SUMO Version v0_32_0+0054-8b1154c
<?xml version="1.0" encoding="UTF-8"?>

<configuration xmlns:xsi="http://www.w3.org/2001/XMLSchema-instance" xsi:noNamespaceSchemaLocation="http://sumo.dlr.de/xsd/sumoConfiguration.xsd">

    <input>
        <net-file value="net.net.xml"/>
        <route-files value="input_routes.rou.xml"/>
        <additional-files value="input_additional.add.xml,input_additional2.add.xml"/>
    </input>

    <time>
        <begin value="0"/>
        <end value="3000"/>
    </time>

    <report>
        <verbose value="true"/>
        <xml-validation value="never"/>
        <duration-log.statistics value="true"/>
        <no-step-log value="true"/>
    </report>

</configuration>
-->

<meandata xmlns:xsi="http://www.w3.org/2001/XMLSchema-instance" xsi:noNamespaceSchemaLocation="http://sumo.dlr.de/xsd/meandata_file.xsd">
    <interval begin="0.00" end="60.00" id="dump_60">
        <edge id="1/1to2/1" sampledSeconds="1049.02" traveltime="375.70" overlapTraveltime="364.22" density="17.84" occupancy="8.88" waitingTime="760.00" speed="2.70" departed="60" arrived="0" entered="0" left="26" laneChangedFrom="0" laneChangedTo="0"/>
        <edge id="2/1to3/1" sampledSeconds="718.27" traveltime="55.41" overlapTraveltime="55.69" density="12.22" occupancy="6.07" waitingTime="0.00" speed="17.69" departed="0" arrived="0" entered="25" left="2" laneChangedFrom="0" laneChangedTo="0"/>
        <edge id="3/1to4/1" sampledSeconds="6.63" traveltime="50.17" overlapTraveltime="50.43" density="0.11" occupancy="0.05" waitingTime="0.00" speed="19.53" departed="0" arrived="0" entered="2" left="0" laneChangedFrom="0" laneChangedTo="0"/>
    </interval>
    <interval begin="60.00" end="120.00" id="dump_60">
        <edge id="1/1to2/1" sampledSeconds="3023.90" traveltime="323.12" overlapTraveltime="320.80" density="51.43" occupancy="25.68" waitingTime="2345.00" speed="3.07" departed="60" arrived="0" entered="0" left="27" laneChangedFrom="0" laneChangedTo="0"/>
        <edge id="2/1to3/1" sampledSeconds="1524.72" traveltime="56.23" overlapTraveltime="56.51" density="25.93" occupancy="12.90" waitingTime="0.00" speed="17.43" departed="0" arrived="0" entered="28" left="25" laneChangedFrom="0" laneChangedTo="0"/>
        <edge id="3/1to4/1" sampledSeconds="793.11" traveltime="53.44" overlapTraveltime="53.71" density="13.49" occupancy="6.71" waitingTime="0.00" speed="18.34" departed="0" arrived="0" entered="25" left="4" laneChangedFrom="0" laneChangedTo="0"/>
        <edge id="4/1to5/1" sampledSeconds="34.62" traveltime="50.52" overlapTraveltime="50.78" density="0.59" occupancy="0.29" waitingTime="0.00" speed="19.40" departed="0" arrived="0" entered="4" left="0" laneChangedFrom="0" laneChangedTo="0"/>
    </interval>
    <interval begin="120.00" end="180.00" id="dump_60">
        <edge id="1/1to2/1" sampledSeconds="4164.86" traveltime="260.02" overlapTraveltime="259.60" density="70.84" occupancy="35.22" waitingTime="3110.00" speed="3.79" departed="19" arrived="0" entered="0" left="27" laneChangedFrom="0" laneChangedTo="0"/>
        <edge id="2/1to3/1" sampledSeconds="1551.73" traveltime="56.51" overlapTraveltime="56.80" density="26.39" occupancy="13.13" waitingTime="0.00" speed="17.34" departed="0" arrived="0" entered="27" left="27" laneChangedFrom="0" laneChangedTo="0"/>
        <edge id="3/1to4/1" sampledSeconds="1488.66" traveltime="55.88" overlapTraveltime="56.16" density="25.32" occupancy="12.60" waitingTime="0.00" speed="17.54" departed="0" arrived="0" entered="27" left="25" laneChangedFrom="0" laneChangedTo="0"/>
        <edge id="4/1to5/1" sampledSeconds="870.28" traveltime="52.92" overlapTraveltime="53.19" density="14.80" occupancy="7.36" waitingTime="0.00" speed="18.52" departed="0" arrived="0" entered="25" left="7" laneChangedFrom="0" laneChangedTo="0"/>
        <edge id="5/1to6/1" sampledSeconds="84.06" traveltime="50.70" overlapTraveltime="50.95" density="1.43" occupancy="0.71" waitingTime="0.00" speed="19.33" departed="0" arrived="0" entered="7" left="0" laneChangedFrom="0" laneChangedTo="0"/>
    </interval>
    <interval begin="180.00" end="240.00" id="dump_60">
        <edge id="1/1to2/1" sampledSeconds="2715.63" traveltime="119.59" overlapTraveltime="119.81" density="46.19" occupancy="22.82" waitingTime="1284.00" speed="8.22" departed="0" arrived="0" entered="0" left="28" laneChangedFrom="0" laneChangedTo="0"/>
        <edge id="2/1to3/1" sampledSeconds="1551.79" traveltime="56.51" overlapTraveltime="56.80" density="26.39" occupancy="13.13" waitingTime="0.00" speed="17.34" departed="0" arrived="0" entered="27" left="28" laneChangedFrom="0" laneChangedTo="0"/>
        <edge id="3/1to4/1" sampledSeconds="1550.13" traveltime="56.49" overlapTraveltime="56.78" density="26.36" occupancy="13.11" waitingTime="0.00" speed="17.35" departed="0" arrived="0" entered="28" left="27" laneChangedFrom="0" laneChangedTo="0"/>
        <edge id="4/1to5/1" sampledSeconds="1446.69" traveltime="55.47" overlapTraveltime="55.75" density="24.61" occupancy="12.24" waitingTime="0.00" speed="17.67" departed="0" arrived="0" entered="27" left="24" laneChangedFrom="0" laneChangedTo="0"/>
        <edge id="5/1to6/1" sampledSeconds="934.58" traveltime="52.67" overlapTraveltime="52.94" density="15.90" occupancy="7.91" waitingTime="0.00" speed="18.61" departed="0" arrived="0" entered="23" left="9" laneChangedFrom="0" laneChangedTo="0"/>
        <edge id="6/1to7/1" sampledSeconds="153.91" traveltime="50.79" overlapTraveltime="51.05" density="2.62" occupancy="1.30" waitingTime="0.00" speed="19.29" departed="0" arrived="0" entered="9" left="0" laneChangedFrom="0" laneChangedTo="0"/>
    </interval>
    <interval begin="240.00" end="300.00" id="dump_60">
        <edge id="1/1to2/1" sampledSeconds="1524.78" traveltime="60.53" overlapTraveltime="60.81" density="25.93" occupancy="12.79" waitingTime="36.00" speed="16.20" departed="18" arrived="0" entered="0" left="27" laneChangedFrom="0" laneChangedTo="0"/>
        <edge id="2/1to3/1" sampledSeconds="1552.14" traveltime="56.51" overlapTraveltime="56.80" density="26.40" occupancy="13.13" waitingTime="0.00" speed="17.34" departed="0" arrived="0" entered="28" left="27" laneChangedFrom="0" laneChangedTo="0"/>
        <edge id="3/1to4/1" sampledSeconds="1551.88" traveltime="56.51" overlapTraveltime="56.80" density="26.39" occupancy="13.13" waitingTime="0.00" speed="17.34" departed="0" arrived="0" entered="27" left="27" laneChangedFrom="0" laneChangedTo="0"/>
        <edge id="4/1to5/1" sampledSeconds="1543.99" traveltime="56.42" overlapTraveltime="56.70" density="26.26" occupancy="13.06" waitingTime="0.00" speed="17.37" departed="0" arrived="0" entered="27" left="26" laneChangedFrom="0" laneChangedTo="0"/>
        <edge id="5/1to6/1" sampledSeconds="1404.63" traveltime="55.08" overlapTraveltime="55.36" density="23.89" occupancy="11.89" waitingTime="0.00" speed="17.79" departed="0" arrived="0" entered="27" left="24" laneChangedFrom="0" laneChangedTo="0"/>
        <edge id="6/1to7/1" sampledSeconds="983.02" traveltime="52.56" overlapTraveltime="52.82" density="16.72" occupancy="8.32" waitingTime="0.00" speed="18.65" departed="0" arrived="0" entered="23" left="12" laneChangedFrom="0" laneChangedTo="0"/>
        <edge id="7/1to8/1" sampledSeconds="244.64" traveltime="50.85" overlapTraveltime="51.11" density="4.16" occupancy="2.07" waitingTime="0.00" speed="19.27" departed="0" arrived="0" entered="12" left="0" laneChangedFrom="0" laneChangedTo="0"/>
    </interval>
    <interval begin="300.00" end="360.00" id="dump_60">
        <edge id="1/1to2/1" sampledSeconds="1190.93" traveltime="57.48" overlapTraveltime="57.76" density="20.26" occupancy="9.97" waitingTime="21.00" speed="17.05" departed="20" arrived="0" entered="0" left="22" laneChangedFrom="0" laneChangedTo="0"/>
        <edge id="2/1to3/1" sampledSeconds="1453.88" traveltime="55.89" overlapTraveltime="56.18" density="24.73" occupancy="12.30" waitingTime="0.00" speed="17.53" departed="0" arrived="0" entered="22" left="27" laneChangedFrom="0" laneChangedTo="0"/>
        <edge id="3/1to4/1" sampledSeconds="1552.19" traveltime="56.51" overlapTraveltime="56.80" density="26.40" occupancy="13.13" waitingTime="0.00" speed="17.34" departed="0" arrived="0" entered="27" left="28" laneChangedFrom="0" laneChangedTo="0"/>
        <edge id="4/1to5/1" sampledSeconds="1551.46" traveltime="56.51" overlapTraveltime="56.79" density="26.39" occupancy="13.13" waitingTime="0.00" speed="17.34" departed="0" arrived="0" entered="27" left="28" laneChangedFrom="0" laneChangedTo="0"/>
        <edge id="5/1to6/1" sampledSeconds="1530.36" traveltime="56.27" overlapTraveltime="56.55" density="26.03" occupancy="12.95" waitingTime="0.00" speed="17.42" departed="0" arrived="0" entered="28" left="26" laneChangedFrom="0" laneChangedTo="0"/>
        <edge id="6/1to7/1" sampledSeconds="1367.74" traveltime="54.74" overlapTraveltime="55.02" density="23.26" occupancy="11.57" waitingTime="0.00" speed="17.90" departed="0" arrived="0" entered="27" left="23" laneChangedFrom="0" laneChangedTo="0"/>
        <edge id="7/1to8/1" sampledSeconds="1013.49" traveltime="52.51" overlapTraveltime="52.78" density="17.24" occupancy="8.58" waitingTime="0.00" speed="18.66" departed="0" arrived="0" entered="23" left="14" laneChangedFrom="0" laneChangedTo="0"/>
        <edge id="8/1to9/1" sampledSeconds="351.22" traveltime="50.90" overlapTraveltime="51.16" density="5.97" occupancy="2.97" waitingTime="0.00" speed="19.25" departed="0" arrived="0" entered="14" left="1" laneChangedFrom="0" laneChangedTo="0"/>
        <edge id="9/1to10/1" sampledSeconds="4.49" traveltime="50.00" overlapTraveltime="50.26" density="0.08" occupancy="0.04" waitingTime="0.00" speed="19.60" departed="0" arrived="0" entered="1" left="0" laneChangedFrom="0" laneChangedTo="0"/>
    </interval>
    <interval begin="360.00" end="420.00" id="dump_60">
        <edge id="1/1to2/1" sampledSeconds="1166.06" traveltime="57.28" overlapTraveltime="57.55" density="19.83" occupancy="9.77" waitingTime="20.00" speed="17.12" departed="20" arrived="0" entered="0" left="21" laneChangedFrom="0" laneChangedTo="0"/>
        <edge id="10/1to1/1" sampledSeconds="22.20" traveltime="50.17" overlapTraveltime="50.43" density="0.38" occupancy="0.19" waitingTime="0.00" speed="19.53" departed="0" arrived="0" entered="3" left="0" laneChangedFrom="0" laneChangedTo="0"/>
        <edge id="2/1to3/1" sampledSeconds="1121.57" traveltime="53.11" overlapTraveltime="53.39" density="19.08" occupancy="9.49" waitingTime="0.00" speed="18.45" departed="0" arrived="0" entered="21" left="24" laneChangedFrom="0" laneChangedTo="0"/>
        <edge id="3/1to4/1" sampledSeconds="1487.94" traveltime="56.10" overlapTraveltime="56.39" density="25.31" occupancy="12.59" waitingTime="0.00" speed="17.47" departed="0" arrived="0" entered="24" left="27" laneChangedFrom="0" laneChangedTo="0"/>
        <edge id="4/1to5/1" sampledSeconds="1552.04" traveltime="56.51" overlapTraveltime="56.80" density="26.40" occupancy="13.13" waitingTime="0.00" speed="17.34" departed="0" arrived="0" entered="28" left="27" laneChangedFrom="0" laneChangedTo="0"/>
        <edge id="5/1to6/1" sampledSeconds="1550.95" traveltime="56.50" overlapTraveltime="56.78" density="26.38" occupancy="13.12" waitingTime="0.00" speed="17.35" departed="0" arrived="0" entered="27" left="27" laneChangedFrom="0" laneChangedTo="0"/>
        <edge id="6/1to7/1" sampledSeconds="1510.06" traveltime="56.05" overlapTraveltime="56.33" density="25.68" occupancy="12.78" waitingTime="0.00" speed="17.48" departed="0" arrived="0" entered="27" left="26" laneChangedFrom="0" laneChangedTo="0"/>
        <edge id="7/1to8/1" sampledSeconds="1336.07" traveltime="54.47" overlapTraveltime="54.74" density="22.72" occupancy="11.30" waitingTime="0.00" speed="17.99" departed="0" arrived="0" entered="26" left="23" laneChangedFrom="0" laneChangedTo="0"/>
        <edge id="8/1to9/1" sampledSeconds="1029.84" traveltime="52.51" overlapTraveltime="52.77" density="17.52" occupancy="8.71" waitingTime="0.00" speed="18.66" departed="0" arrived="0" entered="23" left="16" laneChangedFrom="0" laneChangedTo="0"/>
        <edge id="9/1to10/1" sampledSeconds="460.77" traveltime="50.97" overlapTraveltime="51.23" density="7.84" occupancy="3.90" waitingTime="0.00" speed="19.23" departed="0" arrived="0" entered="16" left="3" laneChangedFrom="0" laneChangedTo="0"/>
    </interval>
    <interval begin="420.00" end="480.00" id="dump_60">
        <edge id="1/1to2/1" sampledSeconds="1165.21" traveltime="56.91" overlapTraveltime="57.18" density="19.82" occupancy="9.79" waitingTime="19.00" speed="17.23" departed="17" arrived="0" entered="4" left="20" laneChangedFrom="0" laneChangedTo="0"/>
        <edge id="10/1to1/1" sampledSeconds="570.97" traveltime="52.02" overlapTraveltime="52.36" density="9.71" occupancy="4.83" waitingTime="0.00" speed="18.81" departed="0" arrived="0" entered="16" left="4" laneChangedFrom="0" laneChangedTo="0"/>
        <edge id="2/1to3/1" sampledSeconds="1074.89" traveltime="52.62" overlapTraveltime="52.89" density="18.28" occupancy="9.10" waitingTime="0.00" speed="18.62" departed="0" arrived="0" entered="20" left="20" laneChangedFrom="0" laneChangedTo="0"/>
        <edge id="3/1to4/1" sampledSeconds="1150.97" traveltime="53.40" overlapTraveltime="53.69" density="19.58" occupancy="9.74" waitingTime="0.00" speed="18.35" departed="0" arrived="0" entered="20" left="24" laneChangedFrom="0" laneChangedTo="0"/>
        <edge id="4/1to5/1" sampledSeconds="1514.74" traveltime="56.28" overlapTraveltime="56.57" density="25.76" occupancy="12.82" waitingTime="0.00" speed="17.41" departed="0" arrived="0" entered="24" left="27" laneChangedFrom="0" laneChangedTo="0"/>
        <edge id="5/1to6/1" sampledSeconds="1551.97" traveltime="56.51" overlapTraveltime="56.80" density="26.40" occupancy="13.13" waitingTime="0.00" speed="17.34" departed="0" arrived="0" entered="27" left="28" laneChangedFrom="0" laneChangedTo="0"/>
        <edge id="6/1to7/1" sampledSeconds="1547.56" traveltime="56.46" overlapTraveltime="56.75" density="26.32" occupancy="13.09" waitingTime="0.00" speed="17.36" departed="0" arrived="0" entered="27" left="27" laneChangedFrom="0" laneChangedTo="0"/>
        <edge id="7/1to8/1" sampledSeconds="1485.40" traveltime="55.80" overlapTraveltime="56.08" density="25.26" occupancy="12.57" waitingTime="0.00" speed="17.56" departed="0" arrived="0" entered="27" left="25" laneChangedFrom="0" laneChangedTo="0"/>
        <edge id="8/1to9/1" sampledSeconds="1310.20" traveltime="54.25" overlapTraveltime="54.52" density="22.28" occupancy="11.09" waitingTime="0.00" speed="18.06" departed="0" arrived="0" entered="25" left="22" laneChangedFrom="0" laneChangedTo="0"/>
        <edge id="9/1to10/1" sampledSeconds="1039.70" traveltime="52.52" overlapTraveltime="52.78" density="17.68" occupancy="8.80" waitingTime="0.00" speed="18.66" departed="0" arrived="0" entered="22" left="16" laneChangedFrom="0" laneChangedTo="0"/>
    </interval>
    <interval begin="480.00" end="540.00" id="dump_60">
        <edge id="1/1to2/1" sampledSeconds="1183.11" traveltime="54.96" overlapTraveltime="55.23" density="20.12" occupancy="10.01" waitingTime="3.00" speed="17.83" departed="3" arrived="0" entered="18" left="21" laneChangedFrom="0" laneChangedTo="0"/>
        <edge id="10/1to1/1" sampledSeconds="1059.39" traveltime="53.03" overlapTraveltime="53.37" density="18.02" occupancy="8.96" waitingTime="0.00" speed="18.45" departed="0" arrived="0" entered="22" left="18" laneChangedFrom="0" laneChangedTo="0"/>
        <edge id="2/1to3/1" sampledSeconds="1080.92" traveltime="52.65" overlapTraveltime="52.92" density="18.38" occupancy="9.14" waitingTime="0.00" speed="18.61" departed="0" arrived="0" entered="21" left="21" laneChangedFrom="0" laneChangedTo="0"/>
        <edge id="3/1to4/1" sampledSeconds="1074.66" traveltime="52.62" overlapTraveltime="52.89" density="18.28" occupancy="9.09" waitingTime="0.00" speed="18.62" departed="0" arrived="0" entered="21" left="21" laneChangedFrom="0" laneChangedTo="0"/>
        <edge id="4/1to5/1" sampledSeconds="1188.09" traveltime="53.76" overlapTraveltime="54.05" density="20.21" occupancy="10.05" waitingTime="0.00" speed="18.22" departed="0" arrived="0" entered="21" left="26" laneChangedFrom="0" laneChangedTo="0"/>
        <edge id="5/1to6/1" sampledSeconds="1533.77" traveltime="56.40" overlapTraveltime="56.69" density="26.09" occupancy="12.98" waitingTime="0.00" speed="17.37" departed="0" arrived="0" entered="26" left="27" laneChangedFrom="0" laneChangedTo="0"/>
        <edge id="6/1to7/1" sampledSeconds="1551.80" traveltime="56.51" overlapTraveltime="56.80" density="26.39" occupancy="13.13" waitingTime="0.00" speed="17.34" departed="0" arrived="0" entered="28" left="27" laneChangedFrom="0" laneChangedTo="0"/>
        <edge id="7/1to8/1" sampledSeconds="1541.32" traveltime="56.39" overlapTraveltime="56.67" density="26.21" occupancy="13.04" waitingTime="0.00" speed="17.38" departed="0" arrived="0" entered="27" left="27" laneChangedFrom="0" laneChangedTo="0"/>
        <edge id="8/1to9/1" sampledSeconds="1459.25" traveltime="55.54" overlapTraveltime="55.82" density="24.82" occupancy="12.35" waitingTime="0.00" speed="17.64" departed="0" arrived="0" entered="27" left="25" laneChangedFrom="0" laneChangedTo="0"/>
        <edge id="9/1to10/1" sampledSeconds="1289.05" traveltime="54.08" overlapTraveltime="54.35" density="21.92" occupancy="10.91" waitingTime="0.00" speed="18.12" departed="0" arrived="0" entered="25" left="22" laneChangedFrom="0" laneChangedTo="0"/>
    </interval>
    <interval begin="540.00" end="600.00" id="dump_60">
        <edge id="1/1to2/1" sampledSeconds="1182.57" traveltime="53.55" overlapTraveltime="53.82" density="20.11" occupancy="10.01" waitingTime="0.00" speed="18.30" departed="0" arrived="0" entered="22" left="22" laneChangedFrom="0" laneChangedTo="0"/>
        <edge id="10/1to1/1" sampledSeconds="1271.55" traveltime="53.94" overlapTraveltime="54.21" density="21.63" occupancy="10.76" waitingTime="0.00" speed="18.17" departed="0" arrived="0" entered="25" left="22" laneChangedFrom="0" laneChangedTo="0"/>
        <edge id="2/1to3/1" sampledSeconds="1142.76" traveltime="53.06" overlapTraveltime="53.33" density="19.44" occupancy="9.67" waitingTime="0.00" speed="18.47" departed="0" arrived="0" entered="22" left="20" laneChangedFrom="0" laneChangedTo="0"/>
        <edge id="3/1to4/1" sampledSeconds="1080.73" traveltime="52.65" overlapTraveltime="52.92" density="18.38" occupancy="9.14" waitingTime="0.00" speed="18.61" departed="0" arrived="0" entered="20" left="20" laneChangedFrom="0" laneChangedTo="0"/>
        <edge id="4/1to5/1" sampledSeconds="1074.91" traveltime="52.62" overlapTraveltime="52.89" density="18.28" occupancy="9.10" waitingTime="0.00" speed="18.62" departed="0" arrived="0" entered="20" left="20" laneChangedFrom="0" laneChangedTo="0"/>
        <edge id="5/1to6/1" sampledSeconds="1232.71" traveltime="54.17" overlapTraveltime="54.46" density="20.97" occupancy="10.43" waitingTime="0.00" speed="18.09" departed="0" arrived="0" entered="20" left="26" laneChangedFrom="0" laneChangedTo="0"/>
        <edge id="6/1to7/1" sampledSeconds="1545.70" traveltime="56.47" overlapTraveltime="56.76" density="26.29" occupancy="13.08" waitingTime="0.00" speed="17.35" departed="0" arrived="0" entered="26" left="27" laneChangedFrom="0" laneChangedTo="0"/>
        <edge id="7/1to8/1" sampledSeconds="1551.27" traveltime="56.50" overlapTraveltime="56.79" density="26.38" occupancy="13.13" waitingTime="0.00" speed="17.34" departed="0" arrived="0" entered="27" left="28" laneChangedFrom="0" laneChangedTo="0"/>
        <edge id="8/1to9/1" sampledSeconds="1529.98" traveltime="56.26" overlapTraveltime="56.55" density="26.02" occupancy="12.94" waitingTime="0.00" speed="17.42" departed="0" arrived="0" entered="28" left="27" laneChangedFrom="0" laneChangedTo="0"/>
        <edge id="9/1to10/1" sampledSeconds="1433.80" traveltime="55.30" overlapTraveltime="55.58" density="24.39" occupancy="12.13" waitingTime="0.00" speed="17.72" departed="0" arrived="0" entered="27" left="25" laneChangedFrom="0" laneChangedTo="0"/>
    </interval>
    <interval begin="600.00" end="660.00" id="dump_60">
        <edge id="1/1to2/1" sampledSeconds="1260.24" traveltime="53.85" overlapTraveltime="54.12" density="21.43" occupancy="10.66" waitingTime="0.00" speed="18.20" departed="0" arrived="0" entered="24" left="22" laneChangedFrom="0" laneChangedTo="0"/>
        <edge id="10/1to1/1" sampledSeconds="1410.16" traveltime="55.08" overlapTraveltime="55.36" density="23.98" occupancy="11.93" waitingTime="0.00" speed="17.79" departed="0" arrived="0" entered="26" left="24" laneChangedFrom="0" laneChangedTo="0"/>
        <edge id="2/1to3/1" sampledSeconds="1179.27" traveltime="53.30" overlapTraveltime="53.57" density="20.06" occupancy="9.98" waitingTime="0.00" speed="18.39" departed="0" arrived="0" entered="22" left="22" laneChangedFrom="0" laneChangedTo="0"/>
        <edge id="3/1to4/1" sampledSeconds="1141.46" traveltime="53.02" overlapTraveltime="53.29" density="19.41" occupancy="9.66" waitingTime="0.00" speed="18.48" departed="0" arrived="0" entered="22" left="21" laneChangedFrom="0" laneChangedTo="0"/>
        <edge id="4/1to5/1" sampledSeconds="1080.93" traveltime="52.65" overlapTraveltime="52.92" density="18.38" occupancy="9.15" waitingTime="0.00" speed="18.61" departed="0" arrived="0" entered="21" left="20" laneChangedFrom="0" laneChangedTo="0"/>
        <edge id="5/1to6/1" sampledSeconds="1075.18" traveltime="52.62" overlapTraveltime="52.89" density="18.29" occupancy="9.10" waitingTime="0.00" speed="18.62" departed="0" arrived="0" entered="20" left="21" laneChangedFrom="0" laneChangedTo="0"/>
        <edge id="6/1to7/1" sampledSeconds="1283.27" traveltime="54.61" overlapTraveltime="54.89" density="21.83" occupancy="10.86" waitingTime="0.00" speed="17.94" departed="0" arrived="0" entered="21" left="27" laneChangedFrom="0" laneChangedTo="0"/>
        <edge id="7/1to8/1" sampledSeconds="1550.47" traveltime="56.50" overlapTraveltime="56.79" density="26.37" occupancy="13.12" waitingTime="0.00" speed="17.34" departed="0" arrived="0" entered="27" left="27" laneChangedFrom="0" laneChangedTo="0"/>
        <edge id="8/1to9/1" sampledSeconds="1549.76" traveltime="56.48" overlapTraveltime="56.77" density="26.36" occupancy="13.11" waitingTime="0.00" speed="17.35" departed="0" arrived="0" entered="27" left="27" laneChangedFrom="0" laneChangedTo="0"/>
        <edge id="9/1to10/1" sampledSeconds="1515.29" traveltime="56.10" overlapTraveltime="56.39" density="25.77" occupancy="12.82" waitingTime="0.00" speed="17.47" departed="0" arrived="0" entered="27" left="27" laneChangedFrom="0" laneChangedTo="0"/>
    </interval>
    <interval begin="660.00" end="720.00" id="dump_60">
        <edge id="1/1to2/1" sampledSeconds="1389.49" traveltime="54.89" overlapTraveltime="55.17" density="23.63" occupancy="11.76" waitingTime="0.00" speed="17.85" departed="0" arrived="0" entered="26" left="24" laneChangedFrom="0" laneChangedTo="0"/>
        <edge id="10/1to1/1" sampledSeconds="1497.49" traveltime="55.92" overlapTraveltime="56.20" density="25.47" occupancy="12.67" waitingTime="0.00" speed="17.52" departed="0" arrived="0" entered="28" left="26" laneChangedFrom="0" laneChangedTo="0"/>
        <edge id="2/1to3/1" sampledSeconds="1250.70" traveltime="53.77" overlapTraveltime="54.04" density="21.27" occupancy="10.58" waitingTime="0.00" speed="18.22" departed="0" arrived="0" entered="24" left="22" laneChangedFrom="0" laneChangedTo="0"/>
        <edge id="3/1to4/1" sampledSeconds="1176.06" traveltime="53.26" overlapTraveltime="53.53" density="20.00" occupancy="9.95" waitingTime="0.00" speed="18.40" departed="0" arrived="0" entered="22" left="21" laneChangedFrom="0" laneChangedTo="0"/>
        <edge id="4/1to5/1" sampledSeconds="1139.68" traveltime="53.01" overlapTraveltime="53.28" density="19.38" occupancy="9.64" waitingTime="0.00" speed="18.49" departed="0" arrived="0" entered="21" left="21" laneChangedFrom="0" laneChangedTo="0"/>
        <edge id="5/1to6/1" sampledSeconds="1080.92" traveltime="52.65" overlapTraveltime="52.92" density="18.38" occupancy="9.14" waitingTime="0.00" speed="18.61" departed="0" arrived="0" entered="21" left="20" laneChangedFrom="0" laneChangedTo="0"/>
        <edge id="6/1to7/1" sampledSeconds="1076.52" traveltime="52.63" overlapTraveltime="52.90" density="18.31" occupancy="9.11" waitingTime="0.00" speed="18.62" departed="0" arrived="0" entered="20" left="21" laneChangedFrom="0" laneChangedTo="0"/>
        <edge id="7/1to8/1" sampledSeconds="1337.58" traveltime="55.03" overlapTraveltime="55.32" density="22.75" occupancy="11.32" waitingTime="0.00" speed="17.80" departed="0" arrived="0" entered="21" left="27" laneChangedFrom="0" laneChangedTo="0"/>
        <edge id="8/1to9/1" sampledSeconds="1551.79" traveltime="56.51" overlapTraveltime="56.80" density="26.39" occupancy="13.13" waitingTime="0.00" speed="17.34" departed="0" arrived="0" entered="27" left="27" laneChangedFrom="0" laneChangedTo="0"/>
        <edge id="9/1to10/1" sampledSeconds="1545.86" traveltime="56.44" overlapTraveltime="56.73" density="26.29" occupancy="13.08" waitingTime="0.00" speed="17.36" departed="0" arrived="0" entered="27" left="27" laneChangedFrom="0" laneChangedTo="0"/>
    </interval>
    <interval begin="720.00" end="780.00" id="dump_60">
        <edge id="1/1to2/1" sampledSeconds="1478.78" traveltime="55.73" overlapTraveltime="56.01" density="25.15" occupancy="12.51" waitingTime="0.00" speed="17.58" departed="0" arrived="0" entered="27" left="26" laneChangedFrom="0" laneChangedTo="0"/>
        <edge id="10/1to1/1" sampledSeconds="1539.52" traveltime="56.37" overlapTraveltime="56.65" density="26.18" occupancy="13.03" waitingTime="0.00" speed="17.39" departed="0" arrived="0" entered="27" left="27" laneChangedFrom="0" laneChangedTo="0"/>
        <edge id="2/1to3/1" sampledSeconds="1370.62" traveltime="54.72" overlapTraveltime="55.00" density="23.31" occupancy="11.60" waitingTime="0.00" speed="17.91" departed="0" arrived="0" entered="26" left="24" laneChangedFrom="0" laneChangedTo="0"/>
        <edge id="3/1to4/1" sampledSeconds="1242.24" traveltime="53.70" overlapTraveltime="53.98" density="21.13" occupancy="10.51" waitingTime="0.00" speed="18.25" departed="0" arrived="0" entered="24" left="23" laneChangedFrom="0" laneChangedTo="0"/>
        <edge id="4/1to5/1" sampledSeconds="1174.15" traveltime="53.23" overlapTraveltime="53.50" density="19.97" occupancy="9.93" waitingTime="0.00" speed="18.41" departed="0" arrived="0" entered="23" left="22" laneChangedFrom="0" laneChangedTo="0"/>
        <edge id="5/1to6/1" sampledSeconds="1138.74" traveltime="53.00" overlapTraveltime="53.27" density="19.37" occupancy="9.63" waitingTime="0.00" speed="18.49" departed="0" arrived="0" entered="22" left="21" laneChangedFrom="0" laneChangedTo="0"/>
        <edge id="6/1to7/1" sampledSeconds="1081.03" traveltime="52.65" overlapTraveltime="52.92" density="18.39" occupancy="9.15" waitingTime="0.00" speed="18.61" departed="0" arrived="0" entered="21" left="20" laneChangedFrom="0" laneChangedTo="0"/>
        <edge id="7/1to8/1" sampledSeconds="1081.06" traveltime="52.68" overlapTraveltime="52.95" density="18.39" occupancy="9.15" waitingTime="0.00" speed="18.60" departed="0" arrived="0" entered="20" left="21" laneChangedFrom="0" laneChangedTo="0"/>
        <edge id="8/1to9/1" sampledSeconds="1388.82" traveltime="55.42" overlapTraveltime="55.71" density="23.62" occupancy="11.75" waitingTime="0.00" speed="17.68" departed="0" arrived="0" entered="21" left="28" laneChangedFrom="0" laneChangedTo="0"/>
        <edge id="9/1to10/1" sampledSeconds="1551.23" traveltime="56.50" overlapTraveltime="56.79" density="26.38" occupancy="13.12" waitingTime="0.00" speed="17.34" departed="0" arrived="0" entered="28" left="27" laneChangedFrom="0" laneChangedTo="0"/>
    </interval>
    <interval begin="780.00" end="840.00" id="dump_60">
        <edge id="1/1to2/1" sampledSeconds="1529.75" traveltime="56.26" overlapTraveltime="56.55" density="26.02" occupancy="12.94" waitingTime="0.00" speed="17.42" departed="0" arrived="0" entered="27" left="27" laneChangedFrom="0" laneChangedTo="0"/>
        <edge id="10/1to1/1" sampledSeconds="1550.59" traveltime="56.49" overlapTraveltime="56.78" density="26.37" occupancy="13.12" waitingTime="0.00" speed="17.35" departed="0" arrived="0" entered="27" left="27" laneChangedFrom="0" laneChangedTo="0"/>
        <edge id="2/1to3/1" sampledSeconds="1460.04" traveltime="55.55" overlapTraveltime="55.83" density="24.83" occupancy="12.35" waitingTime="0.00" speed="17.64" departed="0" arrived="0" entered="27" left="26" laneChangedFrom="0" laneChangedTo="0"/>
        <edge id="3/1to4/1" sampledSeconds="1353.95" traveltime="54.58" overlapTraveltime="54.86" density="23.03" occupancy="11.46" waitingTime="0.00" speed="17.96" departed="0" arrived="0" entered="26" left="24" laneChangedFrom="0" laneChangedTo="0"/>
        <edge id="4/1to5/1" sampledSeconds="1234.64" traveltime="53.65" overlapTraveltime="53.92" density="21.00" occupancy="10.45" waitingTime="0.00" speed="18.27" departed="0" arrived="0" entered="24" left="22" laneChangedFrom="0" laneChangedTo="0"/>
        <edge id="5/1to6/1" sampledSeconds="1171.94" traveltime="53.22" overlapTraveltime="53.49" density="19.93" occupancy="9.92" waitingTime="0.00" speed="18.41" departed="0" arrived="0" entered="22" left="21" laneChangedFrom="0" laneChangedTo="0"/>
        <edge id="6/1to7/1" sampledSeconds="1137.41" traveltime="52.99" overlapTraveltime="53.26" density="19.34" occupancy="9.62" waitingTime="0.00" speed="18.49" departed="0" arrived="0" entered="21" left="21" laneChangedFrom="0" laneChangedTo="0"/>