<?xml version="1.0" encoding="UTF-8"?>

<!-- generated on 2021-09-02 16:06:34 by Eclipse SUMO sumo Version v1_10_0+0473-420c3489cc3
This data file and the accompanying materials
are made available under the terms of the Eclipse Public License v2.0
which accompanies this distribution, and is available at
http://www.eclipse.org/legal/epl-v20.html
SPDX-License-Identifier: EPL-2.0
<configuration xmlns:xsi="http://www.w3.org/2001/XMLSchema-instance" xsi:noNamespaceSchemaLocation="http://sumo.dlr.de/xsd/sumoConfiguration.xsd">

    <input>
        <net-file value="motorway.net.xml"/>
        <route-files value="input_routes.rou.xml"/>
    </input>

    <output>
        <write-license value="true"/>
        <tripinfo-output value="tripinfos.xml"/>
        <vehroute-output value="vehroutes.xml"/>
    </output>

    <processing>
        <default.speeddev value="0"/>
        <pedestrian.model value="nonInteracting"/>
    </processing>

    <report>
        <xml-validation value="never"/>
        <xml-validation.routes value="never"/>
        <duration-log.disable value="true"/>
        <no-step-log value="true"/>
    </report>

    <mesoscopic>
        <mesosim value="true"/>
    </mesoscopic>

</configuration>
-->

<tripinfos xmlns:xsi="http://www.w3.org/2001/XMLSchema-instance" xsi:noNamespaceSchemaLocation="http://sumo.dlr.de/xsd/tripinfo_file.xsd">
    <tripinfo id="v0.0" depart="0.00" departLane="" departPos="0.00" departSpeed="35.99" departDelay="0.00" arrival="167.00" arrivalLane="" arrivalPos="2992.00" arrivalSpeed="35.99" duration="167.00" routeLength="8980.00" waitingTime="0.00" waitingCount="0" stopTime="0.00" timeLoss="0.00" rerouteNo="0" devices="vehroute_v0.0 tripinfo_v0.0" vType="DEFAULT_VEHTYPE" speedFactor="1.00" vaporized=""/>
    <tripinfo id="v0.1" depart="2.00" departLane="" departPos="0.00" departSpeed="35.99" departDelay="0.00" arrival="177.00" arrivalLane="" arrivalPos="192.00" arrivalSpeed="35.99" duration="175.00" routeLength="6464.00" waitingTime="0.00" waitingCount="0" stopTime="0.00" timeLoss="0.00" rerouteNo="0" devices="vehroute_v0.1 tripinfo_v0.1" vType="DEFAULT_VEHTYPE" speedFactor="1.00" vaporized=""/>
    <tripinfo id="v0.4" depart="8.00" departLane="" departPos="0.00" departSpeed="35.99" departDelay="0.00" arrival="177.00" arrivalLane="" arrivalPos="92.00" arrivalSpeed="36.00" duration="169.00" routeLength="6172.00" waitingTime="0.00" waitingCount="0" stopTime="0.00" timeLoss="0.00" rerouteNo="0" devices="vehroute_v0.4 tripinfo_v0.4" vType="DEFAULT_VEHTYPE" speedFactor="1.00" vaporized=""/>
    <tripinfo id="v0.2" depart="4.00" departLane="" departPos="0.00" departSpeed="35.99" departDelay="0.00" arrival="179.00" arrivalLane="" arrivalPos="192.00" arrivalSpeed="35.99" duration="175.00" routeLength="6464.00" waitingTime="0.00" waitingCount="0" stopTime="0.00" timeLoss="0.00" rerouteNo="0" devices="vehroute_v0.2 tripinfo_v0.2" vType="DEFAULT_VEHTYPE" speedFactor="1.00" vaporized=""/>
    <tripinfo id="v0.3" depart="6.00" departLane="" departPos="0.00" departSpeed="35.99" departDelay="0.00" arrival="181.00" arrivalLane="" arrivalPos="192.00" arrivalSpeed="35.99" duration="175.00" routeLength="6464.00" waitingTime="0.00" waitingCount="0" stopTime="0.00" timeLoss="0.00" rerouteNo="0" devices="vehroute_v0.3 tripinfo_v0.3" vType="DEFAULT_VEHTYPE" speedFactor="1.00" vaporized=""/>
    <tripinfo id="v0.10" depart="20.00" departLane="" departPos="0.00" departSpeed="35.99" departDelay="0.00" arrival="187.00" arrivalLane="" arrivalPos="2992.00" arrivalSpeed="35.99" duration="167.00" routeLength="8980.00" waitingTime="0.00" waitingCount="0" stopTime="0.00" timeLoss="0.00" rerouteNo="0" devices="vehroute_v0.10 tripinfo_v0.10" vType="DEFAULT_VEHTYPE" speedFactor="1.00" vaporized=""/>
    <tripinfo id="v0.7" depart="14.00" departLane="" departPos="0.00" departSpeed="35.99" departDelay="0.00" arrival="189.00" arrivalLane="" arrivalPos="192.00" arrivalSpeed="35.99" duration="175.00" routeLength="6464.00" waitingTime="0.00" waitingCount="0" stopTime="0.00" timeLoss="0.00" rerouteNo="0" devices="vehroute_v0.7 tripinfo_v0.7" vType="DEFAULT_VEHTYPE" speedFactor="1.00" vaporized=""/>
    <tripinfo id="v0.13" depart="26.00" departLane="" departPos="0.00" departSpeed="35.99" departDelay="0.00" arrival="193.00" arrivalLane="" arrivalPos="2992.00" arrivalSpeed="35.99" duration="167.00" routeLength="8980.00" waitingTime="0.00" waitingCount="0" stopTime="0.00" timeLoss="0.00" rerouteNo="0" devices="vehroute_v0.13 tripinfo_v0.13" vType="DEFAULT_VEHTYPE" speedFactor="1.00" vaporized=""/>
    <tripinfo id="v0.11" depart="22.00" departLane="" departPos="0.00" departSpeed="35.99" departDelay="0.00" arrival="197.00" arrivalLane="" arrivalPos="192.00" arrivalSpeed="35.99" duration="175.00" routeLength="6464.00" waitingTime="0.00" waitingCount="0" stopTime="0.00" timeLoss="0.00" rerouteNo="0" devices="vehroute_v0.11 tripinfo_v0.11" vType="DEFAULT_VEHTYPE" speedFactor="1.00" vaporized=""/>
    <tripinfo id="v0.12" depart="24.00" departLane="" departPos="0.00" departSpeed="35.99" departDelay="0.00" arrival="199.00" arrivalLane="" arrivalPos="192.00" arrivalSpeed="35.99" duration="175.00" routeLength="6464.00" waitingTime="0.00" waitingCount="0" stopTime="0.00" timeLoss="0.00" rerouteNo="0" devices="vehroute_v0.12 tripinfo_v0.12" vType="DEFAULT_VEHTYPE" speedFactor="1.00" vaporized=""/>
    <tripinfo id="v0.15" depart="30.00" departLane="" departPos="0.00" departSpeed="35.99" departDelay="0.00" arrival="199.00" arrivalLane="" arrivalPos="92.00" arrivalSpeed="36.00" duration="169.00" routeLength="6172.00" waitingTime="0.00" waitingCount="0" stopTime="0.00" timeLoss="0.00" rerouteNo="0" devices="vehroute_v0.15 tripinfo_v0.15" vType="DEFAULT_VEHTYPE" speedFactor="1.00" vaporized=""/>
    <tripinfo id="v0.14" depart="28.00" departLane="" departPos="0.00" departSpeed="35.99" departDelay="0.00" arrival="203.00" arrivalLane="" arrivalPos="192.00" arrivalSpeed="35.99" duration="175.00" routeLength="6464.00" waitingTime="0.00" waitingCount="0" stopTime="0.00" timeLoss="0.00" rerouteNo="0" devices="vehroute_v0.14 tripinfo_v0.14" vType="DEFAULT_VEHTYPE" speedFactor="1.00" vaporized=""/>
    <tripinfo id="v0.17" depart="34.00" departLane="" departPos="0.00" departSpeed="35.99" departDelay="0.00" arrival="209.00" arrivalLane="" arrivalPos="192.00" arrivalSpeed="35.99" duration="175.00" routeLength="6464.00" waitingTime="0.00" waitingCount="0" stopTime="0.00" timeLoss="0.00" rerouteNo="0" devices="vehroute_v0.17 tripinfo_v0.17" vType="DEFAULT_VEHTYPE" speedFactor="1.00" vaporized=""/>
    <tripinfo id="v0.5" depart="10.00" departLane="" departPos="0.00" departSpeed="35.99" departDelay="0.00" arrival="268.00" arrivalLane="" arrivalPos="2996.00" arrivalSpeed="36.00" duration="258.00" routeLength="12264.00" waitingTime="0.00" waitingCount="0" stopTime="0.00" timeLoss="0.00" rerouteNo="0" devices="vehroute_v0.5 tripinfo_v0.5" vType="DEFAULT_VEHTYPE" speedFactor="1.00" vaporized=""/>
    <tripinfo id="v0.6" depart="12.00" departLane="" departPos="0.00" departSpeed="35.99" departDelay="0.00" arrival="276.00" arrivalLane="" arrivalPos="200.00" arrivalSpeed="36.00" duration="264.00" routeLength="9468.00" waitingTime="0.00" waitingCount="0" stopTime="0.00" timeLoss="0.00" rerouteNo="0" devices="vehroute_v0.6 tripinfo_v0.6" vType="DEFAULT_VEHTYPE" speedFactor="1.00" vaporized=""/>
    <tripinfo id="v0.8" depart="16.00" departLane="" departPos="0.00" departSpeed="35.99" departDelay="0.00" arrival="280.00" arrivalLane="" arrivalPos="200.00" arrivalSpeed="36.00" duration="264.00" routeLength="9468.00" waitingTime="0.00" waitingCount="0" stopTime="0.00" timeLoss="0.00" rerouteNo="0" devices="vehroute_v0.8 tripinfo_v0.8" vType="DEFAULT_VEHTYPE" speedFactor="1.00" vaporized=""/>
    <tripinfo id="v0.9" depart="18.00" departLane="" departPos="0.00" departSpeed="35.99" departDelay="0.00" arrival="282.00" arrivalLane="" arrivalPos="200.00" arrivalSpeed="36.00" duration="264.00" routeLength="9468.00" waitingTime="0.00" waitingCount="0" stopTime="0.00" timeLoss="0.00" rerouteNo="0" devices="vehroute_v0.9 tripinfo_v0.9" vType="DEFAULT_VEHTYPE" speedFactor="1.00" vaporized=""/>
    <tripinfo id="v0.16" depart="32.00" departLane="" departPos="0.00" departSpeed="35.99" departDelay="0.00" arrival="290.00" arrivalLane="" arrivalPos="2996.00" arrivalSpeed="36.00" duration="258.00" routeLength="12264.00" waitingTime="0.00" waitingCount="0" stopTime="0.00" timeLoss="0.00" rerouteNo="0" devices="vehroute_v0.16 tripinfo_v0.16" vType="DEFAULT_VEHTYPE" speedFactor="1.00" vaporized=""/>
    <tripinfo id="v0.18" depart="36.00" departLane="" departPos="0.00" departSpeed="35.99" departDelay="0.00" arrival="294.00" arrivalLane="" arrivalPos="2996.00" arrivalSpeed="36.00" duration="258.00" routeLength="12264.00" waitingTime="0.00" waitingCount="0" stopTime="0.00" timeLoss="0.00" rerouteNo="0" devices="vehroute_v0.18 tripinfo_v0.18" vType="DEFAULT_VEHTYPE" speedFactor="1.00" vaporized=""/>
    <tripinfo id="v0.19" depart="38.00" departLane="" departPos="0.00" departSpeed="35.99" departDelay="0.00" arrival="296.00" arrivalLane="" arrivalPos="2996.00" arrivalSpeed="36.00" duration="258.00" routeLength="12264.00" waitingTime="0.00" waitingCount="0" stopTime="0.00" timeLoss="0.00" rerouteNo="0" devices="vehroute_v0.19 tripinfo_v0.19" vType="DEFAULT_VEHTYPE" speedFactor="1.00" vaporized=""/>
</tripinfos>
