<?xml version="1.0" encoding="UTF-8"?>

<!-- generated on 2026-04-09T16:35:09.878162+01:00 by Eclipse SUMO sumo v1_26_0+1034-8d7c6592743
This data file and the accompanying materials
are made available under the terms of the Eclipse Public License v2.0
which accompanies this distribution, and is available at
http://www.eclipse.org/legal/epl-v20.html
This file may also be made available under the following Secondary
Licenses when the conditions for such availability set forth in the Eclipse
Public License 2.0 are satisfied: GNU General Public License, version 2
or later which is available at
https://www.gnu.org/licenses/old-licenses/gpl-2.0-standalone.html
SPDX-License-Identifier: EPL-2.0 OR GPL-2.0-or-later
<sumoConfiguration xmlns:xsi="http://www.w3.org/2001/XMLSchema-instance" xsi:noNamespaceSchemaLocation="http://sumo.dlr.de/xsd/sumoConfiguration.xsd">

    <input>
        <net-file value="motorway.net.xml"/>
        <route-files value="input_routes.rou.xml"/>
    </input>

    <output>
        <write-license value="true"/>
        <tripinfo-output value="tripinfos.xml"/>
        <vehroute-output value="vehroutes.xml"/>
    </output>

    <processing>
        <default.speeddev value="0"/>
    </processing>

    <report>
        <xml-validation value="never"/>
        <duration-log.disable value="true"/>
        <no-step-log value="true"/>
    </report>

    <mesoscopic>
        <mesosim value="true"/>
    </mesoscopic>

</sumoConfiguration>
-->

<routes xmlns:xsi="http://www.w3.org/2001/XMLSchema-instance" xsi:noNamespaceSchemaLocation="http://sumo.dlr.de/xsd/routes_file.xsd">
    <vehicle id="v0.0" depart="0.00" arrivalEdge="1" arrival="167.00">
        <route edges="beg beg2 merge end end2 end3"/>
    </vehicle>

    <vehicle id="v0.1" depart="2.00" arrivalEdge="3" arrival="178.00">
        <route edges="beg beg2 merge end end2 end3"/>
    </vehicle>

    <vehicle id="v0.4" depart="8.00" arrivalEdge="2" arrival="178.00">
        <route edges="beg beg2 merge end end2 end3"/>
    </vehicle>

    <vehicle id="v0.2" depart="4.00" arrivalEdge="3" arrival="180.00">
        <route edges="beg beg2 merge end end2 end3"/>
    </vehicle>

    <vehicle id="v0.3" depart="6.00" arrivalEdge="3" arrival="182.00">
        <route edges="beg beg2 merge end end2 end3"/>
    </vehicle>

    <vehicle id="v0.10" depart="20.00" arrivalEdge="1" arrival="187.00">
        <route edges="beg beg2 merge end end2 end3"/>
    </vehicle>

    <vehicle id="v0.7" depart="14.00" arrivalEdge="3" arrival="190.00">
        <route edges="beg beg2 merge end end2 end3"/>
    </vehicle>

    <vehicle id="v0.13" depart="26.00" arrivalEdge="1" arrival="193.00">
        <route edges="beg beg2 merge end end2 end3"/>
    </vehicle>

    <vehicle id="v0.11" depart="22.00" arrivalEdge="3" arrival="198.00">
        <route edges="beg beg2 merge end end2 end3"/>
    </vehicle>

    <vehicle id="v0.12" depart="24.00" arrivalEdge="3" arrival="200.00">
        <route edges="beg beg2 merge end end2 end3"/>
    </vehicle>

    <vehicle id="v0.15" depart="30.00" arrivalEdge="2" arrival="200.00">
        <route edges="beg beg2 merge end end2 end3"/>
    </vehicle>

    <vehicle id="v0.14" depart="28.00" arrivalEdge="3" arrival="204.00">
        <route edges="beg beg2 merge end end2 end3"/>
    </vehicle>

    <vehicle id="v0.17" depart="34.00" arrivalEdge="3" arrival="210.00">
        <route edges="beg beg2 merge end end2 end3"/>
    </vehicle>

    <vehicle id="v0.5" depart="10.00" arrivalEdge="4" arrival="269.00">
        <route edges="beg beg2 merge end end2 end3"/>
    </vehicle>

    <vehicle id="v0.6" depart="12.00" arrivalEdge="5" arrival="276.00">
        <route edges="beg beg2 merge end end2 end3"/>
    </vehicle>

    <vehicle id="v0.8" depart="16.00" arrivalEdge="5" arrival="280.00">
        <route edges="beg beg2 merge end end2 end3"/>
    </vehicle>

    <vehicle id="v0.9" depart="18.00" arrivalEdge="5" arrival="282.00">
        <route edges="beg beg2 merge end end2 end3"/>
    </vehicle>

    <vehicle id="v0.16" depart="32.00" arrivalEdge="4" arrival="291.00">
        <route edges="beg beg2 merge end end2 end3"/>
    </vehicle>

    <vehicle id="v0.18" depart="36.00" arrivalEdge="4" arrival="295.00">
        <route edges="beg beg2 merge end end2 end3"/>
    </vehicle>

    <vehicle id="v0.19" depart="38.00" arrivalEdge="4" arrival="297.00">
        <route edges="beg beg2 merge end end2 end3"/>
    </vehicle>

</routes>
