<?xml version="1.0" encoding="UTF-8"?>

<!-- generated on 2022-07-01 14:43:52 by Eclipse SUMO sumo Version v1_13_0+1353-848c75e
This data file and the accompanying materials
are made available under the terms of the Eclipse Public License v2.0
which accompanies this distribution, and is available at
http://www.eclipse.org/legal/epl-v20.html
This file may also be made available under the following Secondary
Licenses when the conditions for such availability set forth in the Eclipse
Public License 2.0 are satisfied: GNU General Public License, version 2
or later which is available at
https://www.gnu.org/licenses/old-licenses/gpl-2.0-standalone.html
SPDX-License-Identifier: EPL-2.0 OR GPL-2.0-or-later
<configuration xmlns:xsi="http://www.w3.org/2001/XMLSchema-instance" xsi:noNamespaceSchemaLocation="http://sumo.dlr.de/xsd/sumoConfiguration.xsd">

    <input>
        <net-file value="net.net.xml"/>
        <route-files value="input_routes.rou.xml"/>
        <additional-files value="input_additional.add.xml"/>
    </input>

    <output>
        <write-license value="true"/>
        <fcd-output value="fcd.xml"/>
    </output>

    <time>
        <end value="40"/>
        <step-length value="0.2"/>
    </time>

    <processing>
        <lateral-resolution value="0.8"/>
        <default.speeddev value="0"/>
    </processing>

    <report>
        <xml-validation value="never"/>
        <no-step-log value="true"/>
    </report>

</configuration>
-->

<fcd-export xmlns:xsi="http://www.w3.org/2001/XMLSchema-instance" xsi:noNamespaceSchemaLocation="http://sumo.dlr.de/xsd/fcd_file.xsd">
    <timestep time="0.00">
        <vehicle id="shuttle.0" x="-1632.80" y="642.39" angle="89.23" type="t_shuttle" speed="0.00" pos="4.10" lane="26967263#5_1" slope="0.00"/>
    </timestep>
    <timestep time="0.20">
        <vehicle id="shuttle.0" x="-1632.78" y="642.39" angle="89.23" type="t_shuttle" speed="0.10" pos="4.12" lane="26967263#5_1" slope="0.00"/>
    </timestep>
    <timestep time="0.40">
        <vehicle id="shuttle.0" x="-1632.74" y="642.39" angle="89.23" type="t_shuttle" speed="0.20" pos="4.16" lane="26967263#5_1" slope="0.00"/>
    </timestep>
    <timestep time="0.60">
        <vehicle id="shuttle.0" x="-1632.68" y="642.39" angle="89.23" type="t_shuttle" speed="0.30" pos="4.22" lane="26967263#5_1" slope="0.00"/>
    </timestep>
    <timestep time="0.80">
        <vehicle id="shuttle.0" x="-1632.60" y="642.39" angle="89.23" type="t_shuttle" speed="0.40" pos="4.30" lane="26967263#5_1" slope="0.00"/>
    </timestep>
    <timestep time="1.00">
        <vehicle id="shuttle.0" x="-1632.50" y="642.39" angle="89.23" type="t_shuttle" speed="0.50" pos="4.40" lane="26967263#5_1" slope="0.00"/>
    </timestep>
    <timestep time="1.20">
        <vehicle id="shuttle.0" x="-1632.38" y="642.39" angle="89.23" type="t_shuttle" speed="0.60" pos="4.52" lane="26967263#5_1" slope="0.00"/>
    </timestep>
    <timestep time="1.40">
        <vehicle id="shuttle.0" x="-1632.24" y="642.39" angle="89.23" type="t_shuttle" speed="0.70" pos="4.66" lane="26967263#5_1" slope="0.00"/>
    </timestep>
    <timestep time="1.60">
        <vehicle id="shuttle.0" x="-1632.08" y="642.39" angle="89.23" type="t_shuttle" speed="0.80" pos="4.82" lane="26967263#5_1" slope="0.00"/>
    </timestep>
    <timestep time="1.80">
        <vehicle id="shuttle.0" x="-1631.90" y="642.40" angle="89.23" type="t_shuttle" speed="0.90" pos="5.00" lane="26967263#5_1" slope="0.00"/>
    </timestep>
    <timestep time="2.00">
        <vehicle id="shuttle.0" x="-1631.70" y="642.40" angle="89.23" type="t_shuttle" speed="1.00" pos="5.20" lane="26967263#5_1" slope="0.00"/>
    </timestep>
    <timestep time="2.20">
        <vehicle id="shuttle.0" x="-1631.48" y="642.40" angle="89.23" type="t_shuttle" speed="1.10" pos="5.42" lane="26967263#5_1" slope="0.00"/>
    </timestep>
    <timestep time="2.40">
        <vehicle id="shuttle.0" x="-1631.24" y="642.41" angle="89.23" type="t_shuttle" speed="1.20" pos="5.66" lane="26967263#5_1" slope="0.00"/>
    </timestep>
    <timestep time="2.60">
        <vehicle id="shuttle.0" x="-1630.98" y="642.41" angle="89.23" type="t_shuttle" speed="1.30" pos="5.92" lane="26967263#5_1" slope="0.00"/>
    </timestep>
    <timestep time="2.80">
        <vehicle id="shuttle.0" x="-1630.70" y="642.41" angle="89.23" type="t_shuttle" speed="1.39" pos="6.20" lane="26967263#5_1" slope="0.00"/>
    </timestep>
    <timestep time="3.00">
        <vehicle id="bike.0" x="-1635.20" y="642.35" angle="89.23" type="bike" speed="0.00" pos="1.70" lane="26967263#5_1" slope="0.00"/>
        <vehicle id="shuttle.0" x="-1630.41" y="642.42" angle="89.23" type="t_shuttle" speed="1.49" pos="6.49" lane="26967263#5_1" slope="0.00"/>
    </timestep>
    <timestep time="3.20">
        <vehicle id="bike.0" x="-1635.17" y="642.35" angle="89.23" type="bike" speed="0.15" pos="1.73" lane="26967263#5_1" slope="0.00"/>
        <vehicle id="shuttle.0" x="-1630.09" y="642.42" angle="89.23" type="t_shuttle" speed="1.59" pos="6.81" lane="26967263#5_1" slope="0.00"/>
    </timestep>
    <timestep time="3.40">
        <vehicle id="bike.0" x="-1635.11" y="642.35" angle="89.23" type="bike" speed="0.31" pos="1.79" lane="26967263#5_1" slope="0.00"/>
        <vehicle id="shuttle.0" x="-1629.75" y="642.43" angle="89.23" type="t_shuttle" speed="1.68" pos="7.15" lane="26967263#5_1" slope="0.00"/>
    </timestep>
    <timestep time="3.60">
        <vehicle id="bike.0" x="-1635.01" y="642.36" angle="89.23" type="bike" speed="0.49" pos="1.89" lane="26967263#5_1" slope="0.00"/>
        <vehicle id="shuttle.0" x="-1629.40" y="642.43" angle="89.23" type="t_shuttle" speed="1.78" pos="7.51" lane="26967263#5_1" slope="0.00"/>
    </timestep>
    <timestep time="3.80">
        <vehicle id="bike.0" x="-1634.88" y="642.36" angle="89.23" type="bike" speed="0.67" pos="2.02" lane="26967263#5_1" slope="0.00"/>
        <vehicle id="shuttle.0" x="-1629.02" y="642.44" angle="89.23" type="t_shuttle" speed="1.87" pos="7.88" lane="26967263#5_1" slope="0.00"/>
    </timestep>
    <timestep time="4.00">
        <vehicle id="bike.0" x="-1634.71" y="642.36" angle="89.23" type="bike" speed="0.84" pos="2.19" lane="26967263#5_1" slope="0.00"/>
        <vehicle id="shuttle.0" x="-1628.63" y="642.44" angle="89.23" type="t_shuttle" speed="1.96" pos="8.27" lane="26967263#5_1" slope="0.00"/>
    </timestep>
    <timestep time="4.20">
        <vehicle id="bike.0" x="-1634.50" y="642.36" angle="89.23" type="bike" speed="1.02" pos="2.40" lane="26967263#5_1" slope="0.00"/>
        <vehicle id="shuttle.0" x="-1628.22" y="642.45" angle="89.23" type="t_shuttle" speed="2.05" pos="8.68" lane="26967263#5_1" slope="0.00"/>
    </timestep>
    <timestep time="4.40">
        <vehicle id="bike.0" x="-1634.27" y="642.37" angle="89.23" type="bike" speed="1.19" pos="2.63" lane="26967263#5_1" slope="0.00"/>
        <vehicle id="shuttle.0" x="-1627.79" y="642.45" angle="89.23" type="t_shuttle" speed="2.14" pos="9.11" lane="26967263#5_1" slope="0.00"/>
    </timestep>
    <timestep time="4.60">
        <vehicle id="bike.0" x="-1634.00" y="642.37" angle="89.23" type="bike" speed="1.35" pos="2.90" lane="26967263#5_1" slope="0.00"/>
        <vehicle id="shuttle.0" x="-1627.34" y="642.46" angle="89.23" type="t_shuttle" speed="2.23" pos="9.56" lane="26967263#5_1" slope="0.00"/>
    </timestep>
    <timestep time="4.80">
        <vehicle id="bike.0" x="-1633.70" y="642.37" angle="89.23" type="bike" speed="1.51" pos="3.21" lane="26967263#5_1" slope="0.00"/>
        <vehicle id="shuttle.0" x="-1626.88" y="642.47" angle="89.23" type="t_shuttle" speed="2.31" pos="10.02" lane="26967263#5_1" slope="0.00"/>
    </timestep>
    <timestep time="5.00">
        <vehicle id="bike.0" x="-1633.36" y="642.42" angle="85.72" type="bike" speed="1.66" pos="3.54" lane="26967263#5_1" slope="0.00"/>
        <vehicle id="shuttle.0" x="-1626.40" y="642.47" angle="89.23" type="t_shuttle" speed="2.39" pos="10.50" lane="26967263#5_1" slope="0.00"/>
    </timestep>
    <timestep time="5.20">
        <vehicle id="bike.0" x="-1633.00" y="642.50" angle="82.53" type="bike" speed="1.81" pos="3.90" lane="26967263#5_1" slope="0.00"/>
        <vehicle id="bike.1" x="-1635.20" y="642.35" angle="89.23" type="bike" speed="0.00" pos="1.70" lane="26967263#5_1" slope="0.00"/>
        <vehicle id="shuttle.0" x="-1625.91" y="642.48" angle="89.23" type="t_shuttle" speed="2.47" pos="10.99" lane="26967263#5_1" slope="0.00"/>
    </timestep>
    <timestep time="5.40">
        <vehicle id="bike.0" x="-1632.62" y="642.63" angle="79.63" type="bike" speed="1.95" pos="4.29" lane="26967263#5_1" slope="0.00"/>
        <vehicle id="bike.1" x="-1635.19" y="642.35" angle="89.23" type="bike" speed="0.07" pos="1.71" lane="26967263#5_1" slope="0.00"/>
        <vehicle id="shuttle.0" x="-1625.40" y="642.49" angle="89.23" type="t_shuttle" speed="2.55" pos="11.50" lane="26967263#5_1" slope="0.00"/>
    </timestep>
    <timestep time="5.60">
        <vehicle id="bike.0" x="-1632.20" y="642.79" angle="76.96" type="bike" speed="2.08" pos="4.70" lane="26967263#5_1" slope="0.00"/>
        <vehicle id="bike.1" x="-1635.14" y="642.35" angle="89.23" type="bike" speed="0.24" pos="1.76" lane="26967263#5_1" slope="0.00"/>
        <vehicle id="shuttle.0" x="-1624.87" y="642.49" angle="89.23" type="t_shuttle" speed="2.62" pos="12.03" lane="26967263#5_1" slope="0.00"/>
    </timestep>
    <timestep time="5.80">
        <vehicle id="bike.0" x="-1631.76" y="643.00" angle="74.49" type="bike" speed="2.20" pos="5.14" lane="26967263#5_1" slope="0.00"/>
        <vehicle id="bike.1" x="-1635.05" y="642.35" angle="89.23" type="bike" speed="0.43" pos="1.85" lane="26967263#5_1" slope="0.00"/>
        <vehicle id="shuttle.0" x="-1624.34" y="642.50" angle="89.23" type="t_shuttle" speed="2.69" pos="12.57" lane="26967263#5_1" slope="0.00"/>
    </timestep>
    <timestep time="6.00">
        <vehicle id="bike.0" x="-1631.30" y="643.21" angle="74.90" type="bike" speed="2.32" pos="5.61" lane="26967263#5_1" slope="0.00"/>
        <vehicle id="bike.1" x="-1634.93" y="642.36" angle="89.23" type="bike" speed="0.62" pos="1.97" lane="26967263#5_1" slope="0.00"/>
        <vehicle id="shuttle.0" x="-1623.78" y="642.51" angle="89.23" type="t_shuttle" speed="2.76" pos="13.12" lane="26967263#5_1" slope="0.00"/>
    </timestep>
    <timestep time="6.20">
        <vehicle id="bike.0" x="-1630.82" y="643.41" angle="75.27" type="bike" speed="2.42" pos="6.09" lane="26967263#5_1" slope="0.00"/>
        <vehicle id="bike.1" x="-1634.76" y="642.36" angle="89.23" type="bike" speed="0.82" pos="2.14" lane="26967263#5_1" slope="0.00"/>
        <vehicle id="shuttle.0" x="-1623.22" y="642.51" angle="89.23" type="t_shuttle" speed="2.82" pos="13.68" lane="26967263#5_1" slope="0.00"/>
    </timestep>
    <timestep time="6.40">
        <vehicle id="bike.0" x="-1630.32" y="643.62" angle="75.60" type="bike" speed="2.52" pos="6.60" lane="26967263#5_1" slope="0.00"/>
        <vehicle id="bike.1" x="-1634.56" y="642.36" angle="89.23" type="bike" speed="1.02" pos="2.34" lane="26967263#5_1" slope="0.00"/>
        <vehicle id="shuttle.0" x="-1622.65" y="642.52" angle="89.23" type="t_shuttle" speed="2.88" pos="14.26" lane="26967263#5_1" slope="0.00"/>
    </timestep>
    <timestep time="6.60">
        <vehicle id="bike.0" x="-1629.80" y="643.83" angle="75.89" type="bike" speed="2.62" pos="7.12" lane="26967263#5_1" slope="0.00"/>
        <vehicle id="bike.1" x="-1634.32" y="642.36" angle="89.23" type="bike" speed="1.22" pos="2.59" lane="26967263#5_1" slope="0.00"/>
        <vehicle id="shuttle.0" x="-1622.06" y="642.53" angle="89.23" type="t_shuttle" speed="2.93" pos="14.84" lane="26967263#5_1" slope="0.00"/>
    </timestep>
    <timestep time="6.80">
        <vehicle id="bike.0" x="-1629.26" y="644.03" angle="76.14" type="bike" speed="2.70" pos="49.48" lane="-26967263#5_1" slope="0.00"/>
        <vehicle id="bike.1" x="-1634.02" y="642.37" angle="89.23" type="bike" speed="1.45" pos="2.88" lane="26967263#5_1" slope="0.00"/>
        <vehicle id="shuttle.0" x="-1621.46" y="642.54" angle="89.23" type="t_shuttle" speed="2.98" pos="15.44" lane="26967263#5_1" slope="0.00"/>
    </timestep>
    <timestep time="7.00">
        <vehicle id="bike.0" x="-1628.71" y="644.24" angle="76.37" type="bike" speed="2.78" pos="48.92" lane="-26967263#5_1" slope="0.00"/>
        <vehicle id="bike.1" x="-1633.69" y="642.37" angle="89.23" type="bike" speed="1.69" pos="3.21" lane="26967263#5_1" slope="0.00"/>
        <vehicle id="shuttle.0" x="-1620.86" y="642.55" angle="89.23" type="t_shuttle" speed="3.03" pos="16.05" lane="26967263#5_1" slope="0.00"/>
    </timestep>
    <timestep time="7.20">
        <vehicle id="bike.0" x="-1628.14" y="644.45" angle="76.57" type="bike" speed="2.85" pos="48.35" lane="-26967263#5_1" slope="0.00"/>
        <vehicle id="bike.1" x="-1633.30" y="642.38" angle="89.23" type="bike" speed="1.91" pos="3.60" lane="26967263#5_1" slope="0.00"/>
        <vehicle id="shuttle.0" x="-1620.24" y="642.55" angle="89.23" type="t_shuttle" speed="3.07" pos="16.66" lane="26967263#5_1" slope="0.00"/>
    </timestep>
    <timestep time="7.40">
        <vehicle id="bike.0" x="-1627.53" y="644.46" angle="89.23" type="bike" speed="3.08" pos="47.74" lane="-26967263#5_1" slope="0.00"/>
        <vehicle id="bike.1" x="-1632.88" y="642.38" angle="89.23" type="bike" speed="2.14" pos="4.02" lane="26967263#5_1" slope="0.00"/>
        <vehicle id="shuttle.0" x="-1619.62" y="642.56" angle="89.23" type="t_shuttle" speed="3.12" pos="17.28" lane="26967263#5_1" slope="0.00"/>
    </timestep>
    <timestep time="7.60">
        <vehicle id="bike.0" x="-1626.87" y="644.47" angle="89.23" type="bike" speed="3.30" pos="47.08" lane="-26967263#5_1" slope="0.00"/>
        <vehicle id="bike.1" x="-1632.40" y="642.39" angle="89.23" type="bike" speed="2.36" pos="4.50" lane="26967263#5_1" slope="0.00"/>
        <vehicle id="shuttle.0" x="-1618.99" y="642.57" angle="89.23" type="t_shuttle" speed="3.15" pos="17.91" lane="26967263#5_1" slope="0.00"/>
    </timestep>
    <timestep time="7.80">
        <vehicle id="bike.0" x="-1626.16" y="644.48" angle="89.23" type="bike" speed="3.52" pos="46.37" lane="-26967263#5_1" slope="0.00"/>
        <vehicle id="bike.1" x="-1631.89" y="642.40" angle="89.23" type="bike" speed="2.58" pos="5.01" lane="26967263#5_1" slope="0.00"/>
        <vehicle id="shuttle.0" x="-1618.35" y="642.58" angle="89.23" type="t_shuttle" speed="3.19" pos="18.55" lane="26967263#5_1" slope="0.00"/>
    </timestep>
    <timestep time="8.00">
        <vehicle id="bike.0" x="-1625.42" y="644.49" angle="89.23" type="bike" speed="3.73" pos="45.63" lane="-26967263#5_1" slope="0.00"/>
        <vehicle id="bike.1" x="-1631.33" y="642.41" angle="89.23" type="bike" speed="2.78" pos="5.57" lane="26967263#5_1" slope="0.00"/>
        <vehicle id="shuttle.0" x="-1617.71" y="642.59" angle="89.23" type="t_shuttle" speed="3.22" pos="19.19" lane="26967263#5_1" slope="0.00"/>
    </timestep>
    <timestep time="8.20">
        <vehicle id="bike.0" x="-1624.63" y="644.50" angle="89.23" type="bike" speed="3.93" pos="44.84" lane="-26967263#5_1" slope="0.00"/>
        <vehicle id="bike.1" x="-1630.74" y="642.41" angle="89.23" type="bike" speed="2.98" pos="6.16" lane="26967263#5_1" slope="0.00"/>
        <vehicle id="bike.2" x="-1635.20" y="642.35" angle="89.23" type="bike" speed="2.68" pos="1.70" lane="26967263#5_1" slope="0.00"/>
        <vehicle id="shuttle.0" x="-1617.06" y="642.60" angle="89.23" type="t_shuttle" speed="3.24" pos="19.84" lane="26967263#5_1" slope="0.00"/>
    </timestep>
    <timestep time="8.40">
        <vehicle id="bike.0" x="-1623.81" y="644.51" angle="89.23" type="bike" speed="4.12" pos="44.02" lane="-26967263#5_1" slope="0.00"/>
        <vehicle id="bike.1" x="-1630.10" y="642.42" angle="89.23" type="bike" speed="3.17" pos="6.80" lane="26967263#5_1" slope="0.00"/>
        <vehicle id="bike.2" x="-1634.67" y="642.36" angle="89.23" type="bike" speed="2.65" pos="2.23" lane="26967263#5_1" slope="0.00"/>
        <vehicle id="shuttle.0" x="-1616.41" y="642.61" angle="89.23" type="t_shuttle" speed="3.27" pos="20.50" lane="26967263#5_1" slope="0.00"/>
    </timestep>
    <timestep time="8.60">
        <vehicle id="bike.0" x="-1622.95" y="644.52" angle="89.23" type="bike" speed="4.30" pos="43.16" lane="-26967263#5_1" slope="0.00"/>
        <vehicle id="bike.1" x="-1629.43" y="642.43" angle="89.23" type="bike" speed="3.34" pos="7.47" lane="26967263#5_1" slope="0.00"/>
        <vehicle id="bike.2" x="-1634.14" y="642.37" angle="89.23" type="bike" speed="2.67" pos="2.76" lane="26967263#5_1" slope="0.00"/>
        <vehicle id="shuttle.0" x="-1615.75" y="642.62" angle="89.23" type="t_shuttle" speed="3.29" pos="21.16" lane="26967263#5_1" slope="0.00"/>
    </timestep>
    <timestep time="8.80">
        <vehicle id="bike.0" x="-1622.05" y="644.53" angle="89.23" type="bike" speed="4.47" pos="42.26" lane="-26967263#5_1" slope="0.00"/>
        <vehicle id="bike.1" x="-1628.73" y="642.44" angle="89.23" type="bike" speed="3.50" pos="8.17" lane="26967263#5_1" slope="0.00"/>
        <vehicle id="bike.2" x="-1633.59" y="642.37" angle="89.23" type="bike" speed="2.71" pos="3.31" lane="26967263#5_1" slope="0.00"/>
        <vehicle id="shuttle.0" x="-1615.09" y="642.62" angle="89.23" type="t_shuttle" speed="3.31" pos="21.82" lane="26967263#5_1" slope="0.00"/>
    </timestep>
    <timestep time="9.00">
        <vehicle id="bike.0" x="-1621.13" y="644.54" angle="89.23" type="bike" speed="4.63" pos="41.34" lane="-26967263#5_1" slope="0.00"/>
        <vehicle id="bike.1" x="-1628.00" y="642.45" angle="89.23" type="bike" speed="3.65" pos="8.90" lane="26967263#5_1" slope="0.00"/>
        <vehicle id="bike.2" x="-1633.04" y="642.38" angle="89.23" type="bike" speed="2.78" pos="3.86" lane="26967263#5_1" slope="0.00"/>
        <vehicle id="bike.3" x="-1635.20" y="642.35" angle="89.23" type="bike" speed="0.00" pos="1.70" lane="26967263#5_1" slope="0.00"/>
        <vehicle id="shuttle.0" x="-1614.42" y="642.63" angle="89.23" type="t_shuttle" speed="3.33" pos="22.48" lane="26967263#5_1" slope="0.00"/>
    </timestep>
    <timestep time="9.20">
        <vehicle id="bike.0" x="-1620.17" y="644.56" angle="89.23" type="bike" speed="4.78" pos="40.38" lane="-26967263#5_1" slope="0.00"/>
        <vehicle id="bike.1" x="-1627.25" y="642.46" angle="89.23" type="bike" speed="3.78" pos="9.65" lane="26967263#5_1" slope="0.00"/>
        <vehicle id="bike.2" x="-1632.46" y="642.39" angle="89.23" type="bike" speed="2.87" pos="4.44" lane="26967263#5_1" slope="0.00"/>
        <vehicle id="bike.3" x="-1635.19" y="642.35" angle="89.23" type="bike" speed="0.05" pos="1.71" lane="26967263#5_1" slope="0.00"/>
        <vehicle id="shuttle.0" x="-1613.75" y="642.64" angle="89.23" type="t_shuttle" speed="3.34" pos="23.15" lane="26967263#5_1" slope="0.00"/>
    </timestep>
    <timestep time="9.40">
        <vehicle id="bike.0" x="-1619.19" y="644.57" angle="89.23" type="bike" speed="4.92" pos="39.40" lane="-26967263#5_1" slope="0.00"/>
        <vehicle id="bike.1" x="-1626.47" y="642.47" angle="89.23" type="bike" speed="3.89" pos="10.43" lane="26967263#5_1" slope="0.00"/>
        <vehicle id="bike.2" x="-1631.87" y="642.40" angle="89.23" type="bike" speed="2.96" pos="5.03" lane="26967263#5_1" slope="0.00"/>
        <vehicle id="bike.3" x="-1635.14" y="642.35" angle="89.23" type="bike" speed="0.24" pos="1.76" lane="26967263#5_1" slope="0.00"/>
        <vehicle id="shuttle.0" x="-1613.08" y="642.65" angle="89.23" type="t_shuttle" speed="3.35" pos="23.82" lane="26967263#5_1" slope="0.00"/>
    </timestep>
    <timestep time="9.60">
        <vehicle id="bike.0" x="-1618.18" y="644.58" angle="89.23" type="bike" speed="5.04" pos="38.39" lane="-26967263#5_1" slope="0.00"/>
        <vehicle id="bike.1" x="-1625.67" y="642.48" angle="89.23" type="bike" speed="3.99" pos="11.23" lane="26967263#5_1" slope="0.00"/>
        <vehicle id="bike.2" x="-1631.26" y="642.41" angle="89.23" type="bike" speed="3.06" pos="5.64" lane="26967263#5_1" slope="0.00"/>
        <vehicle id="bike.3" x="-1635.05" y="642.35" angle="89.23" type="bike" speed="0.45" pos="1.85" lane="26967263#5_1" slope="0.00"/>
        <vehicle id="shuttle.0" x="-1612.41" y="642.66" angle="89.23" type="t_shuttle" speed="3.36" pos="24.49" lane="26967263#5_1" slope="0.00"/>
    </timestep>
    <timestep time="9.80">
        <vehicle id="bike.0" x="-1617.15" y="644.60" angle="89.23" type="bike" speed="5.15" pos="37.36" lane="-26967263#5_1" slope="0.00"/>
        <vehicle id="bike.1" x="-1624.86" y="642.49" angle="89.23" type="bike" speed="4.08" pos="12.05" lane="26967263#5_1" slope="0.00"/>
        <vehicle id="bike.2" x="-1630.63" y="642.41" angle="89.23" type="bike" speed="3.16" pos="6.27" lane="26967263#5_1" slope="0.00"/>
        <vehicle id="bike.3" x="-1634.92" y="642.36" angle="89.23" type="bike" speed="0.67" pos="1.98" lane="26967263#5_1" slope="0.00"/>
        <vehicle id="shuttle.0" x="-1611.74" y="642.67" angle="89.23" type="t_shuttle" speed="3.37" pos="25.17" lane="26967263#5_1" slope="0.00"/>
    </timestep>
    <timestep time="10.00">
        <vehicle id="bike.0" x="-1616.10" y="644.61" angle="89.23" type="bike" speed="5.25" pos="36.31" lane="-26967263#5_1" slope="0.00"/>
        <vehicle id="bike.1" x="-1624.03" y="642.54" angle="87.23" type="bike" speed="4.15" pos="12.88" lane="26967263#5_1" slope="0.00"/>
        <vehicle id="bike.2" x="-1629.98" y="642.42" angle="89.23" type="bike" speed="3.26" pos="6.92" lane="26967263#5_1" slope="0.00"/>
        <vehicle id="bike.3" x="-1634.74" y="642.36" angle="89.23" type="bike" speed="0.89" pos="2.16" lane="26967263#5_1" slope="0.00"/>
        <vehicle id="shuttle.0" x="-1611.06" y="642.68" angle="89.23" type="t_shuttle" speed="3.38" pos="25.84" lane="26967263#5_1" slope="0.00"/>
    </timestep>
    <timestep time="10.20">
        <vehicle id="bike.0" x="-1615.03" y="644.63" angle="89.23" type="bike" speed="5.34" pos="35.24" lane="-26967263#5_1" slope="0.00"/>
        <vehicle id="bike.1" x="-1623.19" y="642.63" angle="85.28" type="bike" speed="4.20" pos="13.72" lane="26967263#5_1" slope="0.00"/>
        <vehicle id="bike.2" x="-1629.31" y="642.43" angle="89.23" type="bike" speed="3.36" pos="7.59" lane="26967263#5_1" slope="0.00"/>
        <vehicle id="bike.3" x="-1634.51" y="642.36" angle="89.23" type="bike" speed="1.12" pos="2.39" lane="26967263#5_1" slope="0.00"/>
        <vehicle id="shuttle.0" x="-1610.38" y="642.69" angle="89.23" type="t_shuttle" speed="3.38" pos="26.52" lane="26967263#5_1" slope="0.00"/>
    </timestep>
    <timestep time="10.40">
        <vehicle id="bike.0" x="-1613.94" y="644.64" angle="89.23" type="bike" speed="5.42" pos="34.15" lane="-26967263#5_1" slope="0.00"/>
        <vehicle id="bike.1" x="-1622.34" y="642.77" angle="83.36" type="bike" speed="4.24" pos="14.56" lane="26967263#5_1" slope="0.00"/>
        <vehicle id="bike.2" x="-1628.62" y="642.44" angle="89.23" type="bike" speed="3.45" pos="8.28" lane="26967263#5_1" slope="0.00"/>
        <vehicle id="bike.3" x="-1634.25" y="642.37" angle="89.23" type="bike" speed="1.34" pos="2.65" lane="26967263#5_1" slope="0.00"/>
        <vehicle id="shuttle.0" x="-1609.71" y="642.70" angle="89.23" type="t_shuttle" speed="3.38" pos="27.20" lane="26967263#5_1" slope="0.00"/>
    </timestep>
    <timestep time="10.60">
        <vehicle id="bike.0" x="-1612.85" y="644.65" angle="89.23" type="bike" speed="5.49" pos="33.06" lane="-26967263#5_1" slope="0.00"/>
        <vehicle id="bike.1" x="-1621.49" y="642.94" angle="81.47" type="bike" speed="4.27" pos="15.42" lane="26967263#5_1" slope="0.00"/>
        <vehicle id="bike.2" x="-1627.91" y="642.45" angle="89.23" type="bike" speed="3.54" pos="8.99" lane="26967263#5_1" slope="0.00"/>
        <vehicle id="bike.3" x="-1633.93" y="642.41" angle="85.61" type="bike" speed="1.56" pos="2.97" lane="26967263#5_1" slope="0.00"/>
        <vehicle id="shuttle.0" x="-1609.03" y="642.71" angle="89.23" type="t_shuttle" speed="3.38" pos="27.87" lane="26967263#5_1" slope="0.00"/>
    </timestep>
    <timestep time="10.80">
        <vehicle id="bike.0" x="-1611.74" y="644.67" angle="89.23" type="bike" speed="5.55" pos="31.95" lane="-26967263#5_1" slope="0.00"/>
        <vehicle id="bike.1" x="-1620.63" y="643.15" angle="79.60" type="bike" speed="4.29" pos="16.28" lane="26967263#5_1" slope="0.00"/>
        <vehicle id="bike.2" x="-1627.18" y="642.46" angle="89.23" type="bike" speed="3.63" pos="9.72" lane="26967263#5_1" slope="0.00"/>
        <vehicle id="bike.3" x="-1633.58" y="642.49" angle="82.48" type="bike" speed="1.78" pos="3.32" lane="26967263#5_1" slope="0.00"/>
        <vehicle id="shuttle.0" x="-1608.35" y="642.71" angle="89.23" type="t_shuttle" speed="3.38" pos="28.55" lane="26967263#5_1" slope="0.00"/>
    </timestep>
    <timestep time="11.00">
        <vehicle id="bike.0" x="-1610.62" y="644.68" angle="89.23" type="bike" speed="5.60" pos="30.83" lane="-26967263#5_1" slope="0.00"/>
        <vehicle id="bike.1" x="-1619.78" y="643.36" angle="79.61" type="bike" speed="4.30" pos="17.14" lane="26967263#5_1" slope="0.00"/>
        <vehicle id="bike.2" x="-1626.44" y="642.47" angle="89.23" type="bike" speed="3.71" pos="10.46" lane="26967263#5_1" slope="0.00"/>
        <vehicle id="bike.3" x="-1633.18" y="642.62" angle="79.76" type="bike" speed="2.00" pos="3.72" lane="26967263#5_1" slope="0.00"/>
        <vehicle id="shuttle.0" x="-1607.68" y="642.72" angle="89.23" type="t_shuttle" speed="3.38" pos="29.23" lane="26967263#5_1" slope="0.00"/>
    </timestep>
    <timestep time="11.20">
        <vehicle id="bike.0" x="-1609.49" y="644.70" angle="89.23" type="bike" speed="5.64" pos="29.70" lane="-26967263#5_1" slope="0.00"/>
        <vehicle id="bike.1" x="-1618.92" y="643.57" angle="79.62" type="bike" speed="4.31" pos="18.00" lane="26967263#5_1" slope="0.00"/>
        <vehicle id="bike.2" x="-1625.69" y="642.48" angle="89.23" type="bike" speed="3.78" pos="11.22" lane="26967263#5_1" slope="0.00"/>
        <vehicle id="bike.3" x="-1632.74" y="642.79" angle="77.38" type="bike" speed="2.21" pos="4.16" lane="26967263#5_1" slope="0.00"/>
        <vehicle id="bike.4" x="-1635.20" y="642.35" angle="89.23" type="bike" speed="0.00" pos="1.70" lane="26967263#5_1" slope="0.00"/>
        <vehicle id="shuttle.0" x="-1607.00" y="642.73" angle="89.23" type="t_shuttle" speed="3.37" pos="29.90" lane="26967263#5_1" slope="0.00"/>
    </timestep>
    <timestep time="11.40">
        <vehicle id="bike.0" x="-1608.35" y="644.72" angle="89.23" type="bike" speed="5.68" pos="28.56" lane="-26967263#5_1" slope="0.00"/>
        <vehicle id="bike.1" x="-1618.06" y="643.78" angle="79.61" type="bike" speed="4.30" pos="18.86" lane="26967263#5_1" slope="0.00"/>
        <vehicle id="bike.2" x="-1624.92" y="642.49" angle="89.23" type="bike" speed="3.85" pos="11.99" lane="26967263#5_1" slope="0.00"/>
        <vehicle id="bike.3" x="-1632.26" y="642.99" angle="75.27" type="bike" speed="2.42" pos="4.65" lane="26967263#5_1" slope="0.00"/>
        <vehicle id="bike.4" x="-1635.17" y="642.35" angle="89.23" type="bike" speed="0.16" pos="1.73" lane="26967263#5_1" slope="0.00"/>
        <vehicle id="shuttle.0" x="-1606.33" y="642.74" angle="89.23" type="t_shuttle" speed="3.37" pos="30.57" lane="26967263#5_1" slope="0.00"/>
    </timestep>
    <timestep time="11.60">
        <vehicle id="bike.0" x="-1607.21" y="644.73" angle="89.23" type="bike" speed="5.71" pos="27.42" lane="-26967263#5_1" slope="0.00"/>
        <vehicle id="bike.1" x="-1617.20" y="644.00" angle="79.60" type="bike" speed="4.29" pos="19.72" lane="26967263#5_1" slope="0.00"/>
        <vehicle id="bike.2" x="-1624.14" y="642.54" angle="87.15" type="bike" speed="3.90" pos="12.77" lane="26967263#5_1" slope="0.00"/>
        <vehicle id="bike.3" x="-1631.74" y="643.20" angle="75.92" type="bike" speed="2.63" pos="5.17" lane="26967263#5_1" slope="0.00"/>
        <vehicle id="bike.4" x="-1635.10" y="642.35" angle="89.23" type="bike" speed="0.36" pos="1.80" lane="26967263#5_1" slope="0.00"/>
        <vehicle id="shuttle.0" x="-1605.66" y="642.75" angle="89.23" type="t_shuttle" speed="3.36" pos="31.25" lane="26967263#5_1" slope="0.00"/>
    </timestep>
    <timestep time="11.80">
        <vehicle id="bike.0" x="-1606.06" y="644.75" angle="89.23" type="bike" speed="5.74" pos="26.27" lane="-26967263#5_1" slope="0.00"/>
        <vehicle id="bike.1" x="-1616.35" y="644.21" angle="79.57" type="bike" speed="4.28" pos="36.57" lane="-26967263#5_1" slope="0.00"/>
        <vehicle id="bike.2" x="-1623.33" y="642.63" angle="85.18" type="bike" speed="4.06" pos="13.58" lane="26967263#5_1" slope="0.00"/>
        <vehicle id="bike.3" x="-1631.17" y="643.41" angle="76.49" type="bike" speed="2.82" pos="5.74" lane="26967263#5_1" slope="0.00"/>
        <vehicle id="bike.4" x="-1634.98" y="642.36" angle="89.23" type="bike" speed="0.56" pos="1.92" lane="26967263#5_1" slope="0.00"/>
        <vehicle id="shuttle.0" x="-1604.99" y="642.76" angle="89.23" type="t_shuttle" speed="3.34" pos="31.91" lane="26967263#5_1" slope="0.00"/>
    </timestep>
    <timestep time="12.00">
        <vehicle id="bike.0" x="-1604.91" y="644.76" angle="89.23" type="bike" speed="5.77" pos="25.12" lane="-26967263#5_1" slope="0.00"/>
        <vehicle id="bike.1" x="-1615.50" y="644.42" angle="79.54" type="bike" speed="4.26" pos="35.71" lane="-26967263#5_1" slope="0.00"/>
        <vehicle id="bike.2" x="-1622.49" y="642.76" angle="83.32" type="bike" speed="4.20" pos="14.42" lane="26967263#5_1" slope="0.00"/>
        <vehicle id="bike.3" x="-1630.57" y="643.62" angle="77.01" type="bike" speed="3.02" pos="6.34" lane="26967263#5_1" slope="0.00"/>
        <vehicle id="bike.4" x="-1634.83" y="642.36" angle="89.23" type="bike" speed="0.78" pos="2.07" lane="26967263#5_1" slope="0.00"/>