<?xml version="1.0" encoding="UTF-8"?>

<!-- generated on 2024-08-26 15:32:52 by Eclipse SUMO sumo Version v1_20_0+1721-016cfd09667
This data file and the accompanying materials
are made available under the terms of the Eclipse Public License v2.0
which accompanies this distribution, and is available at
http://www.eclipse.org/legal/epl-v20.html
This file may also be made available under the following Secondary
Licenses when the conditions for such availability set forth in the Eclipse
Public License 2.0 are satisfied: GNU General Public License, version 2
or later which is available at
https://www.gnu.org/licenses/old-licenses/gpl-2.0-standalone.html
SPDX-License-Identifier: EPL-2.0 OR GPL-2.0-or-later
<sumoConfiguration xmlns:xsi="http://www.w3.org/2001/XMLSchema-instance" xsi:noNamespaceSchemaLocation="http://sumo.dlr.de/xsd/sumoConfiguration.xsd">

    <input>
        <net-file value="net.net.xml"/>
        <route-files value="input_routes.rou.xml"/>
    </input>

    <output>
        <write-license value="true"/>
        <tripinfo-output value="tripinfos.xml"/>
    </output>

    <processing>
        <default.speeddev value="0"/>
    </processing>

    <report>
        <xml-validation value="never"/>
        <duration-log.disable value="true"/>
        <no-step-log value="true"/>
    </report>

    <mesoscopic>
        <mesosim value="true"/>
        <meso-junction-control value="true"/>
    </mesoscopic>

</sumoConfiguration>
-->

<tripinfos xmlns:xsi="http://www.w3.org/2001/XMLSchema-instance" xsi:noNamespaceSchemaLocation="http://sumo.dlr.de/xsd/tripinfo_file.xsd">
    <tripinfo id="should_drive" depart="0.00" departLane="beg1_0" departPos="0.00" departSpeed="2.00" departDelay="0.00" arrival="129.00" arrivalLane="end_0" arrivalPos="150.92" arrivalSpeed="2.00" duration="129.00" routeLength="256.27" waitingTime="0.00" waitingCount="0" stopTime="0.00" timeLoss="0.00" rerouteNo="0" devices="tripinfo_should_drive" vType="slow" speedFactor="1.00" vaporized=""/>
    <tripinfo id="should_follow" depart="0.00" departLane="beg2_0" departPos="397.78" departSpeed="0.50" departDelay="0.00" arrival="501.00" arrivalLane="end_0" arrivalPos="150.92" arrivalSpeed="0.50" duration="501.00" routeLength="250.37" waitingTime="0.00" waitingCount="0" stopTime="0.00" timeLoss="0.00" rerouteNo="0" devices="tripinfo_should_follow" vType="very_slow" speedFactor="1.00" vaporized=""/>
</tripinfos>
