<?xml version="1.0" encoding="UTF-8"?>

<!-- generated on 02/13/18 16:09:20 by SUMO Version v0_32_0+0193-b79a12bb06
This data file and the accompanying materials
are made available under the terms of the Eclipse Public License v2.0
which accompanies this distribution, and is available at
http://www.eclipse.org/legal/epl-v20.html
SPDX-License-Identifier: EPL-2.0
<configuration xmlns:xsi="http://www.w3.org/2001/XMLSchema-instance" xsi:noNamespaceSchemaLocation="http://sumo.dlr.de/xsd/sumoConfiguration.xsd">

    <input>
        <net-file value="net.net.xml"/>
        <route-files value="input_routes.rou.xml"/>
    </input>

    <output>
        <write-license value="true"/>
        <tripinfo-output value="tripinfos.xml"/>
    </output>

    <report>
        <xml-validation value="never"/>
        <duration-log.disable value="true"/>
        <no-step-log value="true"/>
    </report>

</configuration>
-->

<tripinfos xmlns:xsi="http://www.w3.org/2001/XMLSchema-instance" xsi:noNamespaceSchemaLocation="http://sumo.dlr.de/xsd/tripinfo_file.xsd">
    <tripinfo id="should_drive" depart="0.00" departLane="beg1_0" departPos="95.00" departSpeed="0.00" departDelay="0.00" arrival="84.00" arrivalLane="end_0" arrivalPos="150.92" arrivalSpeed="2.00" duration="84.00" routeLength="166.46" waitingTime="0.00" waitingCount="0" stopTime="0.00" timeLoss="0.00" rerouteNo="0" devices="tripinfo_should_drive" vType="slow" speedFactor="1.00" vaporized=""/>
    <tripinfo id="should_follow" depart="0.00" departLane="beg2_0" departPos="490.00" departSpeed="0.50" departDelay="0.00" arrival="329.00" arrivalLane="end_0" arrivalPos="150.92" arrivalSpeed="0.50" duration="329.00" routeLength="164.39" waitingTime="0.00" waitingCount="0" stopTime="0.00" timeLoss="0.00" rerouteNo="0" devices="tripinfo_should_follow" vType="very_slow" speedFactor="1.00" vaporized=""/>
</tripinfos>
