<?xml version="1.0" encoding="UTF-8"?>

<!-- generated on Mon Mar 19 23:18:52 2018 by SUMO Version v0_32_0+0825-e68f0ff
This data file and the accompanying materials
are made available under the terms of the Eclipse Public License v2.0
which accompanies this distribution, and is available at
http://www.eclipse.org/legal/epl-v20.html
SPDX-License-Identifier: EPL-2.0
<configuration xmlns:xsi="http://www.w3.org/2001/XMLSchema-instance" xsi:noNamespaceSchemaLocation="http://sumo.dlr.de/xsd/sumoConfiguration.xsd">

    <input>
        <net-file value="three_split.net.xml"/>
        <route-files value="input_routes.rou.xml"/>
        <additional-files value="input_additional.add.xml,input_additional2.add.xml"/>
    </input>

    <output>
        <write-license value="true"/>
        <netstate-dump value="rawdump.xml"/>
    </output>

    <time>
        <step-length value="1.0"/>
    </time>

    <report>
        <xml-validation value="never"/>
        <duration-log.disable value="true"/>
        <no-step-log value="true"/>
    </report>

    <gui_only>
        <tracker-interval value="1"/>
    </gui_only>

</configuration>
-->

<instantE1 xmlns:xsi="http://www.w3.org/2001/XMLSchema-instance" xsi:noNamespaceSchemaLocation="http://sumo.dlr.de/xsd/instant_e1_file.xsd">
    <instantOut id="beg_end" time="16.93" state="enter" vehID="leader" speed="44.20" length="5.00" type="leader"/>
    <instantOut id="beg_end" time="17.00" state="stay" vehID="leader" speed="44.20" length="5.00" type="leader"/>
    <instantOut id="beg_end" time="17.04" state="leave" vehID="leader" speed="46.80" length="5.00" type="leader" occupancy="0.11"/>
    <instantOut id="beg_end" time="20.60" state="enter" vehID="follower" speed="42.51" length="5.00" type="follower" gap="3.55"/>
    <instantOut id="beg_end" time="20.72" state="leave" vehID="follower" speed="42.51" length="5.00" type="follower" occupancy="0.12"/>
</instantE1>
