<?xml version="1.0" encoding="UTF-8"?>

<!-- generated on 2022-03-07 20:31:35 by Eclipse SUMO sumo Version v1_12_0+1207-72ab20d
This data file and the accompanying materials
are made available under the terms of the Eclipse Public License v2.0
which accompanies this distribution, and is available at
http://www.eclipse.org/legal/epl-v20.html
This file may also be made available under the following Secondary
Licenses when the conditions for such availability set forth in the Eclipse
Public License 2.0 are satisfied: GNU General Public License, version 2
or later which is available at
https://www.gnu.org/licenses/old-licenses/gpl-2.0-standalone.html
SPDX-License-Identifier: EPL-2.0 OR GPL-2.0-or-later
<configuration xmlns:xsi="http://www.w3.org/2001/XMLSchema-instance" xsi:noNamespaceSchemaLocation="http://sumo.dlr.de/xsd/sumoConfiguration.xsd">

    <input>
        <net-file value="net2.net.xml"/>
        <route-files value="input_routes.rou.xml"/>
    </input>

    <output>
        <write-license value="true"/>
        <fcd-output value="fcd.xml"/>
    </output>

    <time>
        <step-length value="0.1"/>
    </time>

    <processing>
        <extrapolate-departpos value="true"/>
        <default.speeddev value="0"/>
    </processing>

    <report>
        <xml-validation value="never"/>
        <xml-validation.routes value="never"/>
        <no-step-log value="true"/>
    </report>

    <gui_only>
        <tracker-interval value="0.1"/>
    </gui_only>

</configuration>
-->

<fcd-export xmlns:xsi="http://www.w3.org/2001/XMLSchema-instance" xsi:noNamespaceSchemaLocation="http://sumo.dlr.de/xsd/fcd_file.xsd">
    <timestep time="0.00"/>
    <timestep time="0.10">
        <vehicle id="v0" x="200.00" y="95.05" angle="90.00" type="car" speed="6.14" pos="92.97" lane="CE_0" slope="0.00"/>
    </timestep>
    <timestep time="0.20">
        <vehicle id="v0" x="200.00" y="98.35" angle="90.00" type="car" speed="0.00" pos="91.95" lane="CE_1" slope="0.00"/>
    </timestep>
    <timestep time="0.30">
        <vehicle id="v0" x="200.02" y="98.36" angle="89.83" type="car" speed="0.26" pos="0.03" lane=":E_0_0" slope="0.00"/>
    </timestep>
    <timestep time="0.40">
        <vehicle id="v0" x="200.06" y="98.39" angle="89.50" type="car" speed="0.52" pos="0.08" lane=":E_0_0" slope="0.00"/>
    </timestep>
    <timestep time="0.50">
        <vehicle id="v0" x="200.13" y="98.44" angle="89.00" type="car" speed="0.78" pos="0.16" lane=":E_0_0" slope="0.00"/>
    </timestep>
    <timestep time="0.60">
        <vehicle id="v0" x="200.22" y="98.49" angle="88.33" type="car" speed="1.04" pos="0.26" lane=":E_0_0" slope="0.00"/>
    </timestep>
    <timestep time="0.70">
        <vehicle id="v0" x="200.32" y="98.57" angle="87.48" type="car" speed="1.30" pos="0.39" lane=":E_0_0" slope="0.00"/>
    </timestep>
    <timestep time="0.80">
        <vehicle id="v0" x="200.45" y="98.65" angle="86.46" type="car" speed="1.56" pos="0.55" lane=":E_0_0" slope="0.00"/>
    </timestep>
    <timestep time="0.90">
        <vehicle id="v0" x="200.61" y="98.76" angle="85.25" type="car" speed="1.82" pos="0.73" lane=":E_0_0" slope="0.00"/>
    </timestep>
    <timestep time="1.00">
        <vehicle id="v0" x="200.78" y="98.87" angle="83.86" type="car" speed="2.08" pos="0.94" lane=":E_0_0" slope="0.00"/>
    </timestep>
    <timestep time="1.10">
        <vehicle id="v0" x="200.97" y="99.00" angle="82.28" type="car" speed="2.34" pos="1.17" lane=":E_0_0" slope="0.00"/>
    </timestep>
    <timestep time="1.20">
        <vehicle id="v0" x="201.19" y="99.15" angle="80.51" type="car" speed="2.60" pos="1.43" lane=":E_0_0" slope="0.00"/>
    </timestep>
    <timestep time="1.30">
        <vehicle id="v0" x="201.34" y="99.38" angle="77.44" type="car" speed="2.86" pos="1.72" lane=":E_0_0" slope="0.00"/>
    </timestep>
    <timestep time="1.40">
        <vehicle id="v0" x="201.48" y="99.66" angle="73.61" type="car" speed="3.12" pos="2.03" lane=":E_0_0" slope="0.00"/>
    </timestep>
    <timestep time="1.50">
        <vehicle id="v0" x="201.63" y="99.96" angle="69.29" type="car" speed="3.38" pos="2.37" lane=":E_0_0" slope="0.00"/>
    </timestep>
    <timestep time="1.60">
        <vehicle id="v0" x="201.51" y="100.29" angle="62.83" type="car" speed="3.64" pos="2.73" lane=":E_0_0" slope="0.00"/>
    </timestep>
    <timestep time="1.70">
        <vehicle id="v0" x="201.33" y="100.64" angle="54.56" type="car" speed="3.90" pos="3.12" lane=":E_0_0" slope="0.00"/>
    </timestep>
    <timestep time="1.80">
        <vehicle id="v0" x="201.07" y="100.94" angle="44.37" type="car" speed="4.16" pos="3.54" lane=":E_0_0" slope="0.00"/>
    </timestep>
    <timestep time="1.90">
        <vehicle id="v0" x="200.70" y="101.19" angle="31.31" type="car" speed="4.42" pos="3.98" lane=":E_0_0" slope="0.00"/>
    </timestep>
    <timestep time="2.00">
        <vehicle id="v0" x="200.31" y="101.44" angle="15.64" type="car" speed="4.68" pos="4.45" lane=":E_0_0" slope="0.00"/>
    </timestep>
    <timestep time="2.10">
        <vehicle id="v0" x="199.88" y="101.65" angle="358.96" type="car" speed="4.94" pos="0.12" lane="EC_1" slope="0.00"/>
    </timestep>
    <timestep time="2.20">
        <vehicle id="v0" x="199.36" y="101.65" angle="341.43" type="car" speed="5.20" pos="0.64" lane="EC_1" slope="0.00"/>
    </timestep>
    <timestep time="2.30">
        <vehicle id="v0" x="198.81" y="101.65" angle="323.57" type="car" speed="5.46" pos="1.19" lane="EC_1" slope="0.00"/>
    </timestep>
    <timestep time="2.40">
        <vehicle id="v0" x="198.24" y="101.65" angle="308.24" type="car" speed="5.72" pos="1.76" lane="EC_1" slope="0.00"/>
    </timestep>
    <timestep time="2.50">
        <vehicle id="v0" x="197.64" y="101.65" angle="295.46" type="car" speed="5.98" pos="2.36" lane="EC_1" slope="0.00"/>
    </timestep>
    <timestep time="2.60">
        <vehicle id="v0" x="197.02" y="101.65" angle="286.25" type="car" speed="6.24" pos="2.98" lane="EC_1" slope="0.00"/>
    </timestep>
    <timestep time="2.70">
        <vehicle id="v0" x="196.37" y="101.65" angle="279.00" type="car" speed="6.50" pos="3.63" lane="EC_1" slope="0.00"/>
    </timestep>
    <timestep time="2.80">
        <vehicle id="v0" x="195.69" y="101.65" angle="274.48" type="car" speed="6.76" pos="4.31" lane="EC_1" slope="0.00"/>
    </timestep>
    <timestep time="2.90"/>
</fcd-export>
