<?xml version="1.0" encoding="UTF-8"?>

<!-- generated on 2021-10-07 13:09:33 by Eclipse SUMO sumo Version v1_10_0+1332-b233b40
This data file and the accompanying materials
are made available under the terms of the Eclipse Public License v2.0
which accompanies this distribution, and is available at
http://www.eclipse.org/legal/epl-v20.html
SPDX-License-Identifier: EPL-2.0
<configuration xmlns:xsi="http://www.w3.org/2001/XMLSchema-instance" xsi:noNamespaceSchemaLocation="http://sumo.dlr.de/xsd/sumoConfiguration.xsd">

    <input>
        <net-file value="net.net.xml"/>
        <route-files value="input_routes.rou.xml"/>
    </input>

    <output>
        <write-license value="true"/>
        <tripinfo-output value="tripinfos.xml"/>
        <vehroute-output value="vehroutes.xml"/>
        <vehroute-output.exit-times value="true"/>
        <lanechange-output value="lanechanges.xml"/>
    </output>

    <processing>
        <default.speeddev value="0"/>
    </processing>

    <report>
        <xml-validation value="never"/>
        <xml-validation.routes value="never"/>
        <no-step-log value="true"/>
    </report>

</configuration>
-->

<routes xmlns:xsi="http://www.w3.org/2001/XMLSchema-instance" xsi:noNamespaceSchemaLocation="http://sumo.dlr.de/xsd/routes_file.xsd">
    <vehicle id="ego" depart="0.00" departPos="0.00" arrival="31.00">
        <route edges="a b" exitTimes="10.00 31.00"/>
        <stop lane="b_4" endPos="10.00" duration="10.00" started="13.00" ended="23.00"/>
    </vehicle>

</routes>
