<?xml version="1.0" encoding="UTF-8"?>

<!-- generated on 2025-11-02T21:45:51.966973+01:00 by Eclipse SUMO sumo v1_24_0+1715-28a54f8871d
This data file and the accompanying materials
are made available under the terms of the Eclipse Public License v2.0
which accompanies this distribution, and is available at
http://www.eclipse.org/legal/epl-v20.html
This file may also be made available under the following Secondary
Licenses when the conditions for such availability set forth in the Eclipse
Public License 2.0 are satisfied: GNU General Public License, version 2
or later which is available at
https://www.gnu.org/licenses/old-licenses/gpl-2.0-standalone.html
SPDX-License-Identifier: EPL-2.0 OR GPL-2.0-or-later
<sumoConfiguration xmlns:xsi="http://www.w3.org/2001/XMLSchema-instance" xsi:noNamespaceSchemaLocation="http://sumo.dlr.de/xsd/sumoConfiguration.xsd">

    <input>
        <net-file value="net.net.xml"/>
        <additional-files value="input_routes.rou.xml,input_additional.add.xml,input_additional2.add.xml"/>
    </input>

    <output>
        <write-license value="true"/>
    </output>

    <time>
        <begin value="0"/>
        <end value="1000"/>
    </time>

    <processing>
        <time-to-teleport value="-1"/>
        <default.speeddev value="0"/>
    </processing>

    <report>
        <xml-validation value="never"/>
        <duration-log.disable value="true"/>
        <no-step-log value="true"/>
    </report>

    <mesoscopic>
        <mesosim value="true"/>
    </mesoscopic>

</sumoConfiguration>
-->

<meandata xmlns:xsi="http://www.w3.org/2001/XMLSchema-instance" xsi:noNamespaceSchemaLocation="http://sumo.dlr.de/xsd/meandata_file.xsd">
    <interval begin="600.00" end="615.00" id="dump_15">
        <edge id="2/1to1/1" sampledSeconds="195.00" traveltime="8000.00" overlapTraveltime="8100.00" density="32.50" overlapDensity="32.50" laneDensity="32.50" occupancy="16.25" waitingTime="195.00" timeLoss="0.00" speed="0.05" speedRelative="0.00" departed="0" arrived="0" entered="0" left="0" laneChangedFrom="0" laneChangedTo="0" flow="5.85"/>
        <edge id="3/1to2/1" sampledSeconds="780.00" traveltime="7366.62" overlapTraveltime="7458.71" density="130.00" overlapDensity="130.00" laneDensity="130.00" occupancy="65.00" waitingTime="780.00" timeLoss="775.76" speed="0.05" speedRelative="0.01" departed="0" arrived="0" entered="0" left="0" laneChangedFrom="0" laneChangedTo="0" flow="25.41"/>
        <edge id="4/1to3/1" sampledSeconds="195.00" traveltime="6824.82" overlapTraveltime="6910.13" density="32.50" overlapDensity="32.50" laneDensity="32.50" occupancy="16.25" waitingTime="195.00" timeLoss="193.86" speed="0.06" speedRelative="0.01" departed="0" arrived="0" entered="0" left="0" laneChangedFrom="0" laneChangedTo="0" flow="6.86"/>
    </interval>
    <interval begin="615.00" end="630.00" id="dump_15">
        <edge id="2/1to1/1" sampledSeconds="195.00" traveltime="8000.00" overlapTraveltime="8100.00" density="32.50" overlapDensity="32.50" laneDensity="32.50" occupancy="16.25" waitingTime="195.00" timeLoss="0.00" speed="0.05" speedRelative="0.00" departed="0" arrived="0" entered="0" left="0" laneChangedFrom="0" laneChangedTo="0" flow="5.85"/>
        <edge id="3/1to2/1" sampledSeconds="780.00" traveltime="7366.62" overlapTraveltime="7458.71" density="130.00" overlapDensity="130.00" laneDensity="130.00" occupancy="65.00" waitingTime="780.00" timeLoss="775.76" speed="0.05" speedRelative="0.01" departed="0" arrived="0" entered="0" left="0" laneChangedFrom="0" laneChangedTo="0" flow="25.41"/>
        <edge id="4/1to3/1" sampledSeconds="195.00" traveltime="6824.82" overlapTraveltime="6910.13" density="32.50" overlapDensity="32.50" laneDensity="32.50" occupancy="16.25" waitingTime="195.00" timeLoss="193.86" speed="0.06" speedRelative="0.01" departed="0" arrived="0" entered="0" left="0" laneChangedFrom="0" laneChangedTo="0" flow="6.86"/>
    </interval>
    <interval begin="630.00" end="645.00" id="dump_15">
        <edge id="2/1to1/1" sampledSeconds="195.00" traveltime="8000.00" overlapTraveltime="8100.00" density="32.50" overlapDensity="32.50" laneDensity="32.50" occupancy="16.25" waitingTime="195.00" timeLoss="0.00" speed="0.05" speedRelative="0.00" departed="0" arrived="0" entered="0" left="0" laneChangedFrom="0" laneChangedTo="0" flow="5.85"/>
        <edge id="3/1to2/1" sampledSeconds="780.00" traveltime="7366.62" overlapTraveltime="7458.71" density="130.00" overlapDensity="130.00" laneDensity="130.00" occupancy="65.00" waitingTime="780.00" timeLoss="775.76" speed="0.05" speedRelative="0.01" departed="0" arrived="0" entered="0" left="0" laneChangedFrom="0" laneChangedTo="0" flow="25.41"/>
        <edge id="4/1to3/1" sampledSeconds="195.00" traveltime="6824.82" overlapTraveltime="6910.13" density="32.50" overlapDensity="32.50" laneDensity="32.50" occupancy="16.25" waitingTime="195.00" timeLoss="193.86" speed="0.06" speedRelative="0.01" departed="0" arrived="0" entered="0" left="0" laneChangedFrom="0" laneChangedTo="0" flow="6.86"/>
    </interval>
    <interval begin="645.00" end="660.00" id="dump_15">
        <edge id="2/1to1/1" sampledSeconds="195.00" traveltime="8000.00" overlapTraveltime="8100.00" density="32.50" overlapDensity="32.50" laneDensity="32.50" occupancy="16.25" waitingTime="195.00" timeLoss="0.00" speed="0.05" speedRelative="0.00" departed="0" arrived="0" entered="0" left="0" laneChangedFrom="0" laneChangedTo="0" flow="5.85"/>
        <edge id="3/1to2/1" sampledSeconds="780.00" traveltime="7366.62" overlapTraveltime="7458.71" density="130.00" overlapDensity="130.00" laneDensity="130.00" occupancy="65.00" waitingTime="780.00" timeLoss="775.76" speed="0.05" speedRelative="0.01" departed="0" arrived="0" entered="0" left="0" laneChangedFrom="0" laneChangedTo="0" flow="25.41"/>
        <edge id="4/1to3/1" sampledSeconds="195.00" traveltime="6824.82" overlapTraveltime="6910.13" density="32.50" overlapDensity="32.50" laneDensity="32.50" occupancy="16.25" waitingTime="195.00" timeLoss="193.86" speed="0.06" speedRelative="0.01" departed="0" arrived="0" entered="0" left="0" laneChangedFrom="0" laneChangedTo="0" flow="6.86"/>
    </interval>
</meandata>
