<?xml version="1.0" encoding="UTF-8"?>

<!-- generated on 2025-11-02T19:12:11.513812+01:00 by Eclipse SUMO sumo v1_24_0+1713-b6716327859
This data file and the accompanying materials
are made available under the terms of the Eclipse Public License v2.0
which accompanies this distribution, and is available at
http://www.eclipse.org/legal/epl-v20.html
This file may also be made available under the following Secondary
Licenses when the conditions for such availability set forth in the Eclipse
Public License 2.0 are satisfied: GNU General Public License, version 2
or later which is available at
https://www.gnu.org/licenses/old-licenses/gpl-2.0-standalone.html
SPDX-License-Identifier: EPL-2.0 OR GPL-2.0-or-later
<sumoConfiguration xmlns:xsi="http://www.w3.org/2001/XMLSchema-instance" xsi:noNamespaceSchemaLocation="http://sumo.dlr.de/xsd/sumoConfiguration.xsd">

    <input>
        <net-file value="net.net.xml"/>
        <additional-files value="input_routes.rou.xml,input_additional.add.xml,input_additional2.add.xml"/>
    </input>

    <output>
        <write-license value="true"/>
    </output>

    <time>
        <begin value="0"/>
        <end value="1000"/>
    </time>

    <processing>
        <time-to-teleport value="-1"/>
        <default.speeddev value="0"/>
    </processing>

    <report>
        <xml-validation value="never"/>
        <duration-log.disable value="true"/>
        <no-step-log value="true"/>
    </report>

</sumoConfiguration>
-->

<meandata xmlns:xsi="http://www.w3.org/2001/XMLSchema-instance" xsi:noNamespaceSchemaLocation="http://sumo.dlr.de/xsd/meandata_file.xsd">
    <interval begin="600.00" end="615.00" id="dump_15">
        <edge id="3/1to2/1" sampledSeconds="795.00" overlapTraveltime="100000.00" density="132.50" overlapDensity="132.50" laneDensity="132.50" occupancy="66.25" waitingTime="795.00" timeLoss="795.00" speed="0.00" speedRelative="0.00" departed="0" arrived="0" entered="0" left="0" laneChangedFrom="0" laneChangedTo="0"/>
        <edge id="4/1to3/1" sampledSeconds="375.00" overlapTraveltime="100000.00" density="62.50" overlapDensity="62.50" laneDensity="62.50" occupancy="31.25" waitingTime="375.00" timeLoss="375.00" speed="0.00" speedRelative="0.00" departed="0" arrived="0" entered="0" left="0" laneChangedFrom="0" laneChangedTo="0"/>
    </interval>
    <interval begin="615.00" end="630.00" id="dump_15">
        <edge id="3/1to2/1" sampledSeconds="795.00" overlapTraveltime="100000.00" density="132.50" overlapDensity="132.50" laneDensity="132.50" occupancy="66.25" waitingTime="795.00" timeLoss="795.00" speed="0.00" speedRelative="0.00" departed="0" arrived="0" entered="0" left="0" laneChangedFrom="0" laneChangedTo="0"/>
        <edge id="4/1to3/1" sampledSeconds="375.00" overlapTraveltime="100000.00" density="62.50" overlapDensity="62.50" laneDensity="62.50" occupancy="31.25" waitingTime="375.00" timeLoss="375.00" speed="0.00" speedRelative="0.00" departed="0" arrived="0" entered="0" left="0" laneChangedFrom="0" laneChangedTo="0"/>
    </interval>
    <interval begin="630.00" end="645.00" id="dump_15">
        <edge id="3/1to2/1" sampledSeconds="795.00" overlapTraveltime="100000.00" density="132.50" overlapDensity="132.50" laneDensity="132.50" occupancy="66.25" waitingTime="795.00" timeLoss="795.00" speed="0.00" speedRelative="0.00" departed="0" arrived="0" entered="0" left="0" laneChangedFrom="0" laneChangedTo="0"/>
        <edge id="4/1to3/1" sampledSeconds="375.00" overlapTraveltime="100000.00" density="62.50" overlapDensity="62.50" laneDensity="62.50" occupancy="31.25" waitingTime="375.00" timeLoss="375.00" speed="0.00" speedRelative="0.00" departed="0" arrived="0" entered="0" left="0" laneChangedFrom="0" laneChangedTo="0"/>
    </interval>
    <interval begin="645.00" end="660.00" id="dump_15">
        <edge id="3/1to2/1" sampledSeconds="795.00" overlapTraveltime="100000.00" density="132.50" overlapDensity="132.50" laneDensity="132.50" occupancy="66.25" waitingTime="795.00" timeLoss="795.00" speed="0.00" speedRelative="0.00" departed="0" arrived="0" entered="0" left="0" laneChangedFrom="0" laneChangedTo="0"/>
        <edge id="4/1to3/1" sampledSeconds="375.00" overlapTraveltime="100000.00" density="62.50" overlapDensity="62.50" laneDensity="62.50" occupancy="31.25" waitingTime="375.00" timeLoss="375.00" speed="0.00" speedRelative="0.00" departed="0" arrived="0" entered="0" left="0" laneChangedFrom="0" laneChangedTo="0"/>
    </interval>
</meandata>
