<?xml version="1.0" encoding="UTF-8"?>

<!-- generated on Thu Aug 27 07:13:24 2015 by SUMO Version dev-SVN-r18733I
<?xml version="1.0" encoding="UTF-8"?>

<configuration xmlns:xsi="http://www.w3.org/2001/XMLSchema-instance" xsi:noNamespaceSchemaLocation="http://sumo.dlr.de/xsd/sumoConfiguration.xsd">

    <input>
        <net-file value="net.net.xml"/>
        <route-files value="input_routes.rou.xml"/>
    </input>

    <output>
        <tripinfo-output value="tripinfos.xml"/>
    </output>

    <report>
        <xml-validation value="never"/>
        <no-duration-log value="true"/>
        <no-step-log value="true"/>
    </report>

    <mesoscopic>
        <mesosim value="true"/>
    </mesoscopic>

</configuration>
-->

<tripinfos xmlns:xsi="http://www.w3.org/2001/XMLSchema-instance" xsi:noNamespaceSchemaLocation="http://sumo.dlr.de/xsd/tripinfo_file.xsd">
    <tripinfo id="0" depart="0.00" departLane="" departPos="0.00" departSpeed="20.00" departDelay="0.00" arrival="25.00" arrivalLane="" arrivalPos="491.95" arrivalSpeed="20.00" duration="25.00" routeLength="491.95" waitSteps="0" timeLoss="0.00" rerouteNo="0" devices="tripinfo_0" vType="t1" vaporized=""/>
    <tripinfo id="1" depart="0.00" departLane="" departPos="0.00" departSpeed="17.51" departDelay="0.00" arrival="26.00" arrivalLane="" arrivalPos="491.95" arrivalSpeed="20.00" duration="26.00" routeLength="491.95" waitSteps="0" timeLoss="0.00" rerouteNo="0" devices="tripinfo_1" vType="t2" vaporized=""/>
</tripinfos>
