<?xml version="1.0"?>

<!-- generated on 11/03/08 14:41:46 by SUMO sumo Version dev-SVN-r6273
<configuration>

   <input>
      <net-file>three_split.net.xml</net-file>
      <additional-files>input_routes.rou.xml,input_additional.add.xml</additional-files>
   </input>

   <output>
      <tripinfo-output>tripinfos.xml</tripinfo-output>
   </output>

   <processing>
      <no-duration-log>true</no-duration-log>
      <no-step-log>true</no-step-log>
   </processing>

</configuration>
-->

<tripinfos>
    <tripinfo id="emitter_0_0" depart="0" departLane="beg_0" departPos="100.00" departSpeed="0.00" departDelay="0" arrival="74" arrivalLane="end_0" arrivalPos="19.59" arrivalSpeed="27.80" duration="74" routeLength="1905.34" waitSteps="0" rerouteNo="0" devices="" vtype="DEFAULT_VEHTYPE" vaporized=""/>
    <tripinfo id="emitter_10_1" depart="10" departLane="beg_0" departPos="100.00" departSpeed="0.00" departDelay="0" arrival="84" arrivalLane="end_0" arrivalPos="19.59" arrivalSpeed="27.80" duration="74" routeLength="1905.34" waitSteps="0" rerouteNo="0" devices="" vtype="DEFAULT_VEHTYPE" vaporized=""/>
    <tripinfo id="emitter_20_2" depart="20" departLane="beg_0" departPos="100.00" departSpeed="0.00" departDelay="0" arrival="94" arrivalLane="end_0" arrivalPos="19.59" arrivalSpeed="27.80" duration="74" routeLength="1905.34" waitSteps="0" rerouteNo="0" devices="" vtype="DEFAULT_VEHTYPE" vaporized=""/>
    <tripinfo id="emitter_30_3" depart="30" departLane="beg_0" departPos="100.00" departSpeed="0.00" departDelay="0" arrival="104" arrivalLane="end_0" arrivalPos="19.59" arrivalSpeed="27.80" duration="74" routeLength="1905.34" waitSteps="0" rerouteNo="0" devices="" vtype="DEFAULT_VEHTYPE" vaporized=""/>
    <tripinfo id="emitter_40_4" depart="40" departLane="beg_0" departPos="100.00" departSpeed="0.00" departDelay="0" arrival="114" arrivalLane="end_0" arrivalPos="19.59" arrivalSpeed="27.80" duration="74" routeLength="1905.34" waitSteps="0" rerouteNo="0" devices="" vtype="DEFAULT_VEHTYPE" vaporized=""/>
    <tripinfo id="emitter_50_5" depart="50" departLane="beg_0" departPos="100.00" departSpeed="0.00" departDelay="0" arrival="124" arrivalLane="end_0" arrivalPos="19.59" arrivalSpeed="27.80" duration="74" routeLength="1905.34" waitSteps="0" rerouteNo="0" devices="" vtype="DEFAULT_VEHTYPE" vaporized=""/>
    <tripinfo id="emitter_60_6" depart="60" departLane="beg_0" departPos="100.00" departSpeed="0.00" departDelay="0" arrival="134" arrivalLane="end_0" arrivalPos="19.59" arrivalSpeed="27.80" duration="74" routeLength="1905.34" waitSteps="0" rerouteNo="0" devices="" vtype="DEFAULT_VEHTYPE" vaporized=""/>
    <tripinfo id="emitter_70_7" depart="70" departLane="beg_0" departPos="100.00" departSpeed="0.00" departDelay="0" arrival="144" arrivalLane="end_0" arrivalPos="19.59" arrivalSpeed="27.80" duration="74" routeLength="1905.34" waitSteps="0" rerouteNo="0" devices="" vtype="DEFAULT_VEHTYPE" vaporized=""/>
    <tripinfo id="emitter_80_8" depart="80" departLane="beg_0" departPos="100.00" departSpeed="0.00" departDelay="0" arrival="154" arrivalLane="end_0" arrivalPos="19.59" arrivalSpeed="27.80" duration="74" routeLength="1905.34" waitSteps="0" rerouteNo="0" devices="" vtype="DEFAULT_VEHTYPE" vaporized=""/>
    <tripinfo id="emitter_90_9" depart="90" departLane="beg_0" departPos="100.00" departSpeed="0.00" departDelay="0" arrival="164" arrivalLane="end_0" arrivalPos="19.59" arrivalSpeed="27.80" duration="74" routeLength="1905.34" waitSteps="0" rerouteNo="0" devices="" vtype="DEFAULT_VEHTYPE" vaporized=""/>
</tripinfos>
