<?xml version="1.0"?>

<!-- generated on 11/05/09 13:57:46 by SUMO sumo Version dev-SVN-r7945
<configuration>

    <input>
        <net-file value="three_split.net.xml"/>
        <additional-files value="input_routes.rou.xml,input_additional.add.xml"/>
    </input>

    <output>
        <tripinfo-output value="tripinfos.xml"/>
    </output>

    <report>
        <no-duration-log value="true"/>
        <no-step-log value="true"/>
    </report>

</configuration>
-->

<tripinfos>
    <tripinfo id="emitter_0_0" depart="0" departLane="beg_0" departPos="100.00" departSpeed="0.00" departDelay="0" arrival="74" arrivalLane="rend_0" arrivalPos="19.59" arrivalSpeed="27.80" duration="74" routeLength="1900.59" waitSteps="0" rerouteNo="0" devices="" vtype="DEFAULT_VEHTYPE" vaporized=""></tripinfo>
    <tripinfo id="emitter_10_1" depart="10" departLane="beg_0" departPos="100.00" departSpeed="0.00" departDelay="0" arrival="84" arrivalLane="rend_0" arrivalPos="19.59" arrivalSpeed="27.80" duration="74" routeLength="1900.59" waitSteps="0" rerouteNo="0" devices="" vtype="DEFAULT_VEHTYPE" vaporized=""></tripinfo>
    <tripinfo id="emitter_20_2" depart="20" departLane="beg_0" departPos="100.00" departSpeed="0.00" departDelay="0" arrival="94" arrivalLane="rend_0" arrivalPos="19.59" arrivalSpeed="27.80" duration="74" routeLength="1900.59" waitSteps="0" rerouteNo="0" devices="" vtype="DEFAULT_VEHTYPE" vaporized=""></tripinfo>
    <tripinfo id="emitter_30_3" depart="30" departLane="beg_0" departPos="100.00" departSpeed="0.00" departDelay="0" arrival="104" arrivalLane="rend_0" arrivalPos="19.59" arrivalSpeed="27.80" duration="74" routeLength="1900.59" waitSteps="0" rerouteNo="0" devices="" vtype="DEFAULT_VEHTYPE" vaporized=""></tripinfo>
    <tripinfo id="emitter_40_4" depart="40" departLane="beg_0" departPos="100.00" departSpeed="0.00" departDelay="0" arrival="114" arrivalLane="rend_0" arrivalPos="19.59" arrivalSpeed="27.80" duration="74" routeLength="1900.59" waitSteps="0" rerouteNo="0" devices="" vtype="DEFAULT_VEHTYPE" vaporized=""></tripinfo>
    <tripinfo id="emitter_50_5" depart="50" departLane="beg_0" departPos="100.00" departSpeed="0.00" departDelay="0" arrival="124" arrivalLane="rend_0" arrivalPos="19.59" arrivalSpeed="27.80" duration="74" routeLength="1900.59" waitSteps="0" rerouteNo="0" devices="" vtype="DEFAULT_VEHTYPE" vaporized=""></tripinfo>
    <tripinfo id="emitter_60_6" depart="60" departLane="beg_0" departPos="100.00" departSpeed="0.00" departDelay="0" arrival="134" arrivalLane="rend_0" arrivalPos="19.59" arrivalSpeed="27.80" duration="74" routeLength="1900.59" waitSteps="0" rerouteNo="0" devices="" vtype="DEFAULT_VEHTYPE" vaporized=""></tripinfo>
    <tripinfo id="emitter_70_7" depart="70" departLane="beg_0" departPos="100.00" departSpeed="0.00" departDelay="0" arrival="144" arrivalLane="rend_0" arrivalPos="19.59" arrivalSpeed="27.80" duration="74" routeLength="1900.59" waitSteps="0" rerouteNo="0" devices="" vtype="DEFAULT_VEHTYPE" vaporized=""></tripinfo>
    <tripinfo id="emitter_80_8" depart="80" departLane="beg_0" departPos="100.00" departSpeed="0.00" departDelay="0" arrival="154" arrivalLane="rend_0" arrivalPos="19.59" arrivalSpeed="27.80" duration="74" routeLength="1900.59" waitSteps="0" rerouteNo="0" devices="" vtype="DEFAULT_VEHTYPE" vaporized=""></tripinfo>
    <tripinfo id="emitter_90_9" depart="90" departLane="beg_0" departPos="100.00" departSpeed="0.00" departDelay="0" arrival="164" arrivalLane="rend_0" arrivalPos="19.59" arrivalSpeed="27.80" duration="74" routeLength="1900.59" waitSteps="0" rerouteNo="0" devices="" vtype="DEFAULT_VEHTYPE" vaporized=""></tripinfo>
</tripinfos>
