<?xml version="1.0"?>

<!-- generated on 11/11/09 14:53:15 by SUMO sumo Version dev-SVN-r7969
<configuration>

    <input>
        <net-file value="three_split.net.xml"/>
        <additional-files value="input_routes.rou.xml,input_additional.add.xml"/>
    </input>

    <output>
        <tripinfo-output value="tripinfos.xml"/>
    </output>

    <report>
        <no-duration-log value="true"/>
        <no-step-log value="true"/>
    </report>

    <mesoscopic>
        <mesosim value="true"/>
    </mesoscopic>

</configuration>
-->

<tripinfos>
    <tripinfo id="emitter_0_0" depart="0" departLane="" departPos="0.00" departSpeed="0.00" departDelay="0" arrival="72" arrivalLane="" arrivalPos="" arrivalSpeed="" duration="72" routeLength="2481.00" waitSteps="0" rerouteNo="0" devices="" vtype="DEFAULT_VEHTYPE" vaporized=""></tripinfo>
    <tripinfo id="emitter_10_1" depart="10" departLane="" departPos="0.00" departSpeed="0.00" departDelay="0" arrival="82" arrivalLane="" arrivalPos="" arrivalSpeed="" duration="72" routeLength="2481.00" waitSteps="0" rerouteNo="0" devices="" vtype="DEFAULT_VEHTYPE" vaporized=""></tripinfo>
    <tripinfo id="emitter_20_2" depart="20" departLane="" departPos="0.00" departSpeed="0.00" departDelay="0" arrival="92" arrivalLane="" arrivalPos="" arrivalSpeed="" duration="72" routeLength="2481.00" waitSteps="0" rerouteNo="0" devices="" vtype="DEFAULT_VEHTYPE" vaporized=""></tripinfo>
    <tripinfo id="emitter_30_3" depart="30" departLane="" departPos="0.00" departSpeed="0.00" departDelay="0" arrival="102" arrivalLane="" arrivalPos="" arrivalSpeed="" duration="72" routeLength="2481.00" waitSteps="0" rerouteNo="0" devices="" vtype="DEFAULT_VEHTYPE" vaporized=""></tripinfo>
    <tripinfo id="emitter_40_4" depart="40" departLane="" departPos="0.00" departSpeed="0.00" departDelay="0" arrival="112" arrivalLane="" arrivalPos="" arrivalSpeed="" duration="72" routeLength="2481.00" waitSteps="0" rerouteNo="0" devices="" vtype="DEFAULT_VEHTYPE" vaporized=""></tripinfo>
    <tripinfo id="emitter_50_5" depart="50" departLane="" departPos="0.00" departSpeed="0.00" departDelay="0" arrival="122" arrivalLane="" arrivalPos="" arrivalSpeed="" duration="72" routeLength="2481.00" waitSteps="0" rerouteNo="0" devices="" vtype="DEFAULT_VEHTYPE" vaporized=""></tripinfo>
    <tripinfo id="emitter_60_6" depart="60" departLane="" departPos="0.00" departSpeed="0.00" departDelay="0" arrival="132" arrivalLane="" arrivalPos="" arrivalSpeed="" duration="72" routeLength="2481.00" waitSteps="0" rerouteNo="0" devices="" vtype="DEFAULT_VEHTYPE" vaporized=""></tripinfo>
    <tripinfo id="emitter_70_7" depart="70" departLane="" departPos="0.00" departSpeed="0.00" departDelay="0" arrival="142" arrivalLane="" arrivalPos="" arrivalSpeed="" duration="72" routeLength="2481.00" waitSteps="0" rerouteNo="0" devices="" vtype="DEFAULT_VEHTYPE" vaporized=""></tripinfo>
    <tripinfo id="emitter_80_8" depart="80" departLane="" departPos="0.00" departSpeed="0.00" departDelay="0" arrival="152" arrivalLane="" arrivalPos="" arrivalSpeed="" duration="72" routeLength="2481.00" waitSteps="0" rerouteNo="0" devices="" vtype="DEFAULT_VEHTYPE" vaporized=""></tripinfo>
    <tripinfo id="emitter_90_9" depart="90" departLane="" departPos="0.00" departSpeed="0.00" departDelay="0" arrival="162" arrivalLane="" arrivalPos="" arrivalSpeed="" duration="72" routeLength="2481.00" waitSteps="0" rerouteNo="0" devices="" vtype="DEFAULT_VEHTYPE" vaporized=""></tripinfo>
</tripinfos>
