<?xml version="1.0" encoding="UTF-8"?>

<!-- generated on Fri Nov 27 09:17:24 2020 by Eclipse SUMO sumo Version v1_7_0+1330-045eb6693b
This data file and the accompanying materials
are made available under the terms of the Eclipse Public License v2.0
which accompanies this distribution, and is available at
http://www.eclipse.org/legal/epl-v20.html
SPDX-License-Identifier: EPL-2.0
<configuration xmlns:xsi="http://www.w3.org/2001/XMLSchema-instance" xsi:noNamespaceSchemaLocation="http://sumo.dlr.de/xsd/sumoConfiguration.xsd">

    <input>
        <net-file value="net.net.xml"/>
        <route-files value="input_routes.rou.xml"/>
        <additional-files value="input_additional.add.xml"/>
    </input>

    <output>
        <write-license value="true"/>
        <vehroute-output value="vehroutes.xml"/>
    </output>

    <time>
        <end value="1200"/>
    </time>

    <processing>
        <default.speeddev value="0"/>
        <pedestrian.model value="nonInteracting"/>
    </processing>

    <report>
        <xml-validation value="never"/>
        <xml-validation.routes value="never"/>
        <duration-log.disable value="true"/>
        <no-step-log value="true"/>
    </report>

    <mesoscopic>
        <mesosim value="true"/>
        <meso-junction-control value="true"/>
    </mesoscopic>

</configuration>
-->

<meandata xmlns:xsi="http://www.w3.org/2001/XMLSchema-instance" xsi:noNamespaceSchemaLocation="http://sumo.dlr.de/xsd/meandata_file.xsd">
    <interval begin="0.00" end="360.00" id="expect_300_vehs">
        <edge id="end" sampledSeconds="883.46" traveltime="8.31" overlapTraveltime="8.45" density="8.18" laneDensity="8.18" occupancy="4.09" waitingTime="0.00" timeLoss="0.00" speed="36.11" departed="0" arrived="105" entered="108" left="0" laneChangedFrom="0" laneChangedTo="0"/>
        <edge id="jam0" sampledSeconds="4755.52" traveltime="43.00" overlapTraveltime="43.72" density="44.03" laneDensity="44.03" occupancy="22.02" waitingTime="0.00" timeLoss="3836.84" speed="6.98" departed="0" arrived="0" entered="113" left="108" laneChangedFrom="0" laneChangedTo="0"/>
        <edge id="jam1" sampledSeconds="4385.07" traveltime="38.42" overlapTraveltime="39.38" density="60.90" laneDensity="60.90" occupancy="30.45" waitingTime="0.00" timeLoss="3752.99" speed="5.21" departed="0" arrived="0" entered="116" left="113" laneChangedFrom="0" laneChangedTo="0"/>
        <edge id="jam2" sampledSeconds="2544.02" traveltime="21.86" overlapTraveltime="22.96" density="70.67" laneDensity="70.67" occupancy="35.33" waitingTime="0.00" timeLoss="2221.82" speed="4.57" departed="0" arrived="0" entered="117" left="116" laneChangedFrom="0" laneChangedTo="0"/>
        <edge id="start" sampledSeconds="8860.37" traveltime="72.14" overlapTraveltime="73.34" density="82.04" laneDensity="82.04" occupancy="41.02" waitingTime="0.00" timeLoss="7839.98" speed="4.16" departed="133" arrived="0" entered="0" left="117" laneChangedFrom="0" laneChangedTo="0"/>
    </interval>
    <interval begin="360.00" end="720.00" id="expect_300_vehs">
        <edge id="end" sampledSeconds="1512.66" traveltime="8.31" overlapTraveltime="8.45" density="14.01" laneDensity="14.01" occupancy="7.00" waitingTime="0.00" timeLoss="0.00" speed="36.11" departed="0" arrived="181" entered="183" left="0" laneChangedFrom="0" laneChangedTo="0"/>
        <edge id="jam0" sampledSeconds="1513.29" traveltime="8.31" overlapTraveltime="8.45" density="14.01" laneDensity="14.01" occupancy="7.01" waitingTime="0.00" timeLoss="0.00" speed="36.11" departed="0" arrived="0" entered="182" left="183" laneChangedFrom="0" laneChangedTo="0"/>
        <edge id="jam1" sampledSeconds="1008.88" traveltime="5.54" overlapTraveltime="5.68" density="14.01" laneDensity="14.01" occupancy="7.01" waitingTime="0.00" timeLoss="0.00" speed="36.11" departed="0" arrived="0" entered="182" left="182" laneChangedFrom="0" laneChangedTo="0"/>
        <edge id="jam2" sampledSeconds="504.28" traveltime="2.77" overlapTraveltime="2.91" density="14.01" laneDensity="14.01" occupancy="7.00" waitingTime="0.00" timeLoss="0.00" speed="36.11" departed="0" arrived="0" entered="182" left="182" laneChangedFrom="0" laneChangedTo="0"/>
        <edge id="start" sampledSeconds="5593.76" traveltime="30.97" overlapTraveltime="31.49" density="51.79" laneDensity="51.79" occupancy="25.90" waitingTime="0.00" timeLoss="4093.49" speed="9.69" departed="182" arrived="0" entered="0" left="182" laneChangedFrom="0" laneChangedTo="0"/>
    </interval>
    <interval begin="720.00" end="1080.00" id="expect_300_vehs">
        <edge id="end" sampledSeconds="1543.79" traveltime="8.31" overlapTraveltime="8.45" density="14.29" laneDensity="14.29" occupancy="7.15" waitingTime="0.00" timeLoss="0.00" speed="36.11" departed="0" arrived="186" entered="185" left="0" laneChangedFrom="0" laneChangedTo="0"/>
        <edge id="jam0" sampledSeconds="1543.88" traveltime="8.31" overlapTraveltime="8.45" density="14.30" laneDensity="14.30" occupancy="7.15" waitingTime="0.00" timeLoss="0.00" speed="36.11" departed="0" arrived="0" entered="186" left="185" laneChangedFrom="0" laneChangedTo="0"/>
        <edge id="jam1" sampledSeconds="1029.22" traveltime="5.54" overlapTraveltime="5.68" density="14.29" laneDensity="14.29" occupancy="7.15" waitingTime="0.00" timeLoss="0.00" speed="36.11" departed="0" arrived="0" entered="186" left="186" laneChangedFrom="0" laneChangedTo="0"/>
        <edge id="jam2" sampledSeconds="514.75" traveltime="2.77" overlapTraveltime="2.91" density="14.30" laneDensity="14.30" occupancy="7.15" waitingTime="0.00" timeLoss="0.00" speed="36.11" departed="0" arrived="0" entered="186" left="186" laneChangedFrom="0" laneChangedTo="0"/>
        <edge id="start" sampledSeconds="5616.26" traveltime="30.22" overlapTraveltime="30.72" density="52.00" laneDensity="52.00" occupancy="26.00" waitingTime="0.00" timeLoss="4072.35" speed="9.93" departed="186" arrived="0" entered="0" left="186" laneChangedFrom="0" laneChangedTo="0"/>
    </interval>
    <interval begin="1080.00" end="1200.00" id="expect_300_vehs">
        <edge id="end" sampledSeconds="518.66" traveltime="8.31" overlapTraveltime="8.45" density="14.41" laneDensity="14.41" occupancy="7.20" waitingTime="0.00" timeLoss="0.25" speed="36.10" departed="0" arrived="62" entered="62" left="0" laneChangedFrom="0" laneChangedTo="0"/>
        <edge id="jam0" sampledSeconds="519.56" traveltime="8.33" overlapTraveltime="8.47" density="14.43" laneDensity="14.43" occupancy="7.22" waitingTime="0.00" timeLoss="1.47" speed="36.01" departed="0" arrived="0" entered="62" left="62" laneChangedFrom="0" laneChangedTo="0"/>
        <edge id="jam1" sampledSeconds="346.07" traveltime="5.54" overlapTraveltime="5.68" density="14.42" laneDensity="14.42" occupancy="7.21" waitingTime="0.00" timeLoss="0.27" speed="36.09" departed="0" arrived="0" entered="62" left="62" laneChangedFrom="0" laneChangedTo="0"/>
        <edge id="jam2" sampledSeconds="172.58" traveltime="2.77" overlapTraveltime="2.91" density="14.38" laneDensity="14.38" occupancy="7.19" waitingTime="0.00" timeLoss="0.00" speed="36.11" departed="0" arrived="0" entered="62" left="62" laneChangedFrom="0" laneChangedTo="0"/>
        <edge id="start" sampledSeconds="1889.41" traveltime="30.27" overlapTraveltime="30.78" density="52.48" laneDensity="52.48" occupancy="26.24" waitingTime="0.00" timeLoss="1370.96" speed="9.91" departed="62" arrived="0" entered="0" left="62" laneChangedFrom="0" laneChangedTo="0"/>
    </interval>
</meandata>
