<?xml version="1.0" encoding="UTF-8"?>

<!-- generated on 2021-11-23 12:57:36 by Eclipse SUMO sumo Version v1_11_0+0012-279bcfd
This data file and the accompanying materials
are made available under the terms of the Eclipse Public License v2.0
which accompanies this distribution, and is available at
http://www.eclipse.org/legal/epl-v20.html
SPDX-License-Identifier: EPL-2.0
<configuration xmlns:xsi="http://www.w3.org/2001/XMLSchema-instance" xsi:noNamespaceSchemaLocation="http://sumo.dlr.de/xsd/sumoConfiguration.xsd">

    <input>
        <net-file value="net.net.xml"/>
        <route-files value="input_routes.rou.xml"/>
        <additional-files value="input_additional.add.xml"/>
    </input>

    <output>
        <write-license value="true"/>
        <vehroute-output value="vehroutes.xml"/>
    </output>

    <time>
        <end value="1200"/>
    </time>

    <processing>
        <default.speeddev value="0"/>
        <pedestrian.model value="nonInteracting"/>
    </processing>

    <report>
        <xml-validation value="never"/>
        <xml-validation.routes value="never"/>
        <duration-log.disable value="true"/>
        <no-step-log value="true"/>
    </report>

    <mesoscopic>
        <mesosim value="true"/>
        <meso-junction-control value="true"/>
    </mesoscopic>

</configuration>
-->

<meandata xmlns:xsi="http://www.w3.org/2001/XMLSchema-instance" xsi:noNamespaceSchemaLocation="http://sumo.dlr.de/xsd/meandata_file.xsd">
    <interval begin="0.00" end="360.00" id="expect_300_vehs">
        <edge id="end" sampledSeconds="1233.94" traveltime="8.31" overlapTraveltime="8.45" density="11.43" laneDensity="11.43" occupancy="5.71" waitingTime="0.00" timeLoss="0.00" speed="36.11" speedRelative="1.00" departed="0" arrived="146" entered="151" left="0" laneChangedFrom="0" laneChangedTo="0"/>
        <edge id="jam0" sampledSeconds="4633.87" traveltime="30.32" overlapTraveltime="30.82" density="42.91" laneDensity="42.91" occupancy="21.45" waitingTime="0.00" timeLoss="3364.23" speed="9.89" speedRelative="0.27" departed="0" arrived="0" entered="155" left="151" laneChangedFrom="0" laneChangedTo="0"/>
        <edge id="jam1" sampledSeconds="3500.36" traveltime="22.38" overlapTraveltime="22.94" density="48.62" laneDensity="48.62" occupancy="24.31" waitingTime="0.00" timeLoss="2634.23" speed="8.94" speedRelative="0.25" departed="0" arrived="0" entered="158" left="155" laneChangedFrom="0" laneChangedTo="0"/>
        <edge id="jam2" sampledSeconds="1869.08" traveltime="11.79" overlapTraveltime="12.38" density="51.92" laneDensity="51.92" occupancy="25.96" waitingTime="0.00" timeLoss="1430.10" speed="8.48" speedRelative="0.23" departed="0" arrived="0" entered="159" left="158" laneChangedFrom="0" laneChangedTo="0"/>
        <edge id="start" sampledSeconds="7014.22" traveltime="42.89" overlapTraveltime="43.60" density="64.95" laneDensity="64.95" occupancy="32.47" waitingTime="0.00" timeLoss="5655.62" speed="6.99" speedRelative="0.19" departed="175" arrived="0" entered="0" left="159" laneChangedFrom="0" laneChangedTo="0"/>
    </interval>
    <interval begin="360.00" end="720.00" id="expect_300_vehs">
        <edge id="end" sampledSeconds="1543.69" traveltime="8.31" overlapTraveltime="8.45" density="14.29" laneDensity="14.29" occupancy="7.15" waitingTime="0.00" timeLoss="0.00" speed="36.11" speedRelative="1.00" departed="0" arrived="186" entered="186" left="0" laneChangedFrom="0" laneChangedTo="0"/>
        <edge id="jam0" sampledSeconds="1543.97" traveltime="8.31" overlapTraveltime="8.45" density="14.30" laneDensity="14.30" occupancy="7.15" waitingTime="0.00" timeLoss="0.00" speed="36.11" speedRelative="1.00" departed="0" arrived="0" entered="186" left="186" laneChangedFrom="0" laneChangedTo="0"/>
        <edge id="jam1" sampledSeconds="1029.22" traveltime="5.54" overlapTraveltime="5.68" density="14.29" laneDensity="14.29" occupancy="7.15" waitingTime="0.00" timeLoss="0.00" speed="36.11" speedRelative="1.00" departed="0" arrived="0" entered="186" left="186" laneChangedFrom="0" laneChangedTo="0"/>
        <edge id="jam2" sampledSeconds="514.75" traveltime="2.77" overlapTraveltime="2.91" density="14.30" laneDensity="14.30" occupancy="7.15" waitingTime="0.00" timeLoss="0.00" speed="36.11" speedRelative="1.00" departed="0" arrived="0" entered="186" left="186" laneChangedFrom="0" laneChangedTo="0"/>
        <edge id="start" sampledSeconds="5615.32" traveltime="30.22" overlapTraveltime="30.72" density="51.99" laneDensity="51.99" occupancy="26.00" waitingTime="0.00" timeLoss="4071.75" speed="9.93" speedRelative="0.27" departed="186" arrived="0" entered="0" left="186" laneChangedFrom="0" laneChangedTo="0"/>
    </interval>
    <interval begin="720.00" end="1080.00" id="expect_300_vehs">
        <edge id="end" sampledSeconds="1543.91" traveltime="8.31" overlapTraveltime="8.45" density="14.30" laneDensity="14.30" occupancy="7.15" waitingTime="0.00" timeLoss="0.00" speed="36.11" speedRelative="1.00" departed="0" arrived="186" entered="185" left="0" laneChangedFrom="0" laneChangedTo="0"/>
        <edge id="jam0" sampledSeconds="1543.76" traveltime="8.31" overlapTraveltime="8.45" density="14.29" laneDensity="14.29" occupancy="7.15" waitingTime="0.00" timeLoss="0.00" speed="36.11" speedRelative="1.00" departed="0" arrived="0" entered="186" left="185" laneChangedFrom="0" laneChangedTo="0"/>
        <edge id="jam1" sampledSeconds="1029.22" traveltime="5.54" overlapTraveltime="5.68" density="14.29" laneDensity="14.29" occupancy="7.15" waitingTime="0.00" timeLoss="0.00" speed="36.11" speedRelative="1.00" departed="0" arrived="0" entered="186" left="186" laneChangedFrom="0" laneChangedTo="0"/>
        <edge id="jam2" sampledSeconds="514.75" traveltime="2.77" overlapTraveltime="2.91" density="14.30" laneDensity="14.30" occupancy="7.15" waitingTime="0.00" timeLoss="0.00" speed="36.11" speedRelative="1.00" departed="0" arrived="0" entered="186" left="186" laneChangedFrom="0" laneChangedTo="0"/>
        <edge id="start" sampledSeconds="5617.77" traveltime="30.22" overlapTraveltime="30.73" density="52.02" laneDensity="52.02" occupancy="26.01" waitingTime="0.00" timeLoss="4073.72" speed="9.93" speedRelative="0.27" departed="186" arrived="0" entered="0" left="186" laneChangedFrom="0" laneChangedTo="0"/>
    </interval>
    <interval begin="1080.00" end="1200.00" id="expect_300_vehs">
        <edge id="end" sampledSeconds="518.66" traveltime="8.33" overlapTraveltime="8.47" density="14.41" laneDensity="14.41" occupancy="7.20" waitingTime="0.00" timeLoss="1.31" speed="36.02" speedRelative="1.00" departed="0" arrived="62" entered="62" left="0" laneChangedFrom="0" laneChangedTo="0"/>
        <edge id="jam0" sampledSeconds="519.56" traveltime="8.33" overlapTraveltime="8.46" density="14.43" laneDensity="14.43" occupancy="7.22" waitingTime="0.00" timeLoss="1.16" speed="36.03" speedRelative="1.00" departed="0" arrived="0" entered="62" left="62" laneChangedFrom="0" laneChangedTo="0"/>
        <edge id="jam1" sampledSeconds="345.10" traveltime="5.54" overlapTraveltime="5.68" density="14.38" laneDensity="14.38" occupancy="7.19" waitingTime="0.00" timeLoss="0.15" speed="36.10" speedRelative="1.00" departed="0" arrived="0" entered="61" left="62" laneChangedFrom="0" laneChangedTo="0"/>
        <edge id="jam2" sampledSeconds="173.56" traveltime="2.79" overlapTraveltime="2.93" density="14.46" laneDensity="14.46" occupancy="7.23" waitingTime="0.00" timeLoss="1.19" speed="35.87" speedRelative="0.99" departed="0" arrived="0" entered="62" left="61" laneChangedFrom="0" laneChangedTo="0"/>
        <edge id="start" sampledSeconds="1888.91" traveltime="30.26" overlapTraveltime="30.76" density="52.47" laneDensity="52.47" occupancy="26.23" waitingTime="0.00" timeLoss="1370.31" speed="9.91" speedRelative="0.27" departed="62" arrived="0" entered="0" left="62" laneChangedFrom="0" laneChangedTo="0"/>
    </interval>
</meandata>
