<?xml version="1.0" encoding="UTF-8"?>

<!-- generated on Wed Nov 25 18:32:45 2020 by Eclipse SUMO sumo Version v1_7_0+1296-45fee5e4a0
This data file and the accompanying materials
are made available under the terms of the Eclipse Public License v2.0
which accompanies this distribution, and is available at
http://www.eclipse.org/legal/epl-v20.html
SPDX-License-Identifier: EPL-2.0
<configuration xmlns:xsi="http://www.w3.org/2001/XMLSchema-instance" xsi:noNamespaceSchemaLocation="http://sumo.dlr.de/xsd/sumoConfiguration.xsd">

    <input>
        <net-file value="net.net.xml"/>
        <route-files value="input_routes.rou.xml"/>
        <additional-files value="input_additional.add.xml"/>
    </input>

    <output>
        <write-license value="true"/>
        <vehroute-output value="vehroutes.xml"/>
    </output>

    <time>
        <end value="1200"/>
    </time>

    <processing>
        <default.speeddev value="0"/>
        <pedestrian.model value="nonInteracting"/>
    </processing>

    <report>
        <xml-validation value="never"/>
        <xml-validation.routes value="never"/>
        <duration-log.disable value="true"/>
        <no-step-log value="true"/>
    </report>

    <mesoscopic>
        <mesosim value="true"/>
        <meso-junction-control value="true"/>
    </mesoscopic>

</configuration>
-->

<routes xmlns:xsi="http://www.w3.org/2001/XMLSchema-instance" xsi:noNamespaceSchemaLocation="http://sumo.dlr.de/xsd/routes_file.xsd">
    <vehicle id="high.0" depart="0.00" departSpeed="36.11" arrival="109.00">
        <route edges="start jam2 jam1 jam0 end"/>
    </vehicle>

    <vehicle id="high.1" depart="2.00" departSpeed="36.11" arrival="111.00">
        <route edges="start jam2 jam1 jam0 end"/>
    </vehicle>

    <vehicle id="high.2" depart="3.00" departSpeed="32.20" arrival="113.00">
        <route edges="start jam2 jam1 jam0 end"/>
    </vehicle>

    <vehicle id="high.3" depart="4.00" departSpeed="29.04" arrival="115.00">
        <route edges="start jam2 jam1 jam0 end"/>
    </vehicle>

    <vehicle id="high.4" depart="5.00" departSpeed="26.46" arrival="116.00">
        <route edges="start jam2 jam1 jam0 end"/>
    </vehicle>

    <vehicle id="high.5" depart="7.00" departSpeed="32.08" arrival="118.00">
        <route edges="start jam2 jam1 jam0 end"/>
    </vehicle>

    <vehicle id="high.6" depart="8.00" departSpeed="28.95" arrival="120.00">
        <route edges="start jam2 jam1 jam0 end"/>
    </vehicle>

    <vehicle id="high.7" depart="9.00" departSpeed="26.38" arrival="122.00">
        <route edges="start jam2 jam1 jam0 end"/>
    </vehicle>

    <vehicle id="high.8" depart="11.00" departSpeed="31.97" arrival="124.00">
        <route edges="start jam2 jam1 jam0 end"/>
    </vehicle>

    <vehicle id="high.9" depart="12.00" departSpeed="28.86" arrival="126.00">
        <route edges="start jam2 jam1 jam0 end"/>
    </vehicle>

    <vehicle id="high.10" depart="13.00" departSpeed="26.30" arrival="128.00">
        <route edges="start jam2 jam1 jam0 end"/>
    </vehicle>

    <vehicle id="high.11" depart="15.00" departSpeed="31.86" arrival="130.00">
        <route edges="start jam2 jam1 jam0 end"/>
    </vehicle>

    <vehicle id="high.12" depart="16.00" departSpeed="28.77" arrival="131.00">
        <route edges="start jam2 jam1 jam0 end"/>
    </vehicle>

    <vehicle id="high.13" depart="17.00" departSpeed="26.23" arrival="133.00">
        <route edges="start jam2 jam1 jam0 end"/>
    </vehicle>

    <vehicle id="high.14" depart="19.00" departSpeed="31.75" arrival="134.00">
        <route edges="start jam2 jam1 jam0 end"/>
    </vehicle>

    <vehicle id="high.15" depart="20.00" departSpeed="28.68" arrival="145.00">
        <route edges="start jam2 jam1 jam0 end"/>
    </vehicle>

    <vehicle id="high.16" depart="21.00" departSpeed="26.15" arrival="147.00">
        <route edges="start jam2 jam1 jam0 end"/>
    </vehicle>

    <vehicle id="high.17" depart="23.00" departSpeed="31.64" arrival="149.00">
        <route edges="start jam2 jam1 jam0 end"/>
    </vehicle>

    <vehicle id="high.18" depart="24.00" departSpeed="28.59" arrival="151.00">
        <route edges="start jam2 jam1 jam0 end"/>
    </vehicle>

    <vehicle id="high.19" depart="25.00" departSpeed="26.08" arrival="153.00">
        <route edges="start jam2 jam1 jam0 end"/>
    </vehicle>

    <vehicle id="high.20" depart="27.00" departSpeed="31.53" arrival="155.00">
        <route edges="start jam2 jam1 jam0 end"/>
    </vehicle>

    <vehicle id="high.21" depart="28.00" departSpeed="28.50" arrival="157.00">
        <route edges="start jam2 jam1 jam0 end"/>
    </vehicle>

    <vehicle id="high.22" depart="29.00" departSpeed="26.00" arrival="158.00">
        <route edges="start jam2 jam1 jam0 end"/>
    </vehicle>

    <vehicle id="high.23" depart="31.00" departSpeed="31.42" arrival="160.00">
        <route edges="start jam2 jam1 jam0 end"/>
    </vehicle>

    <vehicle id="high.24" depart="32.00" departSpeed="28.41" arrival="162.00">
        <route edges="start jam2 jam1 jam0 end"/>
    </vehicle>

    <vehicle id="high.25" depart="33.00" departSpeed="25.93" arrival="164.00">
        <route edges="start jam2 jam1 jam0 end"/>
    </vehicle>

    <vehicle id="high.26" depart="35.00" departSpeed="31.31" arrival="166.00">
        <route edges="start jam2 jam1 jam0 end"/>
    </vehicle>

    <vehicle id="high.27" depart="36.00" departSpeed="28.32" arrival="168.00">
        <route edges="start jam2 jam1 jam0 end"/>
    </vehicle>

    <vehicle id="high.28" depart="37.00" departSpeed="25.85" arrival="169.00">
        <route edges="start jam2 jam1 jam0 end"/>
    </vehicle>

    <vehicle id="high.29" depart="39.00" departSpeed="31.20" arrival="170.00">
        <route edges="start jam2 jam1 jam0 end"/>
    </vehicle>

    <vehicle id="high.30" depart="40.00" departSpeed="28.23" arrival="181.00">
        <route edges="start jam2 jam1 jam0 end"/>
    </vehicle>

    <vehicle id="high.31" depart="41.00" departSpeed="25.78" arrival="183.00">
        <route edges="start jam2 jam1 jam0 end"/>
    </vehicle>

    <vehicle id="high.32" depart="43.00" departSpeed="31.09" arrival="185.00">
        <route edges="start jam2 jam1 jam0 end"/>
    </vehicle>

    <vehicle id="high.33" depart="44.00" departSpeed="28.15" arrival="187.00">
        <route edges="start jam2 jam1 jam0 end"/>
    </vehicle>

    <vehicle id="high.34" depart="45.00" departSpeed="25.71" arrival="189.00">
        <route edges="start jam2 jam1 jam0 end"/>
    </vehicle>

    <vehicle id="high.35" depart="47.00" departSpeed="30.99" arrival="191.00">
        <route edges="start jam2 jam1 jam0 end"/>
    </vehicle>

    <vehicle id="high.36" depart="48.00" departSpeed="28.06" arrival="193.00">
        <route edges="start jam2 jam1 jam0 end"/>
    </vehicle>

    <vehicle id="high.37" depart="49.00" departSpeed="25.63" arrival="195.00">
        <route edges="start jam2 jam1 jam0 end"/>
    </vehicle>

    <vehicle id="high.38" depart="51.00" departSpeed="30.88" arrival="197.00">
        <route edges="start jam2 jam1 jam0 end"/>
    </vehicle>

    <vehicle id="high.39" depart="52.00" departSpeed="27.97" arrival="199.00">
        <route edges="start jam2 jam1 jam0 end"/>
    </vehicle>

    <vehicle id="high.40" depart="53.00" departSpeed="25.56" arrival="200.00">
        <route edges="start jam2 jam1 jam0 end"/>
    </vehicle>

    <vehicle id="high.41" depart="55.00" departSpeed="30.78" arrival="202.00">
        <route edges="start jam2 jam1 jam0 end"/>
    </vehicle>

    <vehicle id="high.42" depart="56.00" departSpeed="27.89" arrival="204.00">
        <route edges="start jam2 jam1 jam0 end"/>
    </vehicle>

    <vehicle id="high.43" depart="57.00" departSpeed="25.49" arrival="205.00">
        <route edges="start jam2 jam1 jam0 end"/>
    </vehicle>

    <vehicle id="high.44" depart="59.00" departSpeed="30.67" arrival="206.00">
        <route edges="start jam2 jam1 jam0 end"/>
    </vehicle>

    <vehicle id="high.45" depart="60.00" departSpeed="27.80" arrival="217.00">
        <route edges="start jam2 jam1 jam0 end"/>
    </vehicle>

    <vehicle id="high.46" depart="61.00" departSpeed="25.42" arrival="219.00">
        <route edges="start jam2 jam1 jam0 end"/>
    </vehicle>

    <vehicle id="high.47" depart="63.00" departSpeed="30.57" arrival="221.00">
        <route edges="start jam2 jam1 jam0 end"/>
    </vehicle>

    <vehicle id="high.48" depart="64.00" departSpeed="27.72" arrival="223.00">
        <route edges="start jam2 jam1 jam0 end"/>
    </vehicle>

    <vehicle id="high.49" depart="65.00" departSpeed="25.35" arrival="225.00">
        <route edges="start jam2 jam1 jam0 end"/>
    </vehicle>

    <vehicle id="high.50" depart="67.00" departSpeed="30.47" arrival="227.00">
        <route edges="start jam2 jam1 jam0 end"/>
    </vehicle>

    <vehicle id="high.51" depart="68.00" departSpeed="27.63" arrival="229.00">
        <route edges="start jam2 jam1 jam0 end"/>
    </vehicle>

    <vehicle id="high.52" depart="69.00" departSpeed="25.28" arrival="231.00">
        <route edges="start jam2 jam1 jam0 end"/>
    </vehicle>

    <vehicle id="high.53" depart="71.00" departSpeed="30.37" arrival="233.00">
        <route edges="start jam2 jam1 jam0 end"/>
    </vehicle>

    <vehicle id="high.54" depart="72.00" departSpeed="27.55" arrival="235.00">
        <route edges="start jam2 jam1 jam0 end"/>
    </vehicle>

    <vehicle id="high.55" depart="73.00" departSpeed="25.21" arrival="237.00">
        <route edges="start jam2 jam1 jam0 end"/>
    </vehicle>

    <vehicle id="high.56" depart="75.00" departSpeed="30.27" arrival="239.00">
        <route edges="start jam2 jam1 jam0 end"/>
    </vehicle>

    <vehicle id="high.57" depart="76.00" departSpeed="27.46" arrival="240.00">
        <route edges="start jam2 jam1 jam0 end"/>
    </vehicle>

    <vehicle id="high.58" depart="77.00" departSpeed="25.14" arrival="241.00">
        <route edges="start jam2 jam1 jam0 end"/>
    </vehicle>

    <vehicle id="high.59" depart="79.00" departSpeed="30.17" arrival="243.00">
        <route edges="start jam2 jam1 jam0 end"/>
    </vehicle>

    <vehicle id="high.60" depart="80.00" departSpeed="27.38" arrival="254.00">
        <route edges="start jam2 jam1 jam0 end"/>
    </vehicle>

    <vehicle id="high.61" depart="81.00" departSpeed="25.07" arrival="255.00">
        <route edges="start jam2 jam1 jam0 end"/>
    </vehicle>

    <vehicle id="high.62" depart="83.00" departSpeed="30.07" arrival="257.00">
        <route edges="start jam2 jam1 jam0 end"/>
    </vehicle>

    <vehicle id="high.63" depart="84.00" departSpeed="27.30" arrival="259.00">
        <route edges="start jam2 jam1 jam0 end"/>
    </vehicle>

    <vehicle id="high.64" depart="85.00" departSpeed="25.00" arrival="261.00">
        <route edges="start jam2 jam1 jam0 end"/>
    </vehicle>

    <vehicle id="high.65" depart="87.00" departSpeed="29.97" arrival="263.00">
        <route edges="start jam2 jam1 jam0 end"/>
    </vehicle>

    <vehicle id="high.66" depart="88.00" departSpeed="27.22" arrival="265.00">
        <route edges="start jam2 jam1 jam0 end"/>
    </vehicle>

    <vehicle id="high.67" depart="89.00" departSpeed="24.93" arrival="267.00">
        <route edges="start jam2 jam1 jam0 end"/>
    </vehicle>

    <vehicle id="high.68" depart="91.00" departSpeed="29.87" arrival="269.00">
        <route edges="start jam2 jam1 jam0 end"/>
    </vehicle>

    <vehicle id="high.69" depart="92.00" departSpeed="27.14" arrival="271.00">
        <route edges="start jam2 jam1 jam0 end"/>
    </vehicle>

    <vehicle id="high.70" depart="94.00" departSpeed="33.09" arrival="273.00">
        <route edges="start jam2 jam1 jam0 end"/>
    </vehicle>

    <vehicle id="high.71" depart="95.00" departSpeed="29.77" arrival="275.00">
        <route edges="start jam2 jam1 jam0 end"/>
    </vehicle>

    <vehicle id="high.72" depart="96.00" departSpeed="27.06" arrival="276.00">
        <route edges="start jam2 jam1 jam0 end"/>
    </vehicle>

    <vehicle id="high.73" depart="98.00" departSpeed="32.97" arrival="278.00">
        <route edges="start jam2 jam1 jam0 end"/>
    </vehicle>

    <vehicle id="high.74" depart="99.00" departSpeed="29.67" arrival="279.00">
        <route edges="start jam2 jam1 jam0 end"/>
    </vehicle>

    <vehicle id="high.75" depart="100.00" departSpeed="26.98" arrival="290.00">
        <route edges="start jam2 jam1 jam0 end"/>
    </vehicle>

    <vehicle id="high.76" depart="102.00" departSpeed="32.85" arrival="292.00">
        <route edges="start jam2 jam1 jam0 end"/>
    </vehicle>

    <vehicle id="high.77" depart="103.00" departSpeed="29.58" arrival="294.00">
        <route edges="start jam2 jam1 jam0 end"/>
    </vehicle>

    <vehicle id="high.78" depart="104.00" departSpeed="26.90" arrival="296.00">
        <route edges="start jam2 jam1 jam0 end"/>
    </vehicle>

    <vehicle id="high.79" depart="106.00" departSpeed="32.73" arrival="297.00">
        <route edges="start jam2 jam1 jam0 end"/>
    </vehicle>

    <vehicle id="high.80" depart="107.00" departSpeed="29.48" arrival="299.00">
        <route edges="start jam2 jam1 jam0 end"/>
    </vehicle>

    <vehicle id="high.81" depart="108.00" departSpeed="26.82" arrival="301.00">
        <route edges="start jam2 jam1 jam0 end"/>
    </vehicle>

    <vehicle id="high.82" depart="110.00" departSpeed="32.62" arrival="303.00">
        <route edges="start jam2 jam1 jam0 end"/>
    </vehicle>

    <vehicle id="high.83" depart="111.00" departSpeed="29.39" arrival="305.00">
        <route edges="start jam2 jam1 jam0 end"/>
    </vehicle>

    <vehicle id="high.84" depart="112.00" departSpeed="26.74" arrival="307.00">
        <route edges="start jam2 jam1 jam0 end"/>
    </vehicle>

    <vehicle id="high.85" depart="114.00" departSpeed="32.50" arrival="309.00">
        <route edges="start jam2 jam1 jam0 end"/>
    </vehicle>

    <vehicle id="high.86" depart="115.00" departSpeed="29.29" arrival="311.00">
        <route edges="start jam2 jam1 jam0 end"/>
    </vehicle>

    <vehicle id="high.87" depart="116.00" departSpeed="26.66" arrival="312.00">
        <route edges="start jam2 jam1 jam0 end"/>
    </vehicle>

    <vehicle id="high.88" depart="118.00" departSpeed="32.38" arrival="314.00">
        <route edges="start jam2 jam1 jam0 end"/>
    </vehicle>

    <vehicle id="high.89" depart="119.00" departSpeed="29.20" arrival="315.00">
        <route edges="start jam2 jam1 jam0 end"/>
    </vehicle>

    <vehicle id="high.90" depart="120.00" departSpeed="26.58" arrival="326.00">
        <route edges="start jam2 jam1 jam0 end"/>
    </vehicle>

    <vehicle id="high.91" depart="122.00" departSpeed="32.27" arrival="328.00">
        <route edges="start jam2 jam1 jam0 end"/>
    </vehicle>

    <vehicle id="high.92" depart="123.00" departSpeed="29.10" arrival="330.00">
        <route edges="start jam2 jam1 jam0 end"/>
    </vehicle>

    <vehicle id="high.93" depart="124.00" departSpeed="26.50" arrival="332.00">
        <route edges="start jam2 jam1 jam0 end"/>
    </vehicle>

    <vehicle id="high.94" depart="126.00" departSpeed="32.15" arrival="334.00">
        <route edges="start jam2 jam1 jam0 end"/>
    </vehicle>

    <vehicle id="high.95" depart="127.00" departSpeed="29.01" arrival="336.00">
        <route edges="start jam2 jam1 jam0 end"/>
    </vehicle>

    <vehicle id="high.96" depart="128.00" departSpeed="26.43" arrival="338.00">
        <route edges="start jam2 jam1 jam0 end"/>
    </vehicle>

    <vehicle id="high.97" depart="130.00" departSpeed="32.04" arrival="339.00">
        <route edges="start jam2 jam1 jam0 end"/>
    </vehicle>

    <vehicle id="high.98" depart="131.00" departSpeed="28.92" arrival="341.00">
        <route edges="start jam2 jam1 jam0 end"/>
    </vehicle>

    <vehicle id="high.99" depart="132.00" departSpeed="26.35" arrival="343.00">
        <route edges="start jam2 jam1 jam0 end"/>
    </vehicle>

    <vehicle id="high.100" depart="134.00" departSpeed="31.93" arrival="345.00">
        <route edges="start jam2 jam1 jam0 end"/>
    </vehicle>

    <vehicle id="high.101" depart="135.00" departSpeed="28.83" arrival="347.00">
        <route edges="start jam2 jam1 jam0 end"/>
    </vehicle>

    <vehicle id="high.102" depart="136.00" departSpeed="26.27" arrival="349.00">
        <route edges="start jam2 jam1 jam0 end"/>
    </vehicle>

    <vehicle id="high.103" depart="138.00" departSpeed="31.82" arrival="350.00">
        <route edges="start jam2 jam1 jam0 end"/>
    </vehicle>

    <vehicle id="high.104" depart="139.00" departSpeed="28.74" arrival="351.00">
        <route edges="start jam2 jam1 jam0 end"/>
    </vehicle>

    <vehicle id="high.105" depart="140.00" departSpeed="26.20" arrival="362.00">
        <route edges="start jam2 jam1 jam0 end"/>
    </vehicle>

    <vehicle id="high.106" depart="142.00" departSpeed="31.71" arrival="364.00">
        <route edges="start jam2 jam1 jam0 end"/>
    </vehicle>

    <vehicle id="high.107" depart="143.00" departSpeed="28.65" arrival="366.00">
        <route edges="start jam2 jam1 jam0 end"/>
    </vehicle>

    <vehicle id="high.108" depart="144.00" departSpeed="26.12" arrival="368.00">
        <route edges="start jam2 jam1 jam0 end"/>
    </vehicle>

    <vehicle id="high.109" depart="146.00" departSpeed="31.60" arrival="370.00">
        <route edges="start jam2 jam1 jam0 end"/>
    </vehicle>

    <vehicle id="high.110" depart="147.00" departSpeed="28.56" arrival="372.00">
        <route edges="start jam2 jam1 jam0 end"/>
    </vehicle>

    <vehicle id="high.111" depart="147.00" departSpeed="20.67" arrival="374.00">
        <route edges="start jam2 jam1 jam0 end"/>
    </vehicle>

    <vehicle id="high.112" depart="151.00" departSpeed="35.25" arrival="376.00">
        <route edges="start jam2 jam1 jam0 end"/>
    </vehicle>

    <vehicle id="high.113" depart="151.00" departSpeed="23.96" arrival="378.00">
        <route edges="start jam2 jam1 jam0 end"/>
    </vehicle>

    <vehicle id="high.114" depart="151.00" departSpeed="18.15" arrival="380.00">
        <route edges="start jam2 jam1 jam0 end"/>
    </vehicle>

    <vehicle id="high.115" depart="154.00" departSpeed="25.99" arrival="381.00">
        <route edges="start jam2 jam1 jam0 end"/>
    </vehicle>

    <vehicle id="high.116" depart="154.00" departSpeed="19.29" arrival="383.00">
        <route edges="start jam2 jam1 jam0 end"/>
    </vehicle>

    <vehicle id="high.117" depart="154.00" departSpeed="15.33" arrival="385.00">
        <route edges="start jam2 jam1 jam0 end"/>
    </vehicle>

    <vehicle id="high.118" depart="154.00" departSpeed="12.72" arrival="386.00">
        <route edges="start jam2 jam1 jam0 end"/>
    </vehicle>

    <vehicle id="high.119" depart="154.00" departSpeed="10.87" arrival="387.00">
        <route edges="start jam2 jam1 jam0 end"/>
    </vehicle>

    <vehicle id="high.120" depart="154.00" departSpeed="9.49" arrival="398.00">
        <route edges="start jam2 jam1 jam0 end"/>
    </vehicle>

    <vehicle id="high.121" depart="167.00" departSpeed="6.06" arrival="400.00">
        <route edges="start jam2 jam1 jam0 end"/>
    </vehicle>

    <vehicle id="high.122" depart="184.00" departSpeed="6.17" arrival="402.00">
        <route edges="start jam2 jam1 jam0 end"/>
    </vehicle>

    <vehicle id="high.123" depart="201.00" departSpeed="6.28" arrival="404.00">
        <route edges="start jam2 jam1 jam0 end"/>
    </vehicle>

    <vehicle id="high.124" depart="217.00" departSpeed="6.01" arrival="406.00">
        <route edges="start jam2 jam1 jam0 end"/>
    </vehicle>

    <vehicle id="high.125" depart="234.00" departSpeed="6.11" arrival="408.00">
        <route edges="start jam2 jam1 jam0 end"/>
    </vehicle>

    <vehicle id="high.126" depart="251.00" departSpeed="6.22" arrival="410.00">
        <route edges="start jam2 jam1 jam0 end"/>
    </vehicle>

    <vehicle id="high.127" depart="268.00" departSpeed="6.33" arrival="412.00">
        <route edges="start jam2 jam1 jam0 end"/>
    </vehicle>

    <vehicle id="high.128" depart="284.00" departSpeed="6.06" arrival="414.00">
        <route edges="start jam2 jam1 jam0 end"/>
    </vehicle>

    <vehicle id="high.129" depart="301.00" departSpeed="6.16" arrival="416.00">
        <route edges="start jam2 jam1 jam0 end"/>
    </vehicle>

    <vehicle id="high.130" depart="318.00" departSpeed="6.27" arrival="418.00">
        <route edges="start jam2 jam1 jam0 end"/>
    </vehicle>

    <vehicle id="high.131" depart="334.00" departSpeed="6.00" arrival="420.00">
        <route edges="start jam2 jam1 jam0 end"/>
    </vehicle>

    <vehicle id="high.132" depart="351.00" departSpeed="6.11" arrival="422.00">
        <route edges="start jam2 jam1 jam0 end"/>
    </vehicle>

    <vehicle id="high.133" depart="368.00" departSpeed="36.11" arrival="424.00">
        <route edges="start jam2 jam1 jam0 end"/>
    </vehicle>

    <vehicle id="high.134" depart="370.00" departSpeed="36.11" arrival="425.00">
        <route edges="start jam2 jam1 jam0 end"/>
    </vehicle>

    <vehicle id="high.135" depart="372.00" departSpeed="36.11" arrival="427.00">
        <route edges="start jam2 jam1 jam0 end"/>
    </vehicle>

    <vehicle id="high.136" depart="374.00" departSpeed="36.11" arrival="429.00">
        <route edges="start jam2 jam1 jam0 end"/>
    </vehicle>

    <vehicle id="high.137" depart="376.00" departSpeed="36.11" arrival="431.00">
        <route edges="start jam2 jam1 jam0 end"/>
    </vehicle>

    <vehicle id="high.138" depart="378.00" departSpeed="36.11" arrival="433.00">
        <route edges="start jam2 jam1 jam0 end"/>
    </vehicle>

    <vehicle id="high.139" depart="379.00" departSpeed="32.20" arrival="435.00">
        <route edges="start jam2 jam1 jam0 end"/>
    </vehicle>

    <vehicle id="high.140" depart="381.00" departSpeed="36.11" arrival="437.00">
        <route edges="start jam2 jam1 jam0 end"/>
    </vehicle>

    <vehicle id="high.141" depart="383.00" departSpeed="36.11" arrival="439.00">
        <route edges="start jam2 jam1 jam0 end"/>
    </vehicle>

    <vehicle id="high.142" depart="385.00" departSpeed="36.11" arrival="441.00">
        <route edges="start jam2 jam1 jam0 end"/>
    </vehicle>

    <vehicle id="high.143" depart="387.00" departSpeed="36.11" arrival="443.00">
        <route edges="start jam2 jam1 jam0 end"/>
    </vehicle>

    <vehicle id="high.144" depart="389.00" departSpeed="36.11" arrival="445.00">
        <route edges="start jam2 jam1 jam0 end"/>
    </vehicle>

    <vehicle id="high.145" depart="391.00" departSpeed="36.11" arrival="447.00">
        <route edges="start jam2 jam1 jam0 end"/>
    </vehicle>

    <vehicle id="high.146" depart="393.00" departSpeed="36.11" arrival="449.00">
        <route edges="start jam2 jam1 jam0 end"/>
    </vehicle>

    <vehicle id="high.147" depart="395.00" departSpeed="36.11" arrival="451.00">
        <route edges="start jam2 jam1 jam0 end"/>
    </vehicle>

    <vehicle id="high.148" depart="397.00" departSpeed="36.11" arrival="453.00">
        <route edges="start jam2 jam1 jam0 end"/>
    </vehicle>

    <vehicle id="high.149" depart="399.00" departSpeed="36.11" arrival="455.00">
        <route edges="start jam2 jam1 jam0 end"/>
    </vehicle>

    <vehicle id="high.150" depart="401.00" departSpeed="36.11" arrival="456.00">
        <route edges="start jam2 jam1 jam0 end"/>
    </vehicle>

    <vehicle id="high.151" depart="403.00" departSpeed="36.11" arrival="458.00">
        <route edges="start jam2 jam1 jam0 end"/>
    </vehicle>

    <vehicle id="high.152" depart="405.00" departSpeed="36.11" arrival="460.00">
        <route edges="start jam2 jam1 jam0 end"/>
    </vehicle>

    <vehicle id="high.153" depart="407.00" departSpeed="36.11" arrival="462.00">
        <route edges="start jam2 jam1 jam0 end"/>
    </vehicle>

    <vehicle id="high.154" depart="409.00" departSpeed="36.11" arrival="464.00">
        <route edges="start jam2 jam1 jam0 end"/>
    </vehicle>

    <vehicle id="high.155" depart="410.00" departSpeed="32.20" arrival="466.00">
        <route edges="start jam2 jam1 jam0 end"/>
    </vehicle>

    <vehicle id="high.156" depart="412.00" departSpeed="36.11" arrival="468.00">
        <route edges="start jam2 jam1 jam0 end"/>
    </vehicle>

    <vehicle id="high.157" depart="414.00" departSpeed="36.11" arrival="470.00">
        <route edges="start jam2 jam1 jam0 end"/>
    </vehicle>

    <vehicle id="high.158" depart="416.00" departSpeed="36.11" arrival="472.00">
        <route edges="start jam2 jam1 jam0 end"/>
    </vehicle>

    <vehicle id="high.159" depart="418.00" departSpeed="36.11" arrival="474.00">
        <route edges="start jam2 jam1 jam0 end"/>
    </vehicle>

    <vehicle id="high.160" depart="420.00" departSpeed="36.11" arrival="476.00">
        <route edges="start jam2 jam1 jam0 end"/>
    </vehicle>

    <vehicle id="high.161" depart="422.00" departSpeed="36.11" arrival="478.00">
        <route edges="start jam2 jam1 jam0 end"/>
    </vehicle>

    <vehicle id="high.162" depart="424.00" departSpeed="36.11" arrival="480.00">
        <route edges="start jam2 jam1 jam0 end"/>
    </vehicle>

    <vehicle id="high.163" depart="426.00" departSpeed="36.11" arrival="482.00">
        <route edges="start jam2 jam1 jam0 end"/>
    </vehicle>

    <vehicle id="high.164" depart="428.00" departSpeed="36.11" arrival="484.00">
        <route edges="start jam2 jam1 jam0 end"/>
    </vehicle>

    <vehicle id="high.165" depart="430.00" departSpeed="36.11" arrival="485.00">
        <route edges="start jam2 jam1 jam0 end"/>
    </vehicle>

    <vehicle id="high.166" depart="432.00" departSpeed="36.11" arrival="487.00">
        <route edges="start jam2 jam1 jam0 end"/>
    </vehicle>

    <vehicle id="high.167" depart="434.00" departSpeed="36.11" arrival="489.00">
        <route edges="start jam2 jam1 jam0 end"/>
    </vehicle>

    <vehicle id="high.168" depart="436.00" departSpeed="36.11" arrival="491.00">
        <route edges="start jam2 jam1 jam0 end"/>
    </vehicle>

    <vehicle id="high.169" depart="438.00" departSpeed="36.11" arrival="493.00">
        <route edges="start jam2 jam1 jam0 end"/>
    </vehicle>

    <vehicle id="high.170" depart="440.00" departSpeed="36.11" arrival="495.00">
        <route edges="start jam2 jam1 jam0 end"/>
    </vehicle>

    <vehicle id="high.171" depart="441.00" departSpeed="32.20" arrival="497.00">
        <route edges="start jam2 jam1 jam0 end"/>
    </vehicle>

    <vehicle id="high.172" depart="443.00" departSpeed="36.11" arrival="499.00">
        <route edges="start jam2 jam1 jam0 end"/>
    </vehicle>

    <vehicle id="high.173" depart="445.00" departSpeed="36.11" arrival="501.00">
        <route edges="start jam2 jam1 jam0 end"/>
    </vehicle>

    <vehicle id="high.174" depart="447.00" departSpeed="36.11" arrival="503.00">
        <route edges="start jam2 jam1 jam0 end"/>
    </vehicle>

    <vehicle id="high.175" depart="449.00" departSpeed="36.11" arrival="505.00">
        <route edges="start jam2 jam1 jam0 end"/>
    </vehicle>

    <vehicle id="high.176" depart="451.00" departSpeed="36.11" arrival="507.00">
        <route edges="start jam2 jam1 jam0 end"/>
    </vehicle>

    <vehicle id="high.177" depart="453.00" departSpeed="36.11" arrival="509.00">
        <route edges="start jam2 jam1 jam0 end"/>
    </vehicle>

    <vehicle id="high.178" depart="455.00" departSpeed="36.11" arrival="511.00">
        <route edges="start jam2 jam1 jam0 end"/>
    </vehicle>

    <vehicle id="high.179" depart="457.00" departSpeed="36.11" arrival="513.00">
        <route edges="start jam2 jam1 jam0 end"/>
    </vehicle>

    <vehicle id="high.180" depart="459.00" departSpeed="36.11" arrival="515.00">
        <route edges="start jam2 jam1 jam0 end"/>
    </vehicle>

    <vehicle id="high.181" depart="461.00" departSpeed="36.11" arrival="516.00">
        <route edges="start jam2 jam1 jam0 end"/>
    </vehicle>

    <vehicle id="high.182" depart="463.00" departSpeed="36.11" arrival="518.00">
        <route edges="start jam2 jam1 jam0 end"/>
    </vehicle>

    <vehicle id="high.183" depart="465.00" departSpeed="36.11" arrival="520.00">
        <route edges="start jam2 jam1 jam0 end"/>
    </vehicle>

    <vehicle id="high.184" depart="467.00" departSpeed="36.11" arrival="522.00">
        <route edges="start jam2 jam1 jam0 end"/>
    </vehicle>

    <vehicle id="high.185" depart="469.00" departSpeed="36.11" arrival="524.00">
        <route edges="start jam2 jam1 jam0 end"/>
    </vehicle>

    <vehicle id="high.186" depart="471.00" departSpeed="36.11" arrival="526.00">
        <route edges="start jam2 jam1 jam0 end"/>
    </vehicle>

    <vehicle id="high.187" depart="472.00" departSpeed="32.20" arrival="528.00">
        <route edges="start jam2 jam1 jam0 end"/>
    </vehicle>

    <vehicle id="high.188" depart="474.00" departSpeed="36.11" arrival="530.00">
        <route edges="start jam2 jam1 jam0 end"/>
    </vehicle>

    <vehicle id="high.189" depart="476.00" departSpeed="36.11" arrival="532.00">
        <route edges="start jam2 jam1 jam0 end"/>
    </vehicle>

    <vehicle id="high.190" depart="478.00" departSpeed="36.11" arrival="534.00">
        <route edges="start jam2 jam1 jam0 end"/>
    </vehicle>

    <vehicle id="high.191" depart="480.00" departSpeed="36.11" arrival="536.00">
        <route edges="start jam2 jam1 jam0 end"/>
    </vehicle>

    <vehicle id="high.192" depart="482.00" departSpeed="36.11" arrival="538.00">
        <route edges="start jam2 jam1 jam0 end"/>
    </vehicle>

    <vehicle id="high.193" depart="484.00" departSpeed="36.11" arrival="540.00">
        <route edges="start jam2 jam1 jam0 end"/>
    </vehicle>

    <vehicle id="high.194" depart="486.00" departSpeed="36.11" arrival="542.00">
        <route edges="start jam2 jam1 jam0 end"/>
    </vehicle>
