<?xml version="1.0" encoding="UTF-8"?>

<!-- generated on Wed Jan 14 08:46:34 2015 by SUMO Version dev-SVN-r17587ID
<?xml version="1.0" encoding="UTF-8"?>

<configuration xmlns:xsi="http://www.w3.org/2001/XMLSchema-instance" xsi:noNamespaceSchemaLocation="http://sumo.dlr.de/xsd/sumoConfiguration.xsd">

    <input>
        <net-file value="three_split.net.xml"/>
        <additional-files value="input_routes.rou.xml,input_additional2.add.xml"/>
    </input>

    <output>
        <tripinfo-output value="tripinfos.xml"/>
    </output>

    <time>
        <begin value="0"/>
    </time>

    <report>
        <xml-validation value="never"/>
        <no-duration-log value="true"/>
        <no-step-log value="true"/>
    </report>

    <mesoscopic>
        <mesosim value="true"/>
    </mesoscopic>

</configuration>
-->

<tripinfos xmlns:xsi="http://www.w3.org/2001/XMLSchema-instance" xsi:noNamespaceSchemaLocation="http://sumo.dlr.de/xsd/tripinfo_file.xsd">
    <tripinfo id="0.0" depart="0.00" departLane="" departPos="0.00" departSpeed="27.80" departDelay="0.00" arrival="18.00" arrivalLane="" arrivalPos="500.00" arrivalSpeed="27.80" duration="18.00" routeLength="1000.00" waitSteps="0" timeLoss="0.00" rerouteNo="0" devices="tripinfo_0.0" vType="DEFAULT_VEHTYPE" vaporized="0"/>
    <tripinfo id="0.1" depart="20.00" departLane="" departPos="0.00" departSpeed="27.80" departDelay="0.00" arrival="38.00" arrivalLane="" arrivalPos="500.00" arrivalSpeed="27.80" duration="18.00" routeLength="1000.00" waitSteps="0" timeLoss="0.00" rerouteNo="0" devices="tripinfo_0.1" vType="DEFAULT_VEHTYPE" vaporized="0"/>
    <tripinfo id="0.2" depart="40.00" departLane="" departPos="0.00" departSpeed="27.80" departDelay="0.00" arrival="58.00" arrivalLane="" arrivalPos="500.00" arrivalSpeed="27.80" duration="18.00" routeLength="1000.00" waitSteps="0" timeLoss="0.00" rerouteNo="0" devices="tripinfo_0.2" vType="DEFAULT_VEHTYPE" vaporized="0"/>
    <tripinfo id="0.3" depart="60.00" departLane="" departPos="0.00" departSpeed="27.80" departDelay="0.00" arrival="78.00" arrivalLane="" arrivalPos="500.00" arrivalSpeed="27.80" duration="18.00" routeLength="1000.00" waitSteps="0" timeLoss="0.00" rerouteNo="0" devices="tripinfo_0.3" vType="DEFAULT_VEHTYPE" vaporized="0"/>
    <tripinfo id="0.4" depart="80.00" departLane="" departPos="0.00" departSpeed="27.80" departDelay="0.00" arrival="98.00" arrivalLane="" arrivalPos="500.00" arrivalSpeed="27.80" duration="18.00" routeLength="1000.00" waitSteps="0" timeLoss="0.00" rerouteNo="0" devices="tripinfo_0.4" vType="DEFAULT_VEHTYPE" vaporized="0"/>
    <tripinfo id="0.5" depart="100.00" departLane="" departPos="0.00" departSpeed="27.80" departDelay="0.00" arrival="118.00" arrivalLane="" arrivalPos="500.00" arrivalSpeed="27.80" duration="18.00" routeLength="1000.00" waitSteps="0" timeLoss="0.00" rerouteNo="0" devices="tripinfo_0.5" vType="DEFAULT_VEHTYPE" vaporized="0"/>
    <tripinfo id="0.6" depart="120.00" departLane="" departPos="0.00" departSpeed="27.80" departDelay="0.00" arrival="138.00" arrivalLane="" arrivalPos="500.00" arrivalSpeed="27.80" duration="18.00" routeLength="1000.00" waitSteps="0" timeLoss="0.00" rerouteNo="0" devices="tripinfo_0.6" vType="DEFAULT_VEHTYPE" vaporized="0"/>
    <tripinfo id="0.7" depart="140.00" departLane="" departPos="0.00" departSpeed="27.80" departDelay="0.00" arrival="158.00" arrivalLane="" arrivalPos="500.00" arrivalSpeed="27.80" duration="18.00" routeLength="1000.00" waitSteps="0" timeLoss="0.00" rerouteNo="0" devices="tripinfo_0.7" vType="DEFAULT_VEHTYPE" vaporized="0"/>
    <tripinfo id="0.8" depart="160.00" departLane="" departPos="0.00" departSpeed="27.80" departDelay="0.00" arrival="178.00" arrivalLane="" arrivalPos="500.00" arrivalSpeed="27.80" duration="18.00" routeLength="1000.00" waitSteps="0" timeLoss="0.00" rerouteNo="0" devices="tripinfo_0.8" vType="DEFAULT_VEHTYPE" vaporized="0"/>
    <tripinfo id="0.9" depart="180.00" departLane="" departPos="0.00" departSpeed="27.80" departDelay="0.00" arrival="198.00" arrivalLane="" arrivalPos="500.00" arrivalSpeed="27.80" duration="18.00" routeLength="1000.00" waitSteps="0" timeLoss="0.00" rerouteNo="0" devices="tripinfo_0.9" vType="DEFAULT_VEHTYPE" vaporized="0"/>
    <tripinfo id="0.10" depart="200.00" departLane="" departPos="0.00" departSpeed="27.80" departDelay="0.00" arrival="218.00" arrivalLane="" arrivalPos="500.00" arrivalSpeed="27.80" duration="18.00" routeLength="1000.00" waitSteps="0" timeLoss="0.00" rerouteNo="0" devices="tripinfo_0.10" vType="DEFAULT_VEHTYPE" vaporized="0"/>
</tripinfos>
