<?xml version="1.0"?>

<!-- generated on 11/05/09 13:58:23 by SUMO sumo Version dev-SVN-r7945
<configuration>

    <input>
        <net-file value="three_split.net.xml"/>
        <additional-files value="input_routes.rou.xml,input_additional2.add.xml"/>
    </input>

    <output>
        <tripinfo-output value="tripinfos.xml"/>
    </output>

    <time>
        <begin value="0"/>
    </time>

    <report>
        <no-duration-log value="true"/>
        <no-step-log value="true"/>
    </report>

</configuration>
-->

<tripinfos>
    <tripinfo id="0" depart="0" departLane="beg_0" departPos="0.00" departSpeed="0.00" departDelay="0" arrival="24" arrivalLane="middle_0" arrivalPos="15.34" arrivalSpeed="27.80" duration="24" routeLength="1505.84" waitSteps="0" rerouteNo="0" devices="" vtype="DEFAULT_VEHTYPE" vaporized="0"></tripinfo>
    <tripinfo id="0_0" depart="20" departLane="beg_0" departPos="0.00" departSpeed="0.00" departDelay="0" arrival="44" arrivalLane="middle_0" arrivalPos="15.34" arrivalSpeed="27.80" duration="24" routeLength="1505.84" waitSteps="0" rerouteNo="0" devices="" vtype="DEFAULT_VEHTYPE" vaporized="0"></tripinfo>
    <tripinfo id="0_1" depart="40" departLane="beg_0" departPos="0.00" departSpeed="0.00" departDelay="0" arrival="64" arrivalLane="middle_0" arrivalPos="15.34" arrivalSpeed="27.80" duration="24" routeLength="1505.84" waitSteps="0" rerouteNo="0" devices="" vtype="DEFAULT_VEHTYPE" vaporized="0"></tripinfo>
    <tripinfo id="0_2" depart="60" departLane="beg_0" departPos="0.00" departSpeed="0.00" departDelay="0" arrival="84" arrivalLane="middle_0" arrivalPos="15.34" arrivalSpeed="27.80" duration="24" routeLength="1505.84" waitSteps="0" rerouteNo="0" devices="" vtype="DEFAULT_VEHTYPE" vaporized="0"></tripinfo>
    <tripinfo id="0_3" depart="80" departLane="beg_0" departPos="0.00" departSpeed="0.00" departDelay="0" arrival="104" arrivalLane="middle_0" arrivalPos="15.34" arrivalSpeed="27.80" duration="24" routeLength="1505.84" waitSteps="0" rerouteNo="0" devices="" vtype="DEFAULT_VEHTYPE" vaporized="0"></tripinfo>
    <tripinfo id="0_4" depart="100" departLane="beg_0" departPos="0.00" departSpeed="0.00" departDelay="0" arrival="124" arrivalLane="middle_0" arrivalPos="15.34" arrivalSpeed="27.80" duration="24" routeLength="1505.84" waitSteps="0" rerouteNo="0" devices="" vtype="DEFAULT_VEHTYPE" vaporized="0"></tripinfo>
    <tripinfo id="0_5" depart="120" departLane="beg_0" departPos="0.00" departSpeed="0.00" departDelay="0" arrival="144" arrivalLane="middle_0" arrivalPos="15.34" arrivalSpeed="27.80" duration="24" routeLength="1505.84" waitSteps="0" rerouteNo="0" devices="" vtype="DEFAULT_VEHTYPE" vaporized="0"></tripinfo>
    <tripinfo id="0_6" depart="140" departLane="beg_0" departPos="0.00" departSpeed="0.00" departDelay="0" arrival="164" arrivalLane="middle_0" arrivalPos="15.34" arrivalSpeed="27.80" duration="24" routeLength="1505.84" waitSteps="0" rerouteNo="0" devices="" vtype="DEFAULT_VEHTYPE" vaporized="0"></tripinfo>
    <tripinfo id="0_7" depart="160" departLane="beg_0" departPos="0.00" departSpeed="0.00" departDelay="0" arrival="184" arrivalLane="middle_0" arrivalPos="15.34" arrivalSpeed="27.80" duration="24" routeLength="1505.84" waitSteps="0" rerouteNo="0" devices="" vtype="DEFAULT_VEHTYPE" vaporized="0"></tripinfo>
    <tripinfo id="0_8" depart="180" departLane="beg_0" departPos="0.00" departSpeed="0.00" departDelay="0" arrival="204" arrivalLane="middle_0" arrivalPos="15.34" arrivalSpeed="27.80" duration="24" routeLength="1505.84" waitSteps="0" rerouteNo="0" devices="" vtype="DEFAULT_VEHTYPE" vaporized="0"></tripinfo>
    <tripinfo id="0_9" depart="200" departLane="beg_0" departPos="0.00" departSpeed="0.00" departDelay="0" arrival="224" arrivalLane="middle_0" arrivalPos="15.34" arrivalSpeed="27.80" duration="24" routeLength="1505.84" waitSteps="0" rerouteNo="0" devices="" vtype="DEFAULT_VEHTYPE" vaporized="0"></tripinfo>
</tripinfos>
