<?xml version="1.0"?>

<!-- generated on 08/17/11 12:04:14 by SUMO sumo Version dev-SVN-r11101
<?xml version="1.0" encoding="iso-8859-1"?>

<configuration xmlns:xsi="http://www.w3.org/2001/XMLSchema-instance" xsi:noNamespaceSchemaLocation="http://sumo.sf.net/xsd/sumoConfiguration.xsd">

    <input>
        <net-file value="net.net.xml"/>
        <route-files value="input_routes.rou.xml"/>
    </input>

    <output>
        <vehroute-output value="vehroutes.xml"/>
    </output>

    <report>
        <no-duration-log value="true"/>
        <no-step-log value="true"/>
    </report>

    <mesoscopic>
        <mesosim value="true"/>
        <meso-multi-queue value="true"/>
        <meso-junction-control value="true"/>
    </mesoscopic>

</configuration>
-->

<routes>
    <vehicle id="horizontal.0" type="SUMO_DEFAULT_TYPE" depart="100.00" arrival="269.00">
        <route edges="2fi 2si 1o 1fi 1si 2o 2fi"/>
    </vehicle>

    <vehicle id="horizontal.1" type="SUMO_DEFAULT_TYPE" depart="110.00" arrival="277.00">
        <route edges="2fi 2si 1o 1fi 1si 2o 2fi"/>
    </vehicle>

    <vehicle id="horizontal.2" type="SUMO_DEFAULT_TYPE" depart="120.00" arrival="287.00">
        <route edges="2fi 2si 1o 1fi 1si 2o 2fi"/>
    </vehicle>

    <vehicle id="vertical.0" type="SUMO_DEFAULT_TYPE" depart="100.00" arrival="314.00">
        <route edges="3fi 3si 4o 4fi 4si 3o 3fi"/>
    </vehicle>

    <vehicle id="vertical.1" type="SUMO_DEFAULT_TYPE" depart="110.00" arrival="315.00">
        <route edges="3fi 3si 4o 4fi 4si 3o 3fi"/>
    </vehicle>

    <vehicle id="vertical.2" type="SUMO_DEFAULT_TYPE" depart="120.00" arrival="317.00">
        <route edges="3fi 3si 4o 4fi 4si 3o 3fi"/>
    </vehicle>

    <vehicle id="vertical.3" type="SUMO_DEFAULT_TYPE" depart="130.00" arrival="318.00">
        <route edges="3fi 3si 4o 4fi 4si 3o 3fi"/>
    </vehicle>

    <vehicle id="vertical.4" type="SUMO_DEFAULT_TYPE" depart="140.00" arrival="319.00">
        <route edges="3fi 3si 4o 4fi 4si 3o 3fi"/>
    </vehicle>

    <vehicle id="vertical.5" type="SUMO_DEFAULT_TYPE" depart="150.00" arrival="321.00">
        <route edges="3fi 3si 4o 4fi 4si 3o 3fi"/>
    </vehicle>

    <vehicle id="vertical.6" type="SUMO_DEFAULT_TYPE" depart="160.00" arrival="329.00">
        <route edges="3fi 3si 4o 4fi 4si 3o 3fi"/>
    </vehicle>

    <vehicle id="vertical.7" type="SUMO_DEFAULT_TYPE" depart="170.00" arrival="339.00">
        <route edges="3fi 3si 4o 4fi 4si 3o 3fi"/>
    </vehicle>

    <vehicle id="horizontal.3" type="SUMO_DEFAULT_TYPE" depart="130.00" arrival="359.00">
        <route edges="2fi 2si 1o 1fi 1si 2o 2fi"/>
    </vehicle>

    <vehicle id="horizontal.4" type="SUMO_DEFAULT_TYPE" depart="140.00" arrival="361.00">
        <route edges="2fi 2si 1o 1fi 1si 2o 2fi"/>
    </vehicle>

    <vehicle id="horizontal.5" type="SUMO_DEFAULT_TYPE" depart="150.00" arrival="363.00">
        <route edges="2fi 2si 1o 1fi 1si 2o 2fi"/>
    </vehicle>

    <vehicle id="horizontal.6" type="SUMO_DEFAULT_TYPE" depart="160.00" arrival="365.00">
        <route edges="2fi 2si 1o 1fi 1si 2o 2fi"/>
    </vehicle>

    <vehicle id="horizontal.7" type="SUMO_DEFAULT_TYPE" depart="170.00" arrival="366.00">
        <route edges="2fi 2si 1o 1fi 1si 2o 2fi"/>
    </vehicle>

    <vehicle id="horizontal.8" type="SUMO_DEFAULT_TYPE" depart="180.00" arrival="368.00">
        <route edges="2fi 2si 1o 1fi 1si 2o 2fi"/>
    </vehicle>

    <vehicle id="horizontal.9" type="SUMO_DEFAULT_TYPE" depart="190.00" arrival="369.00">
        <route edges="2fi 2si 1o 1fi 1si 2o 2fi"/>
    </vehicle>

    <vehicle id="horizontal.10" type="SUMO_DEFAULT_TYPE" depart="200.00" arrival="370.00">
        <route edges="2fi 2si 1o 1fi 1si 2o 2fi"/>
    </vehicle>

    <vehicle id="horizontal.11" type="SUMO_DEFAULT_TYPE" depart="210.00" arrival="377.00">
        <route edges="2fi 2si 1o 1fi 1si 2o 2fi"/>
    </vehicle>

    <vehicle id="vertical.8" type="SUMO_DEFAULT_TYPE" depart="180.00" arrival="404.00">
        <route edges="3fi 3si 4o 4fi 4si 3o 3fi"/>
    </vehicle>

    <vehicle id="vertical.9" type="SUMO_DEFAULT_TYPE" depart="190.00" arrival="406.00">
        <route edges="3fi 3si 4o 4fi 4si 3o 3fi"/>
    </vehicle>

    <vehicle id="vertical.10" type="SUMO_DEFAULT_TYPE" depart="200.00" arrival="407.00">
        <route edges="3fi 3si 4o 4fi 4si 3o 3fi"/>
    </vehicle>

    <vehicle id="vertical.11" type="SUMO_DEFAULT_TYPE" depart="210.00" arrival="409.00">
        <route edges="3fi 3si 4o 4fi 4si 3o 3fi"/>
    </vehicle>

    <vehicle id="vertical.12" type="SUMO_DEFAULT_TYPE" depart="220.00" arrival="410.00">
        <route edges="3fi 3si 4o 4fi 4si 3o 3fi"/>
    </vehicle>

    <vehicle id="vertical.13" type="SUMO_DEFAULT_TYPE" depart="230.00" arrival="411.00">
        <route edges="3fi 3si 4o 4fi 4si 3o 3fi"/>
    </vehicle>

    <vehicle id="vertical.14" type="SUMO_DEFAULT_TYPE" depart="240.00" arrival="413.00">
        <route edges="3fi 3si 4o 4fi 4si 3o 3fi"/>
    </vehicle>

    <vehicle id="vertical.15" type="SUMO_DEFAULT_TYPE" depart="250.00" arrival="419.00">
        <route edges="3fi 3si 4o 4fi 4si 3o 3fi"/>
    </vehicle>

    <vehicle id="vertical.16" type="SUMO_DEFAULT_TYPE" depart="260.00" arrival="429.00">
        <route edges="3fi 3si 4o 4fi 4si 3o 3fi"/>
    </vehicle>

    <vehicle id="horizontal.12" type="SUMO_DEFAULT_TYPE" depart="220.00" arrival="449.00">
        <route edges="2fi 2si 1o 1fi 1si 2o 2fi"/>
    </vehicle>

    <vehicle id="horizontal.13" type="SUMO_DEFAULT_TYPE" depart="230.00" arrival="451.00">
        <route edges="2fi 2si 1o 1fi 1si 2o 2fi"/>
    </vehicle>

    <vehicle id="horizontal.14" type="SUMO_DEFAULT_TYPE" depart="240.00" arrival="453.00">
        <route edges="2fi 2si 1o 1fi 1si 2o 2fi"/>
    </vehicle>

    <vehicle id="horizontal.15" type="SUMO_DEFAULT_TYPE" depart="250.00" arrival="455.00">
        <route edges="2fi 2si 1o 1fi 1si 2o 2fi"/>
    </vehicle>

    <vehicle id="horizontal.16" type="SUMO_DEFAULT_TYPE" depart="260.00" arrival="456.00">
        <route edges="2fi 2si 1o 1fi 1si 2o 2fi"/>
    </vehicle>

    <vehicle id="horizontal.17" type="SUMO_DEFAULT_TYPE" depart="270.00" arrival="458.00">
        <route edges="2fi 2si 1o 1fi 1si 2o 2fi"/>
    </vehicle>

    <vehicle id="horizontal.18" type="SUMO_DEFAULT_TYPE" depart="280.00" arrival="459.00">
        <route edges="2fi 2si 1o 1fi 1si 2o 2fi"/>
    </vehicle>

    <vehicle id="horizontal.19" type="SUMO_DEFAULT_TYPE" depart="290.00" arrival="460.00">
        <route edges="2fi 2si 1o 1fi 1si 2o 2fi"/>
    </vehicle>

    <vehicle id="horizontal.20" type="SUMO_DEFAULT_TYPE" depart="300.00" arrival="467.00">
        <route edges="2fi 2si 1o 1fi 1si 2o 2fi"/>
    </vehicle>

    <vehicle id="vertical.17" type="SUMO_DEFAULT_TYPE" depart="270.00" arrival="494.00">
        <route edges="3fi 3si 4o 4fi 4si 3o 3fi"/>
    </vehicle>

    <vehicle id="vertical.18" type="SUMO_DEFAULT_TYPE" depart="280.00" arrival="496.00">
        <route edges="3fi 3si 4o 4fi 4si 3o 3fi"/>
    </vehicle>

    <vehicle id="vertical.19" type="SUMO_DEFAULT_TYPE" depart="290.00" arrival="498.00">
        <route edges="3fi 3si 4o 4fi 4si 3o 3fi"/>
    </vehicle>

    <vehicle id="vertical.20" type="SUMO_DEFAULT_TYPE" depart="300.00" arrival="499.00">
        <route edges="3fi 3si 4o 4fi 4si 3o 3fi"/>
    </vehicle>

    <vehicle id="vertical.21" type="SUMO_DEFAULT_TYPE" depart="310.00" arrival="501.00">
        <route edges="3fi 3si 4o 4fi 4si 3o 3fi"/>
    </vehicle>

    <vehicle id="vertical.22" type="SUMO_DEFAULT_TYPE" depart="320.00" arrival="502.00">
        <route edges="3fi 3si 4o 4fi 4si 3o 3fi"/>
    </vehicle>

    <vehicle id="vertical.23" type="SUMO_DEFAULT_TYPE" depart="330.00" arrival="503.00">
        <route edges="3fi 3si 4o 4fi 4si 3o 3fi"/>
    </vehicle>

    <vehicle id="vertical.24" type="SUMO_DEFAULT_TYPE" depart="340.00" arrival="509.00">
        <route edges="3fi 3si 4o 4fi 4si 3o 3fi"/>
    </vehicle>

    <vehicle id="always_right.0" type="SUMO_DEFAULT_TYPE" depart="100.00" arrival="509.00">
        <route edges="1fi 1si 4o 4fi 4si 2o 2fi 2si 3o 3fi 3si 1o 1fi"/>
    </vehicle>

    <vehicle id="vertical.25" type="SUMO_DEFAULT_TYPE" depart="350.00" arrival="519.00">
        <route edges="3fi 3si 4o 4fi 4si 3o 3fi"/>
    </vehicle>

    <vehicle id="horizontal.21" type="SUMO_DEFAULT_TYPE" depart="310.00" arrival="539.00">
        <route edges="2fi 2si 1o 1fi 1si 2o 2fi"/>
    </vehicle>

    <vehicle id="horizontal.22" type="SUMO_DEFAULT_TYPE" depart="320.00" arrival="541.00">
        <route edges="2fi 2si 1o 1fi 1si 2o 2fi"/>
    </vehicle>

    <vehicle id="horizontal.23" type="SUMO_DEFAULT_TYPE" depart="330.00" arrival="543.00">
        <route edges="2fi 2si 1o 1fi 1si 2o 2fi"/>
    </vehicle>

    <vehicle id="horizontal.24" type="SUMO_DEFAULT_TYPE" depart="340.00" arrival="545.00">
        <route edges="2fi 2si 1o 1fi 1si 2o 2fi"/>
    </vehicle>

    <vehicle id="horizontal.25" type="SUMO_DEFAULT_TYPE" depart="350.00" arrival="546.00">
        <route edges="2fi 2si 1o 1fi 1si 2o 2fi"/>
    </vehicle>

    <vehicle id="horizontal.26" type="SUMO_DEFAULT_TYPE" depart="360.00" arrival="548.00">
        <route edges="2fi 2si 1o 1fi 1si 2o 2fi"/>
    </vehicle>

    <vehicle id="horizontal.27" type="SUMO_DEFAULT_TYPE" depart="370.00" arrival="549.00">
        <route edges="2fi 2si 1o 1fi 1si 2o 2fi"/>
    </vehicle>

    <vehicle id="horizontal.28" type="SUMO_DEFAULT_TYPE" depart="380.00" arrival="550.00">
        <route edges="2fi 2si 1o 1fi 1si 2o 2fi"/>
    </vehicle>

    <vehicle id="horizontal.29" type="SUMO_DEFAULT_TYPE" depart="390.00" arrival="557.00">
        <route edges="2fi 2si 1o 1fi 1si 2o 2fi"/>
    </vehicle>

    <vehicle id="vertical.26" type="SUMO_DEFAULT_TYPE" depart="360.00" arrival="584.00">
        <route edges="3fi 3si 4o 4fi 4si 3o 3fi"/>
    </vehicle>

    <vehicle id="vertical.27" type="SUMO_DEFAULT_TYPE" depart="370.00" arrival="586.00">
        <route edges="3fi 3si 4o 4fi 4si 3o 3fi"/>
    </vehicle>

    <vehicle id="vertical.28" type="SUMO_DEFAULT_TYPE" depart="380.00" arrival="588.00">
        <route edges="3fi 3si 4o 4fi 4si 3o 3fi"/>
    </vehicle>

    <vehicle id="vertical.29" type="SUMO_DEFAULT_TYPE" depart="390.00" arrival="589.00">
        <route edges="3fi 3si 4o 4fi 4si 3o 3fi"/>
    </vehicle>

    <vehicle id="vertical.30" type="SUMO_DEFAULT_TYPE" depart="400.00" arrival="591.00">
        <route edges="3fi 3si 4o 4fi 4si 3o 3fi"/>
    </vehicle>

    <vehicle id="vertical.31" type="SUMO_DEFAULT_TYPE" depart="410.00" arrival="592.00">
        <route edges="3fi 3si 4o 4fi 4si 3o 3fi"/>
    </vehicle>

    <vehicle id="vertical.32" type="SUMO_DEFAULT_TYPE" depart="420.00" arrival="593.00">
        <route edges="3fi 3si 4o 4fi 4si 3o 3fi"/>
    </vehicle>

    <vehicle id="vertical.33" type="SUMO_DEFAULT_TYPE" depart="430.00" arrival="599.00">
        <route edges="3fi 3si 4o 4fi 4si 3o 3fi"/>
    </vehicle>

    <vehicle id="always_right.1" type="SUMO_DEFAULT_TYPE" depart="110.00" arrival="599.00">
        <route edges="1fi 1si 4o 4fi 4si 2o 2fi 2si 3o 3fi 3si 1o 1fi"/>
    </vehicle>

    <vehicle id="always_right.2" type="SUMO_DEFAULT_TYPE" depart="120.00" arrival="600.00">
        <route edges="1fi 1si 4o 4fi 4si 2o 2fi 2si 3o 3fi 3si 1o 1fi"/>
    </vehicle>

    <vehicle id="always_right.3" type="SUMO_DEFAULT_TYPE" depart="130.00" arrival="602.00">
        <route edges="1fi 1si 4o 4fi 4si 2o 2fi 2si 3o 3fi 3si 1o 1fi"/>
    </vehicle>

    <vehicle id="vertical.34" type="SUMO_DEFAULT_TYPE" depart="440.00" arrival="609.00">
        <route edges="3fi 3si 4o 4fi 4si 3o 3fi"/>
    </vehicle>

    <vehicle id="always_left.0" type="SUMO_DEFAULT_TYPE" depart="100.00" arrival="629.00">
        <route edges="3fi 3si 2o 2fi 2si 4o 4fi 4si 1o 1fi 1si 3o 3fi"/>
    </vehicle>

    <vehicle id="horizontal.30" type="SUMO_DEFAULT_TYPE" depart="400.00" arrival="629.00">
        <route edges="2fi 2si 1o 1fi 1si 2o 2fi"/>
    </vehicle>

    <vehicle id="always_left.1" type="SUMO_DEFAULT_TYPE" depart="110.00" arrival="631.00">
        <route edges="3fi 3si 2o 2fi 2si 4o 4fi 4si 1o 1fi 1si 3o 3fi"/>
    </vehicle>

    <vehicle id="horizontal.31" type="SUMO_DEFAULT_TYPE" depart="410.00" arrival="631.00">
        <route edges="2fi 2si 1o 1fi 1si 2o 2fi"/>
    </vehicle>

    <vehicle id="always_left.2" type="SUMO_DEFAULT_TYPE" depart="120.00" arrival="633.00">
        <route edges="3fi 3si 2o 2fi 2si 4o 4fi 4si 1o 1fi 1si 3o 3fi"/>
    </vehicle>

    <vehicle id="horizontal.32" type="SUMO_DEFAULT_TYPE" depart="420.00" arrival="633.00">
        <route edges="2fi 2si 1o 1fi 1si 2o 2fi"/>
    </vehicle>

    <vehicle id="always_left.3" type="SUMO_DEFAULT_TYPE" depart="130.00" arrival="635.00">
        <route edges="3fi 3si 2o 2fi 2si 4o 4fi 4si 1o 1fi 1si 3o 3fi"/>
    </vehicle>

    <vehicle id="horizontal.33" type="SUMO_DEFAULT_TYPE" depart="430.00" arrival="635.00">
        <route edges="2fi 2si 1o 1fi 1si 2o 2fi"/>
    </vehicle>

    <vehicle id="always_left.4" type="SUMO_DEFAULT_TYPE" depart="140.00" arrival="636.00">
        <route edges="3fi 3si 2o 2fi 2si 4o 4fi 4si 1o 1fi 1si 3o 3fi"/>
    </vehicle>

    <vehicle id="horizontal.34" type="SUMO_DEFAULT_TYPE" depart="440.00" arrival="636.00">
        <route edges="2fi 2si 1o 1fi 1si 2o 2fi"/>
    </vehicle>

    <vehicle id="always_left.5" type="SUMO_DEFAULT_TYPE" depart="150.00" arrival="637.00">
        <route edges="3fi 3si 2o 2fi 2si 4o 4fi 4si 1o 1fi 1si 3o 3fi"/>
    </vehicle>

    <vehicle id="horizontal.35" type="SUMO_DEFAULT_TYPE" depart="450.00" arrival="638.00">
        <route edges="2fi 2si 1o 1fi 1si 2o 2fi"/>
    </vehicle>

    <vehicle id="always_left.6" type="SUMO_DEFAULT_TYPE" depart="160.00" arrival="639.00">
        <route edges="3fi 3si 2o 2fi 2si 4o 4fi 4si 1o 1fi 1si 3o 3fi"/>
    </vehicle>

    <vehicle id="horizontal.36" type="SUMO_DEFAULT_TYPE" depart="460.00" arrival="639.00">
        <route edges="2fi 2si 1o 1fi 1si 2o 2fi"/>
    </vehicle>

    <vehicle id="always_left.7" type="SUMO_DEFAULT_TYPE" depart="170.00" arrival="640.00">
        <route edges="3fi 3si 2o 2fi 2si 4o 4fi 4si 1o 1fi 1si 3o 3fi"/>
    </vehicle>

    <vehicle id="horizontal.37" type="SUMO_DEFAULT_TYPE" depart="470.00" arrival="640.00">
        <route edges="2fi 2si 1o 1fi 1si 2o 2fi"/>
    </vehicle>

    <vehicle id="horizontal.38" type="SUMO_DEFAULT_TYPE" depart="480.00" arrival="647.00">
        <route edges="2fi 2si 1o 1fi 1si 2o 2fi"/>
    </vehicle>

    <vehicle id="vertical.35" type="SUMO_DEFAULT_TYPE" depart="450.00" arrival="674.00">
        <route edges="3fi 3si 4o 4fi 4si 3o 3fi"/>
    </vehicle>

    <vehicle id="vertical.36" type="SUMO_DEFAULT_TYPE" depart="460.00" arrival="676.00">
        <route edges="3fi 3si 4o 4fi 4si 3o 3fi"/>
    </vehicle>

    <vehicle id="vertical.37" type="SUMO_DEFAULT_TYPE" depart="470.00" arrival="678.00">
        <route edges="3fi 3si 4o 4fi 4si 3o 3fi"/>
    </vehicle>

    <vehicle id="vertical.38" type="SUMO_DEFAULT_TYPE" depart="480.00" arrival="679.00">
        <route edges="3fi 3si 4o 4fi 4si 3o 3fi"/>
    </vehicle>

    <vehicle id="vertical.39" type="SUMO_DEFAULT_TYPE" depart="490.00" arrival="681.00">
        <route edges="3fi 3si 4o 4fi 4si 3o 3fi"/>
    </vehicle>

    <vehicle id="vertical.40" type="SUMO_DEFAULT_TYPE" depart="500.00" arrival="682.00">
        <route edges="3fi 3si 4o 4fi 4si 3o 3fi"/>
    </vehicle>

    <vehicle id="vertical.41" type="SUMO_DEFAULT_TYPE" depart="510.00" arrival="683.00">
        <route edges="3fi 3si 4o 4fi 4si 3o 3fi"/>
    </vehicle>

    <vehicle id="vertical.42" type="SUMO_DEFAULT_TYPE" depart="520.00" arrival="689.00">
        <route edges="3fi 3si 4o 4fi 4si 3o 3fi"/>
    </vehicle>

    <vehicle id="always_right.4" type="SUMO_DEFAULT_TYPE" depart="140.00" arrival="689.00">
        <route edges="1fi 1si 4o 4fi 4si 2o 2fi 2si 3o 3fi 3si 1o 1fi"/>
    </vehicle>

    <vehicle id="always_right.5" type="SUMO_DEFAULT_TYPE" depart="150.00" arrival="691.00">
        <route edges="1fi 1si 4o 4fi 4si 2o 2fi 2si 3o 3fi 3si 1o 1fi"/>
    </vehicle>

    <vehicle id="always_right.6" type="SUMO_DEFAULT_TYPE" depart="160.00" arrival="693.00">
        <route edges="1fi 1si 4o 4fi 4si 2o 2fi 2si 3o 3fi 3si 1o 1fi"/>
    </vehicle>

    <vehicle id="always_right.7" type="SUMO_DEFAULT_TYPE" depart="170.00" arrival="695.00">
        <route edges="1fi 1si 4o 4fi 4si 2o 2fi 2si 3o 3fi 3si 1o 1fi"/>
    </vehicle>

    <vehicle id="always_right.8" type="SUMO_DEFAULT_TYPE" depart="180.00" arrival="696.00">
        <route edges="1fi 1si 4o 4fi 4si 2o 2fi 2si 3o 3fi 3si 1o 1fi"/>
    </vehicle>

    <vehicle id="always_right.9" type="SUMO_DEFAULT_TYPE" depart="190.00" arrival="698.00">
        <route edges="1fi 1si 4o 4fi 4si 2o 2fi 2si 3o 3fi 3si 1o 1fi"/>
    </vehicle>

    <vehicle id="vertical.43" type="SUMO_DEFAULT_TYPE" depart="530.00" arrival="699.00">
        <route edges="3fi 3si 4o 4fi 4si 3o 3fi"/>
    </vehicle>

    <vehicle id="always_right.10" type="SUMO_DEFAULT_TYPE" depart="200.00" arrival="699.00">
        <route edges="1fi 1si 4o 4fi 4si 2o 2fi 2si 3o 3fi 3si 1o 1fi"/>
    </vehicle>

    <vehicle id="always_right.11" type="SUMO_DEFAULT_TYPE" depart="210.00" arrival="700.00">
        <route edges="1fi 1si 4o 4fi 4si 2o 2fi 2si 3o 3fi 3si 1o 1fi"/>
    </vehicle>

    <vehicle id="always_right.12" type="SUMO_DEFAULT_TYPE" depart="220.00" arrival="702.00">
        <route edges="1fi 1si 4o 4fi 4si 2o 2fi 2si 3o 3fi 3si 1o 1fi"/>
    </vehicle>

    <vehicle id="always_left.8" type="SUMO_DEFAULT_TYPE" depart="180.00" arrival="719.00">
        <route edges="3fi 3si 2o 2fi 2si 4o 4fi 4si 1o 1fi 1si 3o 3fi"/>
    </vehicle>

    <vehicle id="horizontal.39" type="SUMO_DEFAULT_TYPE" depart="490.00" arrival="719.00">
        <route edges="2fi 2si 1o 1fi 1si 2o 2fi"/>
    </vehicle>

    <vehicle id="always_left.9" type="SUMO_DEFAULT_TYPE" depart="190.00" arrival="721.00">
        <route edges="3fi 3si 2o 2fi 2si 4o 4fi 4si 1o 1fi 1si 3o 3fi"/>
    </vehicle>

    <vehicle id="horizontal.40" type="SUMO_DEFAULT_TYPE" depart="500.00" arrival="721.00">
        <route edges="2fi 2si 1o 1fi 1si 2o 2fi"/>
    </vehicle>

    <vehicle id="always_left.10" type="SUMO_DEFAULT_TYPE" depart="200.00" arrival="723.00">
        <route edges="3fi 3si 2o 2fi 2si 4o 4fi 4si 1o 1fi 1si 3o 3fi"/>
    </vehicle>

    <vehicle id="horizontal.41" type="SUMO_DEFAULT_TYPE" depart="510.00" arrival="723.00">
        <route edges="2fi 2si 1o 1fi 1si 2o 2fi"/>
    </vehicle>

    <vehicle id="horizontal.42" type="SUMO_DEFAULT_TYPE" depart="520.00" arrival="725.00">
        <route edges="2fi 2si 1o 1fi 1si 2o 2fi"/>
    </vehicle>

    <vehicle id="always_left.11" type="SUMO_DEFAULT_TYPE" depart="210.00" arrival="725.00">
        <route edges="3fi 3si 2o 2fi 2si 4o 4fi 4si 1o 1fi 1si 3o 3fi"/>
    </vehicle>

    <vehicle id="horizontal.43" type="SUMO_DEFAULT_TYPE" depart="530.00" arrival="726.00">
        <route edges="2fi 2si 1o 1fi 1si 2o 2fi"/>
    </vehicle>

    <vehicle id="always_left.12" type="SUMO_DEFAULT_TYPE" depart="220.00" arrival="727.00">
        <route edges="3fi 3si 2o 2fi 2si 4o 4fi 4si 1o 1fi 1si 3o 3fi"/>
    </vehicle>

    <vehicle id="horizontal.44" type="SUMO_DEFAULT_TYPE" depart="540.00" arrival="728.00">
        <route edges="2fi 2si 1o 1fi 1si 2o 2fi"/>
    </vehicle>

    <vehicle id="always_left.13" type="SUMO_DEFAULT_TYPE" depart="230.00" arrival="728.00">
        <route edges="3fi 3si 2o 2fi 2si 4o 4fi 4si 1o 1fi 1si 3o 3fi"/>
    </vehicle>

    <vehicle id="horizontal.45" type="SUMO_DEFAULT_TYPE" depart="550.00" arrival="729.00">
        <route edges="2fi 2si 1o 1fi 1si 2o 2fi"/>
    </vehicle>

    <vehicle id="always_left.14" type="SUMO_DEFAULT_TYPE" depart="240.00" arrival="729.00">
        <route edges="3fi 3si 2o 2fi 2si 4o 4fi 4si 1o 1fi 1si 3o 3fi"/>
    </vehicle>

    <vehicle id="horizontal.46" type="SUMO_DEFAULT_TYPE" depart="560.00" arrival="730.00">
        <route edges="2fi 2si 1o 1fi 1si 2o 2fi"/>
    </vehicle>

    <vehicle id="always_left.15" type="SUMO_DEFAULT_TYPE" depart="250.00" arrival="731.00">
        <route edges="3fi 3si 2o 2fi 2si 4o 4fi 4si 1o 1fi 1si 3o 3fi"/>
    </vehicle>

    <vehicle id="always_left.16" type="SUMO_DEFAULT_TYPE" depart="260.00" arrival="732.00">
        <route edges="3fi 3si 2o 2fi 2si 4o 4fi 4si 1o 1fi 1si 3o 3fi"/>
    </vehicle>

    <vehicle id="horizontal.47" type="SUMO_DEFAULT_TYPE" depart="570.00" arrival="737.00">
        <route edges="2fi 2si 1o 1fi 1si 2o 2fi"/>
    </vehicle>

    <vehicle id="vertical.44" type="SUMO_DEFAULT_TYPE" depart="540.00" arrival="764.00">
        <route edges="3fi 3si 4o 4fi 4si 3o 3fi"/>
    </vehicle>

    <vehicle id="vertical.45" type="SUMO_DEFAULT_TYPE" depart="550.00" arrival="766.00">
        <route edges="3fi 3si 4o 4fi 4si 3o 3fi"/>
    </vehicle>

    <vehicle id="vertical.46" type="SUMO_DEFAULT_TYPE" depart="560.00" arrival="768.00">
        <route edges="3fi 3si 4o 4fi 4si 3o 3fi"/>
    </vehicle>

    <vehicle id="vertical.47" type="SUMO_DEFAULT_TYPE" depart="570.00" arrival="769.00">
        <route edges="3fi 3si 4o 4fi 4si 3o 3fi"/>
    </vehicle>

    <vehicle id="vertical.48" type="SUMO_DEFAULT_TYPE" depart="580.00" arrival="771.00">
        <route edges="3fi 3si 4o 4fi 4si 3o 3fi"/>
    </vehicle>

    <vehicle id="vertical.49" type="SUMO_DEFAULT_TYPE" depart="590.00" arrival="772.00">
        <route edges="3fi 3si 4o 4fi 4si 3o 3fi"/>
    </vehicle>

    <vehicle id="vertical.50" type="SUMO_DEFAULT_TYPE" depart="600.00" arrival="773.00">
        <route edges="3fi 3si 4o 4fi 4si 3o 3fi"/>
    </vehicle>

    <vehicle id="vertical.51" type="SUMO_DEFAULT_TYPE" depart="610.00" arrival="779.00">
        <route edges="3fi 3si 4o 4fi 4si 3o 3fi"/>
    </vehicle>

    <vehicle id="always_right.13" type="SUMO_DEFAULT_TYPE" depart="230.00" arrival="779.00">
        <route edges="1fi 1si 4o 4fi 4si 2o 2fi 2si 3o 3fi 3si 1o 1fi"/>
    </vehicle>

    <vehicle id="always_right.14" type="SUMO_DEFAULT_TYPE" depart="240.00" arrival="781.00">
        <route edges="1fi 1si 4o 4fi 4si 2o 2fi 2si 3o 3fi 3si 1o 1fi"/>
    </vehicle>

    <vehicle id="always_right.15" type="SUMO_DEFAULT_TYPE" depart="250.00" arrival="783.00">
        <route edges="1fi 1si 4o 4fi 4si 2o 2fi 2si 3o 3fi 3si 1o 1fi"/>
    </vehicle>

    <vehicle id="always_right.16" type="SUMO_DEFAULT_TYPE" depart="260.00" arrival="785.00">
        <route edges="1fi 1si 4o 4fi 4si 2o 2fi 2si 3o 3fi 3si 1o 1fi"/>
    </vehicle>

    <vehicle id="always_right.17" type="SUMO_DEFAULT_TYPE" depart="270.00" arrival="786.00">
        <route edges="1fi 1si 4o 4fi 4si 2o 2fi 2si 3o 3fi 3si 1o 1fi"/>
    </vehicle>

    <vehicle id="always_right.18" type="SUMO_DEFAULT_TYPE" depart="280.00" arrival="788.00">
        <route edges="1fi 1si 4o 4fi 4si 2o 2fi 2si 3o 3fi 3si 1o 1fi"/>
    </vehicle>

    <vehicle id="vertical.52" type="SUMO_DEFAULT_TYPE" depart="620.00" arrival="789.00">
        <route edges="3fi 3si 4o 4fi 4si 3o 3fi"/>
    </vehicle>

    <vehicle id="always_right.19" type="SUMO_DEFAULT_TYPE" depart="290.00" arrival="789.00">
        <route edges="1fi 1si 4o 4fi 4si 2o 2fi 2si 3o 3fi 3si 1o 1fi"/>
    </vehicle>

    <vehicle id="always_right.20" type="SUMO_DEFAULT_TYPE" depart="300.00" arrival="790.00">
        <route edges="1fi 1si 4o 4fi 4si 2o 2fi 2si 3o 3fi 3si 1o 1fi"/>
    </vehicle>

    <vehicle id="always_right.21" type="SUMO_DEFAULT_TYPE" depart="310.00" arrival="792.00">
        <route edges="1fi 1si 4o 4fi 4si 2o 2fi 2si 3o 3fi 3si 1o 1fi"/>
    </vehicle>

    <vehicle id="always_left.17" type="SUMO_DEFAULT_TYPE" depart="270.00" arrival="809.00">
        <route edges="3fi 3si 2o 2fi 2si 4o 4fi 4si 1o 1fi 1si 3o 3fi"/>
    </vehicle>

    <vehicle id="horizontal.48" type="SUMO_DEFAULT_TYPE" depart="580.00" arrival="809.00">
        <route edges="2fi 2si 1o 1fi 1si 2o 2fi"/>
    </vehicle>

    <vehicle id="always_left.18" type="SUMO_DEFAULT_TYPE" depart="280.00" arrival="811.00">
        <route edges="3fi 3si 2o 2fi 2si 4o 4fi 4si 1o 1fi 1si 3o 3fi"/>
    </vehicle>

    <vehicle id="horizontal.49" type="SUMO_DEFAULT_TYPE" depart="590.00" arrival="811.00">
        <route edges="2fi 2si 1o 1fi 1si 2o 2fi"/>
    </vehicle>

    <vehicle id="always_left.19" type="SUMO_DEFAULT_TYPE" depart="290.00" arrival="813.00">
        <route edges="3fi 3si 2o 2fi 2si 4o 4fi 4si 1o 1fi 1si 3o 3fi"/>
    </vehicle>

    <vehicle id="horizontal.50" type="SUMO_DEFAULT_TYPE" depart="600.00" arrival="813.00">
        <route edges="2fi 2si 1o 1fi 1si 2o 2fi"/>
    </vehicle>

    <vehicle id="horizontal.51" type="SUMO_DEFAULT_TYPE" depart="610.00" arrival="815.00">
        <route edges="2fi 2si 1o 1fi 1si 2o 2fi"/>
    </vehicle>

    <vehicle id="always_left.20" type="SUMO_DEFAULT_TYPE" depart="300.00" arrival="815.00">
        <route edges="3fi 3si 2o 2fi 2si 4o 4fi 4si 1o 1fi 1si 3o 3fi"/>
    </vehicle>

    <vehicle id="horizontal.52" type="SUMO_DEFAULT_TYPE" depart="620.00" arrival="816.00">
        <route edges="2fi 2si 1o 1fi 1si 2o 2fi"/>
    </vehicle>

    <vehicle id="always_left.21" type="SUMO_DEFAULT_TYPE" depart="310.00" arrival="817.00">
        <route edges="3fi 3si 2o 2fi 2si 4o 4fi 4si 1o 1fi 1si 3o 3fi"/>
    </vehicle>

    <vehicle id="horizontal.53" type="SUMO_DEFAULT_TYPE" depart="630.00" arrival="818.00">
        <route edges="2fi 2si 1o 1fi 1si 2o 2fi"/>
    </vehicle>

    <vehicle id="always_left.22" type="SUMO_DEFAULT_TYPE" depart="320.00" arrival="818.00">
        <route edges="3fi 3si 2o 2fi 2si 4o 4fi 4si 1o 1fi 1si 3o 3fi"/>
    </vehicle>

    <vehicle id="horizontal.54" type="SUMO_DEFAULT_TYPE" depart="640.00" arrival="819.00">
        <route edges="2fi 2si 1o 1fi 1si 2o 2fi"/>
    </vehicle>

    <vehicle id="always_left.23" type="SUMO_DEFAULT_TYPE" depart="330.00" arrival="819.00">
        <route edges="3fi 3si 2o 2fi 2si 4o 4fi 4si 1o 1fi 1si 3o 3fi"/>
    </vehicle>

    <vehicle id="horizontal.55" type="SUMO_DEFAULT_TYPE" depart="650.00" arrival="820.00">
        <route edges="2fi 2si 1o 1fi 1si 2o 2fi"/>
    </vehicle>

    <vehicle id="always_left.24" type="SUMO_DEFAULT_TYPE" depart="340.00" arrival="821.00">
        <route edges="3fi 3si 2o 2fi 2si 4o 4fi 4si 1o 1fi 1si 3o 3fi"/>
    </vehicle>

    <vehicle id="always_left.25" type="SUMO_DEFAULT_TYPE" depart="350.00" arrival="822.00">
        <route edges="3fi 3si 2o 2fi 2si 4o 4fi 4si 1o 1fi 1si 3o 3fi"/>
    </vehicle>

    <vehicle id="horizontal.56" type="SUMO_DEFAULT_TYPE" depart="660.00" arrival="827.00">
        <route edges="2fi 2si 1o 1fi 1si 2o 2fi"/>
    </vehicle>

    <vehicle id="vertical.53" type="SUMO_DEFAULT_TYPE" depart="630.00" arrival="854.00">
        <route edges="3fi 3si 4o 4fi 4si 3o 3fi"/>
    </vehicle>

    <vehicle id="vertical.54" type="SUMO_DEFAULT_TYPE" depart="640.00" arrival="856.00">
        <route edges="3fi 3si 4o 4fi 4si 3o 3fi"/>
    </vehicle>

    <vehicle id="vertical.55" type="SUMO_DEFAULT_TYPE" depart="650.00" arrival="858.00">
        <route edges="3fi 3si 4o 4fi 4si 3o 3fi"/>
    </vehicle>

    <vehicle id="vertical.56" type="SUMO_DEFAULT_TYPE" depart="660.00" arrival="859.00">
        <route edges="3fi 3si 4o 4fi 4si 3o 3fi"/>
    </vehicle>

    <vehicle id="vertical.57" type="SUMO_DEFAULT_TYPE" depart="670.00" arrival="861.00">
        <route edges="3fi 3si 4o 4fi 4si 3o 3fi"/>
    </vehicle>

    <vehicle id="vertical.58" type="SUMO_DEFAULT_TYPE" depart="680.00" arrival="862.00">
        <route edges="3fi 3si 4o 4fi 4si 3o 3fi"/>
    </vehicle>

    <vehicle id="vertical.59" type="SUMO_DEFAULT_TYPE" depart="690.00" arrival="863.00">
        <route edges="3fi 3si 4o 4fi 4si 3o 3fi"/>
    </vehicle>

    <vehicle id="vertical.60" type="SUMO_DEFAULT_TYPE" depart="700.00" arrival="869.00">
        <route edges="3fi 3si 4o 4fi 4si 3o 3fi"/>
    </vehicle>

    <vehicle id="always_right.22" type="SUMO_DEFAULT_TYPE" depart="320.00" arrival="869.00">
        <route edges="1fi 1si 4o 4fi 4si 2o 2fi 2si 3o 3fi 3si 1o 1fi"/>
    </vehicle>

    <vehicle id="always_right.23" type="SUMO_DEFAULT_TYPE" depart="330.00" arrival="871.00">
        <route edges="1fi 1si 4o 4fi 4si 2o 2fi 2si 3o 3fi 3si 1o 1fi"/>
    </vehicle>

    <vehicle id="always_right.24" type="SUMO_DEFAULT_TYPE" depart="340.00" arrival="873.00">
        <route edges="1fi 1si 4o 4fi 4si 2o 2fi 2si 3o 3fi 3si 1o 1fi"/>
    </vehicle>

    <vehicle id="always_right.25" type="SUMO_DEFAULT_TYPE" depart="350.00" arrival="875.00">
        <route edges="1fi 1si 4o 4fi 4si 2o 2fi 2si 3o 3fi 3si 1o 1fi"/>
    </vehicle>

    <vehicle id="always_right.26" type="SUMO_DEFAULT_TYPE" depart="360.00" arrival="876.00">
        <route edges="1fi 1si 4o 4fi 4si 2o 2fi 2si 3o 3fi 3si 1o 1fi"/>
    </vehicle>

    <vehicle id="always_right.27" type="SUMO_DEFAULT_TYPE" depart="370.00" arrival="878.00">
        <route edges="1fi 1si 4o 4fi 4si 2o 2fi 2si 3o 3fi 3si 1o 1fi"/>
    </vehicle>

    <vehicle id="vertical.61" type="SUMO_DEFAULT_TYPE" depart="710.00" arrival="879.00">
        <route edges="3fi 3si 4o 4fi 4si 3o 3fi"/>
    </vehicle>

    <vehicle id="always_right.28" type="SUMO_DEFAULT_TYPE" depart="380.00" arrival="879.00">
        <route edges="1fi 1si 4o 4fi 4si 2o 2fi 2si 3o 3fi 3si 1o 1fi"/>
    </vehicle>

    <vehicle id="always_right.29" type="SUMO_DEFAULT_TYPE" depart="390.00" arrival="880.00">
        <route edges="1fi 1si 4o 4fi 4si 2o 2fi 2si 3o 3fi 3si 1o 1fi"/>
    </vehicle>

    <vehicle id="always_right.30" type="SUMO_DEFAULT_TYPE" depart="400.00" arrival="882.00">
        <route edges="1fi 1si 4o 4fi 4si 2o 2fi 2si 3o 3fi 3si 1o 1fi"/>
    </vehicle>

    <vehicle id="always_left.26" type="SUMO_DEFAULT_TYPE" depart="360.00" arrival="899.00">
        <route edges="3fi 3si 2o 2fi 2si 4o 4fi 4si 1o 1fi 1si 3o 3fi"/>
    </vehicle>
