<?xml version="1.0" encoding="UTF-8"?>

<!-- generated on 2024-04-03 12:35:54 by Eclipse SUMO sumo Version v1_19_0+1658-694df6cf495
This data file and the accompanying materials
are made available under the terms of the Eclipse Public License v2.0
which accompanies this distribution, and is available at
http://www.eclipse.org/legal/epl-v20.html
This file may also be made available under the following Secondary
Licenses when the conditions for such availability set forth in the Eclipse
Public License 2.0 are satisfied: GNU General Public License, version 2
or later which is available at
https://www.gnu.org/licenses/old-licenses/gpl-2.0-standalone.html
SPDX-License-Identifier: EPL-2.0 OR GPL-2.0-or-later
<configuration xmlns:xsi="http://www.w3.org/2001/XMLSchema-instance" xsi:noNamespaceSchemaLocation="http://sumo.dlr.de/xsd/sumoConfiguration.xsd">

    <input>
        <net-file value="net3.net.xml"/>
        <route-files value="input_routes.rou.xml"/>
    </input>

    <output>
        <write-license value="true"/>
        <vehroute-output value="vehroutes.xml"/>
        <vehroute-output.cost value="true"/>
    </output>

    <processing>
        <default.speeddev value="0"/>
    </processing>

    <routing>
        <weights.tls-penalty value="1.0"/>
        <device.rerouting.adaptation-steps value="18"/>
        <device.rerouting.adaptation-interval value="10"/>
    </routing>

    <report>
        <xml-validation value="never"/>
        <no-step-log value="true"/>
    </report>

</configuration>
-->

<routes xmlns:xsi="http://www.w3.org/2001/XMLSchema-instance" xsi:noNamespaceSchemaLocation="http://sumo.dlr.de/xsd/routes_file.xsd">
    <vehicle id="v0" depart="0.00" arrival="56.00">
        <route cost="32.39" savings="0.00" edges="CS SC CN"/>
    </vehicle>

    <person id="pBwd" depart="0.00" arrival="97.00">
        <walk edges="CN SC" cost="80.82"/>
    </person>

    <person id="pFwd" depart="0.00" arrival="185.00">
        <walk edges="SC CN" cost="148.05"/>
    </person>

    <person id="pDiag" depart="0.00" arrival="185.00">
        <walk edges="SC CW" cost="166.91"/>
    </person>

</routes>
