<?xml version="1.0" encoding="UTF-8"?>

<!-- generated on 2022-04-19 20:18:19 by Eclipse SUMO sumo Version v1_12_0+2155-e20bd25
This data file and the accompanying materials
are made available under the terms of the Eclipse Public License v2.0
which accompanies this distribution, and is available at
http://www.eclipse.org/legal/epl-v20.html
This file may also be made available under the following Secondary
Licenses when the conditions for such availability set forth in the Eclipse
Public License 2.0 are satisfied: GNU General Public License, version 2
or later which is available at
https://www.gnu.org/licenses/old-licenses/gpl-2.0-standalone.html
SPDX-License-Identifier: EPL-2.0 OR GPL-2.0-or-later
<configuration xmlns:xsi="http://www.w3.org/2001/XMLSchema-instance" xsi:noNamespaceSchemaLocation="http://sumo.dlr.de/xsd/sumoConfiguration.xsd">

    <input>
        <net-file value="net.net.xml"/>
        <route-files value="input_routes.rou.xml"/>
        <additional-files value="input_additional.add.xml"/>
    </input>

    <output>
        <write-license value="true"/>
    </output>

    <processing>
        <default.speeddev value="0"/>
    </processing>

    <report>
        <xml-validation value="never"/>
        <xml-validation.routes value="never"/>
        <duration-log.disable value="true"/>
        <no-step-log value="true"/>
    </report>

</configuration>
-->

<meandata xmlns:xsi="http://www.w3.org/2001/XMLSchema-instance" xsi:noNamespaceSchemaLocation="http://sumo.dlr.de/xsd/meandata_file.xsd">
    <interval begin="0.00" end="15.00" id="dump_15">
        <edge id="E0" sampledSeconds="28.00" traveltime="8.40" overlapTraveltime="15.47" density="18.67" laneDensity="9.33" occupancy="4.63" waitingTime="0.00" timeLoss="2.32" speed="6.79" speedRelative="0.49" departed="2" arrived="0" entered="0" left="2" laneChangedFrom="0" laneChangedTo="0"/>
        <edge id="E1" sampledSeconds="12.05" traveltime="6.02" overlapTraveltime="307.27" density="266.67" laneDensity="133.33" occupancy="40.08" waitingTime="0.00" timeLoss="0.04" speed="0.02" speedRelative="0.00" departed="0" arrived="0" entered="2" left="0" laneChangedFrom="0" laneChangedTo="0"/>
    </interval>
    <interval begin="15.00" end="30.00" id="dump_15">
        <edge id="E0" sampledSeconds="30.00" overlapTraveltime="100000.00" density="20.00" laneDensity="10.00" occupancy="4.90" waitingTime="0.00" timeLoss="0.00" speed="0.00" speedRelative="0.00" departed="0" arrived="0" entered="0" left="0" laneChangedFrom="0" laneChangedTo="0"/>
        <edge id="E1" sampledSeconds="30.00" overlapTraveltime="100000.00" density="266.67" laneDensity="133.33" occupancy="100.00" waitingTime="0.00" timeLoss="0.00" speed="0.00" speedRelative="0.00" departed="0" arrived="0" entered="0" left="0" laneChangedFrom="0" laneChangedTo="0"/>
    </interval>
    <interval begin="30.00" end="45.00" id="dump_15">
        <edge id="E0" sampledSeconds="30.00" overlapTraveltime="100000.00" density="20.00" laneDensity="10.00" occupancy="4.90" waitingTime="0.00" timeLoss="0.00" speed="0.00" speedRelative="0.00" departed="0" arrived="0" entered="0" left="0" laneChangedFrom="0" laneChangedTo="0"/>
        <edge id="E1" sampledSeconds="30.00" overlapTraveltime="100000.00" density="266.67" laneDensity="133.33" occupancy="100.00" waitingTime="0.00" timeLoss="0.00" speed="0.00" speedRelative="0.00" departed="0" arrived="0" entered="0" left="0" laneChangedFrom="0" laneChangedTo="0"/>
    </interval>
    <interval begin="45.00" end="60.00" id="dump_15">
        <edge id="E0" sampledSeconds="30.00" overlapTraveltime="100000.00" density="20.00" laneDensity="10.00" occupancy="4.90" waitingTime="0.00" timeLoss="0.00" speed="0.00" speedRelative="0.00" departed="0" arrived="0" entered="0" left="0" laneChangedFrom="0" laneChangedTo="0"/>
        <edge id="E1" sampledSeconds="30.00" overlapTraveltime="100000.00" density="266.67" laneDensity="133.33" occupancy="100.00" waitingTime="0.00" timeLoss="0.00" speed="0.00" speedRelative="0.00" departed="0" arrived="0" entered="0" left="0" laneChangedFrom="0" laneChangedTo="0"/>
    </interval>
    <interval begin="60.00" end="75.00" id="dump_15">
        <edge id="E0" sampledSeconds="22.88" overlapTraveltime="245.19" density="15.26" laneDensity="7.63" occupancy="3.54" waitingTime="2.00" timeLoss="4.18" speed="0.43" speedRelative="0.03" departed="0" arrived="0" entered="0" left="0" laneChangedFrom="0" laneChangedTo="0"/>
        <edge id="E1" sampledSeconds="22.92" overlapTraveltime="11.69" density="266.67" laneDensity="133.33" occupancy="76.35" waitingTime="2.00" timeLoss="4.20" speed="0.44" speedRelative="0.03" departed="0" arrived="0" entered="0" left="2" laneChangedFrom="0" laneChangedTo="0"/>
        <edge id="E2" sampledSeconds="10.00" traveltime="12.82" overlapTraveltime="13.46" density="6.67" laneDensity="3.33" occupancy="1.38" waitingTime="0.00" timeLoss="4.38" speed="7.80" speedRelative="0.56" departed="0" arrived="0" entered="2" left="0" laneChangedFrom="0" laneChangedTo="0"/>
    </interval>
    <interval begin="75.00" end="80.00" id="dump_15">
        <edge id="E2" sampledSeconds="9.50" traveltime="7.20" overlapTraveltime="7.56" density="19.00" laneDensity="9.50" occupancy="4.57" waitingTime="0.00" timeLoss="0.00" speed="13.89" speedRelative="1.00" departed="0" arrived="2" entered="0" left="0" laneChangedFrom="0" laneChangedTo="0"/>
    </interval>
</meandata>
