<?xml version="1.0"?>

<!-- generated on 05/04/09 15:49:30 by SUMO sumo Version dev-SVN-r7092
<configuration>

   <input>
      <net-file>net.net.xml</net-file>
      <additional-files>input_routes.rou.xml,input_additional.add.xml,input_additional2.add.xml</additional-files>
   </input>

   <time>
      <begin>0</begin>
      <end>1000</end>
   </time>

   <processing>
      <no-duration-log>true</no-duration-log>
      <no-step-log>true</no-step-log>
   </processing>

   <traci_server>
      <remote-port>8863</remote-port>
      <penetration>0.7</penetration>
   </traci_server>

</configuration>
-->

<detector>
   <interval begin="0" end="10" id="3/1to2/1" nVehContrib="0" flow="0.00" occupancy="0.00" speed="-1.00" length="-1.00" nVehEntered="0"/>
   <interval begin="0" end="10" id="4/1to3/1" nVehContrib="0" flow="0.00" occupancy="0.00" speed="-1.00" length="-1.00" nVehEntered="0"/>
   <interval begin="10" end="20" id="3/1to2/1" nVehContrib="0" flow="0.00" occupancy="0.00" speed="-1.00" length="-1.00" nVehEntered="0"/>
   <interval begin="10" end="20" id="4/1to3/1" nVehContrib="2" flow="720.00" occupancy="10.56" speed="9.50" length="5.00" nVehEntered="2"/>
   <interval begin="20" end="30" id="3/1to2/1" nVehContrib="0" flow="0.00" occupancy="0.00" speed="-1.00" length="-1.00" nVehEntered="0"/>
   <interval begin="20" end="30" id="4/1to3/1" nVehContrib="0" flow="0.00" occupancy="0.00" speed="-1.00" length="-1.00" nVehEntered="0"/>
   <interval begin="30" end="40" id="3/1to2/1" nVehContrib="0" flow="0.00" occupancy="0.00" speed="-1.00" length="-1.00" nVehEntered="0"/>
   <interval begin="30" end="40" id="4/1to3/1" nVehContrib="0" flow="0.00" occupancy="0.00" speed="-1.00" length="-1.00" nVehEntered="0"/>
   <interval begin="40" end="50" id="3/1to2/1" nVehContrib="0" flow="0.00" occupancy="0.00" speed="-1.00" length="-1.00" nVehEntered="0"/>
   <interval begin="40" end="50" id="4/1to3/1" nVehContrib="0" flow="0.00" occupancy="0.00" speed="-1.00" length="-1.00" nVehEntered="0"/>
   <interval begin="50" end="60" id="3/1to2/1" nVehContrib="1" flow="360.00" occupancy="5.00" speed="10.00" length="5.00" nVehEntered="1"/>
   <interval begin="50" end="60" id="4/1to3/1" nVehContrib="0" flow="0.00" occupancy="0.00" speed="-1.00" length="-1.00" nVehEntered="0"/>
   <interval begin="60" end="65" id="3/1to2/1" nVehContrib="1" flow="720.00" occupancy="11.11" speed="9.00" length="5.00" nVehEntered="1"/>
   <interval begin="60" end="65" id="4/1to3/1" nVehContrib="0" flow="0.00" occupancy="0.00" speed="-1.00" length="-1.00" nVehEntered="0"/>
</detector>
