<?xml version="1.0" encoding="UTF-8"?>

<!-- generated on 05/02/13 14:27:56 by SUMO sumo Version 0.17.0
<?xml version="1.0" encoding="UTF-8"?>

<configuration xmlns:xsi="http://www.w3.org/2001/XMLSchema-instance" xsi:noNamespaceSchemaLocation="http://sumo.dlr.de/xsd/sumoConfiguration.xsd">

    <input>
        <net-file value="net.net.xml"/>
        <route-files value="routes.rou.xml"/>
    </input>

    <output>
        <netstate-dump value="netstate_dump.xml"/>
    </output>

    <report>
        <no-step-log value="true"/>
    </report>

    <traci_server>
        <remote-port value="8809"/>
    </traci_server>

</configuration>
-->

<netstate xmlns:xsi="http://www.w3.org/2001/XMLSchema-instance" xsi:noNamespaceSchemaLocation="http://sumo.dlr.de/xsd/netstate_file.xsd">
    <timestep time="0.00">
        <edge id="e_m5">
            <lane id="e_m5_0">
                <vehicle id="veh0" pos="0.00" speed="0.00"/>
            </lane>
            <lane id="e_m5_1"/>
            <lane id="e_m5_2"/>
        </edge>
    </timestep>
    <timestep time="1.00">
        <edge id="e_m5">
            <lane id="e_m5_0">
                <vehicle id="veh0" pos="0.44" speed="0.44"/>
            </lane>
            <lane id="e_m5_1"/>
            <lane id="e_m5_2"/>
        </edge>
    </timestep>
    <timestep time="2.00">
        <edge id="e_m5">
            <lane id="e_m5_0">
                <vehicle id="veh0" pos="1.40" speed="0.96"/>
            </lane>
            <lane id="e_m5_1"/>
            <lane id="e_m5_2"/>
        </edge>
    </timestep>
    <timestep time="3.00">
        <edge id="e_m5">
            <lane id="e_m5_0">
                <vehicle id="veh0" pos="3.14" speed="1.74"/>
            </lane>
            <lane id="e_m5_1"/>
            <lane id="e_m5_2"/>
        </edge>
    </timestep>
    <timestep time="4.00">
        <edge id="e_m5">
            <lane id="e_m5_0">
                <vehicle id="veh0" pos="5.49" speed="2.34"/>
            </lane>
            <lane id="e_m5_1"/>
            <lane id="e_m5_2"/>
        </edge>
    </timestep>
    <timestep time="5.00">
        <edge id="e_m5">
            <lane id="e_m5_0">
                <vehicle id="veh0" pos="15.49" speed="10.00"/>
            </lane>
            <lane id="e_m5_1"/>
            <lane id="e_m5_2"/>
        </edge>
    </timestep>
    <timestep time="6.00">
        <edge id="e_m5">
            <lane id="e_m5_0">
                <vehicle id="veh0" pos="25.49" speed="10.00"/>
            </lane>
            <lane id="e_m5_1"/>
            <lane id="e_m5_2"/>
        </edge>
    </timestep>
    <timestep time="7.00">
        <edge id="e_m5">
            <lane id="e_m5_0">
                <vehicle id="veh0" pos="35.49" speed="10.00"/>
            </lane>
            <lane id="e_m5_1"/>
            <lane id="e_m5_2"/>
        </edge>
    </timestep>
    <timestep time="8.00">
        <edge id="e_m5">
            <lane id="e_m5_0">
                <vehicle id="veh0" pos="45.49" speed="10.00"/>
            </lane>
            <lane id="e_m5_1"/>
            <lane id="e_m5_2"/>
        </edge>
    </timestep>
    <timestep time="9.00">
        <edge id="e_m5">
            <lane id="e_m5_0">
                <vehicle id="veh0" pos="55.49" speed="10.00"/>
            </lane>
            <lane id="e_m5_1"/>
            <lane id="e_m5_2"/>
        </edge>
    </timestep>
    <timestep time="10.00">
        <edge id="e_m5">
            <lane id="e_m5_0">
                <vehicle id="veh0" pos="65.49" speed="10.00"/>
            </lane>
            <lane id="e_m5_1"/>
            <lane id="e_m5_2"/>
        </edge>
    </timestep>
    <timestep time="11.00">
        <edge id="e_m5">
            <lane id="e_m5_0">
                <vehicle id="veh0" pos="75.49" speed="10.00"/>
            </lane>
            <lane id="e_m5_1"/>
            <lane id="e_m5_2"/>
        </edge>
    </timestep>
    <timestep time="12.00">
        <edge id="e_m5">
            <lane id="e_m5_0">
                <vehicle id="veh0" pos="85.49" speed="10.00"/>
            </lane>
            <lane id="e_m5_1"/>
            <lane id="e_m5_2"/>
        </edge>
    </timestep>
    <timestep time="13.00">
        <edge id="e_m5">
            <lane id="e_m5_0">
                <vehicle id="veh0" pos="95.49" speed="10.00"/>
            </lane>
            <lane id="e_m5_1"/>
            <lane id="e_m5_2"/>
        </edge>
    </timestep>
    <timestep time="14.00">
        <edge id="e_m5">
            <lane id="e_m5_0">
                <vehicle id="veh0" pos="105.49" speed="10.00"/>
            </lane>
            <lane id="e_m5_1"/>
            <lane id="e_m5_2"/>
        </edge>
    </timestep>
    <timestep time="15.00">
        <edge id="e_m5">
            <lane id="e_m5_0">
                <vehicle id="veh0" pos="112.99" speed="7.50"/>
            </lane>
            <lane id="e_m5_1"/>
            <lane id="e_m5_2"/>
        </edge>
    </timestep>
    <timestep time="16.00">
        <edge id="e_m5">
            <lane id="e_m5_0">
                <vehicle id="veh0" pos="117.99" speed="5.00"/>
            </lane>
            <lane id="e_m5_1"/>
            <lane id="e_m5_2"/>
        </edge>
    </timestep>
    <timestep time="17.00">
        <edge id="e_m5">
            <lane id="e_m5_0">
                <vehicle id="veh0" pos="123.76" speed="5.78"/>
            </lane>
            <lane id="e_m5_1"/>
            <lane id="e_m5_2"/>
        </edge>
    </timestep>
    <timestep time="18.00">
        <edge id="e_m5">
            <lane id="e_m5_0">
                <vehicle id="veh0" pos="129.99" speed="6.23"/>
            </lane>
            <lane id="e_m5_1"/>
            <lane id="e_m5_2"/>
        </edge>
    </timestep>
    <timestep time="19.00">
        <edge id="e_m5">
            <lane id="e_m5_0">
                <vehicle id="veh0" pos="136.88" speed="6.90"/>
            </lane>
            <lane id="e_m5_1"/>
            <lane id="e_m5_2"/>
        </edge>
    </timestep>
    <timestep time="20.00">
        <edge id="e_m5">
            <lane id="e_m5_0">
                <vehicle id="veh0" pos="144.31" speed="7.42"/>
            </lane>
            <lane id="e_m5_1"/>
            <lane id="e_m5_2"/>
        </edge>
    </timestep>
    <timestep time="21.00">
        <edge id="e_m5">
            <lane id="e_m5_0">
                <vehicle id="veh0" pos="152.51" speed="8.20"/>
            </lane>
            <lane id="e_m5_1"/>
            <lane id="e_m5_2"/>
        </edge>
    </timestep>
    <timestep time="22.00">
        <edge id="e_m5">
            <lane id="e_m5_0">
                <vehicle id="veh0" pos="161.31" speed="8.80"/>
            </lane>
            <lane id="e_m5_1"/>
            <lane id="e_m5_2"/>
        </edge>
    </timestep>
    <timestep time="23.00">
        <edge id="e_m5">
            <lane id="e_m5_0">
                <vehicle id="veh0" pos="170.79" speed="9.48"/>
            </lane>
            <lane id="e_m5_1"/>
            <lane id="e_m5_2"/>
        </edge>
    </timestep>
    <timestep time="24.00">
        <edge id="e_m5">
            <lane id="e_m5_0">
                <vehicle id="veh0" pos="180.81" speed="10.02"/>
            </lane>
            <lane id="e_m5_1"/>
            <lane id="e_m5_2"/>
        </edge>
    </timestep>
    <timestep time="25.00">
        <edge id="e_m5">
            <lane id="e_m5_0">
                <vehicle id="veh0" pos="191.26" speed="10.45"/>
            </lane>
            <lane id="e_m5_1"/>
            <lane id="e_m5_2"/>
        </edge>
    </timestep>
</netstate>
