<?xml version="1.0" encoding="UTF-8"?>

<!-- generated on Mon Oct 17 11:13:06 2016 by SUMO Version dev-SVN-r21661
<?xml version="1.0" encoding="UTF-8"?>

<configuration xmlns:xsi="http://www.w3.org/2001/XMLSchema-instance" xsi:noNamespaceSchemaLocation="http://sumo.dlr.de/xsd/sumoConfiguration.xsd">

    <input>
        <net-file value="net2.net.xml"/>
        <route-files value="input_routes.rou.xml"/>
    </input>

    <output>
        <fcd-output value="fcd.xml"/>
        <tripinfo-output value="tripinfos.xml"/>
    </output>

    <report>
        <xml-validation value="never"/>
        <no-step-log value="true"/>
    </report>

</configuration>
-->

<fcd-export xmlns:xsi="http://www.w3.org/2001/XMLSchema-instance" xsi:noNamespaceSchemaLocation="http://sumo.dlr.de/xsd/fcd_file.xsd">
    <timestep time="0.00">
        <vehicle id="stopped" x="40.00" y="-1.65" angle="90.00" type="DEFAULT_VEHTYPE" speed="0.00" pos="40.00" lane="VODUGES_beg_0" slope="0.00"/>
    </timestep>
    <timestep time="1.00">
        <vehicle id="stopped" x="41.44" y="-1.65" angle="90.00" type="DEFAULT_VEHTYPE" speed="1.44" pos="41.44" lane="VODUGES_beg_0" slope="0.00"/>
    </timestep>
    <timestep time="2.00">
        <vehicle id="stopped" x="44.56" y="-1.65" angle="90.00" type="DEFAULT_VEHTYPE" speed="3.12" pos="44.56" lane="VODUGES_beg_0" slope="0.00"/>
    </timestep>
    <timestep time="3.00">
        <vehicle id="oncoming1" x="95.25" y="1.65" angle="270.00" type="DEFAULT_VEHTYPE" speed="0.00" pos="100.00" lane="-VODUGES_end_0" slope="0.00"/>
        <vehicle id="oncoming2" x="175.25" y="1.65" angle="270.00" type="DEFAULT_VEHTYPE" speed="0.00" pos="20.00" lane="-VODUGES_end_0" slope="0.00"/>
        <vehicle id="oncoming3" x="195.25" y="1.65" angle="225.00" type="DEFAULT_VEHTYPE" speed="0.00" pos="0.00" lane="-VODUGES_end_0" slope="0.00"/>
        <vehicle id="overtaking" x="0.00" y="-1.65" angle="90.00" type="DEFAULT_VEHTYPE" speed="0.00" pos="0.00" lane="VODUGES_beg_0" slope="0.00"/>
        <vehicle id="stopped" x="50.21" y="-1.65" angle="90.00" type="DEFAULT_VEHTYPE" speed="5.66" pos="4.96" lane=":C_4_0" slope="0.00"/>
        <vehicle id="stopped2" x="40.00" y="-1.65" angle="90.00" type="DEFAULT_VEHTYPE" speed="0.00" pos="40.00" lane="VODUGES_beg_0" slope="0.00"/>
    </timestep>
    <timestep time="4.00">
        <vehicle id="oncoming1" x="92.71" y="1.65" angle="270.00" type="DEFAULT_VEHTYPE" speed="2.54" pos="102.54" lane="-VODUGES_end_0" slope="0.00"/>
        <vehicle id="oncoming2" x="173.62" y="1.65" angle="270.00" type="DEFAULT_VEHTYPE" speed="1.63" pos="21.63" lane="-VODUGES_end_0" slope="0.00"/>
        <vehicle id="oncoming3" x="192.97" y="-1.65" angle="270.00" type="DEFAULT_VEHTYPE" speed="2.28" pos="138.22" lane="VODUGES_end_0" slope="0.00"/>
        <vehicle id="overtaking" x="1.83" y="-1.65" angle="90.00" type="DEFAULT_VEHTYPE" speed="1.83" pos="1.83" lane="VODUGES_beg_0" slope="0.00"/>
        <vehicle id="stopped" x="57.76" y="-1.65" angle="90.00" type="DEFAULT_VEHTYPE" speed="7.55" pos="3.01" lane="VODUGES_end_0" slope="0.00"/>
        <vehicle id="stopped2" x="41.96" y="-1.65" angle="90.00" type="DEFAULT_VEHTYPE" speed="1.96" pos="41.96" lane="VODUGES_beg_0" slope="0.00"/>
    </timestep>
    <timestep time="5.00">
        <vehicle id="oncoming1" x="88.15" y="1.65" angle="270.00" type="DEFAULT_VEHTYPE" speed="4.56" pos="107.10" lane="-VODUGES_end_0" slope="0.00"/>
        <vehicle id="oncoming2" x="170.12" y="1.65" angle="270.00" type="DEFAULT_VEHTYPE" speed="3.50" pos="25.13" lane="-VODUGES_end_0" slope="0.00"/>
        <vehicle id="oncoming3" x="189.06" y="-1.65" angle="270.00" type="DEFAULT_VEHTYPE" speed="3.91" pos="134.31" lane="VODUGES_end_0" slope="0.00"/>
        <vehicle id="overtaking" x="5.66" y="-1.65" angle="90.00" type="DEFAULT_VEHTYPE" speed="3.83" pos="5.66" lane="VODUGES_beg_0" slope="0.00"/>
        <vehicle id="stopped" x="62.50" y="-1.65" angle="90.00" type="DEFAULT_VEHTYPE" speed="4.74" pos="7.75" lane="VODUGES_end_0" slope="0.00"/>
        <vehicle id="stopped2" x="44.13" y="-1.65" angle="90.00" type="DEFAULT_VEHTYPE" speed="2.16" pos="44.13" lane="VODUGES_beg_0" slope="0.00"/>
    </timestep>
    <timestep time="6.00">
        <vehicle id="oncoming1" x="81.88" y="1.65" angle="270.00" type="DEFAULT_VEHTYPE" speed="6.27" pos="113.37" lane="-VODUGES_end_0" slope="0.00"/>
        <vehicle id="oncoming2" x="164.08" y="1.65" angle="270.00" type="DEFAULT_VEHTYPE" speed="6.04" pos="31.17" lane="-VODUGES_end_0" slope="0.00"/>
        <vehicle id="oncoming3" x="182.90" y="-1.65" angle="270.00" type="DEFAULT_VEHTYPE" speed="6.17" pos="128.15" lane="VODUGES_end_0" slope="0.00"/>
        <vehicle id="overtaking" x="11.67" y="-1.65" angle="90.00" type="DEFAULT_VEHTYPE" speed="6.01" pos="11.67" lane="VODUGES_beg_0" slope="0.00"/>
        <vehicle id="stopped" x="62.74" y="-1.65" angle="90.00" type="DEFAULT_VEHTYPE" speed="0.24" pos="7.99" lane="VODUGES_end_0" slope="0.00"/>
        <vehicle id="stopped2" x="44.62" y="-1.65" angle="90.00" type="DEFAULT_VEHTYPE" speed="0.49" pos="44.62" lane="VODUGES_beg_0" slope="0.00"/>
    </timestep>
    <timestep time="7.00">
        <vehicle id="oncoming1" x="74.09" y="1.65" angle="270.00" type="DEFAULT_VEHTYPE" speed="7.80" pos="121.16" lane="-VODUGES_end_0" slope="0.00"/>
        <vehicle id="oncoming2" x="156.60" y="1.65" angle="270.00" type="DEFAULT_VEHTYPE" speed="7.48" pos="38.65" lane="-VODUGES_end_0" slope="0.00"/>
        <vehicle id="oncoming3" x="174.80" y="1.65" angle="270.00" type="DEFAULT_VEHTYPE" speed="8.10" pos="20.45" lane="-VODUGES_end_0" slope="0.00"/>
        <vehicle id="overtaking" x="19.06" y="-1.65" angle="90.00" type="DEFAULT_VEHTYPE" speed="7.39" pos="19.06" lane="VODUGES_beg_0" slope="0.00"/>
        <vehicle id="stopped" x="62.75" y="-1.65" angle="90.00" type="DEFAULT_VEHTYPE" speed="0.01" pos="8.00" lane="VODUGES_end_0" slope="0.00"/>
        <vehicle id="stopped2" x="44.88" y="-1.65" angle="90.00" type="DEFAULT_VEHTYPE" speed="0.26" pos="44.88" lane="VODUGES_beg_0" slope="0.00"/>
    </timestep>
    <timestep time="8.00">
        <vehicle id="oncoming1" x="63.74" y="1.65" angle="270.00" type="DEFAULT_VEHTYPE" speed="10.35" pos="131.51" lane="-VODUGES_end_0" slope="0.00"/>
        <vehicle id="oncoming2" x="146.91" y="1.65" angle="270.00" type="DEFAULT_VEHTYPE" speed="9.69" pos="48.34" lane="-VODUGES_end_0" slope="0.00"/>
        <vehicle id="oncoming3" x="166.73" y="1.65" angle="270.00" type="DEFAULT_VEHTYPE" speed="8.07" pos="28.52" lane="-VODUGES_end_0" slope="0.00"/>
        <vehicle id="overtaking" x="28.74" y="-1.65" angle="90.00" type="DEFAULT_VEHTYPE" speed="9.68" pos="28.74" lane="VODUGES_beg_0" slope="0.00"/>
        <vehicle id="stopped" x="62.75" y="-1.65" angle="90.00" type="DEFAULT_VEHTYPE" speed="0.00" pos="8.00" lane="VODUGES_end_0" slope="0.00"/>
        <vehicle id="stopped2" x="44.97" y="-1.65" angle="90.00" type="DEFAULT_VEHTYPE" speed="0.09" pos="44.97" lane="VODUGES_beg_0" slope="0.00"/>
    </timestep>
    <timestep time="9.00">
        <vehicle id="oncoming1" x="51.67" y="1.65" angle="270.00" type="DEFAULT_VEHTYPE" speed="12.06" pos="3.08" lane=":C_3_0" slope="0.00"/>
        <vehicle id="oncoming2" x="135.05" y="1.65" angle="270.00" type="DEFAULT_VEHTYPE" speed="11.86" pos="60.20" lane="-VODUGES_end_0" slope="0.00"/>
        <vehicle id="oncoming3" x="156.33" y="1.65" angle="270.00" type="DEFAULT_VEHTYPE" speed="10.40" pos="38.92" lane="-VODUGES_end_0" slope="0.00"/>
        <vehicle id="overtaking" x="35.31" y="-1.65" angle="90.00" type="DEFAULT_VEHTYPE" speed="6.58" pos="35.31" lane="VODUGES_beg_0" slope="0.00"/>
        <vehicle id="stopped" x="62.75" y="-1.65" angle="90.00" type="DEFAULT_VEHTYPE" speed="0.00" pos="8.00" lane="VODUGES_end_0" slope="0.00"/>
        <vehicle id="stopped2" x="44.98" y="-1.65" angle="90.00" type="DEFAULT_VEHTYPE" speed="0.02" pos="44.98" lane="VODUGES_beg_0" slope="0.00"/>
    </timestep>
    <timestep time="10.00">
        <vehicle id="oncoming1" x="37.95" y="1.65" angle="270.00" type="DEFAULT_VEHTYPE" speed="13.73" pos="7.30" lane="-VODUGES_beg_0" slope="0.00"/>
        <vehicle id="oncoming2" x="121.45" y="1.65" angle="270.00" type="DEFAULT_VEHTYPE" speed="13.60" pos="73.80" lane="-VODUGES_end_0" slope="0.00"/>
        <vehicle id="oncoming3" x="144.05" y="1.65" angle="270.00" type="DEFAULT_VEHTYPE" speed="12.28" pos="51.20" lane="-VODUGES_end_0" slope="0.00"/>
        <vehicle id="overtaking" x="37.39" y="-1.65" angle="90.00" type="DEFAULT_VEHTYPE" speed="2.08" pos="37.39" lane="VODUGES_beg_0" slope="0.00"/>
        <vehicle id="stopped" x="62.75" y="-1.65" angle="90.00" type="DEFAULT_VEHTYPE" speed="0.00" pos="8.00" lane="VODUGES_end_0" slope="0.00"/>
        <vehicle id="stopped2" x="44.98" y="-1.65" angle="90.00" type="DEFAULT_VEHTYPE" speed="0.00" pos="44.98" lane="VODUGES_beg_0" slope="0.00"/>
    </timestep>
    <timestep time="11.00">
        <vehicle id="oncoming1" x="24.80" y="1.65" angle="270.00" type="DEFAULT_VEHTYPE" speed="13.15" pos="20.45" lane="-VODUGES_beg_0" slope="0.00"/>
        <vehicle id="oncoming2" x="108.42" y="1.65" angle="270.00" type="DEFAULT_VEHTYPE" speed="13.02" pos="86.83" lane="-VODUGES_end_0" slope="0.00"/>
        <vehicle id="oncoming3" x="131.09" y="1.65" angle="270.00" type="DEFAULT_VEHTYPE" speed="12.96" pos="64.16" lane="-VODUGES_end_0" slope="0.00"/>
        <vehicle id="overtaking" x="37.48" y="-1.65" angle="90.00" type="DEFAULT_VEHTYPE" speed="0.09" pos="37.48" lane="VODUGES_beg_0" slope="0.00"/>
        <vehicle id="stopped" x="62.75" y="-1.65" angle="90.00" type="DEFAULT_VEHTYPE" speed="0.00" pos="8.00" lane="VODUGES_end_0" slope="0.00"/>
        <vehicle id="stopped2" x="44.98" y="-1.65" angle="90.00" type="DEFAULT_VEHTYPE" speed="0.00" pos="44.98" lane="VODUGES_beg_0" slope="0.00"/>
    </timestep>
    <timestep time="12.00">
        <vehicle id="oncoming1" x="11.68" y="1.65" angle="270.00" type="DEFAULT_VEHTYPE" speed="13.11" pos="33.57" lane="-VODUGES_beg_0" slope="0.00"/>
        <vehicle id="oncoming2" x="94.93" y="1.65" angle="270.00" type="DEFAULT_VEHTYPE" speed="13.49" pos="100.32" lane="-VODUGES_end_0" slope="0.00"/>
        <vehicle id="oncoming3" x="118.05" y="1.65" angle="270.00" type="DEFAULT_VEHTYPE" speed="13.04" pos="77.20" lane="-VODUGES_end_0" slope="0.00"/>
        <vehicle id="overtaking" x="37.48" y="-1.65" angle="90.00" type="DEFAULT_VEHTYPE" speed="0.00" pos="37.48" lane="VODUGES_beg_0" slope="0.00"/>
        <vehicle id="stopped" x="62.75" y="-1.65" angle="90.00" type="DEFAULT_VEHTYPE" speed="0.00" pos="8.00" lane="VODUGES_end_0" slope="0.00"/>
        <vehicle id="stopped2" x="44.98" y="-1.65" angle="90.00" type="DEFAULT_VEHTYPE" speed="0.00" pos="44.98" lane="VODUGES_beg_0" slope="0.00"/>
    </timestep>
    <timestep time="13.00">
        <vehicle id="oncoming2" x="81.88" y="1.65" angle="270.00" type="DEFAULT_VEHTYPE" speed="13.06" pos="113.37" lane="-VODUGES_end_0" slope="0.00"/>
        <vehicle id="oncoming3" x="104.36" y="1.65" angle="270.00" type="DEFAULT_VEHTYPE" speed="13.69" pos="90.89" lane="-VODUGES_end_0" slope="0.00"/>
        <vehicle id="overtaking" x="37.48" y="-1.65" angle="90.00" type="DEFAULT_VEHTYPE" speed="0.00" pos="37.48" lane="VODUGES_beg_0" slope="0.00"/>
        <vehicle id="stopped" x="62.75" y="-1.65" angle="90.00" type="DEFAULT_VEHTYPE" speed="0.00" pos="8.00" lane="VODUGES_end_0" slope="0.00"/>
        <vehicle id="stopped2" x="44.98" y="-1.65" angle="90.00" type="DEFAULT_VEHTYPE" speed="0.00" pos="44.98" lane="VODUGES_beg_0" slope="0.00"/>
    </timestep>
    <timestep time="14.00">
        <vehicle id="oncoming2" x="69.19" y="1.65" angle="270.00" type="DEFAULT_VEHTYPE" speed="12.68" pos="126.06" lane="-VODUGES_end_0" slope="0.00"/>
        <vehicle id="oncoming3" x="90.80" y="1.65" angle="270.00" type="DEFAULT_VEHTYPE" speed="13.56" pos="104.45" lane="-VODUGES_end_0" slope="0.00"/>
        <vehicle id="overtaking" x="37.48" y="-1.65" angle="90.00" type="DEFAULT_VEHTYPE" speed="0.00" pos="37.48" lane="VODUGES_beg_0" slope="0.00"/>
        <vehicle id="stopped" x="62.75" y="-1.65" angle="90.00" type="DEFAULT_VEHTYPE" speed="0.00" pos="8.00" lane="VODUGES_end_0" slope="0.00"/>
        <vehicle id="stopped2" x="44.98" y="-1.65" angle="90.00" type="DEFAULT_VEHTYPE" speed="0.00" pos="44.98" lane="VODUGES_beg_0" slope="0.00"/>
    </timestep>
    <timestep time="15.00">
        <vehicle id="oncoming2" x="55.75" y="1.65" angle="270.00" type="DEFAULT_VEHTYPE" speed="13.45" pos="139.50" lane="-VODUGES_end_0" slope="0.00"/>
        <vehicle id="oncoming3" x="77.75" y="1.65" angle="270.00" type="DEFAULT_VEHTYPE" speed="13.04" pos="117.50" lane="-VODUGES_end_0" slope="0.00"/>
        <vehicle id="overtaking" x="37.48" y="-1.65" angle="90.00" type="DEFAULT_VEHTYPE" speed="0.00" pos="37.48" lane="VODUGES_beg_0" slope="0.00"/>
        <vehicle id="stopped" x="62.75" y="-1.65" angle="90.00" type="DEFAULT_VEHTYPE" speed="0.00" pos="8.00" lane="VODUGES_end_0" slope="0.00"/>
        <vehicle id="stopped2" x="44.98" y="-1.65" angle="90.00" type="DEFAULT_VEHTYPE" speed="0.00" pos="44.98" lane="VODUGES_beg_0" slope="0.00"/>
    </timestep>
    <timestep time="16.00">
        <vehicle id="oncoming2" x="41.92" y="1.65" angle="270.00" type="DEFAULT_VEHTYPE" speed="13.83" pos="3.33" lane="-VODUGES_beg_0" slope="0.00"/>
        <vehicle id="oncoming3" x="64.13" y="1.65" angle="270.00" type="DEFAULT_VEHTYPE" speed="13.62" pos="131.12" lane="-VODUGES_end_0" slope="0.00"/>
        <vehicle id="overtaking" x="37.48" y="-1.65" angle="90.00" type="DEFAULT_VEHTYPE" speed="0.00" pos="37.48" lane="VODUGES_beg_0" slope="0.00"/>
        <vehicle id="stopped" x="62.75" y="-1.65" angle="90.00" type="DEFAULT_VEHTYPE" speed="0.00" pos="8.00" lane="VODUGES_end_0" slope="0.00"/>
        <vehicle id="stopped2" x="44.98" y="-1.65" angle="90.00" type="DEFAULT_VEHTYPE" speed="0.00" pos="44.98" lane="VODUGES_beg_0" slope="0.00"/>
    </timestep>
    <timestep time="17.00">
        <vehicle id="oncoming2" x="28.96" y="1.65" angle="270.00" type="DEFAULT_VEHTYPE" speed="12.95" pos="16.29" lane="-VODUGES_beg_0" slope="0.00"/>
        <vehicle id="oncoming3" x="51.12" y="1.65" angle="270.00" type="DEFAULT_VEHTYPE" speed="13.01" pos="3.63" lane=":C_3_0" slope="0.00"/>
        <vehicle id="overtaking" x="37.48" y="-1.65" angle="90.00" type="DEFAULT_VEHTYPE" speed="0.00" pos="37.48" lane="VODUGES_beg_0" slope="0.00"/>
        <vehicle id="stopped" x="62.75" y="-1.65" angle="90.00" type="DEFAULT_VEHTYPE" speed="0.00" pos="8.00" lane="VODUGES_end_0" slope="0.00"/>
        <vehicle id="stopped2" x="44.98" y="-1.65" angle="90.00" type="DEFAULT_VEHTYPE" speed="0.00" pos="44.98" lane="VODUGES_beg_0" slope="0.00"/>
    </timestep>
    <timestep time="18.00">
        <vehicle id="oncoming2" x="15.87" y="1.65" angle="270.00" type="DEFAULT_VEHTYPE" speed="13.09" pos="29.38" lane="-VODUGES_beg_0" slope="0.00"/>
        <vehicle id="oncoming3" x="38.16" y="1.65" angle="270.00" type="DEFAULT_VEHTYPE" speed="12.96" pos="7.09" lane="-VODUGES_beg_0" slope="0.00"/>
        <vehicle id="overtaking" x="37.48" y="-1.65" angle="90.00" type="DEFAULT_VEHTYPE" speed="0.00" pos="37.48" lane="VODUGES_beg_0" slope="0.00"/>
        <vehicle id="stopped" x="62.75" y="-1.65" angle="90.00" type="DEFAULT_VEHTYPE" speed="0.00" pos="8.00" lane="VODUGES_end_0" slope="0.00"/>
        <vehicle id="stopped2" x="44.98" y="-1.65" angle="90.00" type="DEFAULT_VEHTYPE" speed="0.00" pos="44.98" lane="VODUGES_beg_0" slope="0.00"/>
    </timestep>
    <timestep time="19.00">
        <vehicle id="oncoming2" x="2.75" y="1.65" angle="270.00" type="DEFAULT_VEHTYPE" speed="13.13" pos="42.50" lane="-VODUGES_beg_0" slope="0.00"/>
        <vehicle id="oncoming3" x="25.08" y="1.65" angle="270.00" type="DEFAULT_VEHTYPE" speed="13.07" pos="20.17" lane="-VODUGES_beg_0" slope="0.00"/>
        <vehicle id="overtaking" x="37.48" y="-1.65" angle="90.00" type="DEFAULT_VEHTYPE" speed="0.00" pos="37.48" lane="VODUGES_beg_0" slope="0.00"/>
        <vehicle id="stopped" x="62.75" y="-1.65" angle="90.00" type="DEFAULT_VEHTYPE" speed="0.00" pos="8.00" lane="VODUGES_end_0" slope="0.00"/>
        <vehicle id="stopped2" x="44.98" y="-1.65" angle="90.00" type="DEFAULT_VEHTYPE" speed="0.00" pos="44.98" lane="VODUGES_beg_0" slope="0.00"/>
    </timestep>
    <timestep time="20.00">
        <vehicle id="oncoming3" x="11.57" y="1.65" angle="270.00" type="DEFAULT_VEHTYPE" speed="13.51" pos="33.68" lane="-VODUGES_beg_0" slope="0.00"/>
        <vehicle id="overtaking" x="37.48" y="-1.65" angle="90.00" type="DEFAULT_VEHTYPE" speed="0.00" pos="37.48" lane="VODUGES_beg_0" slope="0.00"/>
        <vehicle id="stopped" x="62.75" y="-1.65" angle="90.00" type="DEFAULT_VEHTYPE" speed="0.00" pos="8.00" lane="VODUGES_end_0" slope="0.00"/>
        <vehicle id="stopped2" x="44.98" y="-1.65" angle="90.00" type="DEFAULT_VEHTYPE" speed="0.00" pos="44.98" lane="VODUGES_beg_0" slope="0.00"/>
    </timestep>
    <timestep time="21.00">
        <vehicle id="overtaking" x="37.48" y="-1.65" angle="90.00" type="DEFAULT_VEHTYPE" speed="0.00" pos="37.48" lane="VODUGES_beg_0" slope="0.00"/>
        <vehicle id="stopped" x="62.75" y="-1.65" angle="90.00" type="DEFAULT_VEHTYPE" speed="0.00" pos="8.00" lane="VODUGES_end_0" slope="0.00"/>
        <vehicle id="stopped2" x="44.98" y="-1.65" angle="90.00" type="DEFAULT_VEHTYPE" speed="0.00" pos="44.98" lane="VODUGES_beg_0" slope="0.00"/>
    </timestep>
    <timestep time="22.00">
        <vehicle id="overtaking" x="37.48" y="-1.65" angle="90.00" type="DEFAULT_VEHTYPE" speed="0.00" pos="37.48" lane="VODUGES_beg_0" slope="0.00"/>
        <vehicle id="stopped" x="62.75" y="-1.65" angle="90.00" type="DEFAULT_VEHTYPE" speed="0.00" pos="8.00" lane="VODUGES_end_0" slope="0.00"/>
        <vehicle id="stopped2" x="44.98" y="-1.65" angle="90.00" type="DEFAULT_VEHTYPE" speed="0.00" pos="44.98" lane="VODUGES_beg_0" slope="0.00"/>
    </timestep>
    <timestep time="23.00">
        <vehicle id="overtaking" x="37.48" y="-1.65" angle="90.00" type="DEFAULT_VEHTYPE" speed="0.00" pos="37.48" lane="VODUGES_beg_0" slope="0.00"/>
        <vehicle id="stopped" x="62.75" y="-1.65" angle="90.00" type="DEFAULT_VEHTYPE" speed="0.00" pos="8.00" lane="VODUGES_end_0" slope="0.00"/>
        <vehicle id="stopped2" x="44.98" y="-1.65" angle="90.00" type="DEFAULT_VEHTYPE" speed="0.00" pos="44.98" lane="VODUGES_beg_0" slope="0.00"/>
    </timestep>
    <timestep time="24.00">
        <vehicle id="overtaking" x="37.48" y="-1.65" angle="90.00" type="DEFAULT_VEHTYPE" speed="0.00" pos="37.48" lane="VODUGES_beg_0" slope="0.00"/>
        <vehicle id="stopped" x="62.75" y="-1.65" angle="90.00" type="DEFAULT_VEHTYPE" speed="0.00" pos="8.00" lane="VODUGES_end_0" slope="0.00"/>
        <vehicle id="stopped2" x="44.98" y="-1.65" angle="90.00" type="DEFAULT_VEHTYPE" speed="0.00" pos="44.98" lane="VODUGES_beg_0" slope="0.00"/>
    </timestep>
    <timestep time="25.00">
        <vehicle id="overtaking" x="37.48" y="-1.65" angle="90.00" type="DEFAULT_VEHTYPE" speed="0.00" pos="37.48" lane="VODUGES_beg_0" slope="0.00"/>
        <vehicle id="stopped" x="62.75" y="-1.65" angle="90.00" type="DEFAULT_VEHTYPE" speed="0.00" pos="8.00" lane="VODUGES_end_0" slope="0.00"/>
        <vehicle id="stopped2" x="44.98" y="-1.65" angle="90.00" type="DEFAULT_VEHTYPE" speed="0.00" pos="44.98" lane="VODUGES_beg_0" slope="0.00"/>
    </timestep>
    <timestep time="26.00">
        <vehicle id="overtaking" x="37.48" y="-1.65" angle="90.00" type="DEFAULT_VEHTYPE" speed="0.00" pos="37.48" lane="VODUGES_beg_0" slope="0.00"/>
        <vehicle id="stopped" x="62.75" y="-1.65" angle="90.00" type="DEFAULT_VEHTYPE" speed="0.00" pos="8.00" lane="VODUGES_end_0" slope="0.00"/>
        <vehicle id="stopped2" x="44.98" y="-1.65" angle="90.00" type="DEFAULT_VEHTYPE" speed="0.00" pos="44.98" lane="VODUGES_beg_0" slope="0.00"/>
    </timestep>
    <timestep time="27.00">
        <vehicle id="overtaking" x="37.48" y="-1.65" angle="90.00" type="DEFAULT_VEHTYPE" speed="0.00" pos="37.48" lane="VODUGES_beg_0" slope="0.00"/>
        <vehicle id="stopped" x="62.75" y="-1.65" angle="90.00" type="DEFAULT_VEHTYPE" speed="0.00" pos="8.00" lane="VODUGES_end_0" slope="0.00"/>
        <vehicle id="stopped2" x="44.98" y="-1.65" angle="90.00" type="DEFAULT_VEHTYPE" speed="0.00" pos="44.98" lane="VODUGES_beg_0" slope="0.00"/>
    </timestep>
    <timestep time="28.00">
        <vehicle id="overtaking" x="37.48" y="-1.65" angle="90.00" type="DEFAULT_VEHTYPE" speed="0.00" pos="37.48" lane="VODUGES_beg_0" slope="0.00"/>
        <vehicle id="stopped" x="62.75" y="-1.65" angle="90.00" type="DEFAULT_VEHTYPE" speed="0.00" pos="8.00" lane="VODUGES_end_0" slope="0.00"/>
        <vehicle id="stopped2" x="44.98" y="-1.65" angle="90.00" type="DEFAULT_VEHTYPE" speed="0.00" pos="44.98" lane="VODUGES_beg_0" slope="0.00"/>
    </timestep>
    <timestep time="29.00">
        <vehicle id="overtaking" x="37.48" y="-1.65" angle="90.00" type="DEFAULT_VEHTYPE" speed="0.00" pos="37.48" lane="VODUGES_beg_0" slope="0.00"/>
        <vehicle id="stopped" x="62.75" y="-1.65" angle="90.00" type="DEFAULT_VEHTYPE" speed="0.00" pos="8.00" lane="VODUGES_end_0" slope="0.00"/>
        <vehicle id="stopped2" x="44.98" y="-1.65" angle="90.00" type="DEFAULT_VEHTYPE" speed="0.00" pos="44.98" lane="VODUGES_beg_0" slope="0.00"/>
    </timestep>
    <timestep time="30.00">
        <vehicle id="overtaking" x="37.48" y="-1.65" angle="90.00" type="DEFAULT_VEHTYPE" speed="0.00" pos="37.48" lane="VODUGES_beg_0" slope="0.00"/>
        <vehicle id="stopped" x="62.75" y="-1.65" angle="90.00" type="DEFAULT_VEHTYPE" speed="0.00" pos="8.00" lane="VODUGES_end_0" slope="0.00"/>
        <vehicle id="stopped2" x="44.98" y="-1.65" angle="90.00" type="DEFAULT_VEHTYPE" speed="0.00" pos="44.98" lane="VODUGES_beg_0" slope="0.00"/>
    </timestep>
    <timestep time="31.00">
        <vehicle id="overtaking" x="37.48" y="-1.65" angle="90.00" type="DEFAULT_VEHTYPE" speed="0.00" pos="37.48" lane="VODUGES_beg_0" slope="0.00"/>
        <vehicle id="stopped" x="62.75" y="-1.65" angle="90.00" type="DEFAULT_VEHTYPE" speed="0.00" pos="8.00" lane="VODUGES_end_0" slope="0.00"/>
        <vehicle id="stopped2" x="44.98" y="-1.65" angle="90.00" type="DEFAULT_VEHTYPE" speed="0.00" pos="44.98" lane="VODUGES_beg_0" slope="0.00"/>
    </timestep>
    <timestep time="32.00">
        <vehicle id="overtaking" x="37.48" y="-1.65" angle="90.00" type="DEFAULT_VEHTYPE" speed="0.00" pos="37.48" lane="VODUGES_beg_0" slope="0.00"/>
        <vehicle id="stopped" x="62.75" y="-1.65" angle="90.00" type="DEFAULT_VEHTYPE" speed="0.00" pos="8.00" lane="VODUGES_end_0" slope="0.00"/>
        <vehicle id="stopped2" x="44.98" y="-1.65" angle="90.00" type="DEFAULT_VEHTYPE" speed="0.00" pos="44.98" lane="VODUGES_beg_0" slope="0.00"/>
    </timestep>
    <timestep time="33.00">
        <vehicle id="overtaking" x="37.48" y="-1.65" angle="90.00" type="DEFAULT_VEHTYPE" speed="0.00" pos="37.48" lane="VODUGES_beg_0" slope="0.00"/>
        <vehicle id="stopped" x="62.75" y="-1.65" angle="90.00" type="DEFAULT_VEHTYPE" speed="0.00" pos="8.00" lane="VODUGES_end_0" slope="0.00"/>
        <vehicle id="stopped2" x="44.98" y="-1.65" angle="90.00" type="DEFAULT_VEHTYPE" speed="0.00" pos="44.98" lane="VODUGES_beg_0" slope="0.00"/>
    </timestep>
    <timestep time="34.00">
        <vehicle id="overtaking" x="37.48" y="-1.65" angle="90.00" type="DEFAULT_VEHTYPE" speed="0.00" pos="37.48" lane="VODUGES_beg_0" slope="0.00"/>
        <vehicle id="stopped" x="62.75" y="-1.65" angle="90.00" type="DEFAULT_VEHTYPE" speed="0.00" pos="8.00" lane="VODUGES_end_0" slope="0.00"/>
        <vehicle id="stopped2" x="44.98" y="-1.65" angle="90.00" type="DEFAULT_VEHTYPE" speed="0.00" pos="44.98" lane="VODUGES_beg_0" slope="0.00"/>
    </timestep>
    <timestep time="35.00">
        <vehicle id="overtaking" x="37.48" y="-1.65" angle="90.00" type="DEFAULT_VEHTYPE" speed="0.00" pos="37.48" lane="VODUGES_beg_0" slope="0.00"/>
        <vehicle id="stopped" x="62.75" y="-1.65" angle="90.00" type="DEFAULT_VEHTYPE" speed="0.00" pos="8.00" lane="VODUGES_end_0" slope="0.00"/>
        <vehicle id="stopped2" x="44.98" y="-1.65" angle="90.00" type="DEFAULT_VEHTYPE" speed="0.00" pos="44.98" lane="VODUGES_beg_0" slope="0.00"/>
    </timestep>
    <timestep time="36.00">
        <vehicle id="overtaking" x="37.48" y="-1.65" angle="90.00" type="DEFAULT_VEHTYPE" speed="0.00" pos="37.48" lane="VODUGES_beg_0" slope="0.00"/>
        <vehicle id="stopped" x="62.75" y="-1.65" angle="90.00" type="DEFAULT_VEHTYPE" speed="0.00" pos="8.00" lane="VODUGES_end_0" slope="0.00"/>
        <vehicle id="stopped2" x="44.98" y="-1.65" angle="90.00" type="DEFAULT_VEHTYPE" speed="0.00" pos="44.98" lane="VODUGES_beg_0" slope="0.00"/>
    </timestep>
    <timestep time="37.00">
        <vehicle id="overtaking" x="37.48" y="-1.65" angle="90.00" type="DEFAULT_VEHTYPE" speed="0.00" pos="37.48" lane="VODUGES_beg_0" slope="0.00"/>
        <vehicle id="stopped" x="62.75" y="-1.65" angle="90.00" type="DEFAULT_VEHTYPE" speed="0.00" pos="8.00" lane="VODUGES_end_0" slope="0.00"/>
        <vehicle id="stopped2" x="44.98" y="-1.65" angle="90.00" type="DEFAULT_VEHTYPE" speed="0.00" pos="44.98" lane="VODUGES_beg_0" slope="0.00"/>
    </timestep>
    <timestep time="38.00">
        <vehicle id="overtaking" x="37.48" y="-1.65" angle="90.00" type="DEFAULT_VEHTYPE" speed="0.00" pos="37.48" lane="VODUGES_beg_0" slope="0.00"/>
        <vehicle id="stopped" x="62.75" y="-1.65" angle="90.00" type="DEFAULT_VEHTYPE" speed="0.00" pos="8.00" lane="VODUGES_end_0" slope="0.00"/>
        <vehicle id="stopped2" x="44.98" y="-1.65" angle="90.00" type="DEFAULT_VEHTYPE" speed="0.00" pos="44.98" lane="VODUGES_beg_0" slope="0.00"/>
    </timestep>
    <timestep time="39.00">
        <vehicle id="overtaking" x="37.48" y="-1.65" angle="90.00" type="DEFAULT_VEHTYPE" speed="0.00" pos="37.48" lane="VODUGES_beg_0" slope="0.00"/>
        <vehicle id="stopped" x="62.75" y="-1.65" angle="90.00" type="DEFAULT_VEHTYPE" speed="0.00" pos="8.00" lane="VODUGES_end_0" slope="0.00"/>
        <vehicle id="stopped2" x="44.98" y="-1.65" angle="90.00" type="DEFAULT_VEHTYPE" speed="0.00" pos="44.98" lane="VODUGES_beg_0" slope="0.00"/>
    </timestep>
    <timestep time="40.00">
        <vehicle id="overtaking" x="37.48" y="-1.65" angle="90.00" type="DEFAULT_VEHTYPE" speed="0.00" pos="37.48" lane="VODUGES_beg_0" slope="0.00"/>
        <vehicle id="stopped" x="62.75" y="-1.65" angle="90.00" type="DEFAULT_VEHTYPE" speed="0.00" pos="8.00" lane="VODUGES_end_0" slope="0.00"/>
        <vehicle id="stopped2" x="44.98" y="-1.65" angle="90.00" type="DEFAULT_VEHTYPE" speed="0.00" pos="44.98" lane="VODUGES_beg_0" slope="0.00"/>
    </timestep>
    <timestep time="41.00">
        <vehicle id="overtaking" x="37.48" y="-1.65" angle="90.00" type="DEFAULT_VEHTYPE" speed="0.00" pos="37.48" lane="VODUGES_beg_0" slope="0.00"/>
        <vehicle id="stopped" x="62.75" y="-1.65" angle="90.00" type="DEFAULT_VEHTYPE" speed="0.00" pos="8.00" lane="VODUGES_end_0" slope="0.00"/>
        <vehicle id="stopped2" x="44.98" y="-1.65" angle="90.00" type="DEFAULT_VEHTYPE" speed="0.00" pos="44.98" lane="VODUGES_beg_0" slope="0.00"/>
    </timestep>
    <timestep time="42.00">
        <vehicle id="overtaking" x="37.48" y="-1.65" angle="90.00" type="DEFAULT_VEHTYPE" speed="0.00" pos="37.48" lane="VODUGES_beg_0" slope="0.00"/>
        <vehicle id="stopped" x="62.75" y="-1.65" angle="90.00" type="DEFAULT_VEHTYPE" speed="0.00" pos="8.00" lane="VODUGES_end_0" slope="0.00"/>
        <vehicle id="stopped2" x="44.98" y="-1.65" angle="90.00" type="DEFAULT_VEHTYPE" speed="0.00" pos="44.98" lane="VODUGES_beg_0" slope="0.00"/>
    </timestep>
    <timestep time="43.00">
        <vehicle id="overtaking" x="37.48" y="-1.65" angle="90.00" type="DEFAULT_VEHTYPE" speed="0.00" pos="37.48" lane="VODUGES_beg_0" slope="0.00"/>
        <vehicle id="stopped" x="62.75" y="-1.65" angle="90.00" type="DEFAULT_VEHTYPE" speed="0.00" pos="8.00" lane="VODUGES_end_0" slope="0.00"/>
        <vehicle id="stopped2" x="44.98" y="-1.65" angle="90.00" type="DEFAULT_VEHTYPE" speed="0.00" pos="44.98" lane="VODUGES_beg_0" slope="0.00"/>
    </timestep>
    <timestep time="44.00">
        <vehicle id="overtaking" x="37.48" y="-1.65" angle="90.00" type="DEFAULT_VEHTYPE" speed="0.00" pos="37.48" lane="VODUGES_beg_0" slope="0.00"/>
        <vehicle id="stopped" x="62.75" y="-1.65" angle="90.00" type="DEFAULT_VEHTYPE" speed="0.00" pos="8.00" lane="VODUGES_end_0" slope="0.00"/>
        <vehicle id="stopped2" x="44.98" y="-1.65" angle="90.00" type="DEFAULT_VEHTYPE" speed="0.00" pos="44.98" lane="VODUGES_beg_0" slope="0.00"/>
    </timestep>
    <timestep time="45.00">
        <vehicle id="overtaking" x="37.48" y="-1.65" angle="90.00" type="DEFAULT_VEHTYPE" speed="0.00" pos="37.48" lane="VODUGES_beg_0" slope="0.00"/>
        <vehicle id="stopped" x="62.75" y="-1.65" angle="90.00" type="DEFAULT_VEHTYPE" speed="0.00" pos="8.00" lane="VODUGES_end_0" slope="0.00"/>
        <vehicle id="stopped2" x="44.98" y="-1.65" angle="90.00" type="DEFAULT_VEHTYPE" speed="0.00" pos="44.98" lane="VODUGES_beg_0" slope="0.00"/>
    </timestep>
    <timestep time="46.00">
        <vehicle id="overtaking" x="37.48" y="-1.65" angle="90.00" type="DEFAULT_VEHTYPE" speed="0.00" pos="37.48" lane="VODUGES_beg_0" slope="0.00"/>
        <vehicle id="stopped" x="62.75" y="-1.65" angle="90.00" type="DEFAULT_VEHTYPE" speed="0.00" pos="8.00" lane="VODUGES_end_0" slope="0.00"/>
        <vehicle id="stopped2" x="44.98" y="-1.65" angle="90.00" type="DEFAULT_VEHTYPE" speed="0.00" pos="44.98" lane="VODUGES_beg_0" slope="0.00"/>
    </timestep>
    <timestep time="47.00">
        <vehicle id="overtaking" x="37.48" y="-1.65" angle="90.00" type="DEFAULT_VEHTYPE" speed="0.00" pos="37.48" lane="VODUGES_beg_0" slope="0.00"/>