<?xml version="1.0" encoding="UTF-8"?>

<!-- generated on Thu Nov 17 15:48:19 2016 by SUMO Version dev-SVN-r22049
<?xml version="1.0" encoding="UTF-8"?>

<configuration xmlns:xsi="http://www.w3.org/2001/XMLSchema-instance" xsi:noNamespaceSchemaLocation="http://sumo.dlr.de/xsd/sumoConfiguration.xsd">

    <input>
        <net-file value="net2.net.xml"/>
        <route-files value="input_routes.rou.xml"/>
    </input>

    <output>
        <fcd-output value="fcd.xml"/>
        <tripinfo-output value="tripinfos.xml"/>
    </output>

    <report>
        <xml-validation value="never"/>
        <no-step-log value="true"/>
    </report>

</configuration>
-->

<fcd-export xmlns:xsi="http://www.w3.org/2001/XMLSchema-instance" xsi:noNamespaceSchemaLocation="http://sumo.dlr.de/xsd/fcd_file.xsd">
    <timestep time="0.00">
        <vehicle id="stopped" x="40.00" y="-1.65" angle="90.00" type="DEFAULT_VEHTYPE" speed="0.00" pos="40.00" lane="VODUGES_beg_0" slope="0.00"/>
    </timestep>
    <timestep time="1.00">
        <vehicle id="stopped" x="41.44" y="-1.65" angle="90.00" type="DEFAULT_VEHTYPE" speed="1.44" pos="41.44" lane="VODUGES_beg_0" slope="0.00"/>
    </timestep>
    <timestep time="2.00">
        <vehicle id="stopped" x="44.56" y="-1.65" angle="90.00" type="DEFAULT_VEHTYPE" speed="3.12" pos="44.56" lane="VODUGES_beg_0" slope="0.00"/>
    </timestep>
    <timestep time="3.00">
        <vehicle id="oncoming1" x="95.25" y="1.65" angle="270.00" type="DEFAULT_VEHTYPE" speed="0.00" pos="100.00" lane="-VODUGES_end_0" slope="0.00"/>
        <vehicle id="oncoming2" x="175.25" y="1.65" angle="270.00" type="DEFAULT_VEHTYPE" speed="0.00" pos="20.00" lane="-VODUGES_end_0" slope="0.00"/>
        <vehicle id="oncoming3" x="195.25" y="1.65" angle="225.00" type="DEFAULT_VEHTYPE" speed="0.00" pos="0.00" lane="-VODUGES_end_0" slope="0.00"/>
        <vehicle id="overtaking" x="0.00" y="-1.65" angle="90.00" type="DEFAULT_VEHTYPE" speed="0.00" pos="0.00" lane="VODUGES_beg_0" slope="0.00"/>
        <vehicle id="stopped" x="50.21" y="-1.65" angle="90.00" type="DEFAULT_VEHTYPE" speed="5.66" pos="4.96" lane=":C_4_0" slope="0.00"/>
        <vehicle id="stopped2" x="40.00" y="-1.65" angle="90.00" type="DEFAULT_VEHTYPE" speed="0.00" pos="40.00" lane="VODUGES_beg_0" slope="0.00"/>
    </timestep>
    <timestep time="4.00">
        <vehicle id="oncoming1" x="92.71" y="1.65" angle="270.00" type="DEFAULT_VEHTYPE" speed="2.54" pos="102.54" lane="-VODUGES_end_0" slope="0.00"/>
        <vehicle id="oncoming2" x="173.62" y="1.65" angle="270.00" type="DEFAULT_VEHTYPE" speed="1.63" pos="21.63" lane="-VODUGES_end_0" slope="0.00"/>
        <vehicle id="oncoming3" x="192.97" y="1.65" angle="258.39" type="DEFAULT_VEHTYPE" speed="2.28" pos="2.28" lane="-VODUGES_end_0" slope="0.00"/>
        <vehicle id="overtaking" x="1.83" y="-1.65" angle="90.00" type="DEFAULT_VEHTYPE" speed="1.83" pos="1.83" lane="VODUGES_beg_0" slope="0.00"/>
        <vehicle id="stopped" x="57.76" y="-1.65" angle="90.00" type="DEFAULT_VEHTYPE" speed="7.55" pos="3.01" lane="VODUGES_end_0" slope="0.00"/>
        <vehicle id="stopped2" x="41.96" y="-1.65" angle="90.00" type="DEFAULT_VEHTYPE" speed="1.96" pos="41.96" lane="VODUGES_beg_0" slope="0.00"/>
    </timestep>
    <timestep time="5.00">
        <vehicle id="oncoming1" x="88.17" y="1.65" angle="270.00" type="DEFAULT_VEHTYPE" speed="4.54" pos="107.08" lane="-VODUGES_end_0" slope="0.00"/>
        <vehicle id="oncoming2" x="169.97" y="1.65" angle="270.00" type="DEFAULT_VEHTYPE" speed="3.65" pos="25.28" lane="-VODUGES_end_0" slope="0.00"/>
        <vehicle id="oncoming3" x="188.83" y="1.65" angle="270.00" type="DEFAULT_VEHTYPE" speed="4.14" pos="6.42" lane="-VODUGES_end_0" slope="0.00"/>
        <vehicle id="overtaking" x="5.39" y="-1.65" angle="90.00" type="DEFAULT_VEHTYPE" speed="3.56" pos="5.39" lane="VODUGES_beg_0" slope="0.00"/>
        <vehicle id="stopped" x="61.54" y="-1.65" angle="90.00" type="DEFAULT_VEHTYPE" speed="3.78" pos="6.79" lane="VODUGES_end_0" slope="0.00"/>
        <vehicle id="stopped2" x="44.99" y="-1.65" angle="90.00" type="DEFAULT_VEHTYPE" speed="3.03" pos="44.99" lane="VODUGES_beg_0" slope="0.00"/>
    </timestep>
    <timestep time="6.00">
        <vehicle id="oncoming1" x="81.45" y="1.65" angle="270.00" type="DEFAULT_VEHTYPE" speed="6.72" pos="113.80" lane="-VODUGES_end_0" slope="0.00"/>
        <vehicle id="oncoming2" x="164.61" y="1.65" angle="270.00" type="DEFAULT_VEHTYPE" speed="5.36" pos="30.64" lane="-VODUGES_end_0" slope="0.00"/>
        <vehicle id="oncoming3" x="182.15" y="1.65" angle="270.00" type="DEFAULT_VEHTYPE" speed="6.68" pos="13.10" lane="-VODUGES_end_0" slope="0.00"/>
        <vehicle id="overtaking" x="10.41" y="-1.65" angle="90.00" type="DEFAULT_VEHTYPE" speed="5.02" pos="10.41" lane="VODUGES_beg_0" slope="0.00"/>
        <vehicle id="stopped" x="62.59" y="-1.65" angle="90.00" type="DEFAULT_VEHTYPE" speed="1.05" pos="7.84" lane="VODUGES_end_0" slope="0.00"/>
        <vehicle id="stopped2" x="45.00" y="-1.65" angle="90.00" type="DEFAULT_VEHTYPE" speed="0.01" pos="45.00" lane="VODUGES_beg_0" slope="0.00"/>
    </timestep>
    <timestep time="7.00">
        <vehicle id="oncoming1" x="73.35" y="1.65" angle="270.00" type="DEFAULT_VEHTYPE" speed="8.10" pos="121.90" lane="-VODUGES_end_0" slope="0.00"/>
        <vehicle id="oncoming2" x="157.73" y="1.65" angle="270.00" type="DEFAULT_VEHTYPE" speed="6.89" pos="37.52" lane="-VODUGES_end_0" slope="0.00"/>
        <vehicle id="oncoming3" x="175.61" y="1.65" angle="270.00" type="DEFAULT_VEHTYPE" speed="6.54" pos="19.64" lane="-VODUGES_end_0" slope="0.00"/>
        <vehicle id="overtaking" x="17.21" y="-1.65" angle="90.00" type="DEFAULT_VEHTYPE" speed="6.80" pos="17.21" lane="VODUGES_beg_0" slope="0.00"/>
        <vehicle id="stopped" x="62.71" y="-1.65" angle="90.00" type="DEFAULT_VEHTYPE" speed="0.12" pos="7.96" lane="VODUGES_end_0" slope="0.00"/>
        <vehicle id="stopped2" x="45.00" y="-1.65" angle="90.00" type="DEFAULT_VEHTYPE" speed="0.00" pos="45.00" lane="VODUGES_beg_0" slope="0.00"/>
    </timestep>
    <timestep time="8.00">
        <vehicle id="oncoming1" x="62.70" y="1.65" angle="270.00" type="DEFAULT_VEHTYPE" speed="10.66" pos="132.55" lane="-VODUGES_end_0" slope="0.00"/>
        <vehicle id="oncoming2" x="148.63" y="1.65" angle="270.00" type="DEFAULT_VEHTYPE" speed="9.09" pos="46.62" lane="-VODUGES_end_0" slope="0.00"/>
        <vehicle id="oncoming3" x="167.97" y="1.65" angle="270.00" type="DEFAULT_VEHTYPE" speed="7.64" pos="27.28" lane="-VODUGES_end_0" slope="0.00"/>
        <vehicle id="overtaking" x="26.30" y="-1.65" angle="90.00" type="DEFAULT_VEHTYPE" speed="9.09" pos="26.30" lane="VODUGES_beg_0" slope="0.00"/>
        <vehicle id="stopped" x="62.74" y="-1.65" angle="90.00" type="DEFAULT_VEHTYPE" speed="0.03" pos="7.99" lane="VODUGES_end_0" slope="0.00"/>
        <vehicle id="stopped2" x="45.00" y="-1.65" angle="90.00" type="DEFAULT_VEHTYPE" speed="0.00" pos="45.00" lane="VODUGES_beg_0" slope="0.00"/>
    </timestep>
    <timestep time="9.00">
        <vehicle id="oncoming1" x="50.33" y="1.65" angle="270.00" type="DEFAULT_VEHTYPE" speed="12.37" pos="4.42" lane=":C_3_0" slope="0.00"/>
        <vehicle id="oncoming2" x="137.37" y="1.65" angle="270.00" type="DEFAULT_VEHTYPE" speed="11.26" pos="57.88" lane="-VODUGES_end_0" slope="0.00"/>
        <vehicle id="oncoming3" x="158.13" y="1.65" angle="270.00" type="DEFAULT_VEHTYPE" speed="9.84" pos="37.12" lane="-VODUGES_end_0" slope="0.00"/>
        <vehicle id="overtaking" x="34.11" y="-1.65" angle="90.00" type="DEFAULT_VEHTYPE" speed="7.81" pos="34.11" lane="VODUGES_beg_0" slope="0.00"/>
        <vehicle id="stopped" x="62.74" y="-1.65" angle="90.00" type="DEFAULT_VEHTYPE" speed="0.00" pos="7.99" lane="VODUGES_end_0" slope="0.00"/>
        <vehicle id="stopped2" x="45.00" y="-1.65" angle="90.00" type="DEFAULT_VEHTYPE" speed="0.00" pos="45.00" lane="VODUGES_beg_0" slope="0.00"/>
    </timestep>
    <timestep time="10.00">
        <vehicle id="oncoming1" x="36.60" y="1.65" angle="270.00" type="DEFAULT_VEHTYPE" speed="13.73" pos="8.65" lane="-VODUGES_beg_0" slope="0.00"/>
        <vehicle id="oncoming2" x="123.80" y="1.65" angle="270.00" type="DEFAULT_VEHTYPE" speed="13.57" pos="71.45" lane="-VODUGES_end_0" slope="0.00"/>
        <vehicle id="oncoming3" x="146.42" y="1.65" angle="270.00" type="DEFAULT_VEHTYPE" speed="11.71" pos="48.83" lane="-VODUGES_end_0" slope="0.00"/>
        <vehicle id="overtaking" x="37.42" y="-1.65" angle="90.00" type="DEFAULT_VEHTYPE" speed="3.31" pos="37.42" lane="VODUGES_beg_0" slope="0.00"/>
        <vehicle id="stopped" x="62.74" y="-1.65" angle="90.00" type="DEFAULT_VEHTYPE" speed="0.00" pos="7.99" lane="VODUGES_end_0" slope="0.00"/>
        <vehicle id="stopped2" x="45.00" y="-1.65" angle="90.00" type="DEFAULT_VEHTYPE" speed="0.00" pos="45.00" lane="VODUGES_beg_0" slope="0.00"/>
    </timestep>
    <timestep time="11.00">
        <vehicle id="oncoming1" x="23.46" y="1.65" angle="270.00" type="DEFAULT_VEHTYPE" speed="13.15" pos="21.79" lane="-VODUGES_beg_0" slope="0.00"/>
        <vehicle id="oncoming2" x="110.78" y="1.65" angle="270.00" type="DEFAULT_VEHTYPE" speed="13.02" pos="84.47" lane="-VODUGES_end_0" slope="0.00"/>
        <vehicle id="oncoming3" x="133.46" y="1.65" angle="270.00" type="DEFAULT_VEHTYPE" speed="12.96" pos="61.79" lane="-VODUGES_end_0" slope="0.00"/>
        <vehicle id="overtaking" x="37.50" y="-1.65" angle="90.00" type="DEFAULT_VEHTYPE" speed="0.07" pos="37.50" lane="VODUGES_beg_0" slope="0.00"/>
        <vehicle id="stopped" x="62.74" y="-1.65" angle="90.00" type="DEFAULT_VEHTYPE" speed="0.00" pos="7.99" lane="VODUGES_end_0" slope="0.00"/>
        <vehicle id="stopped2" x="45.00" y="-1.65" angle="90.00" type="DEFAULT_VEHTYPE" speed="0.00" pos="45.00" lane="VODUGES_beg_0" slope="0.00"/>
    </timestep>
    <timestep time="12.00">
        <vehicle id="oncoming1" x="10.34" y="1.65" angle="270.00" type="DEFAULT_VEHTYPE" speed="13.11" pos="34.91" lane="-VODUGES_beg_0" slope="0.00"/>
        <vehicle id="oncoming2" x="97.29" y="1.65" angle="270.00" type="DEFAULT_VEHTYPE" speed="13.49" pos="97.96" lane="-VODUGES_end_0" slope="0.00"/>
        <vehicle id="oncoming3" x="120.42" y="1.65" angle="270.00" type="DEFAULT_VEHTYPE" speed="13.04" pos="74.83" lane="-VODUGES_end_0" slope="0.00"/>
        <vehicle id="overtaking" x="37.50" y="-1.65" angle="90.00" type="DEFAULT_VEHTYPE" speed="0.00" pos="37.50" lane="VODUGES_beg_0" slope="0.00"/>
        <vehicle id="stopped" x="62.74" y="-1.65" angle="90.00" type="DEFAULT_VEHTYPE" speed="0.00" pos="7.99" lane="VODUGES_end_0" slope="0.00"/>
        <vehicle id="stopped2" x="45.00" y="-1.65" angle="90.00" type="DEFAULT_VEHTYPE" speed="0.00" pos="45.00" lane="VODUGES_beg_0" slope="0.00"/>
    </timestep>
    <timestep time="13.00">
        <vehicle id="oncoming2" x="84.23" y="1.65" angle="270.00" type="DEFAULT_VEHTYPE" speed="13.06" pos="111.02" lane="-VODUGES_end_0" slope="0.00"/>
        <vehicle id="oncoming3" x="106.73" y="1.65" angle="270.00" type="DEFAULT_VEHTYPE" speed="13.69" pos="88.52" lane="-VODUGES_end_0" slope="0.00"/>
        <vehicle id="overtaking" x="37.50" y="-1.65" angle="90.00" type="DEFAULT_VEHTYPE" speed="0.00" pos="37.50" lane="VODUGES_beg_0" slope="0.00"/>
        <vehicle id="stopped" x="62.74" y="-1.65" angle="90.00" type="DEFAULT_VEHTYPE" speed="0.00" pos="7.99" lane="VODUGES_end_0" slope="0.00"/>
        <vehicle id="stopped2" x="45.00" y="-1.65" angle="90.00" type="DEFAULT_VEHTYPE" speed="0.00" pos="45.00" lane="VODUGES_beg_0" slope="0.00"/>
    </timestep>
    <timestep time="14.00">
        <vehicle id="oncoming2" x="71.55" y="1.65" angle="270.00" type="DEFAULT_VEHTYPE" speed="12.68" pos="123.70" lane="-VODUGES_end_0" slope="0.00"/>
        <vehicle id="oncoming3" x="93.16" y="1.65" angle="270.00" type="DEFAULT_VEHTYPE" speed="13.56" pos="102.09" lane="-VODUGES_end_0" slope="0.00"/>
        <vehicle id="overtaking" x="37.50" y="-1.65" angle="90.00" type="DEFAULT_VEHTYPE" speed="0.00" pos="37.50" lane="VODUGES_beg_0" slope="0.00"/>
        <vehicle id="stopped" x="62.74" y="-1.65" angle="90.00" type="DEFAULT_VEHTYPE" speed="0.00" pos="7.99" lane="VODUGES_end_0" slope="0.00"/>
        <vehicle id="stopped2" x="45.00" y="-1.65" angle="90.00" type="DEFAULT_VEHTYPE" speed="0.00" pos="45.00" lane="VODUGES_beg_0" slope="0.00"/>
    </timestep>
    <timestep time="15.00">
        <vehicle id="oncoming2" x="58.10" y="1.65" angle="270.00" type="DEFAULT_VEHTYPE" speed="13.45" pos="137.15" lane="-VODUGES_end_0" slope="0.00"/>
        <vehicle id="oncoming3" x="80.11" y="1.65" angle="270.00" type="DEFAULT_VEHTYPE" speed="13.05" pos="115.14" lane="-VODUGES_end_0" slope="0.00"/>
        <vehicle id="overtaking" x="37.50" y="-1.65" angle="90.00" type="DEFAULT_VEHTYPE" speed="0.00" pos="37.50" lane="VODUGES_beg_0" slope="0.00"/>
        <vehicle id="stopped" x="62.74" y="-1.65" angle="90.00" type="DEFAULT_VEHTYPE" speed="0.00" pos="7.99" lane="VODUGES_end_0" slope="0.00"/>
        <vehicle id="stopped2" x="45.00" y="-1.65" angle="90.00" type="DEFAULT_VEHTYPE" speed="0.00" pos="45.00" lane="VODUGES_beg_0" slope="0.00"/>
    </timestep>
    <timestep time="16.00">
        <vehicle id="oncoming2" x="44.27" y="1.65" angle="270.00" type="DEFAULT_VEHTYPE" speed="13.83" pos="0.98" lane="-VODUGES_beg_0" slope="0.00"/>
        <vehicle id="oncoming3" x="66.49" y="1.65" angle="270.00" type="DEFAULT_VEHTYPE" speed="13.62" pos="128.76" lane="-VODUGES_end_0" slope="0.00"/>
        <vehicle id="overtaking" x="37.50" y="-1.65" angle="90.00" type="DEFAULT_VEHTYPE" speed="0.00" pos="37.50" lane="VODUGES_beg_0" slope="0.00"/>
        <vehicle id="stopped" x="62.74" y="-1.65" angle="90.00" type="DEFAULT_VEHTYPE" speed="0.00" pos="7.99" lane="VODUGES_end_0" slope="0.00"/>
        <vehicle id="stopped2" x="45.00" y="-1.65" angle="90.00" type="DEFAULT_VEHTYPE" speed="0.00" pos="45.00" lane="VODUGES_beg_0" slope="0.00"/>
    </timestep>
    <timestep time="17.00">
        <vehicle id="oncoming2" x="31.32" y="1.65" angle="270.00" type="DEFAULT_VEHTYPE" speed="12.95" pos="13.93" lane="-VODUGES_beg_0" slope="0.00"/>
        <vehicle id="oncoming3" x="53.48" y="1.65" angle="270.00" type="DEFAULT_VEHTYPE" speed="13.01" pos="1.27" lane=":C_3_0" slope="0.00"/>
        <vehicle id="overtaking" x="37.50" y="-1.65" angle="90.00" type="DEFAULT_VEHTYPE" speed="0.00" pos="37.50" lane="VODUGES_beg_0" slope="0.00"/>
        <vehicle id="stopped" x="62.74" y="-1.65" angle="90.00" type="DEFAULT_VEHTYPE" speed="0.00" pos="7.99" lane="VODUGES_end_0" slope="0.00"/>
        <vehicle id="stopped2" x="45.00" y="-1.65" angle="90.00" type="DEFAULT_VEHTYPE" speed="0.00" pos="45.00" lane="VODUGES_beg_0" slope="0.00"/>
    </timestep>
    <timestep time="18.00">
        <vehicle id="oncoming2" x="18.23" y="1.65" angle="270.00" type="DEFAULT_VEHTYPE" speed="13.09" pos="27.02" lane="-VODUGES_beg_0" slope="0.00"/>
        <vehicle id="oncoming3" x="40.52" y="1.65" angle="270.00" type="DEFAULT_VEHTYPE" speed="12.97" pos="4.73" lane="-VODUGES_beg_0" slope="0.00"/>
        <vehicle id="overtaking" x="37.50" y="-1.65" angle="90.00" type="DEFAULT_VEHTYPE" speed="0.00" pos="37.50" lane="VODUGES_beg_0" slope="0.00"/>
        <vehicle id="stopped" x="62.74" y="-1.65" angle="90.00" type="DEFAULT_VEHTYPE" speed="0.00" pos="7.99" lane="VODUGES_end_0" slope="0.00"/>
        <vehicle id="stopped2" x="45.00" y="-1.65" angle="90.00" type="DEFAULT_VEHTYPE" speed="0.00" pos="45.00" lane="VODUGES_beg_0" slope="0.00"/>
    </timestep>
    <timestep time="19.00">
        <vehicle id="oncoming2" x="5.10" y="1.65" angle="270.00" type="DEFAULT_VEHTYPE" speed="13.13" pos="40.15" lane="-VODUGES_beg_0" slope="0.00"/>
        <vehicle id="oncoming3" x="27.44" y="1.65" angle="270.00" type="DEFAULT_VEHTYPE" speed="13.07" pos="17.81" lane="-VODUGES_beg_0" slope="0.00"/>
        <vehicle id="overtaking" x="37.50" y="-1.65" angle="90.00" type="DEFAULT_VEHTYPE" speed="0.00" pos="37.50" lane="VODUGES_beg_0" slope="0.00"/>
        <vehicle id="stopped" x="62.74" y="-1.65" angle="90.00" type="DEFAULT_VEHTYPE" speed="0.00" pos="7.99" lane="VODUGES_end_0" slope="0.00"/>
        <vehicle id="stopped2" x="45.00" y="-1.65" angle="90.00" type="DEFAULT_VEHTYPE" speed="0.00" pos="45.00" lane="VODUGES_beg_0" slope="0.00"/>
    </timestep>
    <timestep time="20.00">
        <vehicle id="oncoming3" x="13.93" y="1.65" angle="270.00" type="DEFAULT_VEHTYPE" speed="13.51" pos="31.32" lane="-VODUGES_beg_0" slope="0.00"/>
        <vehicle id="overtaking" x="37.50" y="-1.65" angle="90.00" type="DEFAULT_VEHTYPE" speed="0.00" pos="37.50" lane="VODUGES_beg_0" slope="0.00"/>
        <vehicle id="stopped" x="62.74" y="-1.65" angle="90.00" type="DEFAULT_VEHTYPE" speed="0.00" pos="7.99" lane="VODUGES_end_0" slope="0.00"/>
        <vehicle id="stopped2" x="45.00" y="-1.65" angle="90.00" type="DEFAULT_VEHTYPE" speed="0.00" pos="45.00" lane="VODUGES_beg_0" slope="0.00"/>
    </timestep>
    <timestep time="21.00">
        <vehicle id="oncoming3" x="0.68" y="1.65" angle="270.00" type="DEFAULT_VEHTYPE" speed="13.25" pos="44.57" lane="-VODUGES_beg_0" slope="0.00"/>
        <vehicle id="overtaking" x="37.50" y="-1.65" angle="90.00" type="DEFAULT_VEHTYPE" speed="0.00" pos="37.50" lane="VODUGES_beg_0" slope="0.00"/>
        <vehicle id="stopped" x="62.74" y="-1.65" angle="90.00" type="DEFAULT_VEHTYPE" speed="0.00" pos="7.99" lane="VODUGES_end_0" slope="0.00"/>
        <vehicle id="stopped2" x="45.00" y="-1.65" angle="90.00" type="DEFAULT_VEHTYPE" speed="0.00" pos="45.00" lane="VODUGES_beg_0" slope="0.00"/>
    </timestep>
    <timestep time="22.00">
        <vehicle id="overtaking" x="37.50" y="-1.65" angle="90.00" type="DEFAULT_VEHTYPE" speed="0.00" pos="37.50" lane="VODUGES_beg_0" slope="0.00"/>
        <vehicle id="stopped" x="62.74" y="-1.65" angle="90.00" type="DEFAULT_VEHTYPE" speed="0.00" pos="7.99" lane="VODUGES_end_0" slope="0.00"/>
        <vehicle id="stopped2" x="45.00" y="-1.65" angle="90.00" type="DEFAULT_VEHTYPE" speed="0.00" pos="45.00" lane="VODUGES_beg_0" slope="0.00"/>
    </timestep>
    <timestep time="23.00">
        <vehicle id="overtaking" x="37.50" y="-1.65" angle="90.00" type="DEFAULT_VEHTYPE" speed="0.00" pos="37.50" lane="VODUGES_beg_0" slope="0.00"/>
        <vehicle id="stopped" x="62.74" y="-1.65" angle="90.00" type="DEFAULT_VEHTYPE" speed="0.00" pos="7.99" lane="VODUGES_end_0" slope="0.00"/>
        <vehicle id="stopped2" x="45.00" y="-1.65" angle="90.00" type="DEFAULT_VEHTYPE" speed="0.00" pos="45.00" lane="VODUGES_beg_0" slope="0.00"/>
    </timestep>
    <timestep time="24.00">
        <vehicle id="overtaking" x="37.50" y="-1.65" angle="90.00" type="DEFAULT_VEHTYPE" speed="0.00" pos="37.50" lane="VODUGES_beg_0" slope="0.00"/>
        <vehicle id="stopped" x="62.74" y="-1.65" angle="90.00" type="DEFAULT_VEHTYPE" speed="0.00" pos="7.99" lane="VODUGES_end_0" slope="0.00"/>
        <vehicle id="stopped2" x="45.00" y="-1.65" angle="90.00" type="DEFAULT_VEHTYPE" speed="0.00" pos="45.00" lane="VODUGES_beg_0" slope="0.00"/>
    </timestep>
    <timestep time="25.00">
        <vehicle id="overtaking" x="37.50" y="-1.65" angle="90.00" type="DEFAULT_VEHTYPE" speed="0.00" pos="37.50" lane="VODUGES_beg_0" slope="0.00"/>
        <vehicle id="stopped" x="62.74" y="-1.65" angle="90.00" type="DEFAULT_VEHTYPE" speed="0.00" pos="7.99" lane="VODUGES_end_0" slope="0.00"/>
        <vehicle id="stopped2" x="45.00" y="-1.65" angle="90.00" type="DEFAULT_VEHTYPE" speed="0.00" pos="45.00" lane="VODUGES_beg_0" slope="0.00"/>
    </timestep>
    <timestep time="26.00">
        <vehicle id="overtaking" x="37.50" y="-1.65" angle="90.00" type="DEFAULT_VEHTYPE" speed="0.00" pos="37.50" lane="VODUGES_beg_0" slope="0.00"/>
        <vehicle id="stopped" x="62.74" y="-1.65" angle="90.00" type="DEFAULT_VEHTYPE" speed="0.00" pos="7.99" lane="VODUGES_end_0" slope="0.00"/>
        <vehicle id="stopped2" x="45.00" y="-1.65" angle="90.00" type="DEFAULT_VEHTYPE" speed="0.00" pos="45.00" lane="VODUGES_beg_0" slope="0.00"/>
    </timestep>
    <timestep time="27.00">
        <vehicle id="overtaking" x="37.50" y="-1.65" angle="90.00" type="DEFAULT_VEHTYPE" speed="0.00" pos="37.50" lane="VODUGES_beg_0" slope="0.00"/>
        <vehicle id="stopped" x="62.74" y="-1.65" angle="90.00" type="DEFAULT_VEHTYPE" speed="0.00" pos="7.99" lane="VODUGES_end_0" slope="0.00"/>
        <vehicle id="stopped2" x="45.00" y="-1.65" angle="90.00" type="DEFAULT_VEHTYPE" speed="0.00" pos="45.00" lane="VODUGES_beg_0" slope="0.00"/>
    </timestep>
    <timestep time="28.00">
        <vehicle id="overtaking" x="37.50" y="-1.65" angle="90.00" type="DEFAULT_VEHTYPE" speed="0.00" pos="37.50" lane="VODUGES_beg_0" slope="0.00"/>
        <vehicle id="stopped" x="62.74" y="-1.65" angle="90.00" type="DEFAULT_VEHTYPE" speed="0.00" pos="7.99" lane="VODUGES_end_0" slope="0.00"/>
        <vehicle id="stopped2" x="45.00" y="-1.65" angle="90.00" type="DEFAULT_VEHTYPE" speed="0.00" pos="45.00" lane="VODUGES_beg_0" slope="0.00"/>
    </timestep>
    <timestep time="29.00">
        <vehicle id="overtaking" x="37.50" y="-1.65" angle="90.00" type="DEFAULT_VEHTYPE" speed="0.00" pos="37.50" lane="VODUGES_beg_0" slope="0.00"/>
        <vehicle id="stopped" x="62.74" y="-1.65" angle="90.00" type="DEFAULT_VEHTYPE" speed="0.00" pos="7.99" lane="VODUGES_end_0" slope="0.00"/>
        <vehicle id="stopped2" x="45.00" y="-1.65" angle="90.00" type="DEFAULT_VEHTYPE" speed="0.00" pos="45.00" lane="VODUGES_beg_0" slope="0.00"/>
    </timestep>
    <timestep time="30.00">
        <vehicle id="overtaking" x="37.50" y="-1.65" angle="90.00" type="DEFAULT_VEHTYPE" speed="0.00" pos="37.50" lane="VODUGES_beg_0" slope="0.00"/>
        <vehicle id="stopped" x="62.74" y="-1.65" angle="90.00" type="DEFAULT_VEHTYPE" speed="0.00" pos="7.99" lane="VODUGES_end_0" slope="0.00"/>
        <vehicle id="stopped2" x="45.00" y="-1.65" angle="90.00" type="DEFAULT_VEHTYPE" speed="0.00" pos="45.00" lane="VODUGES_beg_0" slope="0.00"/>
    </timestep>
    <timestep time="31.00">
        <vehicle id="overtaking" x="37.50" y="-1.65" angle="90.00" type="DEFAULT_VEHTYPE" speed="0.00" pos="37.50" lane="VODUGES_beg_0" slope="0.00"/>
        <vehicle id="stopped" x="62.74" y="-1.65" angle="90.00" type="DEFAULT_VEHTYPE" speed="0.00" pos="7.99" lane="VODUGES_end_0" slope="0.00"/>
        <vehicle id="stopped2" x="45.00" y="-1.65" angle="90.00" type="DEFAULT_VEHTYPE" speed="0.00" pos="45.00" lane="VODUGES_beg_0" slope="0.00"/>
    </timestep>
    <timestep time="32.00">
        <vehicle id="overtaking" x="37.50" y="-1.65" angle="90.00" type="DEFAULT_VEHTYPE" speed="0.00" pos="37.50" lane="VODUGES_beg_0" slope="0.00"/>
        <vehicle id="stopped" x="62.74" y="-1.65" angle="90.00" type="DEFAULT_VEHTYPE" speed="0.00" pos="7.99" lane="VODUGES_end_0" slope="0.00"/>
        <vehicle id="stopped2" x="45.00" y="-1.65" angle="90.00" type="DEFAULT_VEHTYPE" speed="0.00" pos="45.00" lane="VODUGES_beg_0" slope="0.00"/>
    </timestep>
    <timestep time="33.00">
        <vehicle id="overtaking" x="37.50" y="-1.65" angle="90.00" type="DEFAULT_VEHTYPE" speed="0.00" pos="37.50" lane="VODUGES_beg_0" slope="0.00"/>
        <vehicle id="stopped" x="62.74" y="-1.65" angle="90.00" type="DEFAULT_VEHTYPE" speed="0.00" pos="7.99" lane="VODUGES_end_0" slope="0.00"/>
        <vehicle id="stopped2" x="45.00" y="-1.65" angle="90.00" type="DEFAULT_VEHTYPE" speed="0.00" pos="45.00" lane="VODUGES_beg_0" slope="0.00"/>
    </timestep>
    <timestep time="34.00">
        <vehicle id="overtaking" x="37.50" y="-1.65" angle="90.00" type="DEFAULT_VEHTYPE" speed="0.00" pos="37.50" lane="VODUGES_beg_0" slope="0.00"/>
        <vehicle id="stopped" x="62.74" y="-1.65" angle="90.00" type="DEFAULT_VEHTYPE" speed="0.00" pos="7.99" lane="VODUGES_end_0" slope="0.00"/>
        <vehicle id="stopped2" x="45.00" y="-1.65" angle="90.00" type="DEFAULT_VEHTYPE" speed="0.00" pos="45.00" lane="VODUGES_beg_0" slope="0.00"/>
    </timestep>
    <timestep time="35.00">
        <vehicle id="overtaking" x="37.50" y="-1.65" angle="90.00" type="DEFAULT_VEHTYPE" speed="0.00" pos="37.50" lane="VODUGES_beg_0" slope="0.00"/>
        <vehicle id="stopped" x="62.74" y="-1.65" angle="90.00" type="DEFAULT_VEHTYPE" speed="0.00" pos="7.99" lane="VODUGES_end_0" slope="0.00"/>
        <vehicle id="stopped2" x="45.00" y="-1.65" angle="90.00" type="DEFAULT_VEHTYPE" speed="0.00" pos="45.00" lane="VODUGES_beg_0" slope="0.00"/>
    </timestep>
    <timestep time="36.00">
        <vehicle id="overtaking" x="37.50" y="-1.65" angle="90.00" type="DEFAULT_VEHTYPE" speed="0.00" pos="37.50" lane="VODUGES_beg_0" slope="0.00"/>
        <vehicle id="stopped" x="62.74" y="-1.65" angle="90.00" type="DEFAULT_VEHTYPE" speed="0.00" pos="7.99" lane="VODUGES_end_0" slope="0.00"/>
        <vehicle id="stopped2" x="45.00" y="-1.65" angle="90.00" type="DEFAULT_VEHTYPE" speed="0.00" pos="45.00" lane="VODUGES_beg_0" slope="0.00"/>
    </timestep>
    <timestep time="37.00">
        <vehicle id="overtaking" x="37.50" y="-1.65" angle="90.00" type="DEFAULT_VEHTYPE" speed="0.00" pos="37.50" lane="VODUGES_beg_0" slope="0.00"/>
        <vehicle id="stopped" x="62.74" y="-1.65" angle="90.00" type="DEFAULT_VEHTYPE" speed="0.00" pos="7.99" lane="VODUGES_end_0" slope="0.00"/>
        <vehicle id="stopped2" x="45.00" y="-1.65" angle="90.00" type="DEFAULT_VEHTYPE" speed="0.00" pos="45.00" lane="VODUGES_beg_0" slope="0.00"/>
    </timestep>
    <timestep time="38.00">
        <vehicle id="overtaking" x="37.50" y="-1.65" angle="90.00" type="DEFAULT_VEHTYPE" speed="0.00" pos="37.50" lane="VODUGES_beg_0" slope="0.00"/>
        <vehicle id="stopped" x="62.74" y="-1.65" angle="90.00" type="DEFAULT_VEHTYPE" speed="0.00" pos="7.99" lane="VODUGES_end_0" slope="0.00"/>
        <vehicle id="stopped2" x="45.00" y="-1.65" angle="90.00" type="DEFAULT_VEHTYPE" speed="0.00" pos="45.00" lane="VODUGES_beg_0" slope="0.00"/>
    </timestep>
    <timestep time="39.00">
        <vehicle id="overtaking" x="37.50" y="-1.65" angle="90.00" type="DEFAULT_VEHTYPE" speed="0.00" pos="37.50" lane="VODUGES_beg_0" slope="0.00"/>
        <vehicle id="stopped" x="62.74" y="-1.65" angle="90.00" type="DEFAULT_VEHTYPE" speed="0.00" pos="7.99" lane="VODUGES_end_0" slope="0.00"/>
        <vehicle id="stopped2" x="45.00" y="-1.65" angle="90.00" type="DEFAULT_VEHTYPE" speed="0.00" pos="45.00" lane="VODUGES_beg_0" slope="0.00"/>
    </timestep>
    <timestep time="40.00">
        <vehicle id="overtaking" x="37.50" y="-1.65" angle="90.00" type="DEFAULT_VEHTYPE" speed="0.00" pos="37.50" lane="VODUGES_beg_0" slope="0.00"/>
        <vehicle id="stopped" x="62.74" y="-1.65" angle="90.00" type="DEFAULT_VEHTYPE" speed="0.00" pos="7.99" lane="VODUGES_end_0" slope="0.00"/>
        <vehicle id="stopped2" x="45.00" y="-1.65" angle="90.00" type="DEFAULT_VEHTYPE" speed="0.00" pos="45.00" lane="VODUGES_beg_0" slope="0.00"/>
    </timestep>
    <timestep time="41.00">
        <vehicle id="overtaking" x="37.50" y="-1.65" angle="90.00" type="DEFAULT_VEHTYPE" speed="0.00" pos="37.50" lane="VODUGES_beg_0" slope="0.00"/>
        <vehicle id="stopped" x="62.74" y="-1.65" angle="90.00" type="DEFAULT_VEHTYPE" speed="0.00" pos="7.99" lane="VODUGES_end_0" slope="0.00"/>
        <vehicle id="stopped2" x="45.00" y="-1.65" angle="90.00" type="DEFAULT_VEHTYPE" speed="0.00" pos="45.00" lane="VODUGES_beg_0" slope="0.00"/>
    </timestep>
    <timestep time="42.00">
        <vehicle id="overtaking" x="37.50" y="-1.65" angle="90.00" type="DEFAULT_VEHTYPE" speed="0.00" pos="37.50" lane="VODUGES_beg_0" slope="0.00"/>
        <vehicle id="stopped" x="62.74" y="-1.65" angle="90.00" type="DEFAULT_VEHTYPE" speed="0.00" pos="7.99" lane="VODUGES_end_0" slope="0.00"/>
        <vehicle id="stopped2" x="45.00" y="-1.65" angle="90.00" type="DEFAULT_VEHTYPE" speed="0.00" pos="45.00" lane="VODUGES_beg_0" slope="0.00"/>
    </timestep>
    <timestep time="43.00">
        <vehicle id="overtaking" x="37.50" y="-1.65" angle="90.00" type="DEFAULT_VEHTYPE" speed="0.00" pos="37.50" lane="VODUGES_beg_0" slope="0.00"/>
        <vehicle id="stopped" x="62.74" y="-1.65" angle="90.00" type="DEFAULT_VEHTYPE" speed="0.00" pos="7.99" lane="VODUGES_end_0" slope="0.00"/>
        <vehicle id="stopped2" x="45.00" y="-1.65" angle="90.00" type="DEFAULT_VEHTYPE" speed="0.00" pos="45.00" lane="VODUGES_beg_0" slope="0.00"/>
    </timestep>
    <timestep time="44.00">
        <vehicle id="overtaking" x="37.50" y="-1.65" angle="90.00" type="DEFAULT_VEHTYPE" speed="0.00" pos="37.50" lane="VODUGES_beg_0" slope="0.00"/>
        <vehicle id="stopped" x="62.74" y="-1.65" angle="90.00" type="DEFAULT_VEHTYPE" speed="0.00" pos="7.99" lane="VODUGES_end_0" slope="0.00"/>
        <vehicle id="stopped2" x="45.00" y="-1.65" angle="90.00" type="DEFAULT_VEHTYPE" speed="0.00" pos="45.00" lane="VODUGES_beg_0" slope="0.00"/>
    </timestep>
    <timestep time="45.00">
        <vehicle id="overtaking" x="37.50" y="-1.65" angle="90.00" type="DEFAULT_VEHTYPE" speed="0.00" pos="37.50" lane="VODUGES_beg_0" slope="0.00"/>
        <vehicle id="stopped" x="62.74" y="-1.65" angle="90.00" type="DEFAULT_VEHTYPE" speed="0.00" pos="7.99" lane="VODUGES_end_0" slope="0.00"/>
        <vehicle id="stopped2" x="45.00" y="-1.65" angle="90.00" type="DEFAULT_VEHTYPE" speed="0.00" pos="45.00" lane="VODUGES_beg_0" slope="0.00"/>
    </timestep>
    <timestep time="46.00">
        <vehicle id="overtaking" x="37.50" y="-1.65" angle="90.00" type="DEFAULT_VEHTYPE" speed="0.00" pos="37.50" lane="VODUGES_beg_0" slope="0.00"/>
        <vehicle id="stopped" x="62.74" y="-1.65" angle="90.00" type="DEFAULT_VEHTYPE" speed="0.00" pos="7.99" lane="VODUGES_end_0" slope="0.00"/>
        <vehicle id="stopped2" x="45.00" y="-1.65" angle="90.00" type="DEFAULT_VEHTYPE" speed="0.00" pos="45.00" lane="VODUGES_beg_0" slope="0.00"/>
    </timestep>
    <timestep time="47.00">