<?xml version="1.0" encoding="UTF-8"?>

<!-- generated on Thu Apr 16 17:08:54 2020 by Eclipse SUMO Version v1_5_0+1170-34783558b6
This data file and the accompanying materials
are made available under the terms of the Eclipse Public License v2.0
which accompanies this distribution, and is available at
http://www.eclipse.org/legal/epl-v20.html
SPDX-License-Identifier: EPL-2.0
<configuration xmlns:xsi="http://www.w3.org/2001/XMLSchema-instance" xsi:noNamespaceSchemaLocation="http://sumo.dlr.de/xsd/sumoConfiguration.xsd">

    <input>
        <net-file value="net.net.xml"/>
        <route-files value="input_routes.rou.xml"/>
    </input>

    <output>
        <write-license value="true"/>
        <tripinfo-output value="tripinfos.xml"/>
    </output>

    <processing>
        <default.speeddev value="0"/>
    </processing>

    <report>
        <verbose value="true"/>
        <xml-validation value="never"/>
        <duration-log.disable value="true"/>
        <no-step-log value="true"/>
    </report>

</configuration>
-->

<tripinfos xmlns:xsi="http://www.w3.org/2001/XMLSchema-instance" xsi:noNamespaceSchemaLocation="http://sumo.dlr.de/xsd/tripinfo_file.xsd">
    <tripinfo id="A" depart="0.00" departLane="main_beg_0" departPos="5.10" departSpeed="30.00" departDelay="0.00" arrival="13.00" arrivalLane="ramp_end_0" arrivalPos="0.00" arrivalSpeed="10.72" duration="13.00" routeLength="302.89" waitingTime="0.00" waitingCount="0" stopTime="0.00" timeLoss="2.37" rerouteNo="0" devices="tripinfo_A" vType="t0" speedFactor="1.00" vaporized=""/>
    <tripinfo id="B" depart="0.00" departLane="ramp_beg_0" departPos="145.00" departSpeed="13.89" departDelay="0.00" arrival="14.00" arrivalLane="main_end_0" arrivalPos="0.00" arrivalSpeed="9.63" duration="14.00" routeLength="184.84" waitingTime="0.00" waitingCount="0" stopTime="0.00" timeLoss="5.48" rerouteNo="0" devices="tripinfo_B" vType="t0" speedFactor="1.00" vaporized=""/>
</tripinfos>
