<?xml version="1.0" encoding="UTF-8"?>

<!-- generated on Wed May  4 14:50:58 2016 by SUMO Version dev-SVN-r20645
<?xml version="1.0" encoding="UTF-8"?>

<configuration xmlns:xsi="http://www.w3.org/2001/XMLSchema-instance" xsi:noNamespaceSchemaLocation="http://sumo.dlr.de/xsd/sumoConfiguration.xsd">

    <input>
        <net-file value="net.net.xml"/>
        <route-files value="input_routes.rou.xml"/>
        <additional-files value="input_additional.add.xml"/>
    </input>

    <time>
        <begin value="0"/>
        <end value="10000"/>
    </time>

    <report>
        <xml-validation value="never"/>
        <duration-log.disable value="true"/>
        <no-step-log value="true"/>
    </report>

    <mesoscopic>
        <mesosim value="true"/>
    </mesoscopic>

</configuration>
-->

<meandata xmlns:xsi="http://www.w3.org/2001/XMLSchema-instance" xsi:noNamespaceSchemaLocation="http://sumo.dlr.de/xsd/meandata_file.xsd">
    <interval begin="0.00" end="60.00" id="dump_60">
        <edge id="1/1to2/1" sampledSeconds="1302.33" traveltime="52.42" density="22.15" occupancy="11.07" waitingTime="0.00" speed="18.69" departed="44" arrived="0" entered="0" left="7" laneChangedFrom="0" laneChangedTo="0"/>
        <edge id="2/1to3/1" sampledSeconds="33.67" traveltime="49.99" density="0.57" occupancy="0.29" waitingTime="0.00" speed="19.60" departed="0" arrived="0" entered="7" left="0" laneChangedFrom="0" laneChangedTo="0"/>
    </interval>
    <interval begin="60.00" end="120.00" id="dump_60">
        <edge id="1/1to2/1" sampledSeconds="2211.17" traveltime="51.59" density="37.61" occupancy="18.80" waitingTime="0.00" speed="18.99" departed="43" arrived="0" entered="0" left="43" laneChangedFrom="0" laneChangedTo="0"/>
        <edge id="2/1to3/1" sampledSeconds="1562.95" traveltime="49.99" density="26.58" occupancy="13.29" waitingTime="0.00" speed="19.60" departed="0" arrived="0" entered="43" left="14" laneChangedFrom="0" laneChangedTo="0"/>
        <edge id="3/1to4/1" sampledSeconds="138.88" traveltime="49.99" density="2.36" occupancy="1.18" waitingTime="0.00" speed="19.60" departed="0" arrived="0" entered="14" left="0" laneChangedFrom="0" laneChangedTo="0"/>
    </interval>
    <interval begin="120.00" end="180.00" id="dump_60">
        <edge id="1/1to2/1" sampledSeconds="2210.77" traveltime="51.59" density="37.60" occupancy="18.80" waitingTime="0.00" speed="19.00" departed="43" arrived="0" entered="0" left="43" laneChangedFrom="0" laneChangedTo="0"/>
        <edge id="2/1to3/1" sampledSeconds="2142.37" traveltime="49.99" density="36.44" occupancy="18.22" waitingTime="0.00" speed="19.60" departed="0" arrived="0" entered="43" left="43" laneChangedFrom="0" laneChangedTo="0"/>
        <edge id="3/1to4/1" sampledSeconds="1815.23" traveltime="49.99" density="30.87" occupancy="15.44" waitingTime="0.00" speed="19.60" departed="0" arrived="0" entered="43" left="21" laneChangedFrom="0" laneChangedTo="0"/>
        <edge id="4/1to5/1" sampledSeconds="315.63" traveltime="49.99" density="5.37" occupancy="2.68" waitingTime="0.00" speed="19.60" departed="0" arrived="0" entered="21" left="0" laneChangedFrom="0" laneChangedTo="0"/>
    </interval>
    <interval begin="180.00" end="240.00" id="dump_60">
        <edge id="1/1to2/1" sampledSeconds="2211.37" traveltime="51.59" density="37.61" occupancy="18.81" waitingTime="0.00" speed="18.99" departed="43" arrived="0" entered="0" left="43" laneChangedFrom="0" laneChangedTo="0"/>
        <edge id="2/1to3/1" sampledSeconds="2142.37" traveltime="49.99" density="36.44" occupancy="18.22" waitingTime="0.00" speed="19.60" departed="0" arrived="0" entered="43" left="43" laneChangedFrom="0" laneChangedTo="0"/>
        <edge id="3/1to4/1" sampledSeconds="2142.37" traveltime="49.99" density="36.44" occupancy="18.22" waitingTime="0.00" speed="19.60" departed="0" arrived="0" entered="43" left="43" laneChangedFrom="0" laneChangedTo="0"/>
        <edge id="4/1to5/1" sampledSeconds="1995.97" traveltime="49.99" density="33.95" occupancy="16.97" waitingTime="0.00" speed="19.60" departed="0" arrived="0" entered="43" left="28" laneChangedFrom="0" laneChangedTo="0"/>
        <edge id="5/1to6/1" sampledSeconds="563.92" traveltime="49.99" density="9.59" occupancy="4.80" waitingTime="0.00" speed="19.60" departed="0" arrived="0" entered="28" left="0" laneChangedFrom="0" laneChangedTo="0"/>
    </interval>
    <interval begin="240.00" end="300.00" id="dump_60">
        <edge id="1/1to2/1" sampledSeconds="2210.78" traveltime="51.59" density="37.60" occupancy="18.80" waitingTime="0.00" speed="18.99" departed="43" arrived="0" entered="0" left="42" laneChangedFrom="0" laneChangedTo="0"/>
        <edge id="2/1to3/1" sampledSeconds="2142.56" traveltime="49.99" density="36.44" occupancy="18.22" waitingTime="0.00" speed="19.60" departed="0" arrived="0" entered="42" left="43" laneChangedFrom="0" laneChangedTo="0"/>
        <edge id="3/1to4/1" sampledSeconds="2142.37" traveltime="49.99" density="36.44" occupancy="18.22" waitingTime="0.00" speed="19.60" departed="0" arrived="0" entered="43" left="43" laneChangedFrom="0" laneChangedTo="0"/>
        <edge id="4/1to5/1" sampledSeconds="2142.37" traveltime="49.99" density="36.44" occupancy="18.22" waitingTime="0.00" speed="19.60" departed="0" arrived="0" entered="43" left="43" laneChangedFrom="0" laneChangedTo="0"/>
        <edge id="5/1to6/1" sampledSeconds="2105.12" traveltime="49.99" density="35.80" occupancy="17.90" waitingTime="0.00" speed="19.60" departed="0" arrived="0" entered="43" left="36" laneChangedFrom="0" laneChangedTo="0"/>
        <edge id="6/1to7/1" sampledSeconds="883.80" traveltime="49.99" density="15.03" occupancy="7.52" waitingTime="0.00" speed="19.60" departed="0" arrived="0" entered="36" left="0" laneChangedFrom="0" laneChangedTo="0"/>
    </interval>
    <interval begin="300.00" end="360.00" id="dump_60">
        <edge id="1/1to2/1" sampledSeconds="2211.37" traveltime="51.59" density="37.61" occupancy="18.81" waitingTime="0.00" speed="18.99" departed="42" arrived="0" entered="0" left="43" laneChangedFrom="0" laneChangedTo="0"/>
        <edge id="2/1to3/1" sampledSeconds="2142.57" traveltime="49.99" density="36.44" occupancy="18.22" waitingTime="0.00" speed="19.60" departed="0" arrived="0" entered="43" left="43" laneChangedFrom="0" laneChangedTo="0"/>
        <edge id="3/1to4/1" sampledSeconds="2142.37" traveltime="49.99" density="36.44" occupancy="18.22" waitingTime="0.00" speed="19.60" departed="0" arrived="0" entered="43" left="43" laneChangedFrom="0" laneChangedTo="0"/>
        <edge id="4/1to5/1" sampledSeconds="2142.37" traveltime="49.99" density="36.44" occupancy="18.22" waitingTime="0.00" speed="19.60" departed="0" arrived="0" entered="43" left="43" laneChangedFrom="0" laneChangedTo="0"/>
        <edge id="5/1to6/1" sampledSeconds="2142.42" traveltime="49.99" density="36.44" occupancy="18.22" waitingTime="0.00" speed="19.60" departed="0" arrived="0" entered="43" left="42" laneChangedFrom="0" laneChangedTo="0"/>
        <edge id="6/1to7/1" sampledSeconds="2142.52" traveltime="49.99" density="36.44" occupancy="18.22" waitingTime="0.00" speed="19.60" departed="0" arrived="0" entered="42" left="43" laneChangedFrom="0" laneChangedTo="0"/>
        <edge id="7/1to8/1" sampledSeconds="1241.29" traveltime="49.99" density="21.11" occupancy="10.56" waitingTime="0.00" speed="19.60" departed="0" arrived="0" entered="43" left="7" laneChangedFrom="0" laneChangedTo="0"/>
        <edge id="8/1to9/1" sampledSeconds="34.09" traveltime="49.99" density="0.58" occupancy="0.29" waitingTime="0.00" speed="19.60" departed="0" arrived="0" entered="7" left="0" laneChangedFrom="0" laneChangedTo="0"/>
    </interval>
    <interval begin="360.00" end="420.00" id="dump_60">
        <edge id="1/1to2/1" sampledSeconds="2210.97" traveltime="51.59" density="37.60" occupancy="18.80" waitingTime="0.00" speed="18.99" departed="43" arrived="0" entered="0" left="43" laneChangedFrom="0" laneChangedTo="0"/>
        <edge id="2/1to3/1" sampledSeconds="2142.39" traveltime="49.99" density="36.44" occupancy="18.22" waitingTime="0.00" speed="19.60" departed="0" arrived="0" entered="43" left="42" laneChangedFrom="0" laneChangedTo="0"/>
        <edge id="3/1to4/1" sampledSeconds="2142.55" traveltime="49.99" density="36.44" occupancy="18.22" waitingTime="0.00" speed="19.60" departed="0" arrived="0" entered="42" left="43" laneChangedFrom="0" laneChangedTo="0"/>
        <edge id="4/1to5/1" sampledSeconds="2142.37" traveltime="49.99" density="36.44" occupancy="18.22" waitingTime="0.00" speed="19.60" departed="0" arrived="0" entered="43" left="43" laneChangedFrom="0" laneChangedTo="0"/>
        <edge id="5/1to6/1" sampledSeconds="2142.37" traveltime="49.99" density="36.44" occupancy="18.22" waitingTime="0.00" speed="19.60" departed="0" arrived="0" entered="43" left="43" laneChangedFrom="0" laneChangedTo="0"/>
        <edge id="6/1to7/1" sampledSeconds="2142.57" traveltime="49.99" density="36.44" occupancy="18.22" waitingTime="0.00" speed="19.60" departed="0" arrived="0" entered="43" left="43" laneChangedFrom="0" laneChangedTo="0"/>
        <edge id="7/1to8/1" sampledSeconds="2142.37" traveltime="49.99" density="36.44" occupancy="18.22" waitingTime="0.00" speed="19.60" departed="0" arrived="0" entered="43" left="43" laneChangedFrom="0" laneChangedTo="0"/>
        <edge id="8/1to9/1" sampledSeconds="1564.69" traveltime="49.99" density="26.61" occupancy="13.31" waitingTime="0.00" speed="19.60" departed="0" arrived="0" entered="43" left="14" laneChangedFrom="0" laneChangedTo="0"/>
        <edge id="9/1to10/1" sampledSeconds="139.72" traveltime="49.99" density="2.38" occupancy="1.19" waitingTime="0.00" speed="19.60" departed="0" arrived="0" entered="14" left="0" laneChangedFrom="0" laneChangedTo="0"/>
    </interval>
    <interval begin="420.00" end="480.00" id="dump_60">
        <edge id="1/1to2/1" sampledSeconds="2210.57" traveltime="51.59" density="37.60" occupancy="18.80" waitingTime="0.00" speed="19.00" departed="43" arrived="0" entered="0" left="43" laneChangedFrom="0" laneChangedTo="0"/>
        <edge id="10/1to1/1" sampledSeconds="316.89" traveltime="49.99" density="5.39" occupancy="2.69" waitingTime="0.00" speed="19.60" departed="0" arrived="0" entered="21" left="0" laneChangedFrom="0" laneChangedTo="0"/>
        <edge id="2/1to3/1" sampledSeconds="2142.37" traveltime="49.99" density="36.44" occupancy="18.22" waitingTime="0.00" speed="19.60" departed="0" arrived="0" entered="43" left="43" laneChangedFrom="0" laneChangedTo="0"/>
        <edge id="3/1to4/1" sampledSeconds="2142.57" traveltime="49.99" density="36.44" occupancy="18.22" waitingTime="0.00" speed="19.60" departed="0" arrived="0" entered="43" left="43" laneChangedFrom="0" laneChangedTo="0"/>
        <edge id="4/1to5/1" sampledSeconds="2142.37" traveltime="49.99" density="36.44" occupancy="18.22" waitingTime="0.00" speed="19.60" departed="0" arrived="0" entered="43" left="43" laneChangedFrom="0" laneChangedTo="0"/>
        <edge id="5/1to6/1" sampledSeconds="2142.37" traveltime="49.99" density="36.44" occupancy="18.22" waitingTime="0.00" speed="19.60" departed="0" arrived="0" entered="43" left="43" laneChangedFrom="0" laneChangedTo="0"/>
        <edge id="6/1to7/1" sampledSeconds="2142.43" traveltime="49.99" density="36.44" occupancy="18.22" waitingTime="0.00" speed="19.60" departed="0" arrived="0" entered="43" left="42" laneChangedFrom="0" laneChangedTo="0"/>
        <edge id="7/1to8/1" sampledSeconds="2142.51" traveltime="49.99" density="36.44" occupancy="18.22" waitingTime="0.00" speed="19.60" departed="0" arrived="0" entered="42" left="43" laneChangedFrom="0" laneChangedTo="0"/>
        <edge id="8/1to9/1" sampledSeconds="2142.37" traveltime="49.99" density="36.44" occupancy="18.22" waitingTime="0.00" speed="19.60" departed="0" arrived="0" entered="43" left="43" laneChangedFrom="0" laneChangedTo="0"/>
        <edge id="9/1to10/1" sampledSeconds="1816.55" traveltime="49.99" density="30.90" occupancy="15.45" waitingTime="0.00" speed="19.60" departed="0" arrived="0" entered="43" left="21" laneChangedFrom="0" laneChangedTo="0"/>
    </interval>
    <interval begin="480.00" end="540.00" id="dump_60">
        <edge id="1/1to2/1" sampledSeconds="2283.17" traveltime="57.65" density="38.83" occupancy="19.42" waitingTime="0.00" speed="17.00" departed="18" arrived="0" entered="25" left="43" laneChangedFrom="0" laneChangedTo="0"/>
        <edge id="10/1to1/1" sampledSeconds="2011.47" traveltime="50.83" density="34.21" occupancy="17.11" waitingTime="0.00" speed="19.28" departed="0" arrived="0" entered="43" left="25" laneChangedFrom="0" laneChangedTo="0"/>
        <edge id="2/1to3/1" sampledSeconds="2142.37" traveltime="49.99" density="36.44" occupancy="18.22" waitingTime="0.00" speed="19.60" departed="0" arrived="0" entered="43" left="43" laneChangedFrom="0" laneChangedTo="0"/>
        <edge id="3/1to4/1" sampledSeconds="2142.40" traveltime="49.99" density="36.44" occupancy="18.22" waitingTime="0.00" speed="19.60" departed="0" arrived="0" entered="43" left="42" laneChangedFrom="0" laneChangedTo="0"/>
        <edge id="4/1to5/1" sampledSeconds="2142.54" traveltime="49.99" density="36.44" occupancy="18.22" waitingTime="0.00" speed="19.60" departed="0" arrived="0" entered="42" left="43" laneChangedFrom="0" laneChangedTo="0"/>
        <edge id="5/1to6/1" sampledSeconds="2142.37" traveltime="49.99" density="36.44" occupancy="18.22" waitingTime="0.00" speed="19.60" departed="0" arrived="0" entered="43" left="43" laneChangedFrom="0" laneChangedTo="0"/>
        <edge id="6/1to7/1" sampledSeconds="2142.37" traveltime="49.99" density="36.44" occupancy="18.22" waitingTime="0.00" speed="19.60" departed="0" arrived="0" entered="43" left="43" laneChangedFrom="0" laneChangedTo="0"/>
        <edge id="7/1to8/1" sampledSeconds="2142.57" traveltime="49.99" density="36.44" occupancy="18.22" waitingTime="0.00" speed="19.60" departed="0" arrived="0" entered="43" left="43" laneChangedFrom="0" laneChangedTo="0"/>
        <edge id="8/1to9/1" sampledSeconds="2142.37" traveltime="49.99" density="36.44" occupancy="18.22" waitingTime="0.00" speed="19.60" departed="0" arrived="0" entered="43" left="43" laneChangedFrom="0" laneChangedTo="0"/>
        <edge id="9/1to10/1" sampledSeconds="2142.37" traveltime="49.99" density="36.44" occupancy="18.22" waitingTime="0.00" speed="19.60" departed="0" arrived="0" entered="43" left="43" laneChangedFrom="0" laneChangedTo="0"/>
    </interval>
    <interval begin="540.00" end="600.00" id="dump_60">
        <edge id="1/1to2/1" sampledSeconds="2136.68" traveltime="70.87" density="36.34" occupancy="18.17" waitingTime="0.00" speed="13.83" departed="27" arrived="0" entered="3" left="32" laneChangedFrom="0" laneChangedTo="0"/>
        <edge id="10/1to1/1" sampledSeconds="3552.87" traveltime="105.10" density="60.43" occupancy="30.21" waitingTime="0.00" speed="9.32" departed="0" arrived="0" entered="43" left="3" laneChangedFrom="0" laneChangedTo="0"/>
        <edge id="2/1to3/1" sampledSeconds="1853.06" traveltime="49.99" density="31.52" occupancy="15.76" waitingTime="0.00" speed="19.60" departed="0" arrived="0" entered="32" left="43" laneChangedFrom="0" laneChangedTo="0"/>
        <edge id="3/1to4/1" sampledSeconds="2141.77" traveltime="49.99" density="36.43" occupancy="18.21" waitingTime="0.00" speed="19.60" departed="0" arrived="0" entered="43" left="43" laneChangedFrom="0" laneChangedTo="0"/>
        <edge id="4/1to5/1" sampledSeconds="2142.57" traveltime="49.99" density="36.44" occupancy="18.22" waitingTime="0.00" speed="19.60" departed="0" arrived="0" entered="43" left="43" laneChangedFrom="0" laneChangedTo="0"/>
        <edge id="5/1to6/1" sampledSeconds="2142.37" traveltime="49.99" density="36.44" occupancy="18.22" waitingTime="0.00" speed="19.60" departed="0" arrived="0" entered="43" left="43" laneChangedFrom="0" laneChangedTo="0"/>
        <edge id="6/1to7/1" sampledSeconds="2142.37" traveltime="49.99" density="36.44" occupancy="18.22" waitingTime="0.00" speed="19.60" departed="0" arrived="0" entered="43" left="43" laneChangedFrom="0" laneChangedTo="0"/>
        <edge id="7/1to8/1" sampledSeconds="2142.44" traveltime="49.99" density="36.44" occupancy="18.22" waitingTime="0.00" speed="19.60" departed="0" arrived="0" entered="43" left="42" laneChangedFrom="0" laneChangedTo="0"/>
        <edge id="8/1to9/1" sampledSeconds="2142.50" traveltime="49.99" density="36.44" occupancy="18.22" waitingTime="0.00" speed="19.60" departed="0" arrived="0" entered="42" left="43" laneChangedFrom="0" laneChangedTo="0"/>
        <edge id="9/1to10/1" sampledSeconds="2142.37" traveltime="49.99" density="36.44" occupancy="18.22" waitingTime="0.00" speed="19.60" departed="0" arrived="0" entered="43" left="43" laneChangedFrom="0" laneChangedTo="0"/>
    </interval>
    <interval begin="600.00" end="660.00" id="dump_60">
        <edge id="1/1to2/1" sampledSeconds="2129.70" traveltime="70.99" density="36.22" occupancy="18.11" waitingTime="0.00" speed="13.80" departed="27" arrived="0" entered="3" left="30" laneChangedFrom="0" laneChangedTo="0"/>
        <edge id="10/1to1/1" sampledSeconds="5926.27" traveltime="314.00" density="100.79" occupancy="50.40" waitingTime="0.00" speed="3.12" departed="0" arrived="0" entered="43" left="3" laneChangedFrom="0" laneChangedTo="0"/>
        <edge id="2/1to3/1" sampledSeconds="1499.70" traveltime="49.99" density="25.51" occupancy="12.75" waitingTime="0.00" speed="19.60" departed="0" arrived="0" entered="30" left="30" laneChangedFrom="0" laneChangedTo="0"/>
        <edge id="3/1to4/1" sampledSeconds="1746.37" traveltime="49.99" density="29.70" occupancy="14.85" waitingTime="0.00" speed="19.60" departed="0" arrived="0" entered="30" left="41" laneChangedFrom="0" laneChangedTo="0"/>
        <edge id="4/1to5/1" sampledSeconds="2126.75" traveltime="49.99" density="36.17" occupancy="18.09" waitingTime="0.00" speed="19.60" departed="0" arrived="0" entered="41" left="42" laneChangedFrom="0" laneChangedTo="0"/>
        <edge id="5/1to6/1" sampledSeconds="2142.53" traveltime="49.99" density="36.44" occupancy="18.22" waitingTime="0.00" speed="19.60" departed="0" arrived="0" entered="42" left="43" laneChangedFrom="0" laneChangedTo="0"/>
        <edge id="6/1to7/1" sampledSeconds="2142.37" traveltime="49.99" density="36.44" occupancy="18.22" waitingTime="0.00" speed="19.60" departed="0" arrived="0" entered="43" left="43" laneChangedFrom="0" laneChangedTo="0"/>
        <edge id="7/1to8/1" sampledSeconds="2142.37" traveltime="49.99" density="36.44" occupancy="18.22" waitingTime="0.00" speed="19.60" departed="0" arrived="0" entered="43" left="43" laneChangedFrom="0" laneChangedTo="0"/>
        <edge id="8/1to9/1" sampledSeconds="2142.57" traveltime="49.99" density="36.44" occupancy="18.22" waitingTime="0.00" speed="19.60" departed="0" arrived="0" entered="43" left="43" laneChangedFrom="0" laneChangedTo="0"/>
        <edge id="9/1to10/1" sampledSeconds="2142.37" traveltime="49.99" density="36.44" occupancy="18.22" waitingTime="0.00" speed="19.60" departed="0" arrived="0" entered="43" left="43" laneChangedFrom="0" laneChangedTo="0"/>
    </interval>
    <interval begin="660.00" end="720.00" id="dump_60">
        <edge id="1/1to2/1" sampledSeconds="2129.70" traveltime="70.99" density="36.22" occupancy="18.11" waitingTime="0.00" speed="13.80" departed="26" arrived="0" entered="4" left="30" laneChangedFrom="0" laneChangedTo="0"/>
        <edge id="10/1to1/1" sampledSeconds="7699.65" traveltime="1591.89" density="130.95" occupancy="65.48" waitingTime="1428.02" speed="0.62" departed="0" arrived="0" entered="15" left="4" laneChangedFrom="0" laneChangedTo="0"/>
        <edge id="2/1to3/1" sampledSeconds="1499.70" traveltime="49.99" density="25.51" occupancy="12.75" waitingTime="0.00" speed="19.60" departed="0" arrived="0" entered="30" left="30" laneChangedFrom="0" laneChangedTo="0"/>
        <edge id="3/1to4/1" sampledSeconds="1499.70" traveltime="49.99" density="25.51" occupancy="12.75" waitingTime="0.00" speed="19.60" departed="0" arrived="0" entered="30" left="30" laneChangedFrom="0" laneChangedTo="0"/>
        <edge id="4/1to5/1" sampledSeconds="1654.14" traveltime="49.99" density="28.13" occupancy="14.07" waitingTime="0.00" speed="19.60" departed="0" arrived="0" entered="30" left="39" laneChangedFrom="0" laneChangedTo="0"/>
        <edge id="5/1to6/1" sampledSeconds="2090.41" traveltime="49.99" density="35.55" occupancy="17.78" waitingTime="0.00" speed="19.60" departed="0" arrived="0" entered="39" left="43" laneChangedFrom="0" laneChangedTo="0"/>
        <edge id="6/1to7/1" sampledSeconds="2142.37" traveltime="49.99" density="36.44" occupancy="18.22" waitingTime="0.00" speed="19.60" departed="0" arrived="0" entered="43" left="43" laneChangedFrom="0" laneChangedTo="0"/>
        <edge id="7/1to8/1" sampledSeconds="2142.37" traveltime="49.99" density="36.44" occupancy="18.22" waitingTime="0.00" speed="19.60" departed="0" arrived="0" entered="43" left="43" laneChangedFrom="0" laneChangedTo="0"/>
        <edge id="8/1to9/1" sampledSeconds="2142.45" traveltime="49.99" density="36.44" occupancy="18.22" waitingTime="0.00" speed="19.60" departed="0" arrived="0" entered="43" left="42" laneChangedFrom="0" laneChangedTo="0"/>
        <edge id="9/1to10/1" sampledSeconds="2739.51" traveltime="71.01" density="46.59" occupancy="23.30" waitingTime="0.00" speed="13.80" departed="0" arrived="0" entered="42" left="15" laneChangedFrom="0" laneChangedTo="0"/>
    </interval>
    <interval begin="720.00" end="780.00" id="dump_60">
        <edge id="1/1to2/1" sampledSeconds="2129.70" traveltime="70.99" density="36.22" occupancy="18.11" waitingTime="0.00" speed="13.80" departed="27" arrived="0" entered="3" left="30" laneChangedFrom="0" laneChangedTo="0"/>
        <edge id="10/1to1/1" sampledSeconds="7799.97" traveltime="1985.74" density="132.66" occupancy="66.33" waitingTime="2055.04" speed="0.49" departed="0" arrived="0" entered="3" left="3" laneChangedFrom="0" laneChangedTo="0"/>
        <edge id="2/1to3/1" sampledSeconds="1499.70" traveltime="49.99" density="25.51" occupancy="12.75" waitingTime="0.00" speed="19.60" departed="0" arrived="0" entered="30" left="30" laneChangedFrom="0" laneChangedTo="0"/>
        <edge id="3/1to4/1" sampledSeconds="1499.70" traveltime="49.99" density="25.51" occupancy="12.75" waitingTime="0.00" speed="19.60" departed="0" arrived="0" entered="30" left="30" laneChangedFrom="0" laneChangedTo="0"/>
        <edge id="4/1to5/1" sampledSeconds="1499.70" traveltime="49.99" density="25.51" occupancy="12.75" waitingTime="0.00" speed="19.60" departed="0" arrived="0" entered="30" left="30" laneChangedFrom="0" laneChangedTo="0"/>
        <edge id="5/1to6/1" sampledSeconds="1583.40" traveltime="49.99" density="26.93" occupancy="13.47" waitingTime="0.00" speed="19.60" departed="0" arrived="0" entered="30" left="36" laneChangedFrom="0" laneChangedTo="0"/>
        <edge id="6/1to7/1" sampledSeconds="2032.42" traveltime="49.99" density="34.57" occupancy="17.28" waitingTime="0.00" speed="19.60" departed="0" arrived="0" entered="36" left="43" laneChangedFrom="0" laneChangedTo="0"/>
        <edge id="7/1to8/1" sampledSeconds="2142.37" traveltime="49.99" density="36.44" occupancy="18.22" waitingTime="0.00" speed="19.60" departed="0" arrived="0" entered="43" left="43" laneChangedFrom="0" laneChangedTo="0"/>
        <edge id="8/1to9/1" sampledSeconds="2142.37" traveltime="49.99" density="36.44" occupancy="18.22" waitingTime="0.00" speed="19.60" departed="0" arrived="0" entered="43" left="43" laneChangedFrom="0" laneChangedTo="0"/>
        <edge id="9/1to10/1" sampledSeconds="5009.67" traveltime="205.02" density="85.20" occupancy="42.60" waitingTime="0.00" speed="4.78" departed="0" arrived="0" entered="43" left="3" laneChangedFrom="0" laneChangedTo="0"/>
    </interval>
    <interval begin="780.00" end="840.00" id="dump_60">
        <edge id="1/1to2/1" sampledSeconds="2129.70" traveltime="70.99" density="36.22" occupancy="18.11" waitingTime="0.00" speed="13.80" departed="27" arrived="0" entered="3" left="30" laneChangedFrom="0" laneChangedTo="0"/>
        <edge id="10/1to1/1" sampledSeconds="7799.97" traveltime="2112.19" density="132.66" occupancy="66.33" waitingTime="3036.10" speed="0.46" departed="0" arrived="0" entered="3" left="3" laneChangedFrom="0" laneChangedTo="0"/>
        <edge id="2/1to3/1" sampledSeconds="1499.70" traveltime="49.99" density="25.51" occupancy="12.75" waitingTime="0.00" speed="19.60" departed="0" arrived="0" entered="30" left="30" laneChangedFrom="0" laneChangedTo="0"/>
        <edge id="3/1to4/1" sampledSeconds="1499.70" traveltime="49.99" density="25.51" occupancy="12.75" waitingTime="0.00" speed="19.60" departed="0" arrived="0" entered="30" left="30" laneChangedFrom="0" laneChangedTo="0"/>
        <edge id="4/1to5/1" sampledSeconds="1499.70" traveltime="49.99" density="25.51" occupancy="12.75" waitingTime="0.00" speed="19.60" departed="0" arrived="0" entered="30" left="30" laneChangedFrom="0" laneChangedTo="0"/>
        <edge id="5/1to6/1" sampledSeconds="1499.70" traveltime="49.99" density="25.51" occupancy="12.75" waitingTime="0.00" speed="19.60" departed="0" arrived="0" entered="30" left="30" laneChangedFrom="0" laneChangedTo="0"/>
        <edge id="6/1to7/1" sampledSeconds="1534.26" traveltime="49.99" density="26.09" occupancy="13.05" waitingTime="0.00" speed="19.60" departed="0" arrived="0" entered="30" left="34" laneChangedFrom="0" laneChangedTo="0"/>
        <edge id="7/1to8/1" sampledSeconds="1952.83" traveltime="49.99" density="33.21" occupancy="16.61" waitingTime="0.00" speed="19.60" departed="0" arrived="0" entered="34" left="43" laneChangedFrom="0" laneChangedTo="0"/>
        <edge id="8/1to9/1" sampledSeconds="2267.11" traveltime="54.07" density="38.56" occupancy="19.28" waitingTime="0.00" speed="18.12" departed="0" arrived="0" entered="43" left="30" laneChangedFrom="0" laneChangedTo="0"/>
        <edge id="9/1to10/1" sampledSeconds="7258.33" traveltime="739.38" density="123.45" occupancy="61.72" waitingTime="60.00" speed="1.33" departed="0" arrived="0" entered="30" left="3" laneChangedFrom="0" laneChangedTo="0"/>
    </interval>
    <interval begin="840.00" end="900.00" id="dump_60">
        <edge id="1/1to2/1" sampledSeconds="2129.70" traveltime="70.99" density="36.22" occupancy="18.11" waitingTime="0.00" speed="13.80" departed="26" arrived="0" entered="4" left="30" laneChangedFrom="0" laneChangedTo="0"/>
        <edge id="10/1to1/1" sampledSeconds="7799.96" traveltime="2740.10" density="132.66" occupancy="66.33" waitingTime="4200.18" speed="0.36" departed="0" arrived="0" entered="4" left="4" laneChangedFrom="0" laneChangedTo="0"/>
        <edge id="2/1to3/1" sampledSeconds="1499.70" traveltime="49.99" density="25.51" occupancy="12.75" waitingTime="0.00" speed="19.60" departed="0" arrived="0" entered="30" left="30" laneChangedFrom="0" laneChangedTo="0"/>
        <edge id="3/1to4/1" sampledSeconds="1499.70" traveltime="49.99" density="25.51" occupancy="12.75" waitingTime="0.00" speed="19.60" departed="0" arrived="0" entered="30" left="30" laneChangedFrom="0" laneChangedTo="0"/>
        <edge id="4/1to5/1" sampledSeconds="1499.70" traveltime="49.99" density="25.51" occupancy="12.75" waitingTime="0.00" speed="19.60" departed="0" arrived="0" entered="30" left="30" laneChangedFrom="0" laneChangedTo="0"/>
        <edge id="5/1to6/1" sampledSeconds="1499.70" traveltime="49.99" density="25.51" occupancy="12.75" waitingTime="0.00" speed="19.60" departed="0" arrived="0" entered="30" left="30" laneChangedFrom="0" laneChangedTo="0"/>
        <edge id="6/1to7/1" sampledSeconds="1499.70" traveltime="49.99" density="25.51" occupancy="12.75" waitingTime="0.00" speed="19.60" departed="0" arrived="0" entered="30" left="30" laneChangedFrom="0" laneChangedTo="0"/>
        <edge id="7/1to8/1" sampledSeconds="1506.56" traveltime="49.99" density="25.62" occupancy="12.81" waitingTime="0.00" speed="19.60" departed="0" arrived="0" entered="30" left="32" laneChangedFrom="0" laneChangedTo="0"/>
        <edge id="8/1to9/1" sampledSeconds="3805.32" traveltime="147.23" density="64.72" occupancy="32.36" waitingTime="0.00" speed="6.66" departed="0" arrived="0" entered="32" left="4" laneChangedFrom="0" laneChangedTo="0"/>
        <edge id="9/1to10/1" sampledSeconds="7799.96" traveltime="2383.14" density="132.66" occupancy="66.33" waitingTime="2568.31" speed="0.41" departed="0" arrived="0" entered="4" left="4" laneChangedFrom="0" laneChangedTo="0"/>
    </interval>
    <interval begin="900.00" end="960.00" id="dump_60">
        <edge id="1/1to2/1" sampledSeconds="2129.70" traveltime="70.99" density="36.22" occupancy="18.11" waitingTime="0.00" speed="13.80" departed="27" arrived="0" entered="3" left="30" laneChangedFrom="0" laneChangedTo="0"/>
        <edge id="10/1to1/1" sampledSeconds="7799.97" traveltime="2222.31" density="132.66" occupancy="66.33" waitingTime="3390.14" speed="0.44" departed="0" arrived="0" entered="3" left="3" laneChangedFrom="0" laneChangedTo="0"/>
        <edge id="2/1to3/1" sampledSeconds="1499.70" traveltime="49.99" density="25.51" occupancy="12.75" waitingTime="0.00" speed="19.60" departed="0" arrived="0" entered="30" left="30" laneChangedFrom="0" laneChangedTo="0"/>
        <edge id="3/1to4/1" sampledSeconds="1499.70" traveltime="49.99" density="25.51" occupancy="12.75" waitingTime="0.00" speed="19.60" departed="0" arrived="0" entered="30" left="30" laneChangedFrom="0" laneChangedTo="0"/>
        <edge id="4/1to5/1" sampledSeconds="1499.70" traveltime="49.99" density="25.51" occupancy="12.75" waitingTime="0.00" speed="19.60" departed="0" arrived="0" entered="30" left="30" laneChangedFrom="0" laneChangedTo="0"/>
        <edge id="5/1to6/1" sampledSeconds="1499.70" traveltime="49.99" density="25.51" occupancy="12.75" waitingTime="0.00" speed="19.60" departed="0" arrived="0" entered="30" left="30" laneChangedFrom="0" laneChangedTo="0"/>