<?xml version="1.0" encoding="UTF-8"?>

<!-- generated on 2026-07-17T21:39:03.834662+01:00 by Eclipse SUMO sumo v1_27_1+0309-242f2d87225
This data file and the accompanying materials
are made available under the terms of the Eclipse Public License v2.0
which accompanies this distribution, and is available at
http://www.eclipse.org/legal/epl-v20.html
This file may also be made available under the following Secondary
Licenses when the conditions for such availability set forth in the Eclipse
Public License 2.0 are satisfied: GNU General Public License, version 2
or later which is available at
https://www.gnu.org/licenses/old-licenses/gpl-2.0-standalone.html
SPDX-License-Identifier: EPL-2.0 OR GPL-2.0-or-later
<sumoConfiguration xmlns:xsi="http://www.w3.org/2001/XMLSchema-instance" xsi:noNamespaceSchemaLocation="http://sumo.dlr.de/xsd/sumoConfiguration.xsd">

    <input>
        <net-file value="net.net.xml"/>
        <route-files value="input_routes.rou.xml"/>
        <additional-files value="input_additional.add.xml"/>
    </input>

    <output>
        <write-license value="true"/>
    </output>

    <processing>
        <no-internal-links value="false"/>
        <default.departspeed value="0"/>
        <default.departlane value="first"/>
        <default.speeddev value="0"/>
    </processing>

    <report>
        <xml-validation value="never"/>
        <duration-log.disable value="true"/>
        <duration-log.statistics value="true"/>
        <no-step-log value="true"/>
    </report>

    <mesoscopic>
        <mesosim value="true"/>
        <meso-ltm value="true"/>
    </mesoscopic>

</sumoConfiguration>
-->

<meandata xmlns:xsi="http://www.w3.org/2001/XMLSchema-instance" xsi:noNamespaceSchemaLocation="http://sumo.dlr.de/xsd/meandata_file.xsd">
    <interval begin="0.00" end="600.00" id="ed">
        <edge id="B0C0" sampledSeconds="4597.66" traveltime="17.42" overlapTraveltime="17.87" density="39.81" overlapDensity="39.81" laneDensity="39.81" occupancy="19.90" waitingTime="76.21" timeLoss="940.18" speed="11.05" speedRelative="0.80" departed="0" arrived="0" entered="267" left="261" laneChangedFrom="0" laneChangedTo="0" flow="1583.55"/>
    </interval>
    <interval begin="600.00" end="1051.00" id="ed">
        <edge id="B0C0" sampledSeconds="2661.78" traveltime="13.86" overlapTraveltime="14.22" density="30.66" overlapDensity="30.66" laneDensity="30.66" occupancy="15.33" waitingTime="0.00" timeLoss="0.00" speed="13.89" speedRelative="1.00" departed="0" arrived="0" entered="189" left="195" laneChangedFrom="0" laneChangedTo="0" flow="1533.20"/>
    </interval>
</meandata>
