<?xml version="1.0" encoding="UTF-8"?>

<!-- generated on Tue Nov 17 07:16:25 2020 by Eclipse SUMO sumo Version v1_7_0+1040-d9283c0be9
This data file and the accompanying materials
are made available under the terms of the Eclipse Public License v2.0
which accompanies this distribution, and is available at
http://www.eclipse.org/legal/epl-v20.html
SPDX-License-Identifier: EPL-2.0
<configuration xmlns:xsi="http://www.w3.org/2001/XMLSchema-instance" xsi:noNamespaceSchemaLocation="http://sumo.dlr.de/xsd/sumoConfiguration.xsd">

    <input>
        <net-file value="motorway.net.xml"/>
        <route-files value="input_routes.rou.xml"/>
        <additional-files value="input_additional.add.xml"/>
    </input>

    <output>
        <write-license value="true"/>
    </output>

    <processing>
        <max-depart-delay value="1"/>
        <default.speeddev value="0"/>
        <pedestrian.model value="nonInteracting"/>
    </processing>

    <report>
        <xml-validation value="never"/>
        <xml-validation.routes value="never"/>
        <duration-log.disable value="true"/>
        <no-step-log value="true"/>
    </report>

    <mesoscopic>
        <mesosim value="true"/>
        <meso-junction-control value="true"/>
    </mesoscopic>

</configuration>
-->

<detector xmlns:xsi="http://www.w3.org/2001/XMLSchema-instance" xsi:noNamespaceSchemaLocation="http://sumo.dlr.de/xsd/det_e1meso_file.xsd">
    <interval begin="0.00" end="900.00" id="beg2_0" sampledSeconds="4341.40" density="49.98" laneDensity="24.99" occupancy="12.49" waitingTime="0.00" timeLoss="224.52" speed="18.97" departed="471" arrived="849" entered="386" left="0"/>
    <interval begin="0.00" end="900.00" id="beg2_1" sampledSeconds="4341.40" density="49.98" laneDensity="24.99" occupancy="12.49" waitingTime="0.00" timeLoss="224.52" speed="18.97" departed="471" arrived="849" entered="386" left="0"/>
    <interval begin="900.00" end="1800.00" id="beg2_0" sampledSeconds="3068.63" density="35.33" laneDensity="17.66" occupancy="8.83" waitingTime="0.00" timeLoss="2.33" speed="19.98" departed="3" arrived="637" entered="631" left="0"/>
    <interval begin="900.00" end="1800.00" id="beg2_1" sampledSeconds="3068.63" density="35.33" laneDensity="17.66" occupancy="8.83" waitingTime="0.00" timeLoss="2.33" speed="19.98" departed="3" arrived="637" entered="631" left="0"/>
    <interval begin="1800.00" end="1963.00" id="beg2_0" sampledSeconds="586.40" density="37.27" laneDensity="18.64" occupancy="9.32" waitingTime="0.00" timeLoss="0.02" speed="20.00" departed="0" arrived="124" entered="119" left="0"/>
    <interval begin="1800.00" end="1963.00" id="beg2_1" sampledSeconds="586.40" density="37.27" laneDensity="18.64" occupancy="9.32" waitingTime="0.00" timeLoss="0.02" speed="20.00" departed="0" arrived="124" entered="119" left="0"/>
</detector>
