<?xml version="1.0" encoding="UTF-8"?>

<!-- generated on Mon Mar 30 15:10:23 2020 by Eclipse SUMO Version v1_5_0+1011-3e02c63d25
This data file and the accompanying materials
are made available under the terms of the Eclipse Public License v2.0
which accompanies this distribution, and is available at
http://www.eclipse.org/legal/epl-v20.html
SPDX-License-Identifier: EPL-2.0
<configuration xmlns:xsi="http://www.w3.org/2001/XMLSchema-instance" xsi:noNamespaceSchemaLocation="http://sumo.dlr.de/xsd/sumoConfiguration.xsd">

    <input>
        <net-file value="motorway.net.xml"/>
        <route-files value="input_routes.rou.xml"/>
        <additional-files value="input_additional.add.xml"/>
    </input>

    <output>
        <write-license value="true"/>
    </output>

    <processing>
        <max-depart-delay value="1"/>
        <default.speeddev value="0"/>
    </processing>

    <report>
        <xml-validation value="never"/>
        <duration-log.disable value="true"/>
        <no-step-log value="true"/>
    </report>

</configuration>
-->

<detector xmlns:xsi="http://www.w3.org/2001/XMLSchema-instance" xsi:noNamespaceSchemaLocation="http://sumo.dlr.de/xsd/det_e1_file.xsd">
    <interval begin="0.00" end="900.00" id="beg2_0" nVehContrib="370" flow="1480.00" occupancy="11.67" speed="19.96" harmonicMeanSpeed="19.80" length="5.00" nVehEntered="495"/>
    <interval begin="0.00" end="900.00" id="beg2_1" nVehContrib="367" flow="1468.00" occupancy="11.50" speed="20.00" harmonicMeanSpeed="20.00" length="5.00" nVehEntered="493"/>
    <interval begin="900.00" end="1052.00" id="beg2_0" nVehContrib="69" flow="1634.21" occupancy="12.83" speed="20.00" harmonicMeanSpeed="20.00" length="5.00" nVehEntered="94"/>
    <interval begin="900.00" end="1052.00" id="beg2_1" nVehContrib="69" flow="1634.21" occupancy="12.88" speed="20.00" harmonicMeanSpeed="20.00" length="5.00" nVehEntered="95"/>
</detector>
