<?xml version="1.0" encoding="UTF-8"?>

<!-- generated on Mon Aug 27 12:57:06 2018 by Eclipse SUMO Version cac3710
This data file and the accompanying materials
are made available under the terms of the Eclipse Public License v2.0
which accompanies this distribution, and is available at
http://www.eclipse.org/legal/epl-v20.html
SPDX-License-Identifier: EPL-2.0
<configuration xmlns:xsi="http://www.w3.org/2001/XMLSchema-instance" xsi:noNamespaceSchemaLocation="http://sumo.dlr.de/xsd/sumoConfiguration.xsd">

    <input>
        <net-file value="three_split.net.xml"/>
        <route-files value="input_routes.rou.xml"/>
        <additional-files value="input_additional.add.xml,input_additional2.add.xml"/>
    </input>

    <output>
        <write-license value="true"/>
        <netstate-dump value="rawdump.xml"/>
    </output>

    <time>
        <step-length value="1.0"/>
    </time>

    <processing>
        <default.speeddev value="0"/>
    </processing>

    <report>
        <xml-validation value="never"/>
        <duration-log.disable value="true"/>
        <no-step-log value="true"/>
    </report>

    <gui_only>
        <tracker-interval value="1"/>
    </gui_only>

</configuration>
-->

<netstate xmlns:xsi="http://www.w3.org/2001/XMLSchema-instance" xsi:noNamespaceSchemaLocation="http://sumo.dlr.de/xsd/netstate_file.xsd">
    <timestep time="0.00">
        <edge id="beg">
            <lane id="beg_0">
                <vehicle id="leader" pos="5.10" speed="0.00"/>
            </lane>
        </edge>
    </timestep>
    <timestep time="1.00">
        <edge id="beg">
            <lane id="beg_0">
                <vehicle id="leader" pos="7.70" speed="2.60"/>
            </lane>
        </edge>
    </timestep>
    <timestep time="2.00">
        <edge id="beg">
            <lane id="beg_0">
                <vehicle id="follower" pos="5.10" speed="0.00"/>
                <vehicle id="leader" pos="12.90" speed="5.20"/>
            </lane>
        </edge>
    </timestep>
    <timestep time="3.00">
        <edge id="beg">
            <lane id="beg_0">
                <vehicle id="follower" pos="7.70" speed="2.60"/>
                <vehicle id="leader" pos="20.70" speed="7.80"/>
            </lane>
        </edge>
    </timestep>
    <timestep time="4.00">
        <edge id="beg">
            <lane id="beg_0">
                <vehicle id="follower" pos="12.90" speed="5.20"/>
                <vehicle id="leader" pos="31.10" speed="10.40"/>
            </lane>
        </edge>
    </timestep>
    <timestep time="5.00">
        <edge id="beg">
            <lane id="beg_0">
                <vehicle id="follower" pos="20.70" speed="7.80"/>
                <vehicle id="leader" pos="44.10" speed="13.00"/>
            </lane>
        </edge>
    </timestep>
    <timestep time="6.00">
        <edge id="beg">
            <lane id="beg_0">
                <vehicle id="follower" pos="31.10" speed="10.40"/>
                <vehicle id="leader" pos="59.70" speed="15.60"/>
            </lane>
        </edge>
    </timestep>
    <timestep time="7.00">
        <edge id="beg">
            <lane id="beg_0">
                <vehicle id="follower" pos="44.10" speed="13.00"/>
                <vehicle id="leader" pos="77.90" speed="18.20"/>
            </lane>
        </edge>
    </timestep>
    <timestep time="8.00">
        <edge id="beg">
            <lane id="beg_0">
                <vehicle id="follower" pos="59.70" speed="15.60"/>
                <vehicle id="leader" pos="97.90" speed="20.00"/>
            </lane>
        </edge>
    </timestep>
    <timestep time="9.00">
        <edge id="beg">
            <lane id="beg_0">
                <vehicle id="follower" pos="77.90" speed="18.20"/>
                <vehicle id="leader" pos="117.90" speed="20.00"/>
            </lane>
        </edge>
    </timestep>
    <timestep time="10.00">
        <edge id="beg">
            <lane id="beg_0">
                <vehicle id="follower" pos="98.70" speed="20.80"/>
                <vehicle id="leader" pos="137.90" speed="20.00"/>
            </lane>
        </edge>
    </timestep>
    <timestep time="11.00">
        <edge id="beg">
            <lane id="beg_0">
                <vehicle id="follower" pos="122.10" speed="23.40"/>
                <vehicle id="leader" pos="157.90" speed="20.00"/>
            </lane>
        </edge>
    </timestep>
    <timestep time="12.00">
        <edge id="beg">
            <lane id="beg_0">
                <vehicle id="follower" pos="146.34" speed="24.24"/>
                <vehicle id="leader" pos="177.90" speed="20.00"/>
            </lane>
        </edge>
    </timestep>
    <timestep time="13.00">
        <edge id="beg">
            <lane id="beg_0">
                <vehicle id="follower" pos="169.80" speed="23.47"/>
                <vehicle id="leader" pos="197.90" speed="20.00"/>
            </lane>
        </edge>
    </timestep>
    <timestep time="14.00">
        <edge id="beg">
            <lane id="beg_0">
                <vehicle id="follower" pos="192.64" speed="22.84"/>
                <vehicle id="leader" pos="217.90" speed="20.00"/>
            </lane>
        </edge>
    </timestep>
    <timestep time="15.00">
        <edge id="beg">
            <lane id="beg_0">
                <vehicle id="follower" pos="214.92" speed="22.28"/>
                <vehicle id="leader" pos="237.90" speed="20.00"/>
            </lane>
        </edge>
    </timestep>
    <timestep time="16.00">
        <edge id="beg">
            <lane id="beg_0">
                <vehicle id="follower" pos="236.69" speed="21.77"/>
                <vehicle id="leader" pos="257.90" speed="20.00"/>
            </lane>
        </edge>
    </timestep>
    <timestep time="17.00">
        <edge id="beg">
            <lane id="beg_0">
                <vehicle id="follower" pos="258.07" speed="21.38"/>
                <vehicle id="leader" pos="277.90" speed="20.00"/>
            </lane>
        </edge>
    </timestep>
    <timestep time="18.00">
        <edge id="beg">
            <lane id="beg_0">
                <vehicle id="follower" pos="279.14" speed="21.07"/>
                <vehicle id="leader" pos="297.90" speed="20.00"/>
            </lane>
        </edge>
    </timestep>
    <timestep time="19.00">
        <edge id="beg">
            <lane id="beg_0">
                <vehicle id="follower" pos="299.98" speed="20.83"/>
                <vehicle id="leader" pos="317.90" speed="20.00"/>
            </lane>
        </edge>
    </timestep>
    <timestep time="20.00">
        <edge id="beg">
            <lane id="beg_0">
                <vehicle id="follower" pos="320.63" speed="20.65"/>
                <vehicle id="leader" pos="337.90" speed="20.00"/>
            </lane>
        </edge>
    </timestep>
    <timestep time="21.00">
        <edge id="beg">
            <lane id="beg_0">
                <vehicle id="follower" pos="341.13" speed="20.50"/>
                <vehicle id="leader" pos="357.90" speed="20.00"/>
            </lane>
        </edge>
    </timestep>
    <timestep time="22.00">
        <edge id="beg">
            <lane id="beg_0">
                <vehicle id="follower" pos="361.52" speed="20.39"/>
                <vehicle id="leader" pos="377.90" speed="20.00"/>
            </lane>
        </edge>
    </timestep>
    <timestep time="23.00">
        <edge id="beg">
            <lane id="beg_0">
                <vehicle id="follower" pos="381.83" speed="20.31"/>
                <vehicle id="leader" pos="397.90" speed="20.00"/>
            </lane>
        </edge>
    </timestep>
    <timestep time="24.00">
        <edge id="beg">
            <lane id="beg_0">
                <vehicle id="follower" pos="402.07" speed="20.24"/>
                <vehicle id="leader" pos="417.90" speed="20.00"/>
            </lane>
        </edge>
    </timestep>
    <timestep time="25.00">
        <edge id="beg">
            <lane id="beg_0">
                <vehicle id="follower" pos="422.25" speed="20.18"/>
                <vehicle id="leader" pos="437.90" speed="20.00"/>
            </lane>
        </edge>
    </timestep>
    <timestep time="26.00">
        <edge id="beg">
            <lane id="beg_0">
                <vehicle id="follower" pos="442.40" speed="20.14"/>
                <vehicle id="leader" pos="457.90" speed="20.00"/>
            </lane>
        </edge>
    </timestep>
    <timestep time="27.00">
        <edge id="beg">
            <lane id="beg_0">
                <vehicle id="follower" pos="462.51" speed="20.11"/>
                <vehicle id="leader" pos="477.90" speed="20.00"/>
            </lane>
        </edge>
    </timestep>
    <timestep time="28.00">
        <edge id="beg">
            <lane id="beg_0">
                <vehicle id="follower" pos="482.59" speed="20.09"/>
                <vehicle id="leader" pos="497.90" speed="20.00"/>
            </lane>
        </edge>
    </timestep>
    <timestep time="29.00">
        <edge id="middle">
            <lane id="middle_0">
                <vehicle id="follower" pos="2.66" speed="20.07"/>
                <vehicle id="leader" pos="17.90" speed="20.00"/>
            </lane>
        </edge>
    </timestep>
    <timestep time="30.00">
        <edge id="middle">
            <lane id="middle_0">
                <vehicle id="follower" pos="22.71" speed="20.05"/>
                <vehicle id="leader" pos="37.90" speed="20.00"/>
            </lane>
        </edge>
    </timestep>
    <timestep time="31.00">
        <edge id="middle">
            <lane id="middle_0">
                <vehicle id="follower" pos="42.76" speed="20.04"/>
                <vehicle id="leader" pos="57.90" speed="20.00"/>
            </lane>
        </edge>
    </timestep>
    <timestep time="32.00">
        <edge id="middle">
            <lane id="middle_0">
                <vehicle id="follower" pos="62.79" speed="20.03"/>
                <vehicle id="leader" pos="77.90" speed="20.00"/>
            </lane>
        </edge>
    </timestep>
    <timestep time="33.00">
        <edge id="middle">
            <lane id="middle_0">
                <vehicle id="follower" pos="82.81" speed="20.02"/>
                <vehicle id="leader" pos="97.90" speed="20.00"/>
            </lane>
        </edge>
    </timestep>
    <timestep time="34.00">
        <edge id="middle">
            <lane id="middle_0">
                <vehicle id="follower" pos="102.83" speed="20.02"/>
                <vehicle id="leader" pos="117.90" speed="20.00"/>
            </lane>
        </edge>
    </timestep>
    <timestep time="35.00">
        <edge id="middle">
            <lane id="middle_0">
                <vehicle id="follower" pos="122.85" speed="20.01"/>
                <vehicle id="leader" pos="137.90" speed="20.00"/>
            </lane>
        </edge>
    </timestep>
    <timestep time="36.00">
        <edge id="middle">
            <lane id="middle_0">
                <vehicle id="follower" pos="142.86" speed="20.01"/>
                <vehicle id="leader" pos="157.90" speed="20.00"/>
            </lane>
        </edge>
    </timestep>
    <timestep time="37.00">
        <edge id="middle">
            <lane id="middle_0">
                <vehicle id="follower" pos="162.87" speed="20.01"/>
                <vehicle id="leader" pos="177.26" speed="19.36"/>
            </lane>
        </edge>
    </timestep>
    <timestep time="38.00">
        <edge id="middle">
            <lane id="middle_0">
                <vehicle id="follower" pos="182.16" speed="19.29"/>
                <vehicle id="leader" pos="192.11" speed="14.86"/>
            </lane>
        </edge>
    </timestep>
    <timestep time="39.00">
        <edge id="middle">
            <lane id="middle_0">
                <vehicle id="follower" pos="192.45" speed="10.29"/>
                <vehicle id="leader" pos="202.47" speed="10.36"/>
            </lane>
        </edge>
    </timestep>
    <timestep time="40.00">
        <edge id="middle">
            <lane id="middle_0">
                <vehicle id="follower" pos="202.74" speed="10.29"/>
                <vehicle id="leader" pos="208.32" speed="5.86"/>
            </lane>
        </edge>
    </timestep>
    <timestep time="41.00">
        <edge id="middle">
            <lane id="middle_0">
                <vehicle id="follower" pos="204.03" speed="1.29"/>
                <vehicle id="leader" pos="209.68" speed="1.36"/>
            </lane>
        </edge>
    </timestep>
    <timestep time="42.00">
        <edge id="middle">
            <lane id="middle_0">
                <vehicle id="follower" pos="204.68" speed="0.65"/>
                <vehicle id="leader" pos="209.68" speed="0.00"/>
            </lane>
        </edge>
    </timestep>
    <timestep time="43.00">
        <edge id="middle">
            <lane id="middle_0">
                <vehicle id="follower" pos="204.68" speed="0.00"/>
                <vehicle id="leader" pos="209.68" speed="0.00"/>
            </lane>
        </edge>
    </timestep>
    <timestep time="44.00">
        <edge id="middle">
            <lane id="middle_0">
                <vehicle id="follower" pos="204.68" speed="0.00"/>
                <vehicle id="leader" pos="209.68" speed="0.00"/>
            </lane>
        </edge>
    </timestep>
    <timestep time="45.00">
        <edge id="middle">
            <lane id="middle_0">
                <vehicle id="follower" pos="204.68" speed="0.00"/>
                <vehicle id="leader" pos="209.68" speed="0.00"/>
            </lane>
        </edge>
    </timestep>
    <timestep time="46.00">
        <edge id="middle">
            <lane id="middle_0">
                <vehicle id="follower" pos="204.68" speed="0.00"/>
                <vehicle id="leader" pos="209.68" speed="0.00"/>
            </lane>
        </edge>
    </timestep>
    <timestep time="47.00">
        <edge id="middle">
            <lane id="middle_0">
                <vehicle id="follower" pos="204.68" speed="0.00"/>
                <vehicle id="leader" pos="209.68" speed="0.00"/>
            </lane>
        </edge>
    </timestep>
    <timestep time="48.00">
        <edge id="middle">
            <lane id="middle_0">
                <vehicle id="follower" pos="204.68" speed="0.00"/>
                <vehicle id="leader" pos="212.28" speed="2.60"/>
            </lane>
        </edge>
    </timestep>
    <timestep time="49.00">
        <edge id="middle">
            <lane id="middle_0">
                <vehicle id="follower" pos="207.28" speed="2.60"/>
                <vehicle id="leader" pos="217.48" speed="5.20"/>
            </lane>
        </edge>
    </timestep>
    <timestep time="50.00">
        <edge id="middle">
            <lane id="middle_0">
                <vehicle id="follower" pos="212.48" speed="5.20"/>
                <vehicle id="leader" pos="225.28" speed="7.80"/>
            </lane>
        </edge>
    </timestep>
    <timestep time="51.00">
        <edge id="middle">
            <lane id="middle_0">
                <vehicle id="follower" pos="220.28" speed="7.80"/>
                <vehicle id="leader" pos="235.68" speed="10.40"/>
            </lane>
        </edge>
    </timestep>
    <timestep time="52.00">
        <edge id="middle">
            <lane id="middle_0">
                <vehicle id="follower" pos="230.68" speed="10.40"/>
                <vehicle id="leader" pos="248.68" speed="13.00"/>
            </lane>
        </edge>
    </timestep>
    <timestep time="53.00">
        <edge id="middle">
            <lane id="middle_0">
                <vehicle id="follower" pos="243.68" speed="13.00"/>
                <vehicle id="leader" pos="264.28" speed="15.60"/>
            </lane>
        </edge>
    </timestep>
    <timestep time="54.00">
        <edge id="middle">
            <lane id="middle_0">
                <vehicle id="follower" pos="259.28" speed="15.60"/>
                <vehicle id="leader" pos="282.48" speed="18.20"/>
            </lane>
        </edge>
    </timestep>
    <timestep time="55.00">
        <edge id="middle">
            <lane id="middle_0">
                <vehicle id="follower" pos="277.48" speed="18.20"/>
                <vehicle id="leader" pos="302.48" speed="20.00"/>
            </lane>
        </edge>
    </timestep>
    <timestep time="56.00">
        <edge id="middle">
            <lane id="middle_0">
                <vehicle id="follower" pos="298.28" speed="20.80"/>
                <vehicle id="leader" pos="322.48" speed="20.00"/>
            </lane>
        </edge>
    </timestep>
    <timestep time="57.00">
        <edge id="middle">
            <lane id="middle_0">
                <vehicle id="follower" pos="320.32" speed="22.04"/>
                <vehicle id="leader" pos="342.48" speed="20.00"/>
            </lane>
        </edge>
    </timestep>
    <timestep time="58.00">
        <edge id="middle">
            <lane id="middle_0">
                <vehicle id="follower" pos="341.91" speed="21.59"/>
                <vehicle id="leader" pos="362.48" speed="20.00"/>
            </lane>
        </edge>
    </timestep>
    <timestep time="59.00">
        <edge id="middle">
            <lane id="middle_0">
                <vehicle id="follower" pos="363.15" speed="21.24"/>
                <vehicle id="leader" pos="382.48" speed="20.00"/>
            </lane>
        </edge>
    </timestep>
    <timestep time="60.00">
        <edge id="middle">
            <lane id="middle_0">
                <vehicle id="follower" pos="384.11" speed="20.96"/>
                <vehicle id="leader" pos="402.48" speed="20.00"/>
            </lane>
        </edge>
    </timestep>
    <timestep time="61.00">
        <edge id="middle">
            <lane id="middle_0">
                <vehicle id="follower" pos="404.86" speed="20.75"/>
                <vehicle id="leader" pos="422.48" speed="20.00"/>
            </lane>
        </edge>
    </timestep>
    <timestep time="62.00">
        <edge id="middle">
            <lane id="middle_0">
                <vehicle id="follower" pos="425.44" speed="20.58"/>
                <vehicle id="leader" pos="442.48" speed="20.00"/>
            </lane>
        </edge>
    </timestep>
    <timestep time="63.00">
        <edge id="middle">
            <lane id="middle_0">
                <vehicle id="follower" pos="445.89" speed="20.45"/>
                <vehicle id="leader" pos="462.48" speed="20.00"/>
            </lane>
        </edge>
    </timestep>
    <timestep time="64.00">
        <edge id="middle">
            <lane id="middle_0">
                <vehicle id="follower" pos="466.24" speed="20.35"/>
                <vehicle id="leader" pos="482.48" speed="20.00"/>
            </lane>
        </edge>
    </timestep>
    <timestep time="65.00">
        <edge id="middle">
            <lane id="middle_0">
                <vehicle id="follower" pos="486.52" speed="20.27"/>
                <vehicle id="leader" pos="502.48" speed="20.00"/>
            </lane>
        </edge>
    </timestep>
    <timestep time="66.00">
        <edge id="middle">
            <lane id="middle_0">
                <vehicle id="follower" pos="506.73" speed="20.21"/>
                <vehicle id="leader" pos="522.48" speed="20.00"/>
            </lane>
        </edge>
    </timestep>
    <timestep time="67.00">
        <edge id="middle">
            <lane id="middle_0">
                <vehicle id="follower" pos="526.90" speed="20.17"/>
                <vehicle id="leader" pos="542.48" speed="20.00"/>
            </lane>
        </edge>
    </timestep>
    <timestep time="68.00">
        <edge id="middle">
            <lane id="middle_0">
                <vehicle id="follower" pos="547.03" speed="20.13"/>
                <vehicle id="leader" pos="562.48" speed="20.00"/>
            </lane>
        </edge>
    </timestep>
    <timestep time="69.00">
        <edge id="middle">
            <lane id="middle_0">
                <vehicle id="follower" pos="567.13" speed="20.10"/>
                <vehicle id="leader" pos="582.48" speed="20.00"/>
            </lane>
        </edge>
    </timestep>
    <timestep time="70.00">
        <edge id="middle">
            <lane id="middle_0">
                <vehicle id="follower" pos="587.20" speed="20.08"/>
                <vehicle id="leader" pos="602.48" speed="20.00"/>
            </lane>
        </edge>
    </timestep>
    <timestep time="71.00">
        <edge id="middle">
            <lane id="middle_0">
                <vehicle id="follower" pos="607.26" speed="20.06"/>
                <vehicle id="leader" pos="622.48" speed="20.00"/>
            </lane>
        </edge>
    </timestep>
    <timestep time="72.00">
        <edge id="middle">
            <lane id="middle_0">
                <vehicle id="follower" pos="627.31" speed="20.05"/>
                <vehicle id="leader" pos="642.48" speed="20.00"/>
            </lane>
        </edge>
    </timestep>
    <timestep time="73.00">
        <edge id="middle">
            <lane id="middle_0">
                <vehicle id="follower" pos="647.35" speed="20.04"/>
                <vehicle id="leader" pos="662.48" speed="20.00"/>
            </lane>
        </edge>
    </timestep>
    <timestep time="74.00">
        <edge id="middle">
            <lane id="middle_0">
                <vehicle id="follower" pos="667.38" speed="20.03"/>
                <vehicle id="leader" pos="682.48" speed="20.00"/>
            </lane>
        </edge>
    </timestep>
    <timestep time="75.00">
        <edge id="middle">
            <lane id="middle_0">
                <vehicle id="follower" pos="687.40" speed="20.02"/>
                <vehicle id="leader" pos="702.48" speed="20.00"/>
            </lane>
        </edge>
    </timestep>
    <timestep time="76.00">
        <edge id="middle">
            <lane id="middle_0">
                <vehicle id="follower" pos="707.42" speed="20.02"/>
                <vehicle id="leader" pos="722.48" speed="20.00"/>
            </lane>
        </edge>
    </timestep>
    <timestep time="77.00">
        <edge id="middle">
            <lane id="middle_0">
                <vehicle id="follower" pos="727.43" speed="20.01"/>
                <vehicle id="leader" pos="742.48" speed="20.00"/>
            </lane>
        </edge>
    </timestep>
    <timestep time="78.00">
        <edge id="middle">
            <lane id="middle_0">
                <vehicle id="follower" pos="747.44" speed="20.01"/>
                <vehicle id="leader" pos="762.48" speed="20.00"/>
            </lane>
        </edge>
    </timestep>
    <timestep time="79.00">
        <edge id="middle">
            <lane id="middle_0">
                <vehicle id="follower" pos="767.45" speed="20.01"/>
                <vehicle id="leader" pos="782.48" speed="20.00"/>
            </lane>
        </edge>
    </timestep>
    <timestep time="80.00">
        <edge id="middle">
            <lane id="middle_0">
                <vehicle id="follower" pos="787.45" speed="20.01"/>
                <vehicle id="leader" pos="802.48" speed="20.00"/>
            </lane>
        </edge>
    </timestep>
    <timestep time="81.00">
        <edge id="middle">
            <lane id="middle_0">
                <vehicle id="follower" pos="807.46" speed="20.00"/>
                <vehicle id="leader" pos="822.48" speed="20.00"/>
            </lane>
        </edge>
    </timestep>
    <timestep time="82.00">
        <edge id="middle">
            <lane id="middle_0">
                <vehicle id="follower" pos="827.46" speed="20.00"/>
                <vehicle id="leader" pos="842.48" speed="20.00"/>
            </lane>
        </edge>
    </timestep>
    <timestep time="83.00">
        <edge id="middle">
            <lane id="middle_0">
                <vehicle id="follower" pos="847.47" speed="20.00"/>
                <vehicle id="leader" pos="862.48" speed="20.00"/>
            </lane>
        </edge>
    </timestep>
    <timestep time="84.00">
        <edge id="middle">
            <lane id="middle_0">
                <vehicle id="follower" pos="867.47" speed="20.00"/>
                <vehicle id="leader" pos="882.48" speed="20.00"/>
            </lane>
        </edge>
    </timestep>
    <timestep time="85.00">
        <edge id="middle">
            <lane id="middle_0">
                <vehicle id="follower" pos="887.47" speed="20.00"/>
                <vehicle id="leader" pos="902.48" speed="20.00"/>
            </lane>
        </edge>
    </timestep>
    <timestep time="86.00">
        <edge id="middle">
            <lane id="middle_0">
                <vehicle id="follower" pos="907.47" speed="20.00"/>
                <vehicle id="leader" pos="922.48" speed="20.00"/>
            </lane>
        </edge>
    </timestep>
    <timestep time="87.00">
        <edge id="middle">
            <lane id="middle_0">
                <vehicle id="follower" pos="927.47" speed="20.00"/>
                <vehicle id="leader" pos="942.48" speed="20.00"/>
            </lane>
        </edge>
    </timestep>
    <timestep time="88.00">
        <edge id="middle">
            <lane id="middle_0">
                <vehicle id="follower" pos="947.47" speed="20.00"/>
                <vehicle id="leader" pos="962.48" speed="20.00"/>
            </lane>
        </edge>
    </timestep>
    <timestep time="89.00">
        <edge id="middle">
            <lane id="middle_0">
                <vehicle id="follower" pos="967.47" speed="20.00"/>
                <vehicle id="leader" pos="982.48" speed="20.00"/>
            </lane>
        </edge>
    </timestep>
    <timestep time="90.00">
        <edge id="middle">
            <lane id="middle_0">
                <vehicle id="follower" pos="987.47" speed="20.00"/>
            </lane>
        </edge>
    </timestep>
    <timestep time="91.00"/>
</netstate>
