<?xml version="1.0"?>

<!-- generated on 12/03/10 22:03:31 by SUMO sumo Version dev-SVN-r9429
<?xml version="1.0" encoding="iso-8859-1"?>

<configuration xmlns:xsi="http://www.w3.org/2001/XMLSchema-instance" xsi:noNamespaceSchemaLocation="http://sumo.sf.net/xsd/sumoConfiguration.xsd">

    <input>
        <net-file value="busnet.net.xml"/>
        <additional-files value="input_additional.add.xml,input_routes.rou.xml"/>
    </input>

    <output>
        <tripinfo-output value="tripinfos.xml"/>
    </output>

    <report>
        <no-duration-log value="true"/>
        <no-step-log value="true"/>
    </report>

</configuration>
-->

<tripinfos>
    <tripinfo id="bus_1" depart="0.00" departLane="2/0to2/1_0" departPos="15.10" departSpeed="0.00" departDelay="0.00" arrival="512.00" arrivalLane="2/0to2/1_0" arrivalPos="191.58" arrivalSpeed="13.17" duration="512.00" routeLength="3242.48" waitSteps="191" rerouteNo="0" devices="tripinfo_bus_1" vtype="bus" vaporized=""/>
</tripinfos>
