<?xml version="1.0" encoding="UTF-8"?>

<!-- generated on 03/05/14 13:21:58 by SUMO sumo Version dev-SVN-r15814
<?xml version="1.0" encoding="UTF-8"?>

<configuration xmlns:xsi="http://www.w3.org/2001/XMLSchema-instance" xsi:noNamespaceSchemaLocation="http://sumo-sim.org/xsd/sumoConfiguration.xsd">

    <input>
        <net-file value="busnet.net.xml"/>
        <additional-files value="input_additional.add.xml,input_routes.rou.xml"/>
    </input>

    <output>
        <tripinfo-output value="tripinfos.xml"/>
    </output>

    <report>
        <xml-validation value="never"/>
        <no-duration-log value="true"/>
        <no-step-log value="true"/>
    </report>

</configuration>
-->

<tripinfos xmlns:xsi="http://www.w3.org/2001/XMLSchema-instance" xsi:noNamespaceSchemaLocation="http://sumo-sim.org/xsd/tripinfo_file.xsd">
    <tripinfo id="bus_1" depart="0.00" departLane="2/0to2/1_0" departPos="12.10" departSpeed="0.00" departDelay="0.00" arrival="511.00" arrivalLane="2/0to2/1_0" arrivalPos="191.00" arrivalSpeed="13.90" duration="511.00" routeLength="3244.90" waitSteps="230" rerouteNo="0" devices="tripinfo_bus_1" vType="bus" vaporized=""/>
</tripinfos>
