<?xml version="1.0"?>

<!-- generated on Fri Dec  2 20:46:39 2011 by SUMO sumo Version dev-SVN-r11571
<?xml version="1.0" encoding="UTF-8"?>

<configuration xmlns:xsi="http://www.w3.org/2001/XMLSchema-instance" xsi:noNamespaceSchemaLocation="http://sumo.sf.net/xsd/sumoConfiguration.xsd">

    <input>
        <net-file value="three_split.net.xml"/>
        <additional-files value="input_routes.rou.xml,input_additional.add.xml"/>
    </input>

    <output>
        <vehroute-output value="vehroutes.xml"/>
    </output>

    <report>
        <no-duration-log value="true"/>
        <no-step-log value="true"/>
    </report>

</configuration>
-->

<routes>
    <vehicle id="0.0" depart="0.00" arrival="192.00">
        <routeDistribution>
            <route replacedOnEdge="beg" replacedAtTime="23.00" probability="0" edges="preBeg beg middle end rend"/>
            <route edges="preBeg beg beg2left left left2end"/>
        </routeDistribution>
    </vehicle>

    <vehicle id="0.1" depart="20.00" arrival="210.00">
        <routeDistribution>
            <route replacedOnEdge="beg" replacedAtTime="43.00" probability="0" edges="preBeg beg middle end rend"/>
            <route edges="preBeg beg beg2left left left2end"/>
        </routeDistribution>
    </vehicle>

    <vehicle id="0.2" depart="40.00" arrival="231.00">
        <routeDistribution>
            <route replacedOnEdge="beg" replacedAtTime="63.00" probability="0" edges="preBeg beg middle end rend"/>
            <route edges="preBeg beg beg2left left left2end"/>
        </routeDistribution>
    </vehicle>

    <vehicle id="0.3" depart="60.00" arrival="251.00">
        <routeDistribution>
            <route replacedOnEdge="beg" replacedAtTime="83.00" probability="0" edges="preBeg beg middle end rend"/>
            <route edges="preBeg beg beg2left left left2end"/>
        </routeDistribution>
    </vehicle>

    <vehicle id="0.4" depart="80.00" arrival="271.00">
        <routeDistribution>
            <route replacedOnEdge="beg" replacedAtTime="103.00" probability="0" edges="preBeg beg middle end rend"/>
            <route edges="preBeg beg beg2left left left2end"/>
        </routeDistribution>
    </vehicle>

    <vehicle id="0.5" depart="100.00" arrival="291.00">
        <routeDistribution>
            <route replacedOnEdge="beg" replacedAtTime="123.00" probability="0" edges="preBeg beg middle end rend"/>
            <route edges="preBeg beg beg2left left left2end"/>
        </routeDistribution>
    </vehicle>

    <vehicle id="0.6" depart="120.00" arrival="311.00">
        <routeDistribution>
            <route replacedOnEdge="beg" replacedAtTime="143.00" probability="0" edges="preBeg beg middle end rend"/>
            <route edges="preBeg beg beg2left left left2end"/>
        </routeDistribution>
    </vehicle>

    <vehicle id="0.7" depart="140.00" arrival="331.00">
        <routeDistribution>
            <route replacedOnEdge="beg" replacedAtTime="163.00" probability="0" edges="preBeg beg middle end rend"/>
            <route edges="preBeg beg beg2left left left2end"/>
        </routeDistribution>
    </vehicle>

    <vehicle id="0.8" depart="160.00" arrival="351.00">
        <routeDistribution>
            <route replacedOnEdge="beg" replacedAtTime="183.00" probability="0" edges="preBeg beg middle end rend"/>
            <route edges="preBeg beg beg2left left left2end"/>
        </routeDistribution>
    </vehicle>

    <vehicle id="0.9" depart="180.00" arrival="371.00">
        <routeDistribution>
            <route replacedOnEdge="beg" replacedAtTime="203.00" probability="0" edges="preBeg beg middle end rend"/>
            <route edges="preBeg beg beg2left left left2end"/>
        </routeDistribution>
    </vehicle>

    <vehicle id="0.10" depart="200.00" arrival="391.00">
        <routeDistribution>
            <route replacedOnEdge="beg" replacedAtTime="223.00" probability="0" edges="preBeg beg middle end rend"/>
            <route edges="preBeg beg beg2left left left2end"/>
        </routeDistribution>
    </vehicle>

</routes>
