<?xml version="1.0" encoding="UTF-8"?>

<!-- generated on 2021-11-08 15:00:11 by Eclipse SUMO sumo Version v1_10_0+2034-6a9202b
This data file and the accompanying materials
are made available under the terms of the Eclipse Public License v2.0
which accompanies this distribution, and is available at
http://www.eclipse.org/legal/epl-v20.html
SPDX-License-Identifier: EPL-2.0
<configuration xmlns:xsi="http://www.w3.org/2001/XMLSchema-instance" xsi:noNamespaceSchemaLocation="http://sumo.dlr.de/xsd/sumoConfiguration.xsd">

    <input>
        <net-file value="net2.net.xml"/>
        <route-files value="input_routes.rou.xml"/>
    </input>

    <output>
        <write-license value="true"/>
        <fcd-output value="fcd.xml"/>
        <vehroute-output value="vehroutes.xml"/>
        <stop-output value="stopinfos.xml"/>
    </output>

    <processing>
        <default.speeddev value="0"/>
    </processing>

    <report>
        <xml-validation value="never"/>
        <xml-validation.routes value="never"/>
        <duration-log.disable value="true"/>
        <no-step-log value="true"/>
    </report>

</configuration>
-->

<fcd-export xmlns:xsi="http://www.w3.org/2001/XMLSchema-instance" xsi:noNamespaceSchemaLocation="http://sumo.dlr.de/xsd/fcd_file.xsd">
    <timestep time="0.00">
        <vehicle id="veh0" x="113.15" y="95.05" angle="90.00" type="DEFAULT_VEHTYPE" speed="0.00" pos="5.10" lane="CE_0" slope="0.00"/>
    </timestep>
    <timestep time="1.00">
        <vehicle id="veh0" x="115.75" y="98.35" angle="90.00" type="DEFAULT_VEHTYPE" speed="2.60" pos="7.70" lane="CE_1" slope="0.00"/>
    </timestep>
    <timestep time="2.00">
        <vehicle id="veh0" x="120.95" y="98.35" angle="90.00" type="DEFAULT_VEHTYPE" speed="5.20" pos="12.90" lane="CE_1" slope="0.00"/>
    </timestep>
    <timestep time="3.00">
        <vehicle id="veh0" x="128.75" y="98.35" angle="90.00" type="DEFAULT_VEHTYPE" speed="7.80" pos="20.70" lane="CE_1" slope="0.00"/>
    </timestep>
    <timestep time="4.00">
        <vehicle id="veh0" x="139.15" y="98.35" angle="90.00" type="DEFAULT_VEHTYPE" speed="10.40" pos="31.10" lane="CE_1" slope="0.00"/>
    </timestep>
    <timestep time="5.00">
        <vehicle id="veh0" x="148.05" y="98.35" angle="90.00" type="DEFAULT_VEHTYPE" speed="8.90" pos="40.00" lane="CE_1" slope="0.00"/>
    </timestep>
    <timestep time="6.00">
        <vehicle id="veh0" x="153.05" y="98.35" angle="90.00" type="DEFAULT_VEHTYPE" speed="5.00" pos="45.00" lane="CE_1" slope="0.00"/>
    </timestep>
    <timestep time="7.00">
        <vehicle id="veh0" x="158.05" y="98.35" angle="90.00" type="DEFAULT_VEHTYPE" speed="5.00" pos="50.00" lane="CE_1" slope="0.00"/>
    </timestep>
    <timestep time="8.00">
        <vehicle id="veh0" x="163.05" y="98.35" angle="90.00" type="DEFAULT_VEHTYPE" speed="5.00" pos="55.00" lane="CE_1" slope="0.00"/>
    </timestep>
    <timestep time="9.00">
        <vehicle id="veh0" x="167.80" y="98.35" angle="90.00" type="DEFAULT_VEHTYPE" speed="4.75" pos="59.75" lane="CE_1" slope="0.00"/>
    </timestep>
    <timestep time="10.00">
        <vehicle id="veh0" x="168.05" y="98.35" angle="90.00" type="DEFAULT_VEHTYPE" speed="0.25" pos="60.00" lane="CE_1" slope="0.00"/>
    </timestep>
    <timestep time="11.00">
        <vehicle id="veh0" x="168.05" y="98.35" angle="90.00" type="DEFAULT_VEHTYPE" speed="0.00" pos="60.00" lane="CE_1" slope="0.00"/>
    </timestep>
    <timestep time="12.00">
        <vehicle id="veh0" x="168.05" y="98.35" angle="90.00" type="DEFAULT_VEHTYPE" speed="0.00" pos="60.00" lane="CE_1" slope="0.00"/>
    </timestep>
    <timestep time="13.00">
        <vehicle id="veh0" x="168.05" y="98.35" angle="90.00" type="DEFAULT_VEHTYPE" speed="0.00" pos="60.00" lane="CE_1" slope="0.00"/>
    </timestep>
    <timestep time="14.00">
        <vehicle id="veh0" x="168.05" y="98.35" angle="90.00" type="DEFAULT_VEHTYPE" speed="0.00" pos="60.00" lane="CE_1" slope="0.00"/>
    </timestep>
    <timestep time="15.00">
        <vehicle id="veh0" x="168.05" y="98.35" angle="90.00" type="DEFAULT_VEHTYPE" speed="0.00" pos="60.00" lane="CE_1" slope="0.00"/>
    </timestep>
    <timestep time="16.00">
        <vehicle id="veh0" x="168.05" y="98.35" angle="90.00" type="DEFAULT_VEHTYPE" speed="0.00" pos="60.00" lane="CE_1" slope="0.00"/>
    </timestep>
    <timestep time="17.00">
        <vehicle id="veh0" x="168.05" y="98.35" angle="90.00" type="DEFAULT_VEHTYPE" speed="0.00" pos="60.00" lane="CE_1" slope="0.00"/>
    </timestep>
    <timestep time="18.00">
        <vehicle id="veh0" x="168.05" y="98.35" angle="90.00" type="DEFAULT_VEHTYPE" speed="0.00" pos="60.00" lane="CE_1" slope="0.00"/>
    </timestep>
    <timestep time="19.00">
        <vehicle id="veh0" x="168.05" y="98.35" angle="90.00" type="DEFAULT_VEHTYPE" speed="0.00" pos="60.00" lane="CE_1" slope="0.00"/>
    </timestep>
    <timestep time="20.00">
        <vehicle id="veh0" x="170.65" y="98.35" angle="90.00" type="DEFAULT_VEHTYPE" speed="2.60" pos="62.60" lane="CE_1" slope="0.00"/>
    </timestep>
    <timestep time="21.00">
        <vehicle id="veh0" x="175.85" y="98.35" angle="90.00" type="DEFAULT_VEHTYPE" speed="5.20" pos="67.80" lane="CE_1" slope="0.00"/>
    </timestep>
    <timestep time="22.00">
        <vehicle id="veh0" x="183.65" y="98.35" angle="90.00" type="DEFAULT_VEHTYPE" speed="7.80" pos="75.60" lane="CE_1" slope="0.00"/>
    </timestep>
    <timestep time="23.00">
        <vehicle id="veh0" x="194.05" y="98.35" angle="90.00" type="DEFAULT_VEHTYPE" speed="10.40" pos="86.00" lane="CE_1" slope="0.00"/>
    </timestep>
    <timestep time="24.00"/>
</fcd-export>
