<?xml version="1.0" encoding="UTF-8"?>

<!-- generated on Wed Mar 11 22:23:48 2020 by Eclipse SUMO Version v1_5_0+0662-a598ecae47
This data file and the accompanying materials
are made available under the terms of the Eclipse Public License v2.0
which accompanies this distribution, and is available at
http://www.eclipse.org/legal/epl-v20.html
SPDX-License-Identifier: EPL-2.0
<configuration xmlns:xsi="http://www.w3.org/2001/XMLSchema-instance" xsi:noNamespaceSchemaLocation="http://sumo.dlr.de/xsd/sumoConfiguration.xsd">

    <input>
        <net-file value="net.net.xml"/>
        <route-files value="input_routes.rou.xml"/>
    </input>

    <output>
        <write-license value="true"/>
        <tripinfo-output value="tripinfos.xml"/>
        <lanechange-output value="lanechanges.xml"/>
    </output>

    <processing>
        <lateral-resolution value="0.8"/>
        <collision.check-junctions value="true"/>
        <default.speeddev value="0"/>
    </processing>

    <report>
        <xml-validation value="never"/>
        <no-step-log value="true"/>
    </report>

</configuration>
-->

<tripinfos xmlns:xsi="http://www.w3.org/2001/XMLSchema-instance" xsi:noNamespaceSchemaLocation="http://sumo.dlr.de/xsd/tripinfo_file.xsd">
    <tripinfo id="ego" depart="0.00" departLane="beg_1" departPos="0.00" departPosLat="-1.00" departSpeed="13.89" departDelay="0.00" arrival="15.00" arrivalLane="end_2" arrivalPos="95.00" arrivalPosLat="0.00" arrivalSpeed="13.89" duration="15.00" routeLength="200.23" waitingTime="0.00" waitingCount="0" stopTime="0.00" timeLoss="0.00" rerouteNo="0" devices="tripinfo_ego" vType="tEgo" speedFactor="1.00" vaporized=""/>
    <tripinfo id="blocker2" depart="1.00" departLane="beg_0" departPos="55.00" departPosLat="-0.70" departSpeed="11.19" departDelay="1.00" arrival="29.00" arrivalLane="end_0" arrivalPos="1.00" arrivalPosLat="-0.10" arrivalSpeed="5.20" duration="28.00" routeLength="51.23" waitingTime="21.00" waitingCount="1" stopTime="0.00" timeLoss="24.00" rerouteNo="0" devices="tripinfo_blocker2" vType="tBlocker" speedFactor="1.00" vaporized=""/>
    <tripinfo id="blocker" depart="0.00" departLane="beg_0" departPos="55.00" departPosLat="-0.70" departSpeed="13.89" departDelay="0.00" arrival="35.00" arrivalLane="end_0" arrivalPos="95.00" arrivalPosLat="-0.10" arrivalSpeed="13.89" duration="35.00" routeLength="145.23" waitingTime="0.00" waitingCount="0" stopTime="20.00" timeLoss="4.14" rerouteNo="0" devices="tripinfo_blocker" vType="tBlocker" speedFactor="1.00" vaporized=""/>
</tripinfos>
