<?xml version="1.0" encoding="UTF-8"?>

<!-- generated on 2022-12-20 15:31:26 by Eclipse SUMO sumo Version v1_15_0+1163-053c4cf
This data file and the accompanying materials
are made available under the terms of the Eclipse Public License v2.0
which accompanies this distribution, and is available at
http://www.eclipse.org/legal/epl-v20.html
This file may also be made available under the following Secondary
Licenses when the conditions for such availability set forth in the Eclipse
Public License 2.0 are satisfied: GNU General Public License, version 2
or later which is available at
https://www.gnu.org/licenses/old-licenses/gpl-2.0-standalone.html
SPDX-License-Identifier: EPL-2.0 OR GPL-2.0-or-later
<configuration xmlns:xsi="http://www.w3.org/2001/XMLSchema-instance" xsi:noNamespaceSchemaLocation="http://sumo.dlr.de/xsd/sumoConfiguration.xsd">

    <input>
        <net-file value="net.net.xml"/>
        <route-files value="input_routes.rou.xml"/>
        <additional-files value="input_additional.add.xml"/>
    </input>

    <output>
        <write-license value="true"/>
        <tripinfo-output value="tripinfos.xml"/>
    </output>

    <time>
        <begin value="0"/>
        <end value="600"/>
    </time>

    <processing>
        <tls.all-off value="true"/>
        <default.speeddev value="0"/>
    </processing>

    <report>
        <xml-validation value="never"/>
        <duration-log.disable value="true"/>
        <no-step-log value="true"/>
    </report>

</configuration>
-->

<tripinfos xmlns:xsi="http://www.w3.org/2001/XMLSchema-instance" xsi:noNamespaceSchemaLocation="http://sumo.dlr.de/xsd/tripinfo_file.xsd">
    <tripinfo id="f_1.0" depart="0.00" departLane="4si_0" departPos="5.10" departSpeed="0.00" departDelay="0.00" arrival="74.00" arrivalLane="3o_0" arrivalPos="486.40" arrivalSpeed="9.94" duration="74.00" routeLength="741.12" waitingTime="1.00" waitingCount="1" stopTime="0.00" timeLoss="10.78" rerouteNo="0" devices="tripinfo_f_1.0" vType="DEFAULT_VEHTYPE" speedFactor="1.00" vaporized=""/>
    <tripinfo id="f_0.0" depart="0.00" departLane="3si_0" departPos="5.10" departSpeed="0.00" departDelay="0.00" arrival="77.00" arrivalLane="1o_0" arrivalPos="486.40" arrivalSpeed="10.43" duration="77.00" routeLength="738.21" waitingTime="1.00" waitingCount="1" stopTime="0.00" timeLoss="14.71" rerouteNo="0" devices="tripinfo_f_0.0" vType="DEFAULT_VEHTYPE" speedFactor="1.00" vaporized=""/>
    <tripinfo id="f_1.1" depart="3.00" departLane="4si_0" departPos="5.10" departSpeed="0.00" departDelay="1.00" arrival="81.00" arrivalLane="3o_0" arrivalPos="486.40" arrivalSpeed="10.45" duration="78.00" routeLength="741.12" waitingTime="1.00" waitingCount="1" stopTime="0.00" timeLoss="15.21" rerouteNo="0" devices="tripinfo_f_1.1" vType="DEFAULT_VEHTYPE" speedFactor="1.00" vaporized=""/>
    <tripinfo id="f_0.1" depart="2.00" departLane="3si_0" departPos="5.10" departSpeed="0.00" departDelay="0.00" arrival="84.00" arrivalLane="1o_0" arrivalPos="486.40" arrivalSpeed="10.55" duration="82.00" routeLength="738.21" waitingTime="1.00" waitingCount="1" stopTime="0.00" timeLoss="19.42" rerouteNo="0" devices="tripinfo_f_0.1" vType="DEFAULT_VEHTYPE" speedFactor="1.00" vaporized=""/>
    <tripinfo id="f_1.2" depart="6.00" departLane="4si_0" departPos="5.10" departSpeed="0.00" departDelay="2.00" arrival="87.00" arrivalLane="3o_0" arrivalPos="486.40" arrivalSpeed="10.48" duration="81.00" routeLength="741.12" waitingTime="1.00" waitingCount="1" stopTime="0.00" timeLoss="18.35" rerouteNo="0" devices="tripinfo_f_1.2" vType="DEFAULT_VEHTYPE" speedFactor="1.00" vaporized=""/>
    <tripinfo id="f_0.2" depart="4.00" departLane="3si_0" departPos="5.10" departSpeed="0.00" departDelay="0.00" arrival="90.00" arrivalLane="1o_0" arrivalPos="486.40" arrivalSpeed="9.81" duration="86.00" routeLength="738.21" waitingTime="1.00" waitingCount="1" stopTime="0.00" timeLoss="23.47" rerouteNo="0" devices="tripinfo_f_0.2" vType="DEFAULT_VEHTYPE" speedFactor="1.00" vaporized=""/>
    <tripinfo id="f_1.3" depart="9.00" departLane="4si_0" departPos="5.10" departSpeed="0.00" departDelay="3.00" arrival="94.00" arrivalLane="3o_0" arrivalPos="486.40" arrivalSpeed="10.13" duration="85.00" routeLength="741.12" waitingTime="1.00" waitingCount="1" stopTime="0.00" timeLoss="22.06" rerouteNo="0" devices="tripinfo_f_1.3" vType="DEFAULT_VEHTYPE" speedFactor="1.00" vaporized=""/>
    <tripinfo id="f_0.3" depart="7.00" departLane="3si_0" departPos="5.10" departSpeed="0.00" departDelay="1.00" arrival="96.00" arrivalLane="1o_0" arrivalPos="486.40" arrivalSpeed="10.73" duration="89.00" routeLength="738.21" waitingTime="2.00" waitingCount="2" stopTime="0.00" timeLoss="26.74" rerouteNo="0" devices="tripinfo_f_0.3" vType="DEFAULT_VEHTYPE" speedFactor="1.00" vaporized=""/>
    <tripinfo id="f_1.4" depart="12.00" departLane="4si_0" departPos="5.10" departSpeed="0.00" departDelay="4.00" arrival="100.00" arrivalLane="3o_0" arrivalPos="486.40" arrivalSpeed="9.85" duration="88.00" routeLength="741.12" waitingTime="2.00" waitingCount="2" stopTime="0.00" timeLoss="25.41" rerouteNo="0" devices="tripinfo_f_1.4" vType="DEFAULT_VEHTYPE" speedFactor="1.00" vaporized=""/>
    <tripinfo id="f_0.4" depart="10.00" departLane="3si_0" departPos="5.10" departSpeed="0.00" departDelay="2.00" arrival="103.00" arrivalLane="1o_0" arrivalPos="486.40" arrivalSpeed="10.57" duration="93.00" routeLength="738.21" waitingTime="1.00" waitingCount="1" stopTime="0.00" timeLoss="30.22" rerouteNo="0" devices="tripinfo_f_0.4" vType="DEFAULT_VEHTYPE" speedFactor="1.00" vaporized=""/>
    <tripinfo id="f_1.5" depart="15.00" departLane="4si_0" departPos="5.10" departSpeed="0.00" departDelay="5.00" arrival="106.00" arrivalLane="3o_0" arrivalPos="486.40" arrivalSpeed="10.22" duration="91.00" routeLength="741.12" waitingTime="1.00" waitingCount="1" stopTime="0.00" timeLoss="28.19" rerouteNo="0" devices="tripinfo_f_1.5" vType="DEFAULT_VEHTYPE" speedFactor="1.00" vaporized=""/>
    <tripinfo id="f_0.5" depart="13.00" departLane="3si_0" departPos="5.10" departSpeed="0.00" departDelay="3.00" arrival="108.00" arrivalLane="1o_0" arrivalPos="486.40" arrivalSpeed="10.65" duration="95.00" routeLength="738.21" waitingTime="1.00" waitingCount="1" stopTime="0.00" timeLoss="32.62" rerouteNo="0" devices="tripinfo_f_0.5" vType="DEFAULT_VEHTYPE" speedFactor="1.00" vaporized=""/>
    <tripinfo id="f_1.6" depart="18.00" departLane="4si_0" departPos="5.10" departSpeed="0.00" departDelay="6.00" arrival="111.00" arrivalLane="3o_0" arrivalPos="486.40" arrivalSpeed="10.38" duration="93.00" routeLength="741.12" waitingTime="1.00" waitingCount="1" stopTime="0.00" timeLoss="29.80" rerouteNo="0" devices="tripinfo_f_1.6" vType="DEFAULT_VEHTYPE" speedFactor="1.00" vaporized=""/>
    <tripinfo id="f_0.6" depart="16.00" departLane="3si_0" departPos="5.10" departSpeed="0.00" departDelay="4.00" arrival="114.00" arrivalLane="1o_0" arrivalPos="486.40" arrivalSpeed="10.96" duration="98.00" routeLength="738.21" waitingTime="1.00" waitingCount="1" stopTime="0.00" timeLoss="35.60" rerouteNo="0" devices="tripinfo_f_0.6" vType="DEFAULT_VEHTYPE" speedFactor="1.00" vaporized=""/>
    <tripinfo id="f_1.7" depart="21.00" departLane="4si_0" departPos="5.10" departSpeed="0.00" departDelay="7.00" arrival="117.00" arrivalLane="3o_0" arrivalPos="486.40" arrivalSpeed="10.90" duration="96.00" routeLength="741.12" waitingTime="1.00" waitingCount="1" stopTime="0.00" timeLoss="33.28" rerouteNo="0" devices="tripinfo_f_1.7" vType="DEFAULT_VEHTYPE" speedFactor="1.00" vaporized=""/>
    <tripinfo id="f_0.7" depart="18.00" departLane="3si_0" departPos="5.10" departSpeed="0.00" departDelay="4.00" arrival="122.00" arrivalLane="1o_0" arrivalPos="486.40" arrivalSpeed="10.23" duration="104.00" routeLength="738.21" waitingTime="1.00" waitingCount="1" stopTime="0.00" timeLoss="40.92" rerouteNo="0" devices="tripinfo_f_0.7" vType="DEFAULT_VEHTYPE" speedFactor="1.00" vaporized=""/>
    <tripinfo id="f_1.8" depart="24.00" departLane="4si_0" departPos="5.10" departSpeed="0.00" departDelay="8.00" arrival="124.00" arrivalLane="3o_0" arrivalPos="486.40" arrivalSpeed="9.86" duration="100.00" routeLength="741.12" waitingTime="1.00" waitingCount="1" stopTime="0.00" timeLoss="37.28" rerouteNo="0" devices="tripinfo_f_1.8" vType="DEFAULT_VEHTYPE" speedFactor="1.00" vaporized=""/>
    <tripinfo id="f_0.8" depart="20.00" departLane="3si_0" departPos="5.10" departSpeed="0.00" departDelay="4.00" arrival="127.00" arrivalLane="1o_0" arrivalPos="486.40" arrivalSpeed="9.96" duration="107.00" routeLength="738.21" waitingTime="1.00" waitingCount="1" stopTime="0.00" timeLoss="44.65" rerouteNo="0" devices="tripinfo_f_0.8" vType="DEFAULT_VEHTYPE" speedFactor="1.00" vaporized=""/>
    <tripinfo id="f_1.9" depart="27.00" departLane="4si_0" departPos="5.10" departSpeed="0.00" departDelay="9.00" arrival="131.00" arrivalLane="3o_0" arrivalPos="486.40" arrivalSpeed="10.04" duration="104.00" routeLength="741.12" waitingTime="2.00" waitingCount="2" stopTime="0.00" timeLoss="41.55" rerouteNo="0" devices="tripinfo_f_1.9" vType="DEFAULT_VEHTYPE" speedFactor="1.00" vaporized=""/>
    <tripinfo id="f_0.9" depart="22.00" departLane="3si_0" departPos="5.10" departSpeed="0.00" departDelay="4.00" arrival="133.00" arrivalLane="1o_0" arrivalPos="486.40" arrivalSpeed="11.08" duration="111.00" routeLength="738.21" waitingTime="2.00" waitingCount="2" stopTime="0.00" timeLoss="48.82" rerouteNo="0" devices="tripinfo_f_0.9" vType="DEFAULT_VEHTYPE" speedFactor="1.00" vaporized=""/>
    <tripinfo id="f_1.10" depart="30.00" departLane="4si_0" departPos="5.10" departSpeed="0.00" departDelay="10.00" arrival="138.00" arrivalLane="3o_0" arrivalPos="486.40" arrivalSpeed="10.16" duration="108.00" routeLength="741.12" waitingTime="1.00" waitingCount="1" stopTime="0.00" timeLoss="45.10" rerouteNo="0" devices="tripinfo_f_1.10" vType="DEFAULT_VEHTYPE" speedFactor="1.00" vaporized=""/>
    <tripinfo id="f_0.10" depart="24.00" departLane="3si_0" departPos="5.10" departSpeed="0.00" departDelay="4.00" arrival="141.00" arrivalLane="1o_0" arrivalPos="486.40" arrivalSpeed="10.28" duration="117.00" routeLength="738.21" waitingTime="1.00" waitingCount="1" stopTime="0.00" timeLoss="54.85" rerouteNo="0" devices="tripinfo_f_0.10" vType="DEFAULT_VEHTYPE" speedFactor="1.00" vaporized=""/>
    <tripinfo id="f_1.11" depart="33.00" departLane="4si_0" departPos="5.10" departSpeed="0.00" departDelay="11.00" arrival="146.00" arrivalLane="3o_0" arrivalPos="486.40" arrivalSpeed="9.99" duration="113.00" routeLength="741.12" waitingTime="2.00" waitingCount="2" stopTime="0.00" timeLoss="50.39" rerouteNo="0" devices="tripinfo_f_1.11" vType="DEFAULT_VEHTYPE" speedFactor="1.00" vaporized=""/>
    <tripinfo id="f_0.11" depart="26.00" departLane="3si_0" departPos="5.10" departSpeed="0.00" departDelay="4.00" arrival="150.00" arrivalLane="1o_0" arrivalPos="486.40" arrivalSpeed="10.61" duration="124.00" routeLength="738.21" waitingTime="1.00" waitingCount="1" stopTime="0.00" timeLoss="61.48" rerouteNo="0" devices="tripinfo_f_0.11" vType="DEFAULT_VEHTYPE" speedFactor="1.00" vaporized=""/>
    <tripinfo id="f_1.12" depart="36.00" departLane="4si_0" departPos="5.10" departSpeed="0.00" departDelay="12.00" arrival="153.00" arrivalLane="3o_0" arrivalPos="486.40" arrivalSpeed="10.53" duration="117.00" routeLength="741.12" waitingTime="2.00" waitingCount="2" stopTime="0.00" timeLoss="53.88" rerouteNo="0" devices="tripinfo_f_1.12" vType="DEFAULT_VEHTYPE" speedFactor="1.00" vaporized=""/>
    <tripinfo id="f_0.30" depart="65.00" departLane="3si_0" departPos="5.10" departSpeed="0.00" departDelay="5.00" arrival="156.00" arrivalLane="1o_0" arrivalPos="486.40" arrivalSpeed="10.68" duration="91.00" routeLength="738.21" waitingTime="6.00" waitingCount="3" stopTime="0.00" timeLoss="28.84" rerouteNo="0" devices="tripinfo_f_0.30" vType="DEFAULT_VEHTYPE" speedFactor="1.00" vaporized=""/>
    <tripinfo id="f_1.13" depart="39.00" departLane="4si_0" departPos="5.10" departSpeed="0.00" departDelay="13.00" arrival="160.00" arrivalLane="3o_0" arrivalPos="486.40" arrivalSpeed="10.50" duration="121.00" routeLength="741.12" waitingTime="2.00" waitingCount="2" stopTime="0.00" timeLoss="57.80" rerouteNo="0" devices="tripinfo_f_1.13" vType="DEFAULT_VEHTYPE" speedFactor="1.00" vaporized=""/>
    <tripinfo id="f_0.12" depart="28.00" departLane="3si_0" departPos="5.10" departSpeed="0.00" departDelay="4.00" arrival="162.00" arrivalLane="1o_0" arrivalPos="486.40" arrivalSpeed="10.48" duration="134.00" routeLength="738.21" waitingTime="6.00" waitingCount="2" stopTime="0.00" timeLoss="71.79" rerouteNo="0" devices="tripinfo_f_0.12" vType="DEFAULT_VEHTYPE" speedFactor="1.00" vaporized=""/>
    <tripinfo id="f_1.14" depart="42.00" departLane="4si_0" departPos="5.10" departSpeed="0.00" departDelay="14.00" arrival="165.00" arrivalLane="3o_0" arrivalPos="486.40" arrivalSpeed="10.90" duration="123.00" routeLength="741.12" waitingTime="1.00" waitingCount="1" stopTime="0.00" timeLoss="60.56" rerouteNo="0" devices="tripinfo_f_1.14" vType="DEFAULT_VEHTYPE" speedFactor="1.00" vaporized=""/>
    <tripinfo id="f_0.34" depart="75.00" departLane="3si_0" departPos="5.10" departSpeed="0.00" departDelay="7.00" arrival="168.00" arrivalLane="1o_0" arrivalPos="486.40" arrivalSpeed="11.05" duration="93.00" routeLength="738.21" waitingTime="10.00" waitingCount="4" stopTime="0.00" timeLoss="30.75" rerouteNo="0" devices="tripinfo_f_0.34" vType="DEFAULT_VEHTYPE" speedFactor="1.00" vaporized=""/>
    <tripinfo id="f_1.15" depart="45.00" departLane="4si_0" departPos="5.10" departSpeed="0.00" departDelay="15.00" arrival="172.00" arrivalLane="3o_0" arrivalPos="486.40" arrivalSpeed="9.87" duration="127.00" routeLength="741.12" waitingTime="1.00" waitingCount="1" stopTime="0.00" timeLoss="64.34" rerouteNo="0" devices="tripinfo_f_1.15" vType="DEFAULT_VEHTYPE" speedFactor="1.00" vaporized=""/>
    <tripinfo id="f_0.13" depart="30.00" departLane="3si_0" departPos="5.10" departSpeed="0.00" departDelay="4.00" arrival="176.00" arrivalLane="1o_0" arrivalPos="486.40" arrivalSpeed="10.35" duration="146.00" routeLength="738.21" waitingTime="10.00" waitingCount="4" stopTime="0.00" timeLoss="83.05" rerouteNo="0" devices="tripinfo_f_0.13" vType="DEFAULT_VEHTYPE" speedFactor="1.00" vaporized=""/>
    <tripinfo id="f_1.16" depart="48.00" departLane="4si_0" departPos="5.10" departSpeed="0.00" departDelay="16.00" arrival="178.00" arrivalLane="3o_0" arrivalPos="486.40" arrivalSpeed="10.94" duration="130.00" routeLength="741.12" waitingTime="1.00" waitingCount="1" stopTime="0.00" timeLoss="67.24" rerouteNo="0" devices="tripinfo_f_1.16" vType="DEFAULT_VEHTYPE" speedFactor="1.00" vaporized=""/>
    <tripinfo id="f_0.36" depart="79.00" departLane="3si_0" departPos="5.10" departSpeed="0.00" departDelay="7.00" arrival="181.00" arrivalLane="1o_0" arrivalPos="486.40" arrivalSpeed="9.90" duration="102.00" routeLength="738.21" waitingTime="16.00" waitingCount="7" stopTime="0.00" timeLoss="39.56" rerouteNo="0" devices="tripinfo_f_0.36" vType="DEFAULT_VEHTYPE" speedFactor="1.00" vaporized=""/>
    <tripinfo id="f_1.17" depart="51.00" departLane="4si_0" departPos="5.10" departSpeed="0.00" departDelay="17.00" arrival="185.00" arrivalLane="3o_0" arrivalPos="486.40" arrivalSpeed="10.17" duration="134.00" routeLength="741.12" waitingTime="2.00" waitingCount="2" stopTime="0.00" timeLoss="70.83" rerouteNo="0" devices="tripinfo_f_1.17" vType="DEFAULT_VEHTYPE" speedFactor="1.00" vaporized=""/>
    <tripinfo id="f_0.14" depart="32.00" departLane="3si_0" departPos="5.10" departSpeed="0.00" departDelay="4.00" arrival="188.00" arrivalLane="1o_0" arrivalPos="486.40" arrivalSpeed="10.18" duration="156.00" routeLength="738.21" waitingTime="10.00" waitingCount="4" stopTime="0.00" timeLoss="93.32" rerouteNo="0" devices="tripinfo_f_0.14" vType="DEFAULT_VEHTYPE" speedFactor="1.00" vaporized=""/>
    <tripinfo id="f_1.37" depart="98.00" departLane="4si_0" departPos="5.10" departSpeed="0.00" departDelay="24.00" arrival="192.00" arrivalLane="3o_0" arrivalPos="486.40" arrivalSpeed="10.62" duration="94.00" routeLength="741.12" waitingTime="10.00" waitingCount="3" stopTime="0.00" timeLoss="31.19" rerouteNo="0" devices="tripinfo_f_1.37" vType="DEFAULT_VEHTYPE" speedFactor="1.00" vaporized=""/>
    <tripinfo id="f_0.37" depart="82.00" departLane="3si_0" departPos="5.10" departSpeed="0.00" departDelay="8.00" arrival="196.00" arrivalLane="1o_0" arrivalPos="486.40" arrivalSpeed="10.20" duration="114.00" routeLength="738.21" waitingTime="16.00" waitingCount="3" stopTime="0.00" timeLoss="51.07" rerouteNo="0" devices="tripinfo_f_0.37" vType="DEFAULT_VEHTYPE" speedFactor="1.00" vaporized=""/>
    <tripinfo id="f_1.18" depart="54.00" departLane="4si_0" departPos="5.10" departSpeed="0.00" departDelay="18.00" arrival="197.00" arrivalLane="3o_0" arrivalPos="486.40" arrivalSpeed="10.81" duration="143.00" routeLength="741.12" waitingTime="3.00" waitingCount="3" stopTime="0.00" timeLoss="80.54" rerouteNo="0" devices="tripinfo_f_1.18" vType="DEFAULT_VEHTYPE" speedFactor="1.00" vaporized=""/>
    <tripinfo id="f_0.15" depart="34.00" departLane="3si_0" departPos="5.10" departSpeed="0.00" departDelay="4.00" arrival="201.00" arrivalLane="1o_0" arrivalPos="486.40" arrivalSpeed="10.03" duration="167.00" routeLength="738.21" waitingTime="16.00" waitingCount="4" stopTime="0.00" timeLoss="104.03" rerouteNo="0" devices="tripinfo_f_0.15" vType="DEFAULT_VEHTYPE" speedFactor="1.00" vaporized=""/>
    <tripinfo id="f_1.39" depart="103.00" departLane="4si_0" departPos="5.10" departSpeed="0.00" departDelay="25.00" arrival="203.00" arrivalLane="3o_0" arrivalPos="486.40" arrivalSpeed="9.93" duration="100.00" routeLength="741.12" waitingTime="14.00" waitingCount="2" stopTime="0.00" timeLoss="36.81" rerouteNo="0" devices="tripinfo_f_1.39" vType="DEFAULT_VEHTYPE" speedFactor="1.00" vaporized=""/>
    <tripinfo id="f_0.38" depart="83.00" departLane="3si_0" departPos="5.10" departSpeed="0.00" departDelay="7.00" arrival="206.00" arrivalLane="1o_0" arrivalPos="486.40" arrivalSpeed="9.82" duration="123.00" routeLength="738.21" waitingTime="26.00" waitingCount="5" stopTime="0.00" timeLoss="60.73" rerouteNo="0" devices="tripinfo_f_0.38" vType="DEFAULT_VEHTYPE" speedFactor="1.00" vaporized=""/>
    <tripinfo id="f_1.19" depart="57.00" departLane="4si_0" departPos="5.10" departSpeed="0.00" departDelay="19.00" arrival="209.00" arrivalLane="3o_0" arrivalPos="486.40" arrivalSpeed="9.83" duration="152.00" routeLength="741.12" waitingTime="5.00" waitingCount="2" stopTime="0.00" timeLoss="89.43" rerouteNo="0" devices="tripinfo_f_1.19" vType="DEFAULT_VEHTYPE" speedFactor="1.00" vaporized=""/>
    <tripinfo id="f_0.16" depart="36.00" departLane="3si_0" departPos="5.10" departSpeed="0.00" departDelay="4.00" arrival="211.00" arrivalLane="1o_0" arrivalPos="486.40" arrivalSpeed="9.87" duration="175.00" routeLength="738.21" waitingTime="24.00" waitingCount="5" stopTime="0.00" timeLoss="112.56" rerouteNo="0" devices="tripinfo_f_0.16" vType="DEFAULT_VEHTYPE" speedFactor="1.00" vaporized=""/>
    <tripinfo id="f_1.40" depart="106.00" departLane="4si_0" departPos="5.10" departSpeed="0.00" departDelay="26.00" arrival="216.00" arrivalLane="3o_0" arrivalPos="486.40" arrivalSpeed="10.73" duration="110.00" routeLength="741.12" waitingTime="20.00" waitingCount="2" stopTime="0.00" timeLoss="46.89" rerouteNo="0" devices="tripinfo_f_1.40" vType="DEFAULT_VEHTYPE" speedFactor="1.00" vaporized=""/>
    <tripinfo id="f_0.39" depart="85.00" departLane="3si_0" departPos="5.10" departSpeed="0.00" departDelay="7.00" arrival="219.00" arrivalLane="1o_0" arrivalPos="486.40" arrivalSpeed="10.94" duration="134.00" routeLength="738.21" waitingTime="30.00" waitingCount="4" stopTime="0.00" timeLoss="71.21" rerouteNo="0" devices="tripinfo_f_0.39" vType="DEFAULT_VEHTYPE" speedFactor="1.00" vaporized=""/>
    <tripinfo id="f_1.20" depart="59.00" departLane="4si_0" departPos="5.10" departSpeed="0.00" departDelay="19.00" arrival="224.00" arrivalLane="3o_0" arrivalPos="486.40" arrivalSpeed="10.21" duration="165.00" routeLength="741.12" waitingTime="12.00" waitingCount="2" stopTime="0.00" timeLoss="101.76" rerouteNo="0" devices="tripinfo_f_1.20" vType="DEFAULT_VEHTYPE" speedFactor="1.00" vaporized=""/>
    <tripinfo id="f_0.17" depart="39.00" departLane="3si_0" departPos="5.10" departSpeed="0.00" departDelay="5.00" arrival="228.00" arrivalLane="1o_0" arrivalPos="486.40" arrivalSpeed="11.05" duration="189.00" routeLength="738.21" waitingTime="30.00" waitingCount="4" stopTime="0.00" timeLoss="126.07" rerouteNo="0" devices="tripinfo_f_0.17" vType="DEFAULT_VEHTYPE" speedFactor="1.00" vaporized=""/>
    <tripinfo id="f_1.41" depart="109.00" departLane="4si_0" departPos="5.10" departSpeed="0.00" departDelay="27.00" arrival="230.00" arrivalLane="3o_0" arrivalPos="486.40" arrivalSpeed="11.04" duration="121.00" routeLength="741.12" waitingTime="25.00" waitingCount="3" stopTime="0.00" timeLoss="57.86" rerouteNo="0" devices="tripinfo_f_1.41" vType="DEFAULT_VEHTYPE" speedFactor="1.00" vaporized=""/>
    <tripinfo id="f_0.40" depart="88.00" departLane="3si_0" departPos="5.10" departSpeed="0.00" departDelay="8.00" arrival="232.00" arrivalLane="1o_0" arrivalPos="486.40" arrivalSpeed="10.23" duration="144.00" routeLength="738.21" waitingTime="39.00" waitingCount="4" stopTime="0.00" timeLoss="81.76" rerouteNo="0" devices="tripinfo_f_0.40" vType="DEFAULT_VEHTYPE" speedFactor="1.00" vaporized=""/>
    <tripinfo id="f_1.21" depart="61.00" departLane="4si_0" departPos="5.10" departSpeed="0.00" departDelay="19.00" arrival="237.00" arrivalLane="3o_0" arrivalPos="486.40" arrivalSpeed="10.73" duration="176.00" routeLength="741.12" waitingTime="19.00" waitingCount="3" stopTime="0.00" timeLoss="112.90" rerouteNo="0" devices="tripinfo_f_1.21" vType="DEFAULT_VEHTYPE" speedFactor="1.00" vaporized=""/>
    <tripinfo id="f_0.46" depart="102.00" departLane="3si_0" departPos="5.10" departSpeed="0.00" departDelay="10.00" arrival="240.00" arrivalLane="1o_0" arrivalPos="486.40" arrivalSpeed="10.83" duration="138.00" routeLength="738.21" waitingTime="26.00" waitingCount="5" stopTime="0.00" timeLoss="74.94" rerouteNo="0" devices="tripinfo_f_0.46" vType="DEFAULT_VEHTYPE" speedFactor="1.00" vaporized=""/>
    <tripinfo id="f_1.44" depart="117.00" departLane="4si_0" departPos="5.10" departSpeed="0.00" departDelay="29.00" arrival="244.00" arrivalLane="3o_0" arrivalPos="486.40" arrivalSpeed="10.79" duration="127.00" routeLength="741.12" waitingTime="23.00" waitingCount="4" stopTime="0.00" timeLoss="64.01" rerouteNo="0" devices="tripinfo_f_1.44" vType="DEFAULT_VEHTYPE" speedFactor="1.00" vaporized=""/>
    <tripinfo id="f_0.18" depart="41.00" departLane="3si_0" departPos="5.10" departSpeed="0.00" departDelay="5.00" arrival="248.00" arrivalLane="1o_0" arrivalPos="486.40" arrivalSpeed="10.98" duration="207.00" routeLength="738.21" waitingTime="42.00" waitingCount="5" stopTime="0.00" timeLoss="144.04" rerouteNo="0" devices="tripinfo_f_0.18" vType="DEFAULT_VEHTYPE" speedFactor="1.00" vaporized=""/>
    <tripinfo id="f_1.22" depart="63.00" departLane="4si_0" departPos="5.10" departSpeed="0.00" departDelay="19.00" arrival="251.00" arrivalLane="3o_0" arrivalPos="486.40" arrivalSpeed="10.39" duration="188.00" routeLength="741.12" waitingTime="24.00" waitingCount="3" stopTime="0.00" timeLoss="124.91" rerouteNo="0" devices="tripinfo_f_1.22" vType="DEFAULT_VEHTYPE" speedFactor="1.00" vaporized=""/>
    <tripinfo id="f_0.41" depart="90.00" departLane="3si_0" departPos="5.10" departSpeed="0.00" departDelay="8.00" arrival="255.00" arrivalLane="1o_0" arrivalPos="486.40" arrivalSpeed="10.20" duration="165.00" routeLength="738.21" waitingTime="57.00" waitingCount="5" stopTime="0.00" timeLoss="102.07" rerouteNo="0" devices="tripinfo_f_0.41" vType="DEFAULT_VEHTYPE" speedFactor="1.00" vaporized=""/>
    <tripinfo id="f_1.46" depart="123.00" departLane="4si_0" departPos="5.10" departSpeed="0.00" departDelay="31.00" arrival="258.00" arrivalLane="3o_0" arrivalPos="486.40" arrivalSpeed="9.97" duration="135.00" routeLength="741.12" waitingTime="26.00" waitingCount="6" stopTime="0.00" timeLoss="72.11" rerouteNo="0" devices="tripinfo_f_1.46" vType="DEFAULT_VEHTYPE" speedFactor="1.00" vaporized=""/>
    <tripinfo id="f_0.44" depart="96.00" departLane="3si_0" departPos="5.10" departSpeed="0.00" departDelay="8.00" arrival="261.00" arrivalLane="1o_0" arrivalPos="486.40" arrivalSpeed="9.89" duration="165.00" routeLength="738.21" waitingTime="50.00" waitingCount="9" stopTime="0.00" timeLoss="102.84" rerouteNo="0" devices="tripinfo_f_0.44" vType="DEFAULT_VEHTYPE" speedFactor="1.00" vaporized=""/>
    <tripinfo id="f_1.23" depart="65.00" departLane="4si_0" departPos="5.10" departSpeed="0.00" departDelay="19.00" arrival="264.00" arrivalLane="3o_0" arrivalPos="486.40" arrivalSpeed="11.00" duration="199.00" routeLength="741.12" waitingTime="29.00" waitingCount="3" stopTime="0.00" timeLoss="136.14" rerouteNo="0" devices="tripinfo_f_1.23" vType="DEFAULT_VEHTYPE" speedFactor="1.00" vaporized=""/>
    <tripinfo id="f_0.50" depart="112.00" departLane="3si_0" departPos="5.10" departSpeed="0.00" departDelay="12.00" arrival="268.00" arrivalLane="1o_0" arrivalPos="486.40" arrivalSpeed="10.85" duration="156.00" routeLength="738.21" waitingTime="43.00" waitingCount="6" stopTime="0.00" timeLoss="93.37" rerouteNo="0" devices="tripinfo_f_0.50" vType="DEFAULT_VEHTYPE" speedFactor="1.00" vaporized=""/>
    <tripinfo id="f_1.47" depart="126.00" departLane="4si_0" departPos="5.10" departSpeed="0.00" departDelay="32.00" arrival="270.00" arrivalLane="3o_0" arrivalPos="486.40" arrivalSpeed="10.32" duration="144.00" routeLength="741.12" waitingTime="32.00" waitingCount="4" stopTime="0.00" timeLoss="81.53" rerouteNo="0" devices="tripinfo_f_1.47" vType="DEFAULT_VEHTYPE" speedFactor="1.00" vaporized=""/>
    <tripinfo id="f_0.19" depart="43.00" departLane="3si_0" departPos="5.10" departSpeed="0.00" departDelay="5.00" arrival="274.00" arrivalLane="1o_0" arrivalPos="486.40" arrivalSpeed="10.70" duration="231.00" routeLength="738.21" waitingTime="63.00" waitingCount="8" stopTime="0.00" timeLoss="168.19" rerouteNo="0" devices="tripinfo_f_0.19" vType="DEFAULT_VEHTYPE" speedFactor="1.00" vaporized=""/>
    <tripinfo id="f_1.24" depart="67.00" departLane="4si_0" departPos="5.10" departSpeed="0.00" departDelay="19.00" arrival="275.00" arrivalLane="3o_0" arrivalPos="486.40" arrivalSpeed="10.82" duration="208.00" routeLength="741.12" waitingTime="36.00" waitingCount="4" stopTime="0.00" timeLoss="145.45" rerouteNo="0" devices="tripinfo_f_1.24" vType="DEFAULT_VEHTYPE" speedFactor="1.00" vaporized=""/>
    <tripinfo id="f_0.57" depart="128.00" departLane="3si_0" departPos="5.10" departSpeed="0.00" departDelay="14.00" arrival="279.00" arrivalLane="1o_0" arrivalPos="486.40" arrivalSpeed="10.01" duration="151.00" routeLength="738.21" waitingTime="48.00" waitingCount="5" stopTime="0.00" timeLoss="88.74" rerouteNo="0" devices="tripinfo_f_0.57" vType="DEFAULT_VEHTYPE" speedFactor="1.00" vaporized=""/>
    <tripinfo id="f_1.48" depart="129.00" departLane="4si_0" departPos="5.10" departSpeed="0.00" departDelay="33.00" arrival="283.00" arrivalLane="3o_0" arrivalPos="486.40" arrivalSpeed="11.11" duration="154.00" routeLength="741.12" waitingTime="37.00" waitingCount="3" stopTime="0.00" timeLoss="91.60" rerouteNo="0" devices="tripinfo_f_1.48" vType="DEFAULT_VEHTYPE" speedFactor="1.00" vaporized=""/>
    <tripinfo id="f_0.55" depart="122.00" departLane="3si_0" departPos="5.10" departSpeed="0.00" departDelay="12.00" arrival="288.00" arrivalLane="1o_0" arrivalPos="486.40" arrivalSpeed="10.29" duration="166.00" routeLength="738.21" waitingTime="44.00" waitingCount="6" stopTime="0.00" timeLoss="103.66" rerouteNo="0" devices="tripinfo_f_0.55" vType="DEFAULT_VEHTYPE" speedFactor="1.00" vaporized=""/>
    <tripinfo id="f_1.25" depart="69.00" departLane="4si_0" departPos="5.10" departSpeed="0.00" departDelay="19.00" arrival="291.00" arrivalLane="3o_0" arrivalPos="486.40" arrivalSpeed="10.13" duration="222.00" routeLength="741.12" waitingTime="43.00" waitingCount="4" stopTime="0.00" timeLoss="158.96" rerouteNo="0" devices="tripinfo_f_1.25" vType="DEFAULT_VEHTYPE" speedFactor="1.00" vaporized=""/>
    <tripinfo id="f_0.48" depart="107.00" departLane="3si_0" departPos="5.10" departSpeed="0.00" departDelay="11.00" arrival="295.00" arrivalLane="1o_0" arrivalPos="486.40" arrivalSpeed="11.02" duration="188.00" routeLength="738.21" waitingTime="85.00" waitingCount="8" stopTime="0.00" timeLoss="125.17" rerouteNo="0" devices="tripinfo_f_0.48" vType="DEFAULT_VEHTYPE" speedFactor="1.00" vaporized=""/>
    <tripinfo id="f_1.27" depart="72.00" departLane="4si_0" departPos="5.10" departSpeed="0.00" departDelay="18.00" arrival="298.00" arrivalLane="3o_0" arrivalPos="486.40" arrivalSpeed="9.85" duration="226.00" routeLength="741.12" waitingTime="43.00" waitingCount="5" stopTime="0.00" timeLoss="163.30" rerouteNo="0" devices="tripinfo_f_1.27" vType="DEFAULT_VEHTYPE" speedFactor="1.00" vaporized=""/>
    <tripinfo id="f_0.49" depart="109.00" departLane="3si_0" departPos="5.10" departSpeed="0.00" departDelay="11.00" arrival="302.00" arrivalLane="1o_0" arrivalPos="486.40" arrivalSpeed="9.88" duration="193.00" routeLength="738.21" waitingTime="71.00" waitingCount="8" stopTime="0.00" timeLoss="130.63" rerouteNo="0" devices="tripinfo_f_0.49" vType="DEFAULT_VEHTYPE" speedFactor="1.00" vaporized=""/>
    <tripinfo id="f_1.51" depart="139.00" departLane="4si_0" departPos="5.10" departSpeed="0.00" departDelay="37.00" arrival="305.00" arrivalLane="3o_0" arrivalPos="486.40" arrivalSpeed="10.52" duration="166.00" routeLength="741.12" waitingTime="42.00" waitingCount="5" stopTime="0.00" timeLoss="103.61" rerouteNo="0" devices="tripinfo_f_1.51" vType="DEFAULT_VEHTYPE" speedFactor="1.00" vaporized=""/>