<?xml version="1.0" encoding="UTF-8"?>

<!-- generated on 2022-06-16 10:16:36 by Eclipse SUMO sumo Version v1_13_0+0901-ab95b5a7246
This data file and the accompanying materials
are made available under the terms of the Eclipse Public License v2.0
which accompanies this distribution, and is available at
http://www.eclipse.org/legal/epl-v20.html
This file may also be made available under the following Secondary
Licenses when the conditions for such availability set forth in the Eclipse
Public License 2.0 are satisfied: GNU General Public License, version 2
or later which is available at
https://www.gnu.org/licenses/old-licenses/gpl-2.0-standalone.html
SPDX-License-Identifier: EPL-2.0 OR GPL-2.0-or-later
<configuration xmlns:xsi="http://www.w3.org/2001/XMLSchema-instance" xsi:noNamespaceSchemaLocation="http://sumo.dlr.de/xsd/sumoConfiguration.xsd">

    <input>
        <net-file value="net2.net.xml"/>
        <route-files value="input_routes.rou.xml"/>
    </input>

    <output>
        <write-license value="true"/>
        <fcd-output value="fcd.xml"/>
        <tripinfo-output value="tripinfos.xml"/>
    </output>

    <time>
        <end value="360"/>
    </time>

    <processing>
        <default.speeddev value="0"/>
    </processing>

    <report>
        <xml-validation value="never"/>
        <duration-log.statistics value="true"/>
        <no-step-log value="true"/>
    </report>

</configuration>
-->

<fcd-export xmlns:xsi="http://www.w3.org/2001/XMLSchema-instance" xsi:noNamespaceSchemaLocation="http://sumo.dlr.de/xsd/fcd_file.xsd">
    <timestep time="0.00">
        <vehicle id="flow.0" x="104.95" y="91.85" angle="0.00" type="t0" speed="13.89" pos="91.85" lane="SC_0" slope="0.00"/>
    </timestep>
    <timestep time="1.00">
        <vehicle id="flow.0" x="101.65" y="105.74" angle="0.00" type="t0" speed="13.89" pos="13.79" lane=":C_11_1" slope="0.00"/>
    </timestep>
    <timestep time="2.00">
        <vehicle id="flow.0" x="101.65" y="119.52" angle="0.00" type="t0" speed="13.78" pos="11.47" lane="CN_1" slope="0.00"/>
    </timestep>
    <timestep time="3.00">
        <vehicle id="flow.0" x="101.65" y="132.73" angle="0.00" type="t0" speed="13.21" pos="24.68" lane="CN_1" slope="0.00"/>
    </timestep>
    <timestep time="4.00">
        <vehicle id="flow.0" x="101.65" y="146.12" angle="0.00" type="t0" speed="13.39" pos="38.07" lane="CN_1" slope="0.00"/>
    </timestep>
    <timestep time="5.00">
        <vehicle id="flow.0" x="101.65" y="159.88" angle="0.00" type="t0" speed="13.77" pos="51.83" lane="CN_1" slope="0.00"/>
    </timestep>
    <timestep time="6.00">
        <vehicle id="flow.0" x="101.65" y="173.50" angle="0.00" type="t0" speed="13.62" pos="65.45" lane="CN_1" slope="0.00"/>
    </timestep>
    <timestep time="7.00">
        <vehicle id="flow.0" x="101.65" y="186.96" angle="0.00" type="t0" speed="13.47" pos="78.91" lane="CN_1" slope="0.00"/>
    </timestep>
    <timestep time="8.00">
        <vehicle id="flow.0" x="101.33" y="200.47" angle="356.31" type="t0" speed="13.60" pos="0.57" lane=":N_0_0" slope="0.00"/>
    </timestep>
    <timestep time="9.00">
        <vehicle id="flow.0" x="95.05" y="190.88" angle="180.00" type="t0" speed="13.37" pos="9.12" lane="NC_0" slope="0.00"/>
    </timestep>
    <timestep time="10.00">
        <vehicle id="flow.0" x="95.05" y="177.20" angle="180.00" type="t0" speed="13.68" pos="22.80" lane="NC_0" slope="0.00"/>
    </timestep>
    <timestep time="11.00">
        <vehicle id="flow.0" x="95.05" y="163.31" angle="180.00" type="t0" speed="13.89" pos="36.69" lane="NC_0" slope="0.00"/>
    </timestep>
    <timestep time="12.00">
        <vehicle id="flow.0" x="95.05" y="149.42" angle="180.00" type="t0" speed="13.89" pos="50.58" lane="NC_0" slope="0.00"/>
    </timestep>
    <timestep time="13.00">
        <vehicle id="flow.0" x="95.05" y="136.82" angle="180.00" type="t0" speed="12.60" pos="63.18" lane="NC_0" slope="0.00"/>
    </timestep>
    <timestep time="14.00">
        <vehicle id="flow.0" x="95.05" y="123.49" angle="180.00" type="t0" speed="13.33" pos="76.51" lane="NC_0" slope="0.00"/>
    </timestep>
    <timestep time="15.00">
        <vehicle id="flow.0" x="95.05" y="109.60" angle="180.00" type="t0" speed="13.89" pos="90.40" lane="NC_0" slope="0.00"/>
    </timestep>
    <timestep time="16.00">
        <vehicle id="flow.0" x="84.75" y="101.65" angle="270.00" type="t0" speed="13.75" pos="7.20" lane="CW_1" slope="0.00"/>
    </timestep>
    <timestep time="17.00">
        <vehicle id="flow.0" x="70.86" y="101.65" angle="270.00" type="t0" speed="13.89" pos="21.09" lane="CW_1" slope="0.00"/>
    </timestep>
    <timestep time="18.00">
        <vehicle id="flow.0" x="56.97" y="101.65" angle="270.00" type="t0" speed="13.89" pos="34.98" lane="CW_1" slope="0.00"/>
    </timestep>
    <timestep time="19.00">
        <vehicle id="flow.0" x="43.38" y="101.65" angle="270.00" type="t0" speed="13.59" pos="48.57" lane="CW_1" slope="0.00"/>
    </timestep>
    <timestep time="20.00">
        <vehicle id="flow.0" x="29.51" y="101.65" angle="270.00" type="t0" speed="13.87" pos="62.44" lane="CW_1" slope="0.00"/>
    </timestep>
    <timestep time="21.00">
        <vehicle id="flow.0" x="15.94" y="101.65" angle="270.00" type="t0" speed="13.57" pos="76.01" lane="CW_1" slope="0.00"/>
    </timestep>
    <timestep time="22.00">
        <vehicle id="flow.0" x="2.05" y="101.65" angle="270.00" type="t0" speed="13.89" pos="89.90" lane="CW_1" slope="0.00"/>
    </timestep>
    <timestep time="23.00">
        <vehicle id="flow.0" x="7.02" y="98.35" angle="90.00" type="t0" speed="13.89" pos="7.02" lane="WC_1" slope="0.00"/>
    </timestep>
    <timestep time="24.00">
        <vehicle id="flow.0" x="20.89" y="98.35" angle="90.00" type="t0" speed="13.87" pos="20.89" lane="WC_1" slope="0.00"/>
    </timestep>
    <timestep time="25.00">
        <vehicle id="flow.0" x="34.71" y="98.35" angle="90.00" type="t0" speed="13.81" pos="34.71" lane="WC_1" slope="0.00"/>
    </timestep>
    <timestep time="26.00">
        <vehicle id="flow.0" x="48.35" y="98.35" angle="90.00" type="t0" speed="13.65" pos="48.35" lane="WC_1" slope="0.00"/>
    </timestep>
    <timestep time="27.00">
        <vehicle id="flow.0" x="61.90" y="98.35" angle="90.00" type="t0" speed="13.55" pos="61.90" lane="WC_1" slope="0.00"/>
    </timestep>
    <timestep time="28.00">
        <vehicle id="flow.0" x="75.66" y="98.35" angle="90.00" type="t0" speed="13.75" pos="75.66" lane="WC_1" slope="0.00"/>
    </timestep>
    <timestep time="29.00">
        <vehicle id="flow.0" x="89.25" y="98.35" angle="90.00" type="t0" speed="13.59" pos="89.25" lane="WC_1" slope="0.00"/>
    </timestep>
    <timestep time="30.00"/>
    <timestep time="31.00"/>
    <timestep time="32.00"/>
    <timestep time="33.00"/>
    <timestep time="34.00"/>
    <timestep time="35.00"/>
    <timestep time="36.00">
        <vehicle id="flow.1" x="104.95" y="91.85" angle="0.00" type="t0" speed="0.10" pos="91.85" lane="SC_0" slope="0.00"/>
    </timestep>
    <timestep time="37.00">
        <vehicle id="flow.1" x="104.95" y="91.85" angle="0.00" type="t0" speed="0.00" pos="91.85" lane="SC_0" slope="0.00"/>
    </timestep>
    <timestep time="38.00">
        <vehicle id="flow.1" x="104.95" y="91.85" angle="0.00" type="t0" speed="0.00" pos="91.85" lane="SC_0" slope="0.00"/>
    </timestep>
    <timestep time="39.00">
        <vehicle id="flow.1" x="104.95" y="91.85" angle="0.00" type="t0" speed="0.00" pos="91.85" lane="SC_0" slope="0.00"/>
    </timestep>
    <timestep time="40.00">
        <vehicle id="flow.1" x="104.95" y="91.85" angle="0.00" type="t0" speed="0.00" pos="91.85" lane="SC_0" slope="0.00"/>
    </timestep>
    <timestep time="41.00">
        <vehicle id="flow.1" x="104.95" y="91.85" angle="0.00" type="t0" speed="0.00" pos="91.85" lane="SC_0" slope="0.00"/>
    </timestep>
    <timestep time="42.00">
        <vehicle id="flow.1" x="104.95" y="91.85" angle="0.00" type="t0" speed="0.00" pos="91.85" lane="SC_0" slope="0.00"/>
    </timestep>
    <timestep time="43.00">
        <vehicle id="flow.1" x="104.95" y="91.85" angle="0.00" type="t0" speed="0.00" pos="91.85" lane="SC_0" slope="0.00"/>
    </timestep>
    <timestep time="44.00">
        <vehicle id="flow.1" x="104.95" y="91.85" angle="0.00" type="t0" speed="0.00" pos="91.85" lane="SC_0" slope="0.00"/>
    </timestep>
    <timestep time="45.00">
        <vehicle id="flow.1" x="104.95" y="91.85" angle="0.00" type="t0" speed="0.00" pos="91.85" lane="SC_0" slope="0.00"/>
    </timestep>
    <timestep time="46.00">
        <vehicle id="flow.1" x="104.95" y="91.85" angle="0.00" type="t0" speed="0.00" pos="91.85" lane="SC_0" slope="0.00"/>
    </timestep>
    <timestep time="47.00">
        <vehicle id="flow.1" x="104.95" y="91.85" angle="0.00" type="t0" speed="0.00" pos="91.85" lane="SC_0" slope="0.00"/>
    </timestep>
    <timestep time="48.00">
        <vehicle id="flow.1" x="104.95" y="91.85" angle="0.00" type="t0" speed="0.00" pos="91.85" lane="SC_0" slope="0.00"/>
    </timestep>
    <timestep time="49.00">
        <vehicle id="flow.1" x="104.95" y="91.85" angle="0.00" type="t0" speed="0.00" pos="91.85" lane="SC_0" slope="0.00"/>
    </timestep>
    <timestep time="50.00">
        <vehicle id="flow.1" x="104.95" y="91.85" angle="0.00" type="t0" speed="0.00" pos="91.85" lane="SC_0" slope="0.00"/>
    </timestep>
    <timestep time="51.00">
        <vehicle id="flow.1" x="104.95" y="91.85" angle="0.00" type="t0" speed="0.00" pos="91.85" lane="SC_0" slope="0.00"/>
    </timestep>
    <timestep time="52.00">
        <vehicle id="flow.1" x="104.95" y="91.85" angle="0.00" type="t0" speed="0.00" pos="91.85" lane="SC_0" slope="0.00"/>
    </timestep>
    <timestep time="53.00">
        <vehicle id="flow.1" x="104.95" y="91.85" angle="0.00" type="t0" speed="0.00" pos="91.85" lane="SC_0" slope="0.00"/>
    </timestep>
    <timestep time="54.00">
        <vehicle id="flow.1" x="104.95" y="91.85" angle="0.00" type="t0" speed="0.00" pos="91.85" lane="SC_0" slope="0.00"/>
    </timestep>
    <timestep time="55.00">
        <vehicle id="flow.1" x="104.95" y="91.85" angle="0.00" type="t0" speed="0.00" pos="91.85" lane="SC_0" slope="0.00"/>
    </timestep>
    <timestep time="56.00">
        <vehicle id="flow.1" x="104.95" y="91.85" angle="0.00" type="t0" speed="0.00" pos="91.85" lane="SC_0" slope="0.00"/>
    </timestep>
    <timestep time="57.00">
        <vehicle id="flow.1" x="104.95" y="91.85" angle="0.00" type="t0" speed="0.00" pos="91.85" lane="SC_0" slope="0.00"/>
    </timestep>
    <timestep time="58.00">
        <vehicle id="flow.1" x="104.95" y="91.85" angle="0.00" type="t0" speed="0.00" pos="91.85" lane="SC_0" slope="0.00"/>
    </timestep>
    <timestep time="59.00">
        <vehicle id="flow.1" x="104.95" y="91.85" angle="0.00" type="t0" speed="0.00" pos="91.85" lane="SC_0" slope="0.00"/>
    </timestep>
    <timestep time="60.00">
        <vehicle id="flow.1" x="104.95" y="91.85" angle="0.00" type="t0" speed="0.00" pos="91.85" lane="SC_0" slope="0.00"/>
    </timestep>
    <timestep time="61.00">
        <vehicle id="flow.1" x="104.95" y="91.85" angle="0.00" type="t0" speed="0.00" pos="91.85" lane="SC_0" slope="0.00"/>
    </timestep>
    <timestep time="62.00">
        <vehicle id="flow.1" x="104.95" y="91.85" angle="0.00" type="t0" speed="0.00" pos="91.85" lane="SC_0" slope="0.00"/>
    </timestep>
    <timestep time="63.00">
        <vehicle id="flow.1" x="104.95" y="91.85" angle="0.00" type="t0" speed="0.00" pos="91.85" lane="SC_0" slope="0.00"/>
    </timestep>
    <timestep time="64.00">
        <vehicle id="flow.1" x="104.95" y="91.85" angle="0.00" type="t0" speed="0.00" pos="91.85" lane="SC_0" slope="0.00"/>
    </timestep>
    <timestep time="65.00">
        <vehicle id="flow.1" x="104.95" y="91.85" angle="0.00" type="t0" speed="0.00" pos="91.85" lane="SC_0" slope="0.00"/>
    </timestep>
    <timestep time="66.00">
        <vehicle id="flow.1" x="104.95" y="91.85" angle="0.00" type="t0" speed="0.00" pos="91.85" lane="SC_0" slope="0.00"/>
    </timestep>
    <timestep time="67.00">
        <vehicle id="flow.1" x="104.95" y="91.85" angle="0.00" type="t0" speed="0.00" pos="91.85" lane="SC_0" slope="0.00"/>
    </timestep>
    <timestep time="68.00">
        <vehicle id="flow.1" x="104.95" y="91.85" angle="0.00" type="t0" speed="0.00" pos="91.85" lane="SC_0" slope="0.00"/>
    </timestep>
    <timestep time="69.00">
        <vehicle id="flow.1" x="104.95" y="91.85" angle="0.00" type="t0" speed="0.00" pos="91.85" lane="SC_0" slope="0.00"/>
    </timestep>
    <timestep time="70.00">
        <vehicle id="flow.1" x="104.95" y="91.85" angle="0.00" type="t0" speed="0.00" pos="91.85" lane="SC_0" slope="0.00"/>
    </timestep>
    <timestep time="71.00">
        <vehicle id="flow.1" x="104.95" y="91.85" angle="0.00" type="t0" speed="0.00" pos="91.85" lane="SC_0" slope="0.00"/>
    </timestep>
    <timestep time="72.00">
        <vehicle id="flow.1" x="104.95" y="91.85" angle="0.00" type="t0" speed="0.00" pos="91.85" lane="SC_0" slope="0.00"/>
        <vehicle id="flow.2" x="104.95" y="58.19" angle="0.00" type="t0" speed="13.89" pos="58.19" lane="SC_0" slope="0.00"/>
    </timestep>
    <timestep time="73.00">
        <vehicle id="flow.1" x="104.95" y="91.85" angle="0.00" type="t0" speed="0.00" pos="91.85" lane="SC_0" slope="0.00"/>
        <vehicle id="flow.2" x="101.65" y="72.08" angle="0.00" type="t0" speed="13.89" pos="72.08" lane="SC_1" slope="0.00"/>
    </timestep>
    <timestep time="74.00">
        <vehicle id="flow.1" x="104.95" y="91.85" angle="0.00" type="t0" speed="0.00" pos="91.85" lane="SC_0" slope="0.00"/>
        <vehicle id="flow.2" x="101.65" y="82.87" angle="0.00" type="t0" speed="10.79" pos="82.87" lane="SC_1" slope="0.00"/>
    </timestep>
    <timestep time="75.00">
        <vehicle id="flow.1" x="104.95" y="91.85" angle="0.00" type="t0" speed="0.00" pos="91.85" lane="SC_0" slope="0.00"/>
        <vehicle id="flow.2" x="101.65" y="89.16" angle="0.00" type="t0" speed="6.29" pos="89.16" lane="SC_1" slope="0.00"/>
    </timestep>
    <timestep time="76.00">
        <vehicle id="flow.1" x="104.95" y="91.85" angle="0.00" type="t0" speed="0.00" pos="91.85" lane="SC_0" slope="0.00"/>
        <vehicle id="flow.2" x="101.65" y="90.95" angle="0.00" type="t0" speed="1.79" pos="90.95" lane="SC_1" slope="0.00"/>
    </timestep>
    <timestep time="77.00">
        <vehicle id="flow.1" x="104.95" y="91.85" angle="0.00" type="t0" speed="0.00" pos="91.85" lane="SC_0" slope="0.00"/>
        <vehicle id="flow.2" x="101.65" y="90.95" angle="0.00" type="t0" speed="0.00" pos="90.95" lane="SC_1" slope="0.00"/>
    </timestep>
    <timestep time="78.00">
        <vehicle id="flow.1" x="104.95" y="91.85" angle="0.00" type="t0" speed="0.00" pos="91.85" lane="SC_0" slope="0.00"/>
        <vehicle id="flow.2" x="101.65" y="90.95" angle="0.00" type="t0" speed="0.00" pos="90.95" lane="SC_1" slope="0.00"/>
    </timestep>
    <timestep time="79.00">
        <vehicle id="flow.1" x="104.95" y="91.85" angle="0.00" type="t0" speed="0.00" pos="91.85" lane="SC_0" slope="0.00"/>
        <vehicle id="flow.2" x="101.65" y="90.95" angle="0.00" type="t0" speed="0.00" pos="90.95" lane="SC_1" slope="0.00"/>
    </timestep>
    <timestep time="80.00">
        <vehicle id="flow.1" x="104.95" y="91.85" angle="0.00" type="t0" speed="0.00" pos="91.85" lane="SC_0" slope="0.00"/>
        <vehicle id="flow.2" x="101.65" y="90.95" angle="0.00" type="t0" speed="0.00" pos="90.95" lane="SC_1" slope="0.00"/>
    </timestep>
    <timestep time="81.00">
        <vehicle id="flow.1" x="104.95" y="91.85" angle="0.00" type="t0" speed="0.00" pos="91.85" lane="SC_0" slope="0.00"/>
        <vehicle id="flow.2" x="101.65" y="90.95" angle="0.00" type="t0" speed="0.00" pos="90.95" lane="SC_1" slope="0.00"/>
    </timestep>
    <timestep time="82.00">
        <vehicle id="flow.1" x="104.95" y="91.85" angle="0.00" type="t0" speed="0.00" pos="91.85" lane="SC_0" slope="0.00"/>
        <vehicle id="flow.2" x="101.65" y="90.95" angle="0.00" type="t0" speed="0.00" pos="90.95" lane="SC_1" slope="0.00"/>
    </timestep>
    <timestep time="83.00">
        <vehicle id="flow.1" x="104.95" y="91.85" angle="0.00" type="t0" speed="0.00" pos="91.85" lane="SC_0" slope="0.00"/>
        <vehicle id="flow.2" x="101.65" y="90.95" angle="0.00" type="t0" speed="0.00" pos="90.95" lane="SC_1" slope="0.00"/>
    </timestep>
    <timestep time="84.00">
        <vehicle id="flow.1" x="104.95" y="91.85" angle="0.00" type="t0" speed="0.00" pos="91.85" lane="SC_0" slope="0.00"/>
        <vehicle id="flow.2" x="101.65" y="90.95" angle="0.00" type="t0" speed="0.00" pos="90.95" lane="SC_1" slope="0.00"/>
    </timestep>
    <timestep time="85.00">
        <vehicle id="flow.1" x="104.95" y="91.85" angle="0.00" type="t0" speed="0.00" pos="91.85" lane="SC_0" slope="0.00"/>
        <vehicle id="flow.2" x="101.65" y="90.95" angle="0.00" type="t0" speed="0.00" pos="90.95" lane="SC_1" slope="0.00"/>
    </timestep>
    <timestep time="86.00">
        <vehicle id="flow.1" x="104.95" y="91.85" angle="0.00" type="t0" speed="0.00" pos="91.85" lane="SC_0" slope="0.00"/>
        <vehicle id="flow.2" x="101.65" y="90.95" angle="0.00" type="t0" speed="0.00" pos="90.95" lane="SC_1" slope="0.00"/>
    </timestep>
    <timestep time="87.00">
        <vehicle id="flow.1" x="104.95" y="91.85" angle="0.00" type="t0" speed="0.00" pos="91.85" lane="SC_0" slope="0.00"/>
        <vehicle id="flow.2" x="101.65" y="90.95" angle="0.00" type="t0" speed="0.00" pos="90.95" lane="SC_1" slope="0.00"/>
    </timestep>
    <timestep time="88.00">
        <vehicle id="flow.1" x="104.95" y="91.85" angle="0.00" type="t0" speed="0.00" pos="91.85" lane="SC_0" slope="0.00"/>
        <vehicle id="flow.2" x="101.65" y="90.95" angle="0.00" type="t0" speed="0.00" pos="90.95" lane="SC_1" slope="0.00"/>
    </timestep>
    <timestep time="89.00">
        <vehicle id="flow.1" x="104.95" y="91.85" angle="0.00" type="t0" speed="0.00" pos="91.85" lane="SC_0" slope="0.00"/>
        <vehicle id="flow.2" x="101.65" y="90.95" angle="0.00" type="t0" speed="0.00" pos="90.95" lane="SC_1" slope="0.00"/>
    </timestep>
    <timestep time="90.00">
        <vehicle id="flow.1" x="104.95" y="94.45" angle="0.00" type="t0" speed="2.60" pos="2.50" lane=":C_11_0" slope="0.00"/>
        <vehicle id="flow.2" x="101.65" y="93.55" angle="0.00" type="t0" speed="2.60" pos="1.60" lane=":C_11_1" slope="0.00"/>
    </timestep>
    <timestep time="91.00">
        <vehicle id="flow.1" x="104.95" y="99.65" angle="0.00" type="t0" speed="5.20" pos="7.70" lane=":C_11_0" slope="0.00"/>
        <vehicle id="flow.2" x="101.65" y="98.75" angle="0.00" type="t0" speed="5.20" pos="6.80" lane=":C_11_1" slope="0.00"/>
    </timestep>
    <timestep time="92.00">
        <vehicle id="flow.1" x="101.65" y="107.45" angle="0.00" type="t0" speed="7.80" pos="15.50" lane=":C_11_1" slope="0.00"/>
        <vehicle id="flow.2" x="101.65" y="99.45" angle="0.00" type="t0" speed="0.70" pos="7.50" lane=":C_11_1" slope="0.00"/>
    </timestep>
    <timestep time="93.00">
        <vehicle id="flow.1" x="101.65" y="117.85" angle="0.00" type="t0" speed="10.40" pos="9.80" lane="CN_1" slope="0.00"/>
        <vehicle id="flow.2" x="101.65" y="102.75" angle="0.00" type="t0" speed="3.30" pos="10.80" lane=":C_11_1" slope="0.00"/>
    </timestep>
    <timestep time="94.00">
        <vehicle id="flow.1" x="101.65" y="130.85" angle="0.00" type="t0" speed="13.00" pos="22.80" lane="CN_1" slope="0.00"/>
        <vehicle id="flow.2" x="101.65" y="108.65" angle="0.00" type="t0" speed="5.90" pos="0.60" lane="CN_1" slope="0.00"/>
    </timestep>
    <timestep time="95.00">
        <vehicle id="flow.1" x="101.65" y="144.41" angle="0.00" type="t0" speed="13.56" pos="36.36" lane="CN_1" slope="0.00"/>
        <vehicle id="flow.2" x="101.65" y="117.15" angle="0.00" type="t0" speed="8.50" pos="9.10" lane="CN_1" slope="0.00"/>
    </timestep>
    <timestep time="96.00">
        <vehicle id="flow.1" x="101.65" y="158.30" angle="0.00" type="t0" speed="13.89" pos="50.25" lane="CN_1" slope="0.00"/>
        <vehicle id="flow.2" x="101.65" y="128.25" angle="0.00" type="t0" speed="11.10" pos="20.20" lane="CN_1" slope="0.00"/>
    </timestep>
    <timestep time="97.00">
        <vehicle id="flow.1" x="101.65" y="172.15" angle="0.00" type="t0" speed="13.85" pos="64.10" lane="CN_1" slope="0.00"/>
        <vehicle id="flow.2" x="101.65" y="141.92" angle="0.00" type="t0" speed="13.67" pos="33.87" lane="CN_1" slope="0.00"/>
    </timestep>
    <timestep time="98.00">
        <vehicle id="flow.1" x="101.65" y="185.69" angle="0.00" type="t0" speed="13.54" pos="77.64" lane="CN_1" slope="0.00"/>
        <vehicle id="flow.2" x="101.65" y="155.56" angle="0.00" type="t0" speed="13.64" pos="47.51" lane="CN_1" slope="0.00"/>
    </timestep>
    <timestep time="99.00">
        <vehicle id="flow.1" x="101.65" y="198.90" angle="0.00" type="t0" speed="13.21" pos="90.85" lane="CN_1" slope="0.00"/>
        <vehicle id="flow.2" x="101.65" y="169.29" angle="0.00" type="t0" speed="13.73" pos="61.24" lane="CN_1" slope="0.00"/>
    </timestep>
    <timestep time="100.00">
        <vehicle id="flow.1" x="95.05" y="192.54" angle="180.00" type="t0" speed="13.38" pos="7.46" lane="NC_0" slope="0.00"/>
        <vehicle id="flow.2" x="101.65" y="183.18" angle="0.00" type="t0" speed="13.89" pos="75.13" lane="CN_1" slope="0.00"/>
    </timestep>
    <timestep time="101.00">
        <vehicle id="flow.1" x="95.05" y="179.14" angle="180.00" type="t0" speed="13.40" pos="20.86" lane="NC_0" slope="0.00"/>
        <vehicle id="flow.2" x="101.65" y="197.07" angle="0.00" type="t0" speed="13.89" pos="89.02" lane="CN_1" slope="0.00"/>
    </timestep>
    <timestep time="102.00">
        <vehicle id="flow.1" x="95.05" y="165.25" angle="180.00" type="t0" speed="13.89" pos="34.75" lane="NC_0" slope="0.00"/>
        <vehicle id="flow.2" x="95.05" y="194.20" angle="180.00" type="t0" speed="13.55" pos="5.80" lane="NC_0" slope="0.00"/>
    </timestep>
    <timestep time="103.00">
        <vehicle id="flow.1" x="95.05" y="151.68" angle="180.00" type="t0" speed="13.57" pos="48.32" lane="NC_0" slope="0.00"/>
        <vehicle id="flow.2" x="95.05" y="180.55" angle="180.00" type="t0" speed="13.64" pos="19.45" lane="NC_0" slope="0.00"/>
    </timestep>
    <timestep time="104.00">
        <vehicle id="flow.1" x="95.05" y="137.79" angle="180.00" type="t0" speed="13.89" pos="62.21" lane="NC_0" slope="0.00"/>
        <vehicle id="flow.2" x="95.05" y="166.88" angle="180.00" type="t0" speed="13.68" pos="33.12" lane="NC_0" slope="0.00"/>
    </timestep>
    <timestep time="105.00">
        <vehicle id="flow.1" x="95.05" y="124.38" angle="180.00" type="t0" speed="13.41" pos="75.62" lane="NC_0" slope="0.00"/>
        <vehicle id="flow.2" x="95.05" y="153.01" angle="180.00" type="t0" speed="13.87" pos="46.99" lane="NC_0" slope="0.00"/>
    </timestep>
    <timestep time="106.00">
        <vehicle id="flow.1" x="95.05" y="110.76" angle="180.00" type="t0" speed="13.62" pos="89.24" lane="NC_0" slope="0.00"/>
        <vehicle id="flow.2" x="95.05" y="139.46" angle="180.00" type="t0" speed="13.55" pos="60.54" lane="NC_0" slope="0.00"/>
    </timestep>
    <timestep time="107.00">
        <vehicle id="flow.1" x="86.15" y="101.65" angle="270.00" type="t0" speed="13.51" pos="5.80" lane="CW_1" slope="0.00"/>
        <vehicle id="flow.2" x="95.05" y="125.86" angle="180.00" type="t0" speed="13.60" pos="74.14" lane="NC_0" slope="0.00"/>
    </timestep>
    <timestep time="108.00">
        <vehicle id="flow.1" x="72.66" y="101.65" angle="270.00" type="t0" speed="13.48" pos="19.29" lane="CW_1" slope="0.00"/>
        <vehicle id="flow.2" x="95.05" y="112.05" angle="180.00" type="t0" speed="13.82" pos="87.95" lane="NC_0" slope="0.00"/>
        <vehicle id="flow.3" x="104.95" y="91.85" angle="0.00" type="t0" speed="13.89" pos="91.85" lane="SC_0" slope="0.00"/>
    </timestep>
    <timestep time="109.00">
        <vehicle id="flow.1" x="59.06" y="101.65" angle="270.00" type="t0" speed="13.61" pos="32.89" lane="CW_1" slope="0.00"/>
        <vehicle id="flow.2" x="87.06" y="101.65" angle="236.45" type="t0" speed="13.89" pos="4.89" lane="CW_1" slope="0.00"/>
        <vehicle id="flow.3" x="101.65" y="105.74" angle="0.00" type="t0" speed="13.89" pos="13.79" lane=":C_11_1" slope="0.00"/>
    </timestep>
    <timestep time="110.00">
        <vehicle id="flow.1" x="45.55" y="101.65" angle="270.00" type="t0" speed="13.51" pos="46.40" lane="CW_1" slope="0.00"/>
        <vehicle id="flow.2" x="73.17" y="101.65" angle="270.00" type="t0" speed="13.89" pos="18.78" lane="CW_1" slope="0.00"/>
        <vehicle id="flow.3" x="101.65" y="119.63" angle="0.00" type="t0" speed="13.89" pos="11.58" lane="CN_1" slope="0.00"/>
    </timestep>
    <timestep time="111.00">
        <vehicle id="flow.1" x="31.66" y="101.65" angle="270.00" type="t0" speed="13.89" pos="60.29" lane="CW_1" slope="0.00"/>
        <vehicle id="flow.2" x="59.95" y="101.65" angle="270.00" type="t0" speed="13.21" pos="32.00" lane="CW_1" slope="0.00"/>
        <vehicle id="flow.3" x="101.65" y="133.41" angle="0.00" type="t0" speed="13.78" pos="25.36" lane="CN_1" slope="0.00"/>
    </timestep>
    <timestep time="112.00">
        <vehicle id="flow.1" x="17.77" y="101.65" angle="270.00" type="t0" speed="13.89" pos="74.18" lane="CW_1" slope="0.00"/>
        <vehicle id="flow.2" x="46.06" y="101.65" angle="270.00" type="t0" speed="13.89" pos="45.89" lane="CW_1" slope="0.00"/>
        <vehicle id="flow.3" x="101.65" y="147.15" angle="0.00" type="t0" speed="13.74" pos="39.10" lane="CN_1" slope="0.00"/>
    </timestep>
    <timestep time="113.00">
        <vehicle id="flow.1" x="4.00" y="101.65" angle="270.00" type="t0" speed="13.77" pos="87.95" lane="CW_1" slope="0.00"/>
        <vehicle id="flow.2" x="32.41" y="101.65" angle="270.00" type="t0" speed="13.65" pos="59.54" lane="CW_1" slope="0.00"/>
        <vehicle id="flow.3" x="101.65" y="160.95" angle="0.00" type="t0" speed="13.80" pos="52.90" lane="CN_1" slope="0.00"/>
    </timestep>
    <timestep time="114.00">
        <vehicle id="flow.1" x="4.95" y="98.35" angle="90.31" type="t0" speed="13.77" pos="4.95" lane="WC_1" slope="0.00"/>
        <vehicle id="flow.2" x="18.52" y="101.65" angle="270.00" type="t0" speed="13.89" pos="73.43" lane="CW_1" slope="0.00"/>
        <vehicle id="flow.3" x="101.65" y="174.70" angle="0.00" type="t0" speed="13.75" pos="66.65" lane="CN_1" slope="0.00"/>
    </timestep>
    <timestep time="115.00">
        <vehicle id="flow.1" x="18.84" y="98.35" angle="90.00" type="t0" speed="13.89" pos="18.84" lane="WC_1" slope="0.00"/>
        <vehicle id="flow.2" x="4.77" y="101.65" angle="270.00" type="t0" speed="13.75" pos="87.18" lane="CW_1" slope="0.00"/>
        <vehicle id="flow.3" x="101.65" y="188.47" angle="0.00" type="t0" speed="13.76" pos="80.42" lane="CN_1" slope="0.00"/>
    </timestep>
    <timestep time="116.00">
        <vehicle id="flow.1" x="32.19" y="98.35" angle="90.00" type="t0" speed="13.34" pos="32.19" lane="WC_1" slope="0.00"/>
        <vehicle id="flow.2" x="4.30" y="98.35" angle="94.52" type="t0" speed="13.89" pos="4.30" lane="WC_1" slope="0.00"/>
        <vehicle id="flow.3" x="100.07" y="201.61" angle="339.77" type="t0" speed="13.86" pos="2.33" lane=":N_0_0" slope="0.00"/>
    </timestep>
    <timestep time="117.00">
        <vehicle id="flow.1" x="45.73" y="98.35" angle="90.00" type="t0" speed="13.55" pos="45.73" lane="WC_1" slope="0.00"/>
        <vehicle id="flow.2" x="18.06" y="98.35" angle="90.00" type="t0" speed="13.77" pos="18.06" lane="WC_1" slope="0.00"/>
        <vehicle id="flow.3" x="95.05" y="188.60" angle="180.00" type="t0" speed="13.89" pos="11.40" lane="NC_0" slope="0.00"/>
    </timestep>
    <timestep time="118.00">
        <vehicle id="flow.1" x="59.41" y="98.35" angle="90.00" type="t0" speed="13.68" pos="59.41" lane="WC_1" slope="0.00"/>
        <vehicle id="flow.2" x="31.60" y="98.35" angle="90.00" type="t0" speed="13.54" pos="31.60" lane="WC_1" slope="0.00"/>
        <vehicle id="flow.3" x="95.05" y="175.12" angle="180.00" type="t0" speed="13.48" pos="24.88" lane="NC_0" slope="0.00"/>
    </timestep>
    <timestep time="119.00">
        <vehicle id="flow.1" x="73.30" y="98.35" angle="90.00" type="t0" speed="13.89" pos="73.30" lane="WC_1" slope="0.00"/>
        <vehicle id="flow.2" x="45.47" y="98.35" angle="90.00" type="t0" speed="13.87" pos="45.47" lane="WC_1" slope="0.00"/>
        <vehicle id="flow.3" x="95.05" y="161.23" angle="180.00" type="t0" speed="13.89" pos="38.77" lane="NC_0" slope="0.00"/>
    </timestep>
    <timestep time="120.00">
        <vehicle id="flow.1" x="87.09" y="98.35" angle="90.00" type="t0" speed="13.79" pos="87.09" lane="WC_1" slope="0.00"/>
        <vehicle id="flow.2" x="59.36" y="98.35" angle="90.00" type="t0" speed="13.89" pos="59.36" lane="WC_1" slope="0.00"/>
        <vehicle id="flow.3" x="95.05" y="147.42" angle="180.00" type="t0" speed="13.82" pos="52.58" lane="NC_0" slope="0.00"/>
    </timestep>
    <timestep time="121.00">
        <vehicle id="flow.2" x="72.72" y="98.35" angle="90.00" type="t0" speed="13.36" pos="72.72" lane="WC_1" slope="0.00"/>
        <vehicle id="flow.3" x="95.05" y="133.53" angle="180.00" type="t0" speed="13.89" pos="66.47" lane="NC_0" slope="0.00"/>
    </timestep>
    <timestep time="122.00">
        <vehicle id="flow.2" x="86.36" y="98.35" angle="90.00" type="t0" speed="13.64" pos="86.36" lane="WC_1" slope="0.00"/>
        <vehicle id="flow.3" x="95.05" y="119.72" angle="180.00" type="t0" speed="13.81" pos="80.28" lane="NC_0" slope="0.00"/>
    </timestep>
    <timestep time="123.00">
        <vehicle id="flow.3" x="94.55" y="106.17" angle="185.85" type="t0" speed="13.65" pos="1.98" lane=":C_0_0" slope="0.00"/>
    </timestep>
    <timestep time="124.00">