<?xml version="1.0" encoding="UTF-8"?>

<!-- generated on Tue Jan 29 21:07:10 2019 by Eclipse SUMO Version v1_1_0+0435-678c69824b
This data file and the accompanying materials
are made available under the terms of the Eclipse Public License v2.0
which accompanies this distribution, and is available at
http://www.eclipse.org/legal/epl-v20.html
SPDX-License-Identifier: EPL-2.0
<configuration xmlns:xsi="http://www.w3.org/2001/XMLSchema-instance" xsi:noNamespaceSchemaLocation="http://sumo.dlr.de/xsd/sumoConfiguration.xsd">

    <input>
        <net-file value="net.net.xml"/>
        <route-files value="input_routes.rou.xml"/>
    </input>

    <output>
        <write-license value="true"/>
        <tripinfo-output value="tripinfos.xml"/>
        <save-state.times value="10"/>
        <save-state.files value="state.xml"/>
    </output>

    <processing>
        <default.speeddev value="0"/>
    </processing>

    <report>
        <verbose value="true"/>
        <xml-validation value="never"/>
        <duration-log.disable value="true"/>
        <no-step-log value="true"/>
    </report>

</configuration>
-->

<tripinfos xmlns:xsi="http://www.w3.org/2001/XMLSchema-instance" xsi:noNamespaceSchemaLocation="http://sumo.dlr.de/xsd/tripinfo_file.xsd">
    <tripinfo id="flowNumber.0" depart="0.00" departLane="beg_0" departPos="5.10" departSpeed="0.00" departDelay="0.00" arrival="26.00" arrivalLane="end_0" arrivalPos="100.00" arrivalSpeed="13.89" duration="26.00" routeLength="301.90" waitingTime="0.00" waitingCount="0" stopTime="0.00" timeLoss="2.77" rerouteNo="0" devices="tripinfo_flowNumber.0" vType="t0" speedFactor="1.00" vaporized=""/>
    <tripinfo id="flowFromTo.0" depart="4.00" departLane="beg_0" departPos="5.10" departSpeed="0.00" departDelay="4.00" arrival="30.00" arrivalLane="end_0" arrivalPos="100.00" arrivalSpeed="13.89" duration="26.00" routeLength="301.90" waitingTime="0.00" waitingCount="0" stopTime="0.00" timeLoss="2.77" rerouteNo="1" devices="tripinfo_flowFromTo.0 routing_flowFromTo.0" vType="t0" speedFactor="1.00" vaporized=""/>
    <tripinfo id="flowPeriod.0" depart="8.00" departLane="beg_0" departPos="5.10" departSpeed="0.00" departDelay="3.00" arrival="34.00" arrivalLane="end_0" arrivalPos="100.00" arrivalSpeed="13.89" duration="26.00" routeLength="301.90" waitingTime="0.00" waitingCount="0" stopTime="0.00" timeLoss="2.77" rerouteNo="0" devices="tripinfo_flowPeriod.0" vType="t0" speedFactor="1.00" vaporized=""/>
    <tripinfo id="flowNumber.1" depart="12.00" departLane="beg_0" departPos="5.10" departSpeed="0.00" departDelay="4.00" arrival="38.00" arrivalLane="end_0" arrivalPos="100.00" arrivalSpeed="13.89" duration="26.00" routeLength="301.90" waitingTime="0.00" waitingCount="0" stopTime="0.00" timeLoss="2.77" rerouteNo="0" devices="tripinfo_flowNumber.1" vType="t0" speedFactor="1.00" vaporized=""/>
    <tripinfo id="flowFromTo.1" depart="16.00" departLane="beg_0" departPos="5.10" departSpeed="0.00" departDelay="6.00" arrival="42.00" arrivalLane="end_0" arrivalPos="100.00" arrivalSpeed="13.89" duration="26.00" routeLength="301.90" waitingTime="0.00" waitingCount="0" stopTime="0.00" timeLoss="2.77" rerouteNo="1" devices="tripinfo_flowFromTo.1 routing_flowFromTo.1" vType="t0" speedFactor="1.00" vaporized=""/>
    <tripinfo id="flowPeriod.1" depart="20.00" departLane="beg_0" departPos="5.10" departSpeed="0.00" departDelay="10.00" arrival="46.00" arrivalLane="end_0" arrivalPos="100.00" arrivalSpeed="13.89" duration="26.00" routeLength="301.90" waitingTime="0.00" waitingCount="0" stopTime="0.00" timeLoss="2.77" rerouteNo="0" devices="tripinfo_flowPeriod.1" vType="t0" speedFactor="1.00" vaporized=""/>
    <tripinfo id="flowPeriod.2" depart="24.00" departLane="beg_0" departPos="5.10" departSpeed="0.00" departDelay="9.00" arrival="50.00" arrivalLane="end_0" arrivalPos="100.00" arrivalSpeed="13.89" duration="26.00" routeLength="301.90" waitingTime="0.00" waitingCount="0" stopTime="0.00" timeLoss="2.77" rerouteNo="0" devices="tripinfo_flowPeriod.2" vType="t0" speedFactor="1.00" vaporized=""/>
    <tripinfo id="flowNumber.2" depart="28.00" departLane="beg_0" departPos="5.10" departSpeed="0.00" departDelay="12.00" arrival="54.00" arrivalLane="end_0" arrivalPos="100.00" arrivalSpeed="13.89" duration="26.00" routeLength="301.90" waitingTime="0.00" waitingCount="0" stopTime="0.00" timeLoss="2.77" rerouteNo="0" devices="tripinfo_flowNumber.2" vType="t0" speedFactor="1.00" vaporized=""/>
    <tripinfo id="flowPeriod.3" depart="32.00" departLane="beg_0" departPos="5.10" departSpeed="0.00" departDelay="12.00" arrival="58.00" arrivalLane="end_0" arrivalPos="100.00" arrivalSpeed="13.89" duration="26.00" routeLength="301.90" waitingTime="0.00" waitingCount="0" stopTime="0.00" timeLoss="2.77" rerouteNo="0" devices="tripinfo_flowPeriod.3" vType="t0" speedFactor="1.00" vaporized=""/>
    <tripinfo id="flowProb.0" depart="36.00" departLane="beg_0" departPos="5.10" departSpeed="0.00" departDelay="14.00" arrival="62.00" arrivalLane="end_0" arrivalPos="100.00" arrivalSpeed="13.89" duration="26.00" routeLength="301.90" waitingTime="0.00" waitingCount="0" stopTime="0.00" timeLoss="2.77" rerouteNo="0" devices="tripinfo_flowProb.0" vType="t0" speedFactor="1.00" vaporized=""/>
    <tripinfo id="flowNumber.3" depart="40.00" departLane="beg_0" departPos="5.10" departSpeed="0.00" departDelay="16.00" arrival="66.00" arrivalLane="end_0" arrivalPos="100.00" arrivalSpeed="13.89" duration="26.00" routeLength="301.90" waitingTime="0.00" waitingCount="0" stopTime="0.00" timeLoss="2.77" rerouteNo="0" devices="tripinfo_flowNumber.3" vType="t0" speedFactor="1.00" vaporized=""/>
    <tripinfo id="flowPeriod.4" depart="44.00" departLane="beg_0" departPos="5.10" departSpeed="0.00" departDelay="19.00" arrival="70.00" arrivalLane="end_0" arrivalPos="100.00" arrivalSpeed="13.89" duration="26.00" routeLength="301.90" waitingTime="0.00" waitingCount="0" stopTime="0.00" timeLoss="2.77" rerouteNo="0" devices="tripinfo_flowPeriod.4" vType="t0" speedFactor="1.00" vaporized=""/>
    <tripinfo id="flowProb.1" depart="48.00" departLane="beg_0" departPos="5.10" departSpeed="0.00" departDelay="23.00" arrival="74.00" arrivalLane="end_0" arrivalPos="100.00" arrivalSpeed="13.89" duration="26.00" routeLength="301.90" waitingTime="0.00" waitingCount="0" stopTime="0.00" timeLoss="2.77" rerouteNo="0" devices="tripinfo_flowProb.1" vType="t0" speedFactor="1.00" vaporized=""/>
    <tripinfo id="flowPeriod.5" depart="52.00" departLane="beg_0" departPos="5.10" departSpeed="0.00" departDelay="22.00" arrival="78.00" arrivalLane="end_0" arrivalPos="100.00" arrivalSpeed="13.89" duration="26.00" routeLength="301.90" waitingTime="0.00" waitingCount="0" stopTime="0.00" timeLoss="2.77" rerouteNo="0" devices="tripinfo_flowPeriod.5" vType="t0" speedFactor="1.00" vaporized=""/>
    <tripinfo id="flowProb.2" depart="56.00" departLane="beg_0" departPos="5.10" departSpeed="0.00" departDelay="26.00" arrival="82.00" arrivalLane="end_0" arrivalPos="100.00" arrivalSpeed="13.89" duration="26.00" routeLength="301.90" waitingTime="0.00" waitingCount="0" stopTime="0.00" timeLoss="2.77" rerouteNo="0" devices="tripinfo_flowProb.2" vType="t0" speedFactor="1.00" vaporized=""/>
    <tripinfo id="flowNumber.4" depart="60.00" departLane="beg_0" departPos="5.10" departSpeed="0.00" departDelay="28.00" arrival="86.00" arrivalLane="end_0" arrivalPos="100.00" arrivalSpeed="13.89" duration="26.00" routeLength="301.90" waitingTime="0.00" waitingCount="0" stopTime="0.00" timeLoss="2.77" rerouteNo="0" devices="tripinfo_flowNumber.4" vType="t0" speedFactor="1.00" vaporized=""/>
    <tripinfo id="flowPeriod.6" depart="64.00" departLane="beg_0" departPos="5.10" departSpeed="0.00" departDelay="29.00" arrival="90.00" arrivalLane="end_0" arrivalPos="100.00" arrivalSpeed="13.89" duration="26.00" routeLength="301.90" waitingTime="0.00" waitingCount="0" stopTime="0.00" timeLoss="2.77" rerouteNo="0" devices="tripinfo_flowPeriod.6" vType="t0" speedFactor="1.00" vaporized=""/>
    <tripinfo id="flowProb.3" depart="68.00" departLane="beg_0" departPos="5.10" departSpeed="0.00" departDelay="32.00" arrival="94.00" arrivalLane="end_0" arrivalPos="100.00" arrivalSpeed="13.89" duration="26.00" routeLength="301.90" waitingTime="0.00" waitingCount="0" stopTime="0.00" timeLoss="2.77" rerouteNo="0" devices="tripinfo_flowProb.3" vType="t0" speedFactor="1.00" vaporized=""/>
    <tripinfo id="flowPeriod.7" depart="72.00" departLane="beg_0" departPos="5.10" departSpeed="0.00" departDelay="32.00" arrival="98.00" arrivalLane="end_0" arrivalPos="100.00" arrivalSpeed="13.89" duration="26.00" routeLength="301.90" waitingTime="0.00" waitingCount="0" stopTime="0.00" timeLoss="2.77" rerouteNo="0" devices="tripinfo_flowPeriod.7" vType="t0" speedFactor="1.00" vaporized=""/>
    <tripinfo id="flowProb.4" depart="76.00" departLane="beg_0" departPos="5.10" departSpeed="0.00" departDelay="36.00" arrival="102.00" arrivalLane="end_0" arrivalPos="100.00" arrivalSpeed="13.89" duration="26.00" routeLength="301.90" waitingTime="0.00" waitingCount="0" stopTime="0.00" timeLoss="2.77" rerouteNo="0" devices="tripinfo_flowProb.4" vType="t0" speedFactor="1.00" vaporized=""/>
    <tripinfo id="flowPeriod.8" depart="80.00" departLane="beg_0" departPos="5.10" departSpeed="0.00" departDelay="35.00" arrival="106.00" arrivalLane="end_0" arrivalPos="100.00" arrivalSpeed="13.89" duration="26.00" routeLength="301.90" waitingTime="0.00" waitingCount="0" stopTime="0.00" timeLoss="2.77" rerouteNo="0" devices="tripinfo_flowPeriod.8" vType="t0" speedFactor="1.00" vaporized=""/>
    <tripinfo id="flowPeriod.9" depart="84.00" departLane="beg_0" departPos="5.10" departSpeed="0.00" departDelay="34.00" arrival="110.00" arrivalLane="end_0" arrivalPos="100.00" arrivalSpeed="13.89" duration="26.00" routeLength="301.90" waitingTime="0.00" waitingCount="0" stopTime="0.00" timeLoss="2.77" rerouteNo="0" devices="tripinfo_flowPeriod.9" vType="t0" speedFactor="1.00" vaporized=""/>
    <tripinfo id="flowProb.5" depart="88.00" departLane="beg_0" departPos="5.10" departSpeed="0.00" departDelay="38.00" arrival="114.00" arrivalLane="end_0" arrivalPos="100.00" arrivalSpeed="13.89" duration="26.00" routeLength="301.90" waitingTime="0.00" waitingCount="0" stopTime="0.00" timeLoss="2.77" rerouteNo="0" devices="tripinfo_flowProb.5" vType="t0" speedFactor="1.00" vaporized=""/>
    <tripinfo id="flowProb.6" depart="92.00" departLane="beg_0" departPos="5.10" departSpeed="0.00" departDelay="37.00" arrival="118.00" arrivalLane="end_0" arrivalPos="100.00" arrivalSpeed="13.89" duration="26.00" routeLength="301.90" waitingTime="0.00" waitingCount="0" stopTime="0.00" timeLoss="2.77" rerouteNo="0" devices="tripinfo_flowProb.6" vType="t0" speedFactor="1.00" vaporized=""/>
    <tripinfo id="flowProb.7" depart="96.00" departLane="beg_0" departPos="5.10" departSpeed="0.00" departDelay="28.00" arrival="122.00" arrivalLane="end_0" arrivalPos="100.00" arrivalSpeed="13.89" duration="26.00" routeLength="301.90" waitingTime="0.00" waitingCount="0" stopTime="0.00" timeLoss="2.77" rerouteNo="0" devices="tripinfo_flowProb.7" vType="t0" speedFactor="1.00" vaporized=""/>
    <tripinfo id="flowProb.8" depart="100.00" departLane="beg_0" departPos="5.10" departSpeed="0.00" departDelay="17.00" arrival="126.00" arrivalLane="end_0" arrivalPos="100.00" arrivalSpeed="13.89" duration="26.00" routeLength="301.90" waitingTime="0.00" waitingCount="0" stopTime="0.00" timeLoss="2.77" rerouteNo="0" devices="tripinfo_flowProb.8" vType="t0" speedFactor="1.00" vaporized=""/>
    <tripinfo id="flowProb.9" depart="104.00" departLane="beg_0" departPos="5.10" departSpeed="0.00" departDelay="17.00" arrival="130.00" arrivalLane="end_0" arrivalPos="100.00" arrivalSpeed="13.89" duration="26.00" routeLength="301.90" waitingTime="0.00" waitingCount="0" stopTime="0.00" timeLoss="2.77" rerouteNo="0" devices="tripinfo_flowProb.9" vType="t0" speedFactor="1.00" vaporized=""/>
    <tripinfo id="flowProb.10" depart="108.00" departLane="beg_0" departPos="5.10" departSpeed="0.00" departDelay="16.00" arrival="134.00" arrivalLane="end_0" arrivalPos="100.00" arrivalSpeed="13.89" duration="26.00" routeLength="301.90" waitingTime="0.00" waitingCount="0" stopTime="0.00" timeLoss="2.77" rerouteNo="0" devices="tripinfo_flowProb.10" vType="t0" speedFactor="1.00" vaporized=""/>
    <tripinfo id="flowProb.11" depart="112.00" departLane="beg_0" departPos="5.10" departSpeed="0.00" departDelay="16.00" arrival="138.00" arrivalLane="end_0" arrivalPos="100.00" arrivalSpeed="13.89" duration="26.00" routeLength="301.90" waitingTime="0.00" waitingCount="0" stopTime="0.00" timeLoss="2.77" rerouteNo="0" devices="tripinfo_flowProb.11" vType="t0" speedFactor="1.00" vaporized=""/>
    <tripinfo id="flowProb.12" depart="116.00" departLane="beg_0" departPos="5.10" departSpeed="0.00" departDelay="19.00" arrival="142.00" arrivalLane="end_0" arrivalPos="100.00" arrivalSpeed="13.89" duration="26.00" routeLength="301.90" waitingTime="0.00" waitingCount="0" stopTime="0.00" timeLoss="2.77" rerouteNo="0" devices="tripinfo_flowProb.12" vType="t0" speedFactor="1.00" vaporized=""/>
</tripinfos>
