<?xml version="1.0" encoding="UTF-8"?>

<!-- generated on 2022-08-28 19:20:43 by Eclipse SUMO sumo Version v1_14_1+0598-02ca306
This data file and the accompanying materials
are made available under the terms of the Eclipse Public License v2.0
which accompanies this distribution, and is available at
http://www.eclipse.org/legal/epl-v20.html
This file may also be made available under the following Secondary
Licenses when the conditions for such availability set forth in the Eclipse
Public License 2.0 are satisfied: GNU General Public License, version 2
or later which is available at
https://www.gnu.org/licenses/old-licenses/gpl-2.0-standalone.html
SPDX-License-Identifier: EPL-2.0 OR GPL-2.0-or-later
<configuration xmlns:xsi="http://www.w3.org/2001/XMLSchema-instance" xsi:noNamespaceSchemaLocation="http://sumo.dlr.de/xsd/sumoConfiguration.xsd">

    <input>
        <net-file value="three_split.net.xml"/>
        <route-files value="input_routes.rou.xml"/>
        <additional-files value="input_additional.add.xml"/>
    </input>

    <output>
        <write-license value="true"/>
        <tripinfo-output value="tripinfos.xml"/>
        <vehroute-output value="vehroutes.xml"/>
    </output>

    <processing>
        <default.speeddev value="0"/>
        <pedestrian.model value="nonInteracting"/>
    </processing>

    <report>
        <xml-validation value="never"/>
        <duration-log.disable value="true"/>
        <no-step-log value="true"/>
    </report>

</configuration>
-->

<tripinfos xmlns:xsi="http://www.w3.org/2001/XMLSchema-instance" xsi:noNamespaceSchemaLocation="http://sumo.dlr.de/xsd/tripinfo_file.xsd">
    <personinfo id="p0" depart="0.00" type="DEFAULT_PEDTYPE" speedFactor="1.00">
        <ride waitingTime="0.00" vehicle="v0" depart="0.00" arrival="5.00" arrivalPos="20.00" duration="5.00" routeLength="14.90" timeLoss="3.46"/>
    </personinfo>
    <personinfo id="p1" depart="10.00" type="DEFAULT_PEDTYPE" speedFactor="1.00">
        <ride waitingTime="0.00" vehicle="v1" depart="10.00" arrival="17.00" arrivalPos="39.90" duration="7.00" routeLength="34.80" timeLoss="4.75"/>
    </personinfo>
    <personinfo id="p2" depart="20.00" type="DEFAULT_PEDTYPE" speedFactor="1.00">
        <ride waitingTime="0.00" vehicle="v2" depart="20.00" arrival="29.00" arrivalPos="60.00" duration="9.00" routeLength="54.90" timeLoss="6.03"/>
    </personinfo>
    <personinfo id="p3" depart="30.00" type="DEFAULT_PEDTYPE" speedFactor="1.00">
        <ride waitingTime="0.00" vehicle="v3" depart="30.00" arrival="41.00" arrivalPos="80.00" duration="11.00" routeLength="74.90" timeLoss="7.31"/>
    </personinfo>
    <personinfo id="p4" depart="40.00" type="DEFAULT_PEDTYPE" speedFactor="1.00">
        <ride waitingTime="0.00" vehicle="v4" depart="40.00" arrival="53.00" arrivalPos="100.00" duration="13.00" routeLength="94.90" timeLoss="8.59"/>
    </personinfo>
    <tripinfo id="v0" depart="0.00" departLane="beg_0" departPos="5.10" departSpeed="0.00" departDelay="0.00" arrival="69.00" arrivalLane="beg2left_0" arrivalPos="503.09" arrivalSpeed="13.90" duration="69.00" routeLength="997.99" waitingTime="0.00" waitingCount="0" stopTime="5.00" timeLoss="9.20" rerouteNo="0" devices="vehroute_v0 tripinfo_v0 person_v0" vType="DEFAULT_VEHTYPE" speedFactor="1.00" vaporized=""/>
    <tripinfo id="v1" depart="10.00" departLane="beg_0" departPos="5.10" departSpeed="0.00" departDelay="0.00" arrival="80.00" arrivalLane="beg2left_0" arrivalPos="503.09" arrivalSpeed="13.90" duration="70.00" routeLength="997.99" waitingTime="0.00" waitingCount="0" stopTime="5.00" timeLoss="10.20" rerouteNo="0" devices="vehroute_v1 tripinfo_v1 person_v1" vType="DEFAULT_VEHTYPE" speedFactor="1.00" vaporized=""/>
    <tripinfo id="v2" depart="20.00" departLane="beg_0" departPos="5.10" departSpeed="0.00" departDelay="0.00" arrival="91.00" arrivalLane="beg2left_0" arrivalPos="503.09" arrivalSpeed="13.90" duration="71.00" routeLength="997.99" waitingTime="0.00" waitingCount="0" stopTime="5.00" timeLoss="11.41" rerouteNo="0" devices="vehroute_v2 tripinfo_v2 person_v2" vType="DEFAULT_VEHTYPE" speedFactor="1.00" vaporized=""/>
    <tripinfo id="v3" depart="30.00" departLane="beg_0" departPos="5.10" departSpeed="0.00" departDelay="0.00" arrival="103.00" arrivalLane="beg2left_0" arrivalPos="503.09" arrivalSpeed="13.90" duration="73.00" routeLength="997.99" waitingTime="0.00" waitingCount="0" stopTime="5.00" timeLoss="12.69" rerouteNo="0" devices="vehroute_v3 tripinfo_v3 person_v3" vType="DEFAULT_VEHTYPE" speedFactor="1.00" vaporized=""/>
    <tripinfo id="v4" depart="40.00" departLane="beg_0" departPos="5.10" departSpeed="0.00" departDelay="0.00" arrival="114.00" arrivalLane="beg2left_0" arrivalPos="503.09" arrivalSpeed="13.90" duration="74.00" routeLength="997.99" waitingTime="0.00" waitingCount="0" stopTime="5.00" timeLoss="14.20" rerouteNo="0" devices="vehroute_v4 tripinfo_v4 person_v4" vType="DEFAULT_VEHTYPE" speedFactor="1.00" vaporized=""/>
</tripinfos>
