<?xml version="1.0" encoding="UTF-8"?>

<!-- generated on Thu Mar 12 09:42:26 2020 by Eclipse SUMO Version v1_5_0+0671-ab1576c
This data file and the accompanying materials
are made available under the terms of the Eclipse Public License v2.0
which accompanies this distribution, and is available at
http://www.eclipse.org/legal/epl-v20.html
SPDX-License-Identifier: EPL-2.0
<configuration xmlns:xsi="http://www.w3.org/2001/XMLSchema-instance" xsi:noNamespaceSchemaLocation="http://sumo.dlr.de/xsd/sumoConfiguration.xsd">

    <input>
        <net-file value="three_split.net.xml"/>
        <route-files value="input_routes.rou.xml"/>
    </input>

    <output>
        <write-license value="true"/>
        <fcd-output value="fcd.xml"/>
        <tripinfo-output value="tripinfos.xml"/>
    </output>

    <time>
        <end value="350"/>
    </time>

    <processing>
        <default.speeddev value="0"/>
    </processing>

    <report>
        <xml-validation value="never"/>
        <duration-log.disable value="true"/>
        <no-step-log value="true"/>
    </report>

</configuration>
-->

<tripinfos xmlns:xsi="http://www.w3.org/2001/XMLSchema-instance" xsi:noNamespaceSchemaLocation="http://sumo.dlr.de/xsd/tripinfo_file.xsd">
    <containerinfo id="c1" depart="20.00" type="DEFAULT_CONTAINERTYPE">
        <transport waitingTime="91.00" vehicle="truck" depart="111.00" arrival="266.00" arrivalPos="503.09" duration="155.00" routeLength="953.80"/>
    </containerinfo>
    <containerinfo id="c2" depart="20.00" type="DEFAULT_CONTAINERTYPE">
        <transport waitingTime="196.00" vehicle="truck" depart="216.00" arrival="266.00" arrivalPos="503.09" duration="50.00" routeLength="753.80"/>
    </containerinfo>
    <tripinfo id="truck" depart="0.00" departLane="beg_0" departPos="0.00" departSpeed="0.00" departDelay="0.00" arrival="266.00" arrivalLane="beg2left_0" arrivalPos="503.09" arrivalSpeed="13.90" duration="266.00" routeLength="1003.09" waitingTime="0.00" waitingCount="0" stopTime="193.00" timeLoss="18.39" rerouteNo="0" devices="tripinfo_truck fcd_truck container_truck" vType="DEFAULT_VEHTYPE" speedFactor="1.00" vaporized=""/>
</tripinfos>
