<?xml version="1.0" encoding="UTF-8"?>

<!-- generated on 2021-06-09 14:46:34 by Eclipse SUMO sumo Version v1_9_2+0428-2582ca4
<configuration xmlns:xsi="http://www.w3.org/2001/XMLSchema-instance" xsi:noNamespaceSchemaLocation="http://sumo.dlr.de/xsd/sumoConfiguration.xsd">

    <input>
        <net-file value="input_net.net.xml"/>
        <route-files value="input_routes.rou.xml"/>
        <additional-files value="input_additional.add.xml"/>
    </input>

    <output>
        <tripinfo-output value="tripinfo.xml"/>
    </output>

    <report>
        <no-step-log value="true"/>
    </report>

    <traci_server>
        <remote-port value="42639"/>
    </traci_server>

</configuration>
-->

<tripinfos xmlns:xsi="http://www.w3.org/2001/XMLSchema-instance" xsi:noNamespaceSchemaLocation="http://sumo.dlr.de/xsd/tripinfo_file.xsd">
    <tripinfo id="t1" depart="0.00" departLane="c_0" departPos="50.10" departSpeed="13.89" departDelay="0.00" arrival="65.00" arrivalLane="g_0" arrivalPos="400.00" arrivalSpeed="13.89" duration="65.00" routeLength="891.32" waitingTime="0.00" waitingCount="0" stopTime="0.00" timeLoss="0.00" rerouteNo="1" devices="tripinfo_t1 routing_t1" vType="train" speedFactor="1.00" vaporized=""/>
    <tripinfo id="t2" depart="0.00" departLane="a_0" departPos="50.10" departSpeed="13.89" departDelay="0.00" arrival="123.00" arrivalLane="g_0" arrivalPos="400.00" arrivalSpeed="13.89" duration="123.00" routeLength="1391.32" waitingTime="0.00" waitingCount="0" stopTime="0.00" timeLoss="22.05" rerouteNo="1" devices="tripinfo_t2 routing_t2" vType="train" speedFactor="1.00" vaporized=""/>
    <tripinfo id="t0" depart="0.00" departLane="h_0" departPos="50.10" departSpeed="13.89" departDelay="0.00" arrival="187.00" arrivalLane="g_0" arrivalPos="400.00" arrivalSpeed="13.89" duration="187.00" routeLength="1349.90" waitingTime="57.00" waitingCount="1" stopTime="0.00" timeLoss="89.17" rerouteNo="1" devices="tripinfo_t0 routing_t0" vType="train" speedFactor="1.00" vaporized=""/>
</tripinfos>
