<?xml version="1.0" encoding="UTF-8"?>

<!-- generated on Mon Jun 22 02:31:28 2020 by Eclipse SUMO Version v1_6_0+0887-0dd4682dc5
This data file and the accompanying materials
are made available under the terms of the Eclipse Public License v2.0
which accompanies this distribution, and is available at
http://www.eclipse.org/legal/epl-v20.html
SPDX-License-Identifier: EPL-2.0
<configuration xmlns:xsi="http://www.w3.org/2001/XMLSchema-instance" xsi:noNamespaceSchemaLocation="http://sumo.dlr.de/xsd/sumoConfiguration.xsd">

    <input>
        <net-file value="net3.net.xml"/>
        <route-files value="input_routes.rou.xml"/>
        <additional-files value="input_additional2.add.xml"/>
    </input>

    <output>
        <write-license value="true"/>
        <tripinfo-output value="tripinfos.xml"/>
    </output>

    <processing>
        <collision.check-junctions value="true"/>
        <default.speeddev value="0"/>
        <pedestrian.model value="striping"/>
        <pedestrian.striping.dawdling value="0"/>
    </processing>

    <report>
        <xml-validation value="never"/>
        <no-step-log value="true"/>
    </report>

</configuration>
-->

<tripinfos xmlns:xsi="http://www.w3.org/2001/XMLSchema-instance" xsi:noNamespaceSchemaLocation="http://sumo.dlr.de/xsd/tripinfo_file.xsd">
    <tripinfo id="car_SE.0" depart="46.00" departLane="SC_2" departPos="5.10" departSpeed="0.00" departDelay="0.00" arrival="63.00" arrivalLane="CE_2" arrivalPos="87.25" arrivalSpeed="13.89" duration="17.00" routeLength="181.98" waitingTime="0.00" waitingCount="0" stopTime="0.00" timeLoss="3.09" rerouteNo="0" devices="tripinfo_car_SE.0" vType="car" speedFactor="1.00" vaporized=""/>
    <tripinfo id="car_SE.1" depart="50.00" departLane="SC_2" departPos="5.10" departSpeed="0.00" departDelay="0.00" arrival="73.00" arrivalLane="CE_2" arrivalPos="87.25" arrivalSpeed="13.89" duration="23.00" routeLength="181.98" waitingTime="4.00" waitingCount="1" stopTime="0.00" timeLoss="8.95" rerouteNo="0" devices="tripinfo_car_SE.1" vType="car" speedFactor="1.00" vaporized=""/>
    <personinfo id="p0" depart="0.00" type="p0">
        <walk depart="0.00" departPos="11.00" arrival="105.00" arrivalPos="43.62" duration="105.00" routeLength="145.38" timeLoss="0.33" maxSpeed="1.39"/>
    </personinfo>
</tripinfos>
