<?xml version="1.0"?>

<!-- generated on 02/21/10 00:13:29 by SUMO sumo Version dev-SVN-r8292
<configuration>

    <input>
        <net-file value="three_split.net.xml"/>
        <additional-files value="input_routes.rou.xml,input_additional.add.xml"/>
    </input>

    <output>
        <vehroute-output value="vehroutes.xml"/>
    </output>

    <report>
        <no-duration-log value="true"/>
        <no-step-log value="true"/>
    </report>

    <mesoscopic>
        <mesosim value="true"/>
    </mesoscopic>

</configuration>
-->

<routes>
    <vehicle id="0.0" depart="0" arrival="72">
        <route edges="beg middle end rend"/>
   </vehicle>

    <vehicle id="0.1" depart="20" arrival="92">
        <route edges="beg middle end rend"/>
   </vehicle>

    <vehicle id="0.2" depart="40" arrival="112">
        <route edges="beg middle end rend"/>
   </vehicle>

    <vehicle id="0.3" depart="60" arrival="132">
        <route edges="beg middle end rend"/>
   </vehicle>

    <vehicle id="0.4" depart="80" arrival="152">
        <route edges="beg middle end rend"/>
   </vehicle>

    <vehicle id="0.5" depart="100" arrival="262">
        <replacedRoute replacedOnEdge="beg" replacedAtTime="100" edges="beg middle end rend"/>
        <route edges="beg beg2right right right2end end"/>
   </vehicle>

    <vehicle id="0.6" depart="120" arrival="281">
        <replacedRoute replacedOnEdge="beg" replacedAtTime="120" edges="beg middle end rend"/>
        <route edges="beg beg2left left left2end end"/>
   </vehicle>

    <vehicle id="0.7" depart="140" arrival="301">
        <replacedRoute replacedOnEdge="beg" replacedAtTime="140" edges="beg middle end rend"/>
        <route edges="beg beg2left left left2end end"/>
   </vehicle>

    <vehicle id="0.8" depart="160" arrival="321">
        <replacedRoute replacedOnEdge="beg" replacedAtTime="160" edges="beg middle end rend"/>
        <route edges="beg beg2left left left2end end"/>
   </vehicle>

    <vehicle id="0.9" depart="180" arrival="342">
        <replacedRoute replacedOnEdge="beg" replacedAtTime="180" edges="beg middle end rend"/>
        <route edges="beg beg2right right right2end end"/>
   </vehicle>

    <vehicle id="0.10" depart="200" arrival="362">
        <replacedRoute replacedOnEdge="beg" replacedAtTime="200" edges="beg middle end rend"/>
        <route edges="beg beg2right right right2end end"/>
   </vehicle>

</routes>
