<?xml version="1.0" encoding="UTF-8"?>

<!-- generated on Thu Nov 29 15:36:36 2018 by Eclipse SUMO Version v1_0_1+0645-93703db
This data file and the accompanying materials
are made available under the terms of the Eclipse Public License v2.0
which accompanies this distribution, and is available at
http://www.eclipse.org/legal/epl-v20.html
SPDX-License-Identifier: EPL-2.0
<configuration xmlns:xsi="http://www.w3.org/2001/XMLSchema-instance" xsi:noNamespaceSchemaLocation="http://sumo.dlr.de/xsd/sumoConfiguration.xsd">

    <input>
        <net-file value="three_split.net.xml"/>
        <route-files value="input_routes.rou.xml"/>
    </input>

    <output>
        <write-license value="true"/>
        <fcd-output value="fcd.xml"/>
        <tripinfo-output value="tripinfos.xml"/>
    </output>

    <time>
        <end value="150"/>
    </time>

    <processing>
        <default.speeddev value="0"/>
        <pedestrian.model value="nonInteracting"/>
    </processing>

    <report>
        <xml-validation value="never"/>
        <duration-log.disable value="true"/>
        <no-step-log value="true"/>
    </report>

    <mesoscopic>
        <mesosim value="true"/>
    </mesoscopic>

</configuration>
-->

<tripinfos xmlns:xsi="http://www.w3.org/2001/XMLSchema-instance" xsi:noNamespaceSchemaLocation="http://sumo.dlr.de/xsd/tripinfo_file.xsd">
    <personinfo id="p1" depart="20.00" type="DEFAULT_PEDTYPE">
        <ride waitingTime="18.00" vehicle="bus.0" depart="38.00" arrival="115.00" arrivalPos="503.09" duration="77.00" routeLength="902.47"/>
    </personinfo>
    <personinfo id="p2" depart="20.00" type="DEFAULT_PEDTYPE">
        <ride waitingTime="55.00" vehicle="bus.0" depart="75.00" arrival="115.00" arrivalPos="503.09" duration="40.00" routeLength="702.47"/>
    </personinfo>
    <tripinfo id="bus.0" depart="0.00" departLane="" departPos="0.00" departSpeed="2.98" departDelay="0.00" arrival="115.00" arrivalLane="" arrivalPos="503.09" arrivalSpeed="13.90" duration="115.00" routeLength="1003.09" waitingTime="0.00" waitingCount="0" stopTime="60.00" timeLoss="60.00" rerouteNo="0" devices="tripinfo_bus.0 fcd_bus.0 person_bus.0" vType="DEFAULT_VEHTYPE" speedFactor="1.00" vaporized=""/>
</tripinfos>
