<?xml version="1.0" encoding="UTF-8"?>

<!-- generated on Tue Aug  5 09:21:51 2014 by SUMO sumo Version dev-SVN-r16836
<?xml version="1.0" encoding="UTF-8"?>

<configuration xmlns:xsi="http://www.w3.org/2001/XMLSchema-instance" xsi:noNamespaceSchemaLocation="http://sumo.dlr.de/xsd/sumoConfiguration.xsd">

    <input>
        <net-file value="three_split.net.xml"/>
        <additional-files value="input_routes.rou.xml"/>
    </input>

    <output>
        <vehroute-output value="vehroutes.xml"/>
    </output>

    <time>
        <begin value="0"/>
    </time>

    <report>
        <xml-validation value="never"/>
        <no-duration-log value="true"/>
        <no-step-log value="true"/>
    </report>

    <routing>
        <device.rerouting.probability value="1"/>
    </routing>

    <mesoscopic>
        <mesosim value="true"/>
    </mesoscopic>

</configuration>
-->

<routes xmlns:xsi="http://www.w3.org/2001/XMLSchema-instance" xsi:noNamespaceSchemaLocation="http://sumo.dlr.de/xsd/routes_file.xsd">
    <vehicle id="0" depart="0.00" arrival="90.00">
        <route edges="beg middle end rend"/>
    </vehicle>

    <vehicle id="1" depart="20.00" arrival="110.00">
        <route edges="beg middle end rend"/>
    </vehicle>

    <vehicle id="2" depart="40.00" arrival="130.00">
        <route edges="beg middle end rend"/>
    </vehicle>

    <vehicle id="3" depart="60.00" arrival="150.00">
        <route edges="beg middle end rend"/>
    </vehicle>

    <vehicle id="4" depart="80.00" arrival="170.00">
        <route edges="beg middle end rend"/>
    </vehicle>

    <vehicle id="5" depart="100.00" arrival="190.00">
        <route edges="beg middle end rend"/>
    </vehicle>

    <vehicle id="6" depart="120.00" arrival="210.00">
        <route edges="beg middle end rend"/>
    </vehicle>

    <vehicle id="7" depart="140.00" arrival="230.00">
        <route edges="beg middle end rend"/>
    </vehicle>

    <vehicle id="8" depart="160.00" arrival="250.00">
        <route edges="beg middle end rend"/>
    </vehicle>

    <vehicle id="9" depart="180.00" arrival="270.00">
        <route edges="beg middle end rend"/>
    </vehicle>

</routes>
