<?xml version="1.0" encoding="UTF-8"?>

<!-- generated on 2025-10-10T11:46:42.093079+01:00 by Eclipse SUMO sumo v1_24_0+1357-9f1dd917abb
This data file and the accompanying materials
are made available under the terms of the Eclipse Public License v2.0
which accompanies this distribution, and is available at
http://www.eclipse.org/legal/epl-v20.html
This file may also be made available under the following Secondary
Licenses when the conditions for such availability set forth in the Eclipse
Public License 2.0 are satisfied: GNU General Public License, version 2
or later which is available at
https://www.gnu.org/licenses/old-licenses/gpl-2.0-standalone.html
SPDX-License-Identifier: EPL-2.0 OR GPL-2.0-or-later
<sumoConfiguration xmlns:xsi="http://www.w3.org/2001/XMLSchema-instance" xsi:noNamespaceSchemaLocation="http://sumo.dlr.de/xsd/sumoConfiguration.xsd">

    <input>
        <net-file value="net.net.xml"/>
        <route-files value="input_routes.rou.xml"/>
        <additional-files value="input_additional.add.xml"/>
    </input>

    <output>
        <write-license value="true"/>
        <fcd-output value="fcd.xml"/>
        <tripinfo-output value="tripinfos.xml"/>
    </output>

    <time>
        <end value="100"/>
    </time>

    <processing>
        <default.speeddev value="0"/>
        <pedestrian.model value="jupedsim"/>
    </processing>

    <report>
        <verbose value="true"/>
        <xml-validation value="never"/>
        <no-step-log value="true"/>
    </report>

</sumoConfiguration>
-->

<fcd-export xmlns:xsi="http://www.w3.org/2001/XMLSchema-instance" xsi:noNamespaceSchemaLocation="http://sumo.dlr.de/xsd/fcd_file.xsd">
    <timestep time="0.00">
        <person id="pf_1.0" x="1790.96" y="1899.30" angle="5.64" type="DEFAULT_PEDTYPE" speed="0.00" pos="0.34" edge="1391" slope="0.00"/>
        <person id="pf_2.0" x="1799.73" y="2076.49" angle="343.90" type="DEFAULT_PEDTYPE" speed="0.00" pos="0.34" edge="1464" slope="0.00"/>
        <person id="pf_3.0" x="1799.73" y="2076.49" angle="343.90" type="DEFAULT_PEDTYPE" speed="0.00" pos="0.34" edge="1464" slope="0.00"/>
        <person id="pf_0.0" x="1596.70" y="1889.68" angle="25.11" type="DEFAULT_PEDTYPE" speed="0.00" pos="0.42" edge="533" slope="0.00"/>
    </timestep>
    <timestep time="1.00">
        <person id="pf_1.0" x="1791.09" y="1900.68" angle="5.27" type="DEFAULT_PEDTYPE" speed="1.39" pos="1.73" edge="1391" slope="0.00"/>
        <person id="pf_2.0" x="1798.71" y="2075.58" angle="246.79" type="DEFAULT_PEDTYPE" speed="1.36" pos="0.00" edge="1464" slope="0.00"/>
        <person id="pf_3.0" x="1799.73" y="2076.49" angle="343.90" type="DEFAULT_PEDTYPE" speed="0.00" pos="0.34" edge="1464" slope="0.00"/>
        <person id="pf_0.0" x="1597.28" y="1890.94" angle="24.67" type="DEFAULT_PEDTYPE" speed="1.39" pos="1.81" edge="533" slope="0.00"/>
    </timestep>
    <timestep time="2.00">
        <person id="pf_1.1" x="1790.96" y="1899.30" angle="5.64" type="DEFAULT_PEDTYPE" speed="0.00" pos="0.34" edge="1391" slope="0.00"/>
        <person id="pf_1.0" x="1791.22" y="1902.06" angle="5.27" type="DEFAULT_PEDTYPE" speed="1.39" pos="3.12" edge="1391" slope="0.00"/>
        <person id="pf_2.0" x="1797.42" y="2075.08" angle="248.91" type="DEFAULT_PEDTYPE" speed="1.39" pos="0.00" edge="1464" slope="0.00"/>
        <person id="pf_3.0" x="1799.04" y="2075.92" angle="222.93" type="DEFAULT_PEDTYPE" speed="0.89" pos="0.00" edge="1464" slope="0.00"/>
        <person id="pf_2.1" x="1799.73" y="2076.49" angle="343.90" type="DEFAULT_PEDTYPE" speed="0.00" pos="0.34" edge="1464" slope="0.00"/>
        <person id="pf_3.1" x="1799.73" y="2076.49" angle="343.90" type="DEFAULT_PEDTYPE" speed="0.00" pos="0.34" edge="1464" slope="0.00"/>
        <person id="pf_0.1" x="1596.70" y="1889.68" angle="25.11" type="DEFAULT_PEDTYPE" speed="0.00" pos="0.42" edge="533" slope="0.00"/>
        <person id="pf_0.0" x="1597.86" y="1892.20" angle="24.67" type="DEFAULT_PEDTYPE" speed="1.39" pos="3.20" edge="533" slope="0.00"/>
    </timestep>
    <timestep time="3.00">
        <person id="pf_1.2" x="1790.96" y="1899.30" angle="5.64" type="DEFAULT_PEDTYPE" speed="0.00" pos="0.34" edge="1391" slope="0.00"/>
        <person id="pf_1.1" x="1791.09" y="1900.68" angle="5.27" type="DEFAULT_PEDTYPE" speed="1.39" pos="1.73" edge="1391" slope="0.00"/>
        <person id="pf_1.0" x="1791.35" y="1903.45" angle="5.27" type="DEFAULT_PEDTYPE" speed="1.39" pos="4.51" edge="1391" slope="0.00"/>
        <person id="pf_2.0" x="1796.12" y="2074.58" angle="248.91" type="DEFAULT_PEDTYPE" speed="1.39" pos="0.00" edge="1464" slope="0.00"/>
        <person id="pf_3.0" x="1797.88" y="2075.25" angle="248.89" type="DEFAULT_PEDTYPE" speed="1.34" pos="0.00" edge="1464" slope="0.00"/>
        <person id="pf_2.1" x="1799.14" y="2076.03" angle="231.93" type="DEFAULT_PEDTYPE" speed="0.75" pos="0.06" edge="1464" slope="0.00"/>
        <person id="pf_2.2" x="1799.73" y="2076.49" angle="343.90" type="DEFAULT_PEDTYPE" speed="0.00" pos="0.34" edge="1464" slope="0.00"/>
        <person id="pf_3.1" x="1799.73" y="2076.49" angle="343.90" type="DEFAULT_PEDTYPE" speed="0.00" pos="0.34" edge="1464" slope="0.00"/>
        <person id="pf_3.2" x="1799.73" y="2076.49" angle="343.90" type="DEFAULT_PEDTYPE" speed="0.00" pos="0.34" edge="1464" slope="0.00"/>
        <person id="pf_0.2" x="1596.70" y="1889.68" angle="25.11" type="DEFAULT_PEDTYPE" speed="0.00" pos="0.42" edge="533" slope="0.00"/>
        <person id="pf_0.1" x="1597.28" y="1890.94" angle="24.67" type="DEFAULT_PEDTYPE" speed="1.39" pos="1.81" edge="533" slope="0.00"/>
        <person id="pf_0.0" x="1598.44" y="1893.47" angle="24.67" type="DEFAULT_PEDTYPE" speed="1.39" pos="4.59" edge="533" slope="0.00"/>
    </timestep>
    <timestep time="4.00">
        <person id="pf_1.3" x="1790.96" y="1899.30" angle="5.64" type="DEFAULT_PEDTYPE" speed="0.00" pos="0.34" edge="1391" slope="0.00"/>
        <person id="pf_1.2" x="1791.06" y="1900.38" angle="5.27" type="DEFAULT_PEDTYPE" speed="1.09" pos="1.42" edge="1391" slope="0.00"/>
        <person id="pf_1.1" x="1791.22" y="1902.06" angle="5.27" type="DEFAULT_PEDTYPE" speed="1.39" pos="3.12" edge="1391" slope="0.00"/>
        <person id="pf_1.0" x="1791.47" y="1904.83" angle="5.27" type="DEFAULT_PEDTYPE" speed="1.39" pos="5.89" edge="1391" slope="0.00"/>
        <person id="pf_2.0" x="1794.83" y="2074.08" angle="248.91" type="DEFAULT_PEDTYPE" speed="1.39" pos="0.00" edge="1464" slope="0.00"/>
        <person id="pf_2.1" x="1798.19" y="2075.37" angle="248.79" type="DEFAULT_PEDTYPE" speed="1.15" pos="0.00" edge="1464" slope="0.00"/>
        <person id="pf_3.0" x="1796.58" y="2074.75" angle="248.91" type="DEFAULT_PEDTYPE" speed="1.39" pos="0.00" edge="1464" slope="0.00"/>
        <person id="pf_2.2" x="1799.26" y="2076.12" angle="231.93" type="DEFAULT_PEDTYPE" speed="0.59" pos="0.12" edge="1464" slope="0.00"/>
        <person id="pf_2.3" x="1799.73" y="2076.49" angle="343.90" type="DEFAULT_PEDTYPE" speed="0.00" pos="0.34" edge="1464" slope="0.00"/>
        <person id="pf_3.1" x="1799.73" y="2076.49" angle="343.90" type="DEFAULT_PEDTYPE" speed="0.00" pos="0.34" edge="1464" slope="0.00"/>
        <person id="pf_3.2" x="1799.73" y="2076.49" angle="343.90" type="DEFAULT_PEDTYPE" speed="0.00" pos="0.34" edge="1464" slope="0.00"/>
        <person id="pf_3.3" x="1799.73" y="2076.49" angle="343.90" type="DEFAULT_PEDTYPE" speed="0.00" pos="0.34" edge="1464" slope="0.00"/>
        <person id="pf_0.3" x="1596.70" y="1889.68" angle="25.11" type="DEFAULT_PEDTYPE" speed="0.00" pos="0.42" edge="533" slope="0.00"/>
        <person id="pf_0.2" x="1597.15" y="1890.67" angle="24.67" type="DEFAULT_PEDTYPE" speed="1.09" pos="1.50" edge="533" slope="0.00"/>
        <person id="pf_0.1" x="1597.86" y="1892.20" angle="24.67" type="DEFAULT_PEDTYPE" speed="1.39" pos="3.20" edge="533" slope="0.00"/>
        <person id="pf_0.0" x="1599.02" y="1894.73" angle="24.67" type="DEFAULT_PEDTYPE" speed="1.39" pos="5.97" edge="533" slope="0.00"/>
    </timestep>
    <timestep time="5.00">
        <person id="pf_1.4" x="1790.96" y="1899.30" angle="5.64" type="DEFAULT_PEDTYPE" speed="0.00" pos="0.34" edge="1391" slope="0.00"/>
        <person id="pf_1.3" x="1791.04" y="1900.14" angle="5.27" type="DEFAULT_PEDTYPE" speed="0.85" pos="1.19" edge="1391" slope="0.00"/>
        <person id="pf_1.2" x="1791.18" y="1901.65" angle="5.27" type="DEFAULT_PEDTYPE" speed="1.28" pos="2.70" edge="1391" slope="0.00"/>
        <person id="pf_1.1" x="1791.35" y="1903.45" angle="5.27" type="DEFAULT_PEDTYPE" speed="1.39" pos="4.51" edge="1391" slope="0.00"/>
        <person id="pf_1.0" x="1791.60" y="1906.21" angle="5.27" type="DEFAULT_PEDTYPE" speed="1.39" pos="7.28" edge="1391" slope="0.00"/>
        <person id="pf_2.0" x="1793.53" y="2073.58" angle="248.91" type="DEFAULT_PEDTYPE" speed="1.39" pos="0.00" edge="1464" slope="0.00"/>
        <person id="pf_2.1" x="1796.98" y="2074.91" angle="248.91" type="DEFAULT_PEDTYPE" speed="1.30" pos="0.00" edge="1464" slope="0.00"/>
        <person id="pf_2.2" x="1798.57" y="2075.58" angle="252.16" type="DEFAULT_PEDTYPE" speed="0.88" pos="0.00" edge="1464" slope="0.00"/>
        <person id="pf_3.0" x="1795.29" y="2074.25" angle="248.91" type="DEFAULT_PEDTYPE" speed="1.39" pos="0.00" edge="1464" slope="0.00"/>
        <person id="pf_3.1" x="1799.12" y="2074.93" angle="238.58" type="DEFAULT_PEDTYPE" speed="1.66" pos="0.00" edge="1464" slope="0.00"/>
        <person id="pf_2.3" x="1799.73" y="2076.49" angle="343.90" type="DEFAULT_PEDTYPE" speed="0.00" pos="0.34" edge="1464" slope="0.00"/>
        <person id="pf_2.4" x="1799.73" y="2076.49" angle="343.90" type="DEFAULT_PEDTYPE" speed="0.00" pos="0.34" edge="1464" slope="0.00"/>
        <person id="pf_3.2" x="1799.73" y="2076.49" angle="343.90" type="DEFAULT_PEDTYPE" speed="0.00" pos="0.34" edge="1464" slope="0.00"/>
        <person id="pf_3.3" x="1799.73" y="2076.49" angle="343.90" type="DEFAULT_PEDTYPE" speed="0.00" pos="0.34" edge="1464" slope="0.00"/>
        <person id="pf_3.4" x="1799.73" y="2076.49" angle="343.90" type="DEFAULT_PEDTYPE" speed="0.00" pos="0.34" edge="1464" slope="0.00"/>
        <person id="pf_0.4" x="1596.70" y="1889.68" angle="25.11" type="DEFAULT_PEDTYPE" speed="0.00" pos="0.42" edge="533" slope="0.00"/>
        <person id="pf_0.3" x="1597.05" y="1890.45" angle="24.67" type="DEFAULT_PEDTYPE" speed="0.85" pos="1.27" edge="533" slope="0.00"/>
        <person id="pf_0.2" x="1597.68" y="1891.83" angle="24.67" type="DEFAULT_PEDTYPE" speed="1.28" pos="2.78" edge="533" slope="0.00"/>
        <person id="pf_0.1" x="1598.44" y="1893.47" angle="24.67" type="DEFAULT_PEDTYPE" speed="1.39" pos="4.59" edge="533" slope="0.00"/>
        <person id="pf_0.0" x="1599.60" y="1895.99" angle="24.67" type="DEFAULT_PEDTYPE" speed="1.39" pos="7.36" edge="533" slope="0.00"/>
    </timestep>
    <timestep time="6.00">
        <person id="pf_1.5" x="1790.96" y="1899.30" angle="5.64" type="DEFAULT_PEDTYPE" speed="0.00" pos="0.34" edge="1391" slope="0.00"/>
        <person id="pf_1.4" x="1791.02" y="1899.94" angle="5.27" type="DEFAULT_PEDTYPE" speed="0.64" pos="0.98" edge="1391" slope="0.00"/>
        <person id="pf_1.3" x="1791.15" y="1901.29" angle="5.27" type="DEFAULT_PEDTYPE" speed="1.15" pos="2.34" edge="1391" slope="0.00"/>
        <person id="pf_1.2" x="1791.30" y="1902.99" angle="5.27" type="DEFAULT_PEDTYPE" speed="1.35" pos="4.05" edge="1391" slope="0.00"/>
        <person id="pf_1.1" x="1791.47" y="1904.83" angle="5.27" type="DEFAULT_PEDTYPE" speed="1.39" pos="5.89" edge="1391" slope="0.00"/>
        <person id="pf_1.0" x="1791.73" y="1907.60" angle="5.27" type="DEFAULT_PEDTYPE" speed="1.39" pos="8.67" edge="1391" slope="0.00"/>
        <person id="pf_2.0" x="1792.23" y="2073.08" angle="248.91" type="DEFAULT_PEDTYPE" speed="1.39" pos="0.00" edge="1464" slope="0.00"/>
        <person id="pf_2.1" x="1795.72" y="2074.42" angle="248.92" type="DEFAULT_PEDTYPE" speed="1.36" pos="0.00" edge="1464" slope="0.00"/>
        <person id="pf_2.2" x="1797.35" y="2075.17" angle="251.12" type="DEFAULT_PEDTYPE" speed="1.29" pos="0.00" edge="1464" slope="0.00"/>
        <person id="pf_2.3" x="1798.89" y="2075.70" angle="230.48" type="DEFAULT_PEDTYPE" speed="1.15" pos="0.00" edge="1464" slope="0.00"/>
        <person id="pf_3.0" x="1793.99" y="2073.75" angle="248.91" type="DEFAULT_PEDTYPE" speed="1.39" pos="0.00" edge="1464" slope="0.00"/>
        <person id="pf_3.1" x="1797.87" y="2074.34" angle="247.24" type="DEFAULT_PEDTYPE" speed="1.39" pos="0.00" edge="1464" slope="0.00"/>
        <person id="pf_3.2" x="1799.59" y="2075.47" angle="214.01" type="DEFAULT_PEDTYPE" speed="1.02" pos="0.00" edge="1464" slope="0.00"/>
        <person id="pf_2.4" x="1799.73" y="2076.49" angle="343.90" type="DEFAULT_PEDTYPE" speed="0.00" pos="0.34" edge="1464" slope="0.00"/>
        <person id="pf_2.5" x="1799.73" y="2076.49" angle="343.90" type="DEFAULT_PEDTYPE" speed="0.00" pos="0.34" edge="1464" slope="0.00"/>
        <person id="pf_3.3" x="1799.73" y="2076.49" angle="343.90" type="DEFAULT_PEDTYPE" speed="0.00" pos="0.34" edge="1464" slope="0.00"/>
        <person id="pf_3.4" x="1799.73" y="2076.49" angle="343.90" type="DEFAULT_PEDTYPE" speed="0.00" pos="0.34" edge="1464" slope="0.00"/>
        <person id="pf_3.5" x="1799.73" y="2076.49" angle="343.90" type="DEFAULT_PEDTYPE" speed="0.00" pos="0.34" edge="1464" slope="0.00"/>
        <person id="pf_0.5" x="1596.70" y="1889.68" angle="25.11" type="DEFAULT_PEDTYPE" speed="0.00" pos="0.42" edge="533" slope="0.00"/>
        <person id="pf_0.4" x="1596.97" y="1890.27" angle="24.67" type="DEFAULT_PEDTYPE" speed="0.64" pos="1.06" edge="533" slope="0.00"/>
        <person id="pf_0.3" x="1597.53" y="1891.49" angle="24.67" type="DEFAULT_PEDTYPE" speed="1.15" pos="2.42" edge="533" slope="0.00"/>
        <person id="pf_0.2" x="1598.25" y="1893.05" angle="24.67" type="DEFAULT_PEDTYPE" speed="1.35" pos="4.13" edge="533" slope="0.00"/>
        <person id="pf_0.1" x="1599.02" y="1894.73" angle="24.67" type="DEFAULT_PEDTYPE" speed="1.39" pos="5.97" edge="533" slope="0.00"/>
        <person id="pf_0.0" x="1600.18" y="1897.25" angle="24.67" type="DEFAULT_PEDTYPE" speed="1.39" pos="8.75" edge="533" slope="0.00"/>
    </timestep>
    <timestep time="7.00">
        <person id="pf_1.5" x="1791.01" y="1899.75" angle="5.27" type="DEFAULT_PEDTYPE" speed="0.45" pos="0.79" edge="1391" slope="0.00"/>
        <person id="pf_1.4" x="1791.12" y="1900.96" angle="5.27" type="DEFAULT_PEDTYPE" speed="1.02" pos="2.00" edge="1391" slope="0.00"/>
        <person id="pf_1.3" x="1791.26" y="1902.57" angle="5.27" type="DEFAULT_PEDTYPE" speed="1.29" pos="3.62" edge="1391" slope="0.00"/>
        <person id="pf_1.2" x="1791.43" y="1904.36" angle="5.27" type="DEFAULT_PEDTYPE" speed="1.37" pos="5.43" edge="1391" slope="0.00"/>
        <person id="pf_1.1" x="1791.60" y="1906.21" angle="5.27" type="DEFAULT_PEDTYPE" speed="1.39" pos="7.28" edge="1391" slope="0.00"/>
        <person id="pf_1.0" x="1791.86" y="1908.98" angle="5.27" type="DEFAULT_PEDTYPE" speed="1.39" pos="10.06" edge="1391" slope="0.00"/>
        <person id="pf_2.0" x="1790.94" y="2072.58" angle="248.91" type="DEFAULT_PEDTYPE" speed="1.39" pos="0.00" edge="1464" slope="0.00"/>
        <person id="pf_2.1" x="1794.43" y="2073.92" angle="248.92" type="DEFAULT_PEDTYPE" speed="1.38" pos="0.00" edge="1464" slope="0.00"/>
        <person id="pf_2.2" x="1796.09" y="2074.72" angle="250.12" type="DEFAULT_PEDTYPE" speed="1.34" pos="0.00" edge="1464" slope="0.00"/>
        <person id="pf_2.3" x="1797.74" y="2075.31" angle="252.00" type="DEFAULT_PEDTYPE" speed="1.22" pos="0.00" edge="1464" slope="0.00"/>
        <person id="pf_3.0" x="1792.70" y="2073.26" angle="248.91" type="DEFAULT_PEDTYPE" speed="1.39" pos="0.00" edge="1464" slope="0.00"/>
        <person id="pf_3.1" x="1796.58" y="2073.82" angle="248.54" type="DEFAULT_PEDTYPE" speed="1.39" pos="0.00" edge="1464" slope="0.00"/>
        <person id="pf_3.2" x="1798.44" y="2074.73" angle="244.63" type="DEFAULT_PEDTYPE" speed="1.37" pos="0.00" edge="1464" slope="0.00"/>
        <person id="pf_3.3" x="1799.44" y="2075.63" angle="207.65" type="DEFAULT_PEDTYPE" speed="0.90" pos="0.00" edge="1464" slope="0.00"/>
        <person id="pf_2.4" x="1798.96" y="2076.17" angle="158.98" type="DEFAULT_PEDTYPE" speed="0.83" pos="0.25" edge="1464" slope="0.00"/>
        <person id="pf_2.5" x="1799.73" y="2076.49" angle="343.90" type="DEFAULT_PEDTYPE" speed="0.00" pos="0.34" edge="1464" slope="0.00"/>
        <person id="pf_3.4" x="1799.73" y="2076.49" angle="343.90" type="DEFAULT_PEDTYPE" speed="0.00" pos="0.34" edge="1464" slope="0.00"/>
        <person id="pf_3.5" x="1799.73" y="2076.49" angle="343.90" type="DEFAULT_PEDTYPE" speed="0.00" pos="0.34" edge="1464" slope="0.00"/>
        <person id="pf_0.5" x="1596.89" y="1890.09" angle="24.67" type="DEFAULT_PEDTYPE" speed="0.45" pos="0.87" edge="533" slope="0.00"/>
        <person id="pf_0.4" x="1597.39" y="1891.19" angle="24.67" type="DEFAULT_PEDTYPE" speed="1.02" pos="2.08" edge="533" slope="0.00"/>
        <person id="pf_0.3" x="1598.07" y="1892.66" angle="24.67" type="DEFAULT_PEDTYPE" speed="1.29" pos="3.70" edge="533" slope="0.00"/>
        <person id="pf_0.2" x="1598.82" y="1894.30" angle="24.67" type="DEFAULT_PEDTYPE" speed="1.37" pos="5.50" edge="533" slope="0.00"/>
        <person id="pf_0.1" x="1599.60" y="1895.99" angle="24.67" type="DEFAULT_PEDTYPE" speed="1.39" pos="7.36" edge="533" slope="0.00"/>
        <person id="pf_0.0" x="1600.76" y="1898.51" angle="24.67" type="DEFAULT_PEDTYPE" speed="1.39" pos="10.14" edge="533" slope="0.00"/>
    </timestep>
    <timestep time="8.00">
        <person id="pf_1.6" x="1790.96" y="1899.30" angle="5.64" type="DEFAULT_PEDTYPE" speed="0.00" pos="0.34" edge="1391" slope="0.00"/>
        <person id="pf_1.5" x="1791.09" y="1900.65" angle="5.27" type="DEFAULT_PEDTYPE" speed="0.90" pos="1.70" edge="1391" slope="0.00"/>
        <person id="pf_1.4" x="1791.23" y="1902.16" angle="5.27" type="DEFAULT_PEDTYPE" speed="1.21" pos="3.22" edge="1391" slope="0.00"/>
        <person id="pf_1.3" x="1791.39" y="1903.91" angle="5.27" type="DEFAULT_PEDTYPE" speed="1.35" pos="4.97" edge="1391" slope="0.00"/>
        <person id="pf_1.2" x="1791.56" y="1905.74" angle="5.27" type="DEFAULT_PEDTYPE" speed="1.38" pos="6.81" edge="1391" slope="0.00"/>
        <person id="pf_1.1" x="1791.73" y="1907.60" angle="5.27" type="DEFAULT_PEDTYPE" speed="1.39" pos="8.67" edge="1391" slope="0.00"/>
        <person id="pf_1.0" x="1791.98" y="1910.36" angle="5.27" type="DEFAULT_PEDTYPE" speed="1.39" pos="11.45" edge="1391" slope="0.00"/>
        <person id="pf_2.0" x="1789.64" y="2072.08" angle="248.91" type="DEFAULT_PEDTYPE" speed="1.39" pos="0.00" edge="1464" slope="0.00"/>
        <person id="pf_2.1" x="1793.14" y="2073.43" angle="248.92" type="DEFAULT_PEDTYPE" speed="1.38" pos="0.00" edge="1464" slope="0.00"/>
        <person id="pf_2.2" x="1794.80" y="2074.25" angle="249.58" type="DEFAULT_PEDTYPE" speed="1.37" pos="0.00" edge="1464" slope="0.00"/>
        <person id="pf_2.3" x="1796.50" y="2074.89" angle="250.87" type="DEFAULT_PEDTYPE" speed="1.31" pos="0.00" edge="1464" slope="0.00"/>
        <person id="pf_2.4" x="1799.02" y="2075.85" angle="196.94" type="DEFAULT_PEDTYPE" speed="0.32" pos="0.00" edge="1464" slope="0.00"/>
        <person id="pf_3.0" x="1791.40" y="2072.76" angle="248.91" type="DEFAULT_PEDTYPE" speed="1.39" pos="0.00" edge="1464" slope="0.00"/>
        <person id="pf_3.1" x="1795.29" y="2073.32" angle="248.94" type="DEFAULT_PEDTYPE" speed="1.39" pos="0.00" edge="1464" slope="0.00"/>
        <person id="pf_3.2" x="1797.16" y="2074.17" angle="247.55" type="DEFAULT_PEDTYPE" speed="1.39" pos="0.00" edge="1464" slope="0.00"/>
        <person id="pf_3.3" x="1798.63" y="2074.98" angle="247.27" type="DEFAULT_PEDTYPE" speed="1.04" pos="0.00" edge="1464" slope="0.00"/>
        <person id="pf_3.5" x="1799.83" y="2076.22" angle="244.21" type="DEFAULT_PEDTYPE" speed="0.28" pos="0.06" edge="1464" slope="0.00"/>
        <person id="pf_2.6" x="1799.73" y="2076.49" angle="343.90" type="DEFAULT_PEDTYPE" speed="0.00" pos="0.34" edge="1464" slope="0.00"/>
        <person id="pf_3.4" x="1799.73" y="2076.49" angle="343.90" type="DEFAULT_PEDTYPE" speed="0.00" pos="0.34" edge="1464" slope="0.00"/>
        <person id="pf_3.6" x="1799.73" y="2076.49" angle="343.90" type="DEFAULT_PEDTYPE" speed="0.00" pos="0.34" edge="1464" slope="0.00"/>
        <person id="pf_2.5" x="1798.88" y="2076.57" angle="166.14" type="DEFAULT_PEDTYPE" speed="0.85" pos="0.66" edge="1464" slope="0.00"/>
        <person id="pf_0.6" x="1596.70" y="1889.68" angle="25.11" type="DEFAULT_PEDTYPE" speed="0.00" pos="0.42" edge="533" slope="0.00"/>
        <person id="pf_0.5" x="1597.26" y="1890.91" angle="24.67" type="DEFAULT_PEDTYPE" speed="0.90" pos="1.78" edge="533" slope="0.00"/>
        <person id="pf_0.4" x="1597.90" y="1892.30" angle="24.67" type="DEFAULT_PEDTYPE" speed="1.21" pos="3.30" edge="533" slope="0.00"/>
        <person id="pf_0.3" x="1598.63" y="1893.89" angle="24.67" type="DEFAULT_PEDTYPE" speed="1.35" pos="5.05" edge="533" slope="0.00"/>
        <person id="pf_0.2" x="1599.40" y="1895.56" angle="24.67" type="DEFAULT_PEDTYPE" speed="1.38" pos="6.89" edge="533" slope="0.00"/>
        <person id="pf_0.1" x="1600.18" y="1897.25" angle="24.67" type="DEFAULT_PEDTYPE" speed="1.39" pos="8.75" edge="533" slope="0.00"/>
        <person id="pf_0.0" x="1601.34" y="1899.78" angle="24.67" type="DEFAULT_PEDTYPE" speed="1.39" pos="11.53" edge="533" slope="0.00"/>
    </timestep>
    <timestep time="9.00">
        <person id="pf_1.7" x="1790.96" y="1899.30" angle="5.64" type="DEFAULT_PEDTYPE" speed="0.00" pos="0.34" edge="1391" slope="0.00"/>
        <person id="pf_1.6" x="1791.05" y="1900.26" angle="5.27" type="DEFAULT_PEDTYPE" speed="0.96" pos="1.30" edge="1391" slope="0.00"/>
        <person id="pf_1.5" x="1791.19" y="1901.78" angle="5.27" type="DEFAULT_PEDTYPE" speed="1.14" pos="2.83" edge="1391" slope="0.00"/>
        <person id="pf_1.4" x="1791.35" y="1903.47" angle="5.27" type="DEFAULT_PEDTYPE" speed="1.31" pos="4.53" edge="1391" slope="0.00"/>
        <person id="pf_1.3" x="1791.51" y="1905.27" angle="5.27" type="DEFAULT_PEDTYPE" speed="1.37" pos="6.34" edge="1391" slope="0.00"/>
        <person id="pf_1.2" x="1791.68" y="1907.12" angle="5.27" type="DEFAULT_PEDTYPE" speed="1.39" pos="8.20" edge="1391" slope="0.00"/>
        <person id="pf_1.1" x="1791.86" y="1908.98" angle="5.27" type="DEFAULT_PEDTYPE" speed="1.39" pos="10.06" edge="1391" slope="0.00"/>
        <person id="pf_1.0" x="1792.11" y="1911.74" angle="5.27" type="DEFAULT_PEDTYPE" speed="1.39" pos="12.84" edge="1391" slope="0.00"/>
        <person id="pf_2.0" x="1788.35" y="2071.58" angle="248.91" type="DEFAULT_PEDTYPE" speed="1.39" pos="0.00" edge="1464" slope="0.00"/>
        <person id="pf_2.1" x="1791.84" y="2072.93" angle="248.92" type="DEFAULT_PEDTYPE" speed="1.39" pos="0.00" edge="1464" slope="0.00"/>
        <person id="pf_2.2" x="1793.51" y="2073.76" angle="249.28" type="DEFAULT_PEDTYPE" speed="1.38" pos="0.00" edge="1464" slope="0.00"/>
        <person id="pf_2.3" x="1795.22" y="2074.43" angle="249.93" type="DEFAULT_PEDTYPE" speed="1.35" pos="0.00" edge="1464" slope="0.00"/>
        <person id="pf_2.4" x="1798.50" y="2075.43" angle="247.13" type="DEFAULT_PEDTYPE" speed="0.67" pos="0.00" edge="1464" slope="0.00"/>
        <person id="pf_3.0" x="1790.10" y="2072.26" angle="248.91" type="DEFAULT_PEDTYPE" speed="1.39" pos="0.00" edge="1464" slope="0.00"/>
        <person id="pf_3.1" x="1793.99" y="2072.82" angle="249.08" type="DEFAULT_PEDTYPE" speed="1.39" pos="0.00" edge="1464" slope="0.00"/>
        <person id="pf_3.2" x="1795.88" y="2073.65" angle="248.44" type="DEFAULT_PEDTYPE" speed="1.39" pos="0.00" edge="1464" slope="0.00"/>
        <person id="pf_3.3" x="1797.44" y="2074.54" angle="250.22" type="DEFAULT_PEDTYPE" speed="1.27" pos="0.00" edge="1464" slope="0.00"/>
        <person id="pf_3.5" x="1799.39" y="2075.67" angle="214.69" type="DEFAULT_PEDTYPE" speed="0.70" pos="0.00" edge="1464" slope="0.00"/>
        <person id="pf_2.6" x="1799.73" y="2076.49" angle="343.90" type="DEFAULT_PEDTYPE" speed="0.00" pos="0.34" edge="1464" slope="0.00"/>
        <person id="pf_2.7" x="1799.73" y="2076.49" angle="343.90" type="DEFAULT_PEDTYPE" speed="0.00" pos="0.34" edge="1464" slope="0.00"/>
        <person id="pf_3.4" x="1799.73" y="2076.49" angle="343.90" type="DEFAULT_PEDTYPE" speed="0.00" pos="0.34" edge="1464" slope="0.00"/>
        <person id="pf_3.6" x="1799.73" y="2076.49" angle="343.90" type="DEFAULT_PEDTYPE" speed="0.00" pos="0.34" edge="1464" slope="0.00"/>
        <person id="pf_3.7" x="1799.73" y="2076.49" angle="343.90" type="DEFAULT_PEDTYPE" speed="0.00" pos="0.34" edge="1464" slope="0.00"/>
        <person id="pf_2.5" x="1798.94" y="2076.28" angle="158.53" type="DEFAULT_PEDTYPE" speed="0.30" pos="0.36" edge="1464" slope="0.00"/>
        <person id="pf_0.7" x="1596.70" y="1889.68" angle="25.11" type="DEFAULT_PEDTYPE" speed="0.00" pos="0.42" edge="533" slope="0.00"/>
        <person id="pf_0.6" x="1597.10" y="1890.56" angle="24.67" type="DEFAULT_PEDTYPE" speed="0.96" pos="1.38" edge="533" slope="0.00"/>
        <person id="pf_0.5" x="1597.74" y="1891.95" angle="24.67" type="DEFAULT_PEDTYPE" speed="1.14" pos="2.91" edge="533" slope="0.00"/>
        <person id="pf_0.4" x="1598.45" y="1893.48" angle="24.67" type="DEFAULT_PEDTYPE" speed="1.31" pos="4.61" edge="533" slope="0.00"/>
        <person id="pf_0.3" x="1599.20" y="1895.13" angle="24.67" type="DEFAULT_PEDTYPE" speed="1.37" pos="6.42" edge="533" slope="0.00"/>
        <person id="pf_0.2" x="1599.98" y="1896.82" angle="24.67" type="DEFAULT_PEDTYPE" speed="1.39" pos="8.28" edge="533" slope="0.00"/>
        <person id="pf_0.1" x="1600.76" y="1898.51" angle="24.67" type="DEFAULT_PEDTYPE" speed="1.39" pos="10.14" edge="533" slope="0.00"/>
        <person id="pf_0.0" x="1601.92" y="1901.04" angle="24.67" type="DEFAULT_PEDTYPE" speed="1.39" pos="12.92" edge="533" slope="0.00"/>
    </timestep>
    <timestep time="10.00">
        <person id="pf_1.8" x="1790.96" y="1899.30" angle="5.64" type="DEFAULT_PEDTYPE" speed="0.00" pos="0.34" edge="1391" slope="0.00"/>
        <person id="pf_1.7" x="1791.03" y="1900.01" angle="5.27" type="DEFAULT_PEDTYPE" speed="0.71" pos="1.05" edge="1391" slope="0.00"/>
        <person id="pf_1.6" x="1791.16" y="1901.38" angle="5.27" type="DEFAULT_PEDTYPE" speed="1.12" pos="2.43" edge="1391" slope="0.00"/>
        <person id="pf_1.5" x="1791.31" y="1903.04" angle="5.27" type="DEFAULT_PEDTYPE" speed="1.26" pos="4.10" edge="1391" slope="0.00"/>
        <person id="pf_1.4" x="1791.47" y="1904.81" angle="5.27" type="DEFAULT_PEDTYPE" speed="1.35" pos="5.88" edge="1391" slope="0.00"/>
        <person id="pf_1.3" x="1791.64" y="1906.65" angle="5.27" type="DEFAULT_PEDTYPE" speed="1.38" pos="7.72" edge="1391" slope="0.00"/>
        <person id="pf_1.2" x="1791.81" y="1908.50" angle="5.27" type="DEFAULT_PEDTYPE" speed="1.39" pos="9.58" edge="1391" slope="0.00"/>
        <person id="pf_1.1" x="1791.98" y="1910.36" angle="5.27" type="DEFAULT_PEDTYPE" speed="1.39" pos="11.45" edge="1391" slope="0.00"/>
        <person id="pf_1.0" x="1792.24" y="1913.13" angle="5.27" type="DEFAULT_PEDTYPE" speed="1.39" pos="14.23" edge="1391" slope="0.00"/>
        <person id="pf_2.0" x="1787.05" y="2071.08" angle="248.91" type="DEFAULT_PEDTYPE" speed="1.39" pos="0.00" edge="1464" slope="0.00"/>
        <person id="pf_2.1" x="1790.55" y="2072.43" angle="248.92" type="DEFAULT_PEDTYPE" speed="1.39" pos="0.00" edge="1464" slope="0.00"/>
        <person id="pf_2.2" x="1792.21" y="2073.27" angle="249.06" type="DEFAULT_PEDTYPE" speed="1.39" pos="0.00" edge="1464" slope="0.00"/>
        <person id="pf_2.3" x="1793.94" y="2073.96" angle="249.41" type="DEFAULT_PEDTYPE" speed="1.37" pos="0.00" edge="1464" slope="0.00"/>
        <person id="pf_2.4" x="1797.46" y="2075.05" angle="249.19" type="DEFAULT_PEDTYPE" speed="1.10" pos="0.00" edge="1464" slope="0.00"/>
        <person id="pf_3.0" x="1788.81" y="2071.76" angle="248.91" type="DEFAULT_PEDTYPE" speed="1.39" pos="0.00" edge="1464" slope="0.00"/>
        <person id="pf_3.1" x="1792.69" y="2072.33" angle="249.11" type="DEFAULT_PEDTYPE" speed="1.39" pos="0.00" edge="1464" slope="0.00"/>
        <person id="pf_3.2" x="1794.58" y="2073.15" angle="248.78" type="DEFAULT_PEDTYPE" speed="1.39" pos="0.00" edge="1464" slope="0.00"/>
        <person id="pf_3.3" x="1796.17" y="2074.09" angle="250.24" type="DEFAULT_PEDTYPE" speed="1.35" pos="0.00" edge="1464" slope="0.00"/>
        <person id="pf_3.4" x="1799.47" y="2075.48" angle="211.95" type="DEFAULT_PEDTYPE" speed="1.04" pos="0.00" edge="1464" slope="0.00"/>
        <person id="pf_3.5" x="1798.65" y="2075.12" angle="248.01" type="DEFAULT_PEDTYPE" speed="0.92" pos="0.00" edge="1464" slope="0.00"/>
        <person id="pf_2.5" x="1799.00" y="2076.06" angle="250.04" type="DEFAULT_PEDTYPE" speed="0.22" pos="0.13" edge="1464" slope="0.00"/>
        <person id="pf_2.6" x="1799.73" y="2076.49" angle="343.90" type="DEFAULT_PEDTYPE" speed="0.00" pos="0.34" edge="1464" slope="0.00"/>
        <person id="pf_2.7" x="1799.73" y="2076.49" angle="343.90" type="DEFAULT_PEDTYPE" speed="0.00" pos="0.34" edge="1464" slope="0.00"/>
        <person id="pf_2.8" x="1799.73" y="2076.49" angle="343.90" type="DEFAULT_PEDTYPE" speed="0.00" pos="0.34" edge="1464" slope="0.00"/>
        <person id="pf_3.6" x="1799.73" y="2076.49" angle="343.90" type="DEFAULT_PEDTYPE" speed="0.00" pos="0.34" edge="1464" slope="0.00"/>
        <person id="pf_3.7" x="1799.73" y="2076.49" angle="343.90" type="DEFAULT_PEDTYPE" speed="0.00" pos="0.34" edge="1464" slope="0.00"/>