<?xml version="1.0" encoding="UTF-8"?>

<!-- generated on 2026-03-14T07:43:50.154831+01:00 by Eclipse SUMO sumo v1_26_0+0586-69dd46f7418
This data file and the accompanying materials
are made available under the terms of the Eclipse Public License v2.0
which accompanies this distribution, and is available at
http://www.eclipse.org/legal/epl-v20.html
This file may also be made available under the following Secondary
Licenses when the conditions for such availability set forth in the Eclipse
Public License 2.0 are satisfied: GNU General Public License, version 2
or later which is available at
https://www.gnu.org/licenses/old-licenses/gpl-2.0-standalone.html
SPDX-License-Identifier: EPL-2.0 OR GPL-2.0-or-later
<sumoConfiguration xmlns:xsi="http://www.w3.org/2001/XMLSchema-instance" xsi:noNamespaceSchemaLocation="http://sumo.dlr.de/xsd/sumoConfiguration.xsd">

    <input>
        <net-file value="three_split.net.xml"/>
        <route-files value="input_routes.rou.xml"/>
        <additional-files value="input_additional.add.xml,input_additional2.add.xml"/>
    </input>

    <output>
        <write-license value="true"/>
        <fcd-output value="fcd.xml"/>
        <fcd-output.attributes value="speed,pos,lane,edge"/>
    </output>

    <time>
        <step-length value="0.5"/>
    </time>

    <processing>
        <default.speeddev value="0"/>
    </processing>

    <report>
        <xml-validation value="never"/>
        <duration-log.disable value="true"/>
        <no-step-log value="true"/>
    </report>

</sumoConfiguration>
-->

<fcd-export xmlns:xsi="http://www.w3.org/2001/XMLSchema-instance" xsi:noNamespaceSchemaLocation="http://sumo.dlr.de/xsd/fcd_file.xsd">
    <timestep time="0.00">
        <vehicle id="leader" speed="0.00" pos="5.10" lane="beg_0"/>
    </timestep>
    <timestep time="0.50">
        <vehicle id="leader" speed="1.30" pos="5.75" lane="beg_0"/>
    </timestep>
    <timestep time="1.00">
        <vehicle id="leader" speed="2.60" pos="7.05" lane="beg_0"/>
    </timestep>
    <timestep time="1.50">
        <vehicle id="leader" speed="3.90" pos="9.00" lane="beg_0"/>
    </timestep>
    <timestep time="2.00">
        <vehicle id="follower" speed="0.00" pos="5.10" lane="beg_0"/>
        <vehicle id="leader" speed="5.20" pos="11.60" lane="beg_0"/>
    </timestep>
    <timestep time="2.50">
        <vehicle id="follower" speed="1.30" pos="5.75" lane="beg_0"/>
        <vehicle id="leader" speed="6.50" pos="14.85" lane="beg_0"/>
    </timestep>
    <timestep time="3.00">
        <vehicle id="follower" speed="2.60" pos="7.05" lane="beg_0"/>
        <vehicle id="leader" speed="7.80" pos="18.75" lane="beg_0"/>
    </timestep>
    <timestep time="3.50">
        <vehicle id="follower" speed="3.90" pos="9.00" lane="beg_0"/>
        <vehicle id="leader" speed="9.10" pos="23.30" lane="beg_0"/>
    </timestep>
    <timestep time="4.00">
        <vehicle id="follower" speed="5.20" pos="11.60" lane="beg_0"/>
        <vehicle id="leader" speed="10.40" pos="28.50" lane="beg_0"/>
    </timestep>
    <timestep time="4.50">
        <vehicle id="follower" speed="6.50" pos="14.85" lane="beg_0"/>
        <vehicle id="leader" speed="11.70" pos="34.35" lane="beg_0"/>
    </timestep>
    <timestep time="5.00">
        <vehicle id="follower" speed="7.80" pos="18.75" lane="beg_0"/>
        <vehicle id="leader" speed="13.00" pos="40.85" lane="beg_0"/>
    </timestep>
    <timestep time="5.50">
        <vehicle id="follower" speed="9.10" pos="23.30" lane="beg_0"/>
        <vehicle id="leader" speed="14.30" pos="48.00" lane="beg_0"/>
    </timestep>
    <timestep time="6.00">
        <vehicle id="follower" speed="10.40" pos="28.50" lane="beg_0"/>
        <vehicle id="leader" speed="15.60" pos="55.80" lane="beg_0"/>
    </timestep>
    <timestep time="6.50">
        <vehicle id="follower" speed="11.70" pos="34.35" lane="beg_0"/>
        <vehicle id="leader" speed="16.90" pos="64.25" lane="beg_0"/>
    </timestep>
    <timestep time="7.00">
        <vehicle id="follower" speed="13.00" pos="40.85" lane="beg_0"/>
        <vehicle id="leader" speed="18.20" pos="73.35" lane="beg_0"/>
    </timestep>
    <timestep time="7.50">
        <vehicle id="follower" speed="14.30" pos="48.00" lane="beg_0"/>
        <vehicle id="leader" speed="19.50" pos="83.10" lane="beg_0"/>
    </timestep>
    <timestep time="8.00">
        <vehicle id="follower" speed="15.60" pos="55.80" lane="beg_0"/>
        <vehicle id="leader" speed="20.00" pos="93.10" lane="beg_0"/>
    </timestep>
    <timestep time="8.50">
        <vehicle id="follower" speed="16.90" pos="64.25" lane="beg_0"/>
        <vehicle id="leader" speed="20.00" pos="103.10" lane="beg_0"/>
    </timestep>
    <timestep time="9.00">
        <vehicle id="follower" speed="18.20" pos="73.35" lane="beg_0"/>
        <vehicle id="leader" speed="20.00" pos="113.10" lane="beg_0"/>
    </timestep>
    <timestep time="9.50">
        <vehicle id="follower" speed="19.50" pos="83.10" lane="beg_0"/>
        <vehicle id="leader" speed="20.00" pos="123.10" lane="beg_0"/>
    </timestep>
    <timestep time="10.00">
        <vehicle id="follower" speed="20.80" pos="93.50" lane="beg_0"/>
        <vehicle id="leader" speed="20.00" pos="133.10" lane="beg_0"/>
    </timestep>
    <timestep time="10.50">
        <vehicle id="follower" speed="22.10" pos="104.55" lane="beg_0"/>
        <vehicle id="leader" speed="20.00" pos="143.10" lane="beg_0"/>
    </timestep>
    <timestep time="11.00">
        <vehicle id="follower" speed="22.49" pos="115.79" lane="beg_0"/>
        <vehicle id="leader" speed="20.00" pos="153.10" lane="beg_0"/>
    </timestep>
    <timestep time="11.50">
        <vehicle id="follower" speed="22.26" pos="126.92" lane="beg_0"/>
        <vehicle id="leader" speed="20.00" pos="163.10" lane="beg_0"/>
    </timestep>
    <timestep time="12.00">
        <vehicle id="follower" speed="22.05" pos="137.95" lane="beg_0"/>
        <vehicle id="leader" speed="20.00" pos="173.10" lane="beg_0"/>
    </timestep>
    <timestep time="12.50">
        <vehicle id="follower" speed="21.87" pos="148.88" lane="beg_0"/>
        <vehicle id="leader" speed="20.00" pos="183.10" lane="beg_0"/>
    </timestep>
    <timestep time="13.00">
        <vehicle id="follower" speed="21.70" pos="159.73" lane="beg_0"/>
        <vehicle id="leader" speed="20.00" pos="193.10" lane="beg_0"/>
    </timestep>
    <timestep time="13.50">
        <vehicle id="follower" speed="21.54" pos="170.51" lane="beg_0"/>
        <vehicle id="leader" speed="20.00" pos="203.10" lane="beg_0"/>
    </timestep>
    <timestep time="14.00">
        <vehicle id="follower" speed="21.40" pos="181.21" lane="beg_0"/>
        <vehicle id="leader" speed="20.00" pos="213.10" lane="beg_0"/>
    </timestep>
    <timestep time="14.50">
        <vehicle id="follower" speed="21.28" pos="191.84" lane="beg_0"/>
        <vehicle id="leader" speed="20.00" pos="223.10" lane="beg_0"/>
    </timestep>
    <timestep time="15.00">
        <vehicle id="follower" speed="21.16" pos="202.42" lane="beg_0"/>
        <vehicle id="leader" speed="20.00" pos="233.10" lane="beg_0"/>
    </timestep>
    <timestep time="15.50">
        <vehicle id="follower" speed="21.05" pos="212.95" lane="beg_0"/>
        <vehicle id="leader" speed="20.00" pos="243.10" lane="beg_0"/>
    </timestep>
    <timestep time="16.00">
        <vehicle id="follower" speed="20.96" pos="223.43" lane="beg_0"/>
        <vehicle id="leader" speed="20.00" pos="253.10" lane="beg_0"/>
    </timestep>
    <timestep time="16.50">
        <vehicle id="follower" speed="20.87" pos="233.87" lane="beg_0"/>
        <vehicle id="leader" speed="20.00" pos="263.10" lane="beg_0"/>
    </timestep>
    <timestep time="17.00">
        <vehicle id="follower" speed="20.79" pos="244.26" lane="beg_0"/>
        <vehicle id="leader" speed="20.00" pos="273.10" lane="beg_0"/>
    </timestep>
    <timestep time="17.50">
        <vehicle id="follower" speed="20.72" pos="254.62" lane="beg_0"/>
        <vehicle id="leader" speed="20.00" pos="283.10" lane="beg_0"/>
    </timestep>
    <timestep time="18.00">
        <vehicle id="follower" speed="20.65" pos="264.95" lane="beg_0"/>
        <vehicle id="leader" speed="20.00" pos="293.10" lane="beg_0"/>
    </timestep>
    <timestep time="18.50">
        <vehicle id="follower" speed="20.60" pos="275.25" lane="beg_0"/>
        <vehicle id="leader" speed="20.00" pos="303.10" lane="beg_0"/>
    </timestep>
    <timestep time="19.00">
        <vehicle id="follower" speed="20.54" pos="285.52" lane="beg_0"/>
        <vehicle id="leader" speed="20.00" pos="313.10" lane="beg_0"/>
    </timestep>
    <timestep time="19.50">
        <vehicle id="follower" speed="20.49" pos="295.76" lane="beg_0"/>
        <vehicle id="leader" speed="20.00" pos="323.10" lane="beg_0"/>
    </timestep>
    <timestep time="20.00">
        <vehicle id="follower" speed="20.45" pos="305.99" lane="beg_0"/>
        <vehicle id="leader" speed="20.00" pos="333.10" lane="beg_0"/>
    </timestep>
    <timestep time="20.50">
        <vehicle id="follower" speed="20.41" pos="316.19" lane="beg_0"/>
        <vehicle id="leader" speed="20.00" pos="343.10" lane="beg_0"/>
    </timestep>
    <timestep time="21.00">
        <vehicle id="follower" speed="20.37" pos="326.38" lane="beg_0"/>
        <vehicle id="leader" speed="20.00" pos="353.10" lane="beg_0"/>
    </timestep>
    <timestep time="21.50">
        <vehicle id="follower" speed="20.34" pos="336.54" lane="beg_0"/>
        <vehicle id="leader" speed="20.00" pos="363.10" lane="beg_0"/>
    </timestep>
    <timestep time="22.00">
        <vehicle id="follower" speed="20.31" pos="346.70" lane="beg_0"/>
        <vehicle id="leader" speed="20.00" pos="373.10" lane="beg_0"/>
    </timestep>
    <timestep time="22.50">
        <vehicle id="follower" speed="20.28" pos="356.84" lane="beg_0"/>
        <vehicle id="leader" speed="20.00" pos="383.10" lane="beg_0"/>
    </timestep>
    <timestep time="23.00">
        <vehicle id="follower" speed="20.25" pos="366.96" lane="beg_0"/>
        <vehicle id="leader" speed="20.00" pos="393.10" lane="beg_0"/>
    </timestep>
    <timestep time="23.50">
        <vehicle id="follower" speed="20.23" pos="377.08" lane="beg_0"/>
        <vehicle id="leader" speed="20.00" pos="403.10" lane="beg_0"/>
    </timestep>
    <timestep time="24.00">
        <vehicle id="follower" speed="20.20" pos="387.18" lane="beg_0"/>
        <vehicle id="leader" speed="20.00" pos="413.10" lane="beg_0"/>
    </timestep>
    <timestep time="24.50">
        <vehicle id="follower" speed="20.18" pos="397.27" lane="beg_0"/>
        <vehicle id="leader" speed="20.00" pos="423.10" lane="beg_0"/>
    </timestep>
    <timestep time="25.00">
        <vehicle id="follower" speed="20.17" pos="407.35" lane="beg_0"/>
        <vehicle id="leader" speed="20.00" pos="433.10" lane="beg_0"/>
    </timestep>
    <timestep time="25.50">
        <vehicle id="follower" speed="20.15" pos="417.43" lane="beg_0"/>
        <vehicle id="leader" speed="20.00" pos="443.10" lane="beg_0"/>
    </timestep>
    <timestep time="26.00">
        <vehicle id="follower" speed="20.13" pos="427.49" lane="beg_0"/>
        <vehicle id="leader" speed="20.00" pos="453.10" lane="beg_0"/>
    </timestep>
    <timestep time="26.50">
        <vehicle id="follower" speed="20.12" pos="437.56" lane="beg_0"/>
        <vehicle id="leader" speed="20.00" pos="463.10" lane="beg_0"/>
    </timestep>
    <timestep time="27.00">
        <vehicle id="follower" speed="20.11" pos="447.61" lane="beg_0"/>
        <vehicle id="leader" speed="20.00" pos="473.10" lane="beg_0"/>
    </timestep>
    <timestep time="27.50">
        <vehicle id="follower" speed="20.10" pos="457.66" lane="beg_0"/>
        <vehicle id="leader" speed="20.00" pos="483.10" lane="beg_0"/>
    </timestep>
    <timestep time="28.00">
        <vehicle id="follower" speed="20.09" pos="467.70" lane="beg_0"/>
        <vehicle id="leader" speed="20.00" pos="493.10" lane="beg_0"/>
    </timestep>
    <timestep time="28.50">
        <vehicle id="follower" speed="20.08" pos="477.74" lane="beg_0"/>
        <vehicle id="leader" speed="20.00" pos="3.10" lane="middle_0"/>
    </timestep>
    <timestep time="29.00">
        <vehicle id="follower" speed="20.07" pos="487.78" lane="beg_0"/>
        <vehicle id="leader" speed="20.00" pos="13.10" lane="middle_0"/>
    </timestep>
    <timestep time="29.50">
        <vehicle id="follower" speed="20.06" pos="497.81" lane="beg_0"/>
        <vehicle id="leader" speed="20.00" pos="23.10" lane="middle_0"/>
    </timestep>
    <timestep time="30.00">
        <vehicle id="follower" speed="20.06" pos="7.84" lane="middle_0"/>
        <vehicle id="leader" speed="20.00" pos="33.10" lane="middle_0"/>
    </timestep>
    <timestep time="30.50">
        <vehicle id="follower" speed="20.05" pos="17.86" lane="middle_0"/>
        <vehicle id="leader" speed="20.00" pos="43.10" lane="middle_0"/>
    </timestep>
    <timestep time="31.00">
        <vehicle id="follower" speed="20.05" pos="27.89" lane="middle_0"/>
        <vehicle id="leader" speed="20.00" pos="53.10" lane="middle_0"/>
    </timestep>
    <timestep time="31.50">
        <vehicle id="follower" speed="20.04" pos="37.91" lane="middle_0"/>
        <vehicle id="leader" speed="20.00" pos="63.10" lane="middle_0"/>
    </timestep>
    <timestep time="32.00">
        <vehicle id="follower" speed="20.04" pos="47.93" lane="middle_0"/>
        <vehicle id="leader" speed="20.00" pos="73.10" lane="middle_0"/>
    </timestep>
    <timestep time="32.50">
        <vehicle id="follower" speed="20.03" pos="57.95" lane="middle_0"/>
        <vehicle id="leader" speed="20.00" pos="83.10" lane="middle_0"/>
    </timestep>
    <timestep time="33.00">
        <vehicle id="follower" speed="20.03" pos="67.96" lane="middle_0"/>
        <vehicle id="leader" speed="20.00" pos="93.10" lane="middle_0"/>
    </timestep>
    <timestep time="33.50">
        <vehicle id="follower" speed="20.03" pos="77.97" lane="middle_0"/>
        <vehicle id="leader" speed="20.00" pos="103.10" lane="middle_0"/>
    </timestep>
    <timestep time="34.00">
        <vehicle id="follower" speed="20.02" pos="87.99" lane="middle_0"/>
        <vehicle id="leader" speed="20.00" pos="113.10" lane="middle_0"/>
    </timestep>
    <timestep time="34.50">
        <vehicle id="follower" speed="20.02" pos="98.00" lane="middle_0"/>
        <vehicle id="leader" speed="20.00" pos="123.10" lane="middle_0"/>
    </timestep>
    <timestep time="35.00">
        <vehicle id="follower" speed="20.02" pos="108.01" lane="middle_0"/>
        <vehicle id="leader" speed="20.00" pos="133.10" lane="middle_0"/>
    </timestep>
    <timestep time="35.50">
        <vehicle id="follower" speed="20.02" pos="118.02" lane="middle_0"/>
        <vehicle id="leader" speed="20.00" pos="143.10" lane="middle_0"/>
    </timestep>
    <timestep time="36.00">
        <vehicle id="follower" speed="20.02" pos="128.03" lane="middle_0"/>
        <vehicle id="leader" speed="20.00" pos="153.10" lane="middle_0"/>
    </timestep>
    <timestep time="36.50">
        <vehicle id="follower" speed="20.01" pos="138.03" lane="middle_0"/>
        <vehicle id="leader" speed="19.42" pos="162.81" lane="middle_0"/>
    </timestep>
    <timestep time="37.00">
        <vehicle id="follower" speed="19.49" pos="147.78" lane="middle_0"/>
        <vehicle id="leader" speed="17.17" pos="171.40" lane="middle_0"/>
    </timestep>
    <timestep time="37.50">
        <vehicle id="follower" speed="17.49" pos="156.53" lane="middle_0"/>
        <vehicle id="leader" speed="14.92" pos="178.86" lane="middle_0"/>
    </timestep>
    <timestep time="38.00">
        <vehicle id="follower" speed="15.52" pos="164.29" lane="middle_0"/>
        <vehicle id="leader" speed="12.67" pos="185.19" lane="middle_0"/>
    </timestep>
    <timestep time="38.50">
        <vehicle id="follower" speed="13.58" pos="171.08" lane="middle_0"/>
        <vehicle id="leader" speed="10.42" pos="190.41" lane="middle_0"/>
    </timestep>
    <timestep time="39.00">
        <vehicle id="follower" speed="11.66" pos="176.91" lane="middle_0"/>
        <vehicle id="leader" speed="8.17" pos="194.49" lane="middle_0"/>
    </timestep>
    <timestep time="39.50">
        <vehicle id="follower" speed="9.78" pos="181.80" lane="middle_0"/>
        <vehicle id="leader" speed="5.92" pos="197.45" lane="middle_0"/>
    </timestep>
    <timestep time="40.00">
        <vehicle id="follower" speed="7.98" pos="185.79" lane="middle_0"/>
        <vehicle id="leader" speed="3.67" pos="199.29" lane="middle_0"/>
    </timestep>
    <timestep time="40.50">
        <vehicle id="follower" speed="6.29" pos="188.93" lane="middle_0"/>
        <vehicle id="leader" speed="1.42" pos="200.00" lane="middle_0"/>
    </timestep>
    <timestep time="41.00">
        <vehicle id="follower" speed="4.72" pos="191.29" lane="middle_0"/>
        <vehicle id="leader" speed="0.00" pos="200.00" lane="middle_0"/>
    </timestep>
    <timestep time="41.50">
        <vehicle id="follower" speed="3.22" pos="192.90" lane="middle_0"/>
        <vehicle id="leader" speed="0.00" pos="200.00" lane="middle_0"/>
    </timestep>
    <timestep time="42.00">
        <vehicle id="follower" speed="2.09" pos="193.95" lane="middle_0"/>
        <vehicle id="leader" speed="0.00" pos="200.00" lane="middle_0"/>
    </timestep>
    <timestep time="42.50">
        <vehicle id="follower" speed="1.05" pos="194.48" lane="middle_0"/>
        <vehicle id="leader" speed="0.00" pos="200.00" lane="middle_0"/>
    </timestep>
    <timestep time="43.00">
        <vehicle id="follower" speed="0.52" pos="194.74" lane="middle_0"/>
        <vehicle id="leader" speed="0.00" pos="200.00" lane="middle_0"/>
    </timestep>
    <timestep time="43.50">
        <vehicle id="follower" speed="0.26" pos="194.87" lane="middle_0"/>
        <vehicle id="leader" speed="0.00" pos="200.00" lane="middle_0"/>
    </timestep>
    <timestep time="44.00">
        <vehicle id="follower" speed="0.13" pos="194.93" lane="middle_0"/>
        <vehicle id="leader" speed="0.00" pos="200.00" lane="middle_0"/>
    </timestep>
    <timestep time="44.50">
        <vehicle id="follower" speed="0.07" pos="194.97" lane="middle_0"/>
        <vehicle id="leader" speed="0.00" pos="200.00" lane="middle_0"/>
    </timestep>
    <timestep time="45.00">
        <vehicle id="follower" speed="0.03" pos="194.98" lane="middle_0"/>
        <vehicle id="leader" speed="0.00" pos="200.00" lane="middle_0"/>
    </timestep>
    <timestep time="45.50">
        <vehicle id="follower" speed="0.02" pos="194.99" lane="middle_0"/>
        <vehicle id="leader" speed="0.00" pos="200.00" lane="middle_0"/>
    </timestep>
    <timestep time="46.00">
        <vehicle id="follower" speed="0.01" pos="194.99" lane="middle_0"/>
        <vehicle id="leader" speed="1.30" pos="200.65" lane="middle_0"/>
    </timestep>
    <timestep time="46.50">
        <vehicle id="follower" speed="0.65" pos="195.32" lane="middle_0"/>
        <vehicle id="leader" speed="2.60" pos="201.95" lane="middle_0"/>
    </timestep>
    <timestep time="47.00">
        <vehicle id="follower" speed="1.80" pos="196.22" lane="middle_0"/>
        <vehicle id="leader" speed="3.90" pos="203.90" lane="middle_0"/>
    </timestep>
    <timestep time="47.50">
        <vehicle id="follower" speed="3.08" pos="197.76" lane="middle_0"/>
        <vehicle id="leader" speed="5.20" pos="206.50" lane="middle_0"/>
    </timestep>
    <timestep time="48.00">
        <vehicle id="follower" speed="4.38" pos="199.96" lane="middle_0"/>
        <vehicle id="leader" speed="6.50" pos="209.75" lane="middle_0"/>
    </timestep>
    <timestep time="48.50">
        <vehicle id="follower" speed="5.65" pos="202.78" lane="middle_0"/>
        <vehicle id="leader" speed="7.80" pos="213.65" lane="middle_0"/>
    </timestep>
    <timestep time="49.00">
        <vehicle id="follower" speed="6.95" pos="206.25" lane="middle_0"/>
        <vehicle id="leader" speed="9.10" pos="218.20" lane="middle_0"/>
    </timestep>
    <timestep time="49.50">
        <vehicle id="follower" speed="8.25" pos="210.38" lane="middle_0"/>
        <vehicle id="leader" speed="10.40" pos="223.40" lane="middle_0"/>
    </timestep>
    <timestep time="50.00">
        <vehicle id="follower" speed="9.55" pos="215.15" lane="middle_0"/>
        <vehicle id="leader" speed="11.70" pos="229.25" lane="middle_0"/>
    </timestep>
    <timestep time="50.50">
        <vehicle id="follower" speed="10.85" pos="220.57" lane="middle_0"/>
        <vehicle id="leader" speed="13.00" pos="235.75" lane="middle_0"/>
    </timestep>
    <timestep time="51.00">
        <vehicle id="follower" speed="12.15" pos="226.65" lane="middle_0"/>
        <vehicle id="leader" speed="14.30" pos="242.90" lane="middle_0"/>
    </timestep>
    <timestep time="51.50">
        <vehicle id="follower" speed="13.45" pos="233.37" lane="middle_0"/>
        <vehicle id="leader" speed="15.60" pos="250.70" lane="middle_0"/>
    </timestep>
    <timestep time="52.00">
        <vehicle id="follower" speed="14.75" pos="240.74" lane="middle_0"/>
        <vehicle id="leader" speed="16.90" pos="259.15" lane="middle_0"/>
    </timestep>
    <timestep time="52.50">
        <vehicle id="follower" speed="16.05" pos="248.76" lane="middle_0"/>
        <vehicle id="leader" speed="18.20" pos="268.25" lane="middle_0"/>
    </timestep>
    <timestep time="53.00">
        <vehicle id="follower" speed="17.35" pos="257.44" lane="middle_0"/>
        <vehicle id="leader" speed="19.50" pos="278.00" lane="middle_0"/>
    </timestep>
    <timestep time="53.50">
        <vehicle id="follower" speed="18.65" pos="266.76" lane="middle_0"/>
        <vehicle id="leader" speed="20.00" pos="288.00" lane="middle_0"/>
    </timestep>
    <timestep time="54.00">
        <vehicle id="follower" speed="19.25" pos="276.38" lane="middle_0"/>
        <vehicle id="leader" speed="20.00" pos="298.00" lane="middle_0"/>
    </timestep>
    <timestep time="54.50">
        <vehicle id="follower" speed="19.32" pos="286.05" lane="middle_0"/>
        <vehicle id="leader" speed="20.00" pos="308.00" lane="middle_0"/>
    </timestep>
    <timestep time="55.00">
        <vehicle id="follower" speed="19.39" pos="295.74" lane="middle_0"/>
        <vehicle id="leader" speed="20.00" pos="318.00" lane="middle_0"/>
    </timestep>
    <timestep time="55.50">
        <vehicle id="follower" speed="19.45" pos="305.47" lane="middle_0"/>
        <vehicle id="leader" speed="20.00" pos="328.00" lane="middle_0"/>
    </timestep>
    <timestep time="56.00">
        <vehicle id="follower" speed="19.51" pos="315.22" lane="middle_0"/>
        <vehicle id="leader" speed="20.00" pos="338.00" lane="middle_0"/>
    </timestep>
    <timestep time="56.50">
        <vehicle id="follower" speed="19.56" pos="325.00" lane="middle_0"/>
        <vehicle id="leader" speed="20.00" pos="348.00" lane="middle_0"/>
    </timestep>
    <timestep time="57.00">
        <vehicle id="follower" speed="19.60" pos="334.80" lane="middle_0"/>
        <vehicle id="leader" speed="20.00" pos="358.00" lane="middle_0"/>
    </timestep>
    <timestep time="57.50">
        <vehicle id="follower" speed="19.64" pos="344.62" lane="middle_0"/>
        <vehicle id="leader" speed="20.00" pos="368.00" lane="middle_0"/>
    </timestep>
    <timestep time="58.00">
        <vehicle id="follower" speed="19.68" pos="354.46" lane="middle_0"/>
        <vehicle id="leader" speed="20.00" pos="378.00" lane="middle_0"/>
    </timestep>
    <timestep time="58.50">
        <vehicle id="follower" speed="19.71" pos="364.31" lane="middle_0"/>
        <vehicle id="leader" speed="20.00" pos="388.00" lane="middle_0"/>
    </timestep>
    <timestep time="59.00">
        <vehicle id="follower" speed="19.74" pos="374.18" lane="middle_0"/>
        <vehicle id="leader" speed="20.00" pos="398.00" lane="middle_0"/>
    </timestep>
    <timestep time="59.50">
        <vehicle id="follower" speed="19.76" pos="384.06" lane="middle_0"/>
        <vehicle id="leader" speed="20.00" pos="408.00" lane="middle_0"/>
    </timestep>
    <timestep time="60.00">
        <vehicle id="follower" speed="19.79" pos="393.95" lane="middle_0"/>
        <vehicle id="leader" speed="20.00" pos="418.00" lane="middle_0"/>
    </timestep>
    <timestep time="60.50">
        <vehicle id="follower" speed="19.81" pos="403.86" lane="middle_0"/>
        <vehicle id="leader" speed="20.00" pos="428.00" lane="middle_0"/>
    </timestep>
    <timestep time="61.00">
        <vehicle id="follower" speed="19.83" pos="413.77" lane="middle_0"/>
        <vehicle id="leader" speed="20.00" pos="438.00" lane="middle_0"/>
    </timestep>
    <timestep time="61.50">
        <vehicle id="follower" speed="19.85" pos="423.70" lane="middle_0"/>
        <vehicle id="leader" speed="20.00" pos="448.00" lane="middle_0"/>
    </timestep>
    <timestep time="62.00">
        <vehicle id="follower" speed="19.86" pos="433.63" lane="middle_0"/>
        <vehicle id="leader" speed="20.00" pos="458.00" lane="middle_0"/>
    </timestep>
    <timestep time="62.50">
        <vehicle id="follower" speed="19.87" pos="443.56" lane="middle_0"/>
        <vehicle id="leader" speed="20.00" pos="468.00" lane="middle_0"/>
    </timestep>
    <timestep time="63.00">
        <vehicle id="follower" speed="19.89" pos="453.51" lane="middle_0"/>
        <vehicle id="leader" speed="20.00" pos="478.00" lane="middle_0"/>
    </timestep>
    <timestep time="63.50">
        <vehicle id="follower" speed="19.90" pos="463.46" lane="middle_0"/>
        <vehicle id="leader" speed="20.00" pos="488.00" lane="middle_0"/>
    </timestep>
    <timestep time="64.00">
        <vehicle id="follower" speed="19.91" pos="473.41" lane="middle_0"/>
        <vehicle id="leader" speed="20.00" pos="498.00" lane="middle_0"/>
    </timestep>
    <timestep time="64.50">
        <vehicle id="follower" speed="19.92" pos="483.37" lane="middle_0"/>
        <vehicle id="leader" speed="20.00" pos="508.00" lane="middle_0"/>
    </timestep>
    <timestep time="65.00">
        <vehicle id="follower" speed="19.93" pos="493.33" lane="middle_0"/>
        <vehicle id="leader" speed="20.00" pos="518.00" lane="middle_0"/>
    </timestep>
    <timestep time="65.50">
        <vehicle id="follower" speed="19.93" pos="503.30" lane="middle_0"/>
        <vehicle id="leader" speed="20.00" pos="528.00" lane="middle_0"/>
    </timestep>
    <timestep time="66.00">
        <vehicle id="follower" speed="19.94" pos="513.27" lane="middle_0"/>
        <vehicle id="leader" speed="20.00" pos="538.00" lane="middle_0"/>
    </timestep>
    <timestep time="66.50">
        <vehicle id="follower" speed="19.95" pos="523.24" lane="middle_0"/>
        <vehicle id="leader" speed="20.00" pos="548.00" lane="middle_0"/>
    </timestep>
    <timestep time="67.00">
        <vehicle id="follower" speed="19.95" pos="533.22" lane="middle_0"/>
        <vehicle id="leader" speed="20.00" pos="558.00" lane="middle_0"/>
    </timestep>
    <timestep time="67.50">
        <vehicle id="follower" speed="19.96" pos="543.20" lane="middle_0"/>
        <vehicle id="leader" speed="20.00" pos="568.00" lane="middle_0"/>
    </timestep>
    <timestep time="68.00">
        <vehicle id="follower" speed="19.96" pos="553.18" lane="middle_0"/>
        <vehicle id="leader" speed="20.00" pos="578.00" lane="middle_0"/>
    </timestep>
    <timestep time="68.50">
        <vehicle id="follower" speed="19.96" pos="563.16" lane="middle_0"/>
        <vehicle id="leader" speed="20.00" pos="588.00" lane="middle_0"/>
    </timestep>
    <timestep time="69.00">
        <vehicle id="follower" speed="19.97" pos="573.14" lane="middle_0"/>
        <vehicle id="leader" speed="20.00" pos="598.00" lane="middle_0"/>
    </timestep>
    <timestep time="69.50">
        <vehicle id="follower" speed="19.97" pos="583.13" lane="middle_0"/>
        <vehicle id="leader" speed="20.00" pos="608.00" lane="middle_0"/>
    </timestep>
    <timestep time="70.00">
        <vehicle id="follower" speed="19.97" pos="593.12" lane="middle_0"/>
        <vehicle id="leader" speed="20.00" pos="618.00" lane="middle_0"/>
    </timestep>
    <timestep time="70.50">
        <vehicle id="follower" speed="19.98" pos="603.10" lane="middle_0"/>
        <vehicle id="leader" speed="20.00" pos="628.00" lane="middle_0"/>
    </timestep>
    <timestep time="71.00">
        <vehicle id="follower" speed="19.98" pos="613.09" lane="middle_0"/>
        <vehicle id="leader" speed="20.00" pos="638.00" lane="middle_0"/>
    </timestep>
    <timestep time="71.50">
        <vehicle id="follower" speed="19.98" pos="623.08" lane="middle_0"/>
        <vehicle id="leader" speed="20.00" pos="648.00" lane="middle_0"/>
    </timestep>
    <timestep time="72.00">
        <vehicle id="follower" speed="19.98" pos="633.08" lane="middle_0"/>
        <vehicle id="leader" speed="20.00" pos="658.00" lane="middle_0"/>
    </timestep>
    <timestep time="72.50">
        <vehicle id="follower" speed="19.98" pos="643.07" lane="middle_0"/>
        <vehicle id="leader" speed="20.00" pos="668.00" lane="middle_0"/>
    </timestep>
    <timestep time="73.00">
        <vehicle id="follower" speed="19.99" pos="653.06" lane="middle_0"/>
        <vehicle id="leader" speed="20.00" pos="678.00" lane="middle_0"/>
    </timestep>
    <timestep time="73.50">
        <vehicle id="follower" speed="19.99" pos="663.05" lane="middle_0"/>
        <vehicle id="leader" speed="20.00" pos="688.00" lane="middle_0"/>
    </timestep>
    <timestep time="74.00">
        <vehicle id="follower" speed="19.99" pos="673.05" lane="middle_0"/>
        <vehicle id="leader" speed="20.00" pos="698.00" lane="middle_0"/>
    </timestep>
    <timestep time="74.50">
        <vehicle id="follower" speed="19.99" pos="683.04" lane="middle_0"/>
        <vehicle id="leader" speed="20.00" pos="708.00" lane="middle_0"/>