<?xml version="1.0" encoding="UTF-8"?>

<!-- generated on Wed Apr 25 15:42:10 2018 by Eclipse SUMO Version c8786d2
This data file and the accompanying materials
are made available under the terms of the Eclipse Public License v2.0
which accompanies this distribution, and is available at
http://www.eclipse.org/legal/epl-v20.html
SPDX-License-Identifier: EPL-2.0
<configuration xmlns:xsi="http://www.w3.org/2001/XMLSchema-instance" xsi:noNamespaceSchemaLocation="http://sumo.dlr.de/xsd/sumoConfiguration.xsd">

    <input>
        <net-file value="net.net.xml"/>
        <route-files value="input_routes.rou.xml"/>
    </input>

    <output>
        <write-license value="true"/>
        <fcd-output value="fcd.xml"/>
    </output>

    <processing>
        <lateral-resolution value="0.75"/>
        <collision.stoptime value="10"/>
    </processing>

    <report>
        <xml-validation value="never"/>
        <no-step-log value="true"/>
    </report>

</configuration>
-->

<fcd-export xmlns:xsi="http://www.w3.org/2001/XMLSchema-instance" xsi:noNamespaceSchemaLocation="http://sumo.dlr.de/xsd/fcd_file.xsd">
    <timestep time="0.00">
        <vehicle id="0" x="5.00" y="96.50" angle="90.00" type="bicycle" speed="5.56" pos="5.00" lane="beg_0" slope="0.00"/>
        <vehicle id="1" x="5.00" y="98.50" angle="90.00" type="passenger" speed="5.56" pos="5.00" lane="beg_1" slope="0.00"/>
    </timestep>
    <timestep time="1.00">
        <vehicle id="0" x="10.56" y="96.50" angle="90.00" type="bicycle" speed="5.56" pos="10.56" lane="beg_0" slope="0.00"/>
        <vehicle id="1" x="10.56" y="98.50" angle="90.00" type="passenger" speed="5.56" pos="10.56" lane="beg_1" slope="0.00"/>
    </timestep>
    <timestep time="2.00">
        <vehicle id="0" x="16.11" y="96.50" angle="90.00" type="bicycle" speed="5.56" pos="16.11" lane="beg_0" slope="0.00"/>
        <vehicle id="1" x="16.12" y="98.50" angle="90.00" type="passenger" speed="5.56" pos="16.12" lane="beg_1" slope="0.00"/>
    </timestep>
    <timestep time="3.00">
        <vehicle id="0" x="21.67" y="96.50" angle="90.00" type="bicycle" speed="5.56" pos="21.67" lane="beg_0" slope="0.00"/>
        <vehicle id="1" x="21.68" y="98.50" angle="90.00" type="passenger" speed="5.56" pos="21.68" lane="beg_1" slope="0.00"/>
    </timestep>
    <timestep time="4.00">
        <vehicle id="0" x="27.22" y="96.50" angle="90.00" type="bicycle" speed="5.56" pos="27.22" lane="beg_0" slope="0.00"/>
        <vehicle id="1" x="27.24" y="98.50" angle="90.00" type="passenger" speed="5.56" pos="27.24" lane="beg_1" slope="0.00"/>
    </timestep>
    <timestep time="5.00">
        <vehicle id="0" x="32.78" y="96.50" angle="90.00" type="bicycle" speed="5.56" pos="32.78" lane="beg_0" slope="0.00"/>
        <vehicle id="1" x="32.80" y="98.50" angle="90.00" type="passenger" speed="5.56" pos="32.80" lane="beg_1" slope="0.00"/>
    </timestep>
    <timestep time="6.00">
        <vehicle id="0" x="38.33" y="96.50" angle="90.00" type="bicycle" speed="5.56" pos="38.33" lane="beg_0" slope="0.00"/>
        <vehicle id="1" x="38.36" y="98.50" angle="90.00" type="passenger" speed="5.56" pos="38.36" lane="beg_1" slope="0.00"/>
    </timestep>
    <timestep time="7.00">
        <vehicle id="0" x="42.87" y="96.50" angle="90.00" type="bicycle" speed="4.53" pos="42.87" lane="beg_0" slope="0.00"/>
        <vehicle id="1" x="43.92" y="98.50" angle="90.00" type="passenger" speed="5.56" pos="43.92" lane="beg_1" slope="0.00"/>
    </timestep>
    <timestep time="8.00">
        <vehicle id="0" x="44.40" y="96.50" angle="90.00" type="bicycle" speed="1.53" pos="44.40" lane="beg_0" slope="0.00"/>
        <vehicle id="1" x="49.22" y="98.40" angle="87.83" type="passenger" speed="5.56" pos="1.72" lane="end_0" slope="0.00"/>
    </timestep>
    <timestep time="9.00">
        <vehicle id="0" x="44.40" y="96.50" angle="90.00" type="bicycle" speed="0.00" pos="44.40" lane="beg_0" slope="0.00"/>
        <vehicle id="1" x="54.78" y="98.40" angle="90.00" type="passenger" speed="5.56" pos="7.28" lane="end_0" slope="0.00"/>
    </timestep>
    <timestep time="10.00">
        <vehicle id="0" x="45.59" y="96.87" angle="77.01" type="bicycle" speed="1.20" pos="1.10" lane=":gneJ0_0_0" slope="0.00"/>
        <vehicle id="1" x="60.34" y="98.40" angle="90.00" type="passenger" speed="5.56" pos="12.84" lane="end_0" slope="0.00"/>
    </timestep>
    <timestep time="11.00">
        <vehicle id="0" x="47.74" y="98.00" angle="70.04" type="bicycle" speed="2.40" pos="0.24" lane="end_0" slope="0.00"/>
        <vehicle id="1" x="65.90" y="98.40" angle="90.00" type="passenger" speed="5.56" pos="18.40" lane="end_0" slope="0.00"/>
    </timestep>
    <timestep time="12.00">
        <vehicle id="0" x="51.34" y="98.00" angle="90.00" type="bicycle" speed="3.60" pos="3.84" lane="end_0" slope="0.00"/>
        <vehicle id="1" x="71.46" y="98.40" angle="90.00" type="passenger" speed="5.56" pos="23.96" lane="end_0" slope="0.00"/>
    </timestep>
    <timestep time="13.00">
        <vehicle id="0" x="56.14" y="98.00" angle="90.00" type="bicycle" speed="4.80" pos="8.64" lane="end_0" slope="0.00"/>
        <vehicle id="1" x="77.02" y="98.40" angle="90.00" type="passenger" speed="5.56" pos="29.52" lane="end_0" slope="0.00"/>
    </timestep>
    <timestep time="14.00">
        <vehicle id="0" x="61.69" y="98.00" angle="90.00" type="bicycle" speed="5.56" pos="14.19" lane="end_0" slope="0.00"/>
        <vehicle id="1" x="82.58" y="98.40" angle="90.00" type="passenger" speed="5.56" pos="35.08" lane="end_0" slope="0.00"/>
    </timestep>
    <timestep time="15.00">
        <vehicle id="0" x="67.25" y="98.00" angle="90.00" type="bicycle" speed="5.56" pos="19.75" lane="end_0" slope="0.00"/>
        <vehicle id="1" x="88.14" y="98.40" angle="90.00" type="passenger" speed="5.56" pos="40.64" lane="end_0" slope="0.00"/>
    </timestep>
    <timestep time="16.00">
        <vehicle id="0" x="72.81" y="98.00" angle="90.00" type="bicycle" speed="5.56" pos="25.31" lane="end_0" slope="0.00"/>
        <vehicle id="1" x="93.70" y="98.40" angle="90.00" type="passenger" speed="5.56" pos="46.20" lane="end_0" slope="0.00"/>
    </timestep>
    <timestep time="17.00">
        <vehicle id="0" x="78.36" y="98.00" angle="90.00" type="bicycle" speed="5.56" pos="30.86" lane="end_0" slope="0.00"/>
        <vehicle id="1" x="99.26" y="98.40" angle="90.00" type="passenger" speed="5.56" pos="51.76" lane="end_0" slope="0.00"/>
    </timestep>
    <timestep time="18.00">
        <vehicle id="0" x="83.92" y="98.00" angle="90.00" type="bicycle" speed="5.56" pos="36.42" lane="end_0" slope="0.00"/>
    </timestep>
    <timestep time="19.00">
        <vehicle id="0" x="89.47" y="98.00" angle="90.00" type="bicycle" speed="5.56" pos="41.97" lane="end_0" slope="0.00"/>
    </timestep>
    <timestep time="20.00">
        <vehicle id="0" x="95.03" y="98.00" angle="90.00" type="bicycle" speed="5.56" pos="47.53" lane="end_0" slope="0.00"/>
    </timestep>
    <timestep time="21.00"/>
</fcd-export>
