<?xml version="1.0" encoding="UTF-8"?>

<!-- generated on Mon Nov 25 18:18:46 2019 by Eclipse SUMO Version v1_3_1+1083-5d228cb4f4
<configuration xmlns:xsi="http://www.w3.org/2001/XMLSchema-instance" xsi:noNamespaceSchemaLocation="http://sumo.dlr.de/xsd/sumoConfiguration.xsd">

    <input>
        <net-file value="input_net.net.xml"/>
        <additional-files value="input_additional.add.xml"/>
        <load-state value="state.sbx"/>
    </input>

    <output>
        <vehroute-output value="vehroutes.xml"/>
    </output>

    <report>
        <duration-log.disable value="true"/>
        <no-step-log value="true"/>
    </report>

</configuration>
-->

<routes xmlns:xsi="http://www.w3.org/2001/XMLSchema-instance" xsi:noNamespaceSchemaLocation="http://sumo.dlr.de/xsd/routes_file.xsd">
    <vehicle id="0" type="DEFAULT_VEHTYPE" depart="0.00" departPos="100.00" departSpeed="10.00" speedFactor="1.06" arrival="260.00">
        <route edges="4/1to3/1 3/1to2/1 2/1to1/1 1/1to0/1"/>
    </vehicle>

    <vehicle id="1" type="DEFAULT_VEHTYPE" depart="5.00" departPos="100.00" departSpeed="10.00" speedFactor="1.06" arrival="262.00">
        <route edges="4/1to3/1 3/1to2/1 2/1to1/1 1/1to0/1"/>
        <stop lane="3/1to2/1_0" startPos="399.80" endPos="400.00" duration="10.00"/>
    </vehicle>

</routes>
