<?xml version="1.0" encoding="UTF-8"?>

<!-- generated on 2023-03-01 14:34:45 by Eclipse SUMO sumo Version v1_16_0+0853-bb3bf2e
This data file and the accompanying materials
are made available under the terms of the Eclipse Public License v2.0
which accompanies this distribution, and is available at
http://www.eclipse.org/legal/epl-v20.html
This file may also be made available under the following Secondary
Licenses when the conditions for such availability set forth in the Eclipse
Public License 2.0 are satisfied: GNU General Public License, version 2
or later which is available at
https://www.gnu.org/licenses/old-licenses/gpl-2.0-standalone.html
SPDX-License-Identifier: EPL-2.0 OR GPL-2.0-or-later
<configuration xmlns:xsi="http://www.w3.org/2001/XMLSchema-instance" xsi:noNamespaceSchemaLocation="http://sumo.dlr.de/xsd/sumoConfiguration.xsd">

    <input>
        <net-file value="net.net.xml"/>
        <route-files value="input_routes.rou.xml,input_routes2.rou.xml"/>
    </input>

    <output>
        <write-license value="true"/>
        <tripinfo-output value="tripinfos.xml"/>
        <tripinfo-output.write-unfinished value="true"/>
    </output>

    <processing>
        <default.speeddev value="0"/>
    </processing>

    <report>
        <xml-validation value="never"/>
        <duration-log.statistics value="true"/>
        <no-step-log value="true"/>
    </report>

    <taxi_device>
        <device.taxi.dispatch-algorithm value="greedy"/>
        <device.taxi.dispatch-algorithm.output value="dispatchinfos.xml"/>
    </taxi_device>

</configuration>
-->

<tripinfos xmlns:xsi="http://www.w3.org/2001/XMLSchema-instance" xsi:noNamespaceSchemaLocation="http://sumo.dlr.de/xsd/tripinfo_file.xsd">
    <personinfo id="p0" depart="0.00" type="DEFAULT_PEDTYPE" speedFactor="1.00">
        <ride waitingTime="63.00" vehicle="trip_1" depart="63.00" arrival="209.00" arrivalPos="285.60" duration="146.00" routeLength="865.13" timeLoss="21.13"/>
    </personinfo>
    <personinfo id="p1" depart="10.00" type="DEFAULT_PEDTYPE" speedFactor="1.00">
        <ride waitingTime="78.00" vehicle="trip_0" depart="88.00" arrival="221.00" arrivalPos="285.60" duration="133.00" routeLength="765.51" timeLoss="16.53"/>
    </personinfo>
    <personinfo id="p2" depart="20.00" type="DEFAULT_PEDTYPE" speedFactor="1.00">
        <ride waitingTime="248.00" vehicle="trip_1" depart="268.00" arrival="401.00" arrivalPos="85.60" duration="133.00" routeLength="780.21" timeLoss="16.36"/>
    </personinfo>
    <personinfo id="p3" depart="30.00" type="DEFAULT_PEDTYPE" speedFactor="1.00">
        <ride waitingTime="281.00" vehicle="trip_0" depart="311.00" arrival="446.00" arrivalPos="85.60" duration="135.00" routeLength="765.30" timeLoss="18.37"/>
    </personinfo>
    <personinfo id="p5" depart="50.00" type="DEFAULT_PEDTYPE" speedFactor="1.00">
        <ride waitingTime="496.00" vehicle="trip_0" depart="546.00" arrival="679.00" arrivalPos="87.60" duration="133.00" routeLength="771.88" timeLoss="17.39"/>
    </personinfo>
    <personinfo id="p4" depart="40.00" type="DEFAULT_PEDTYPE" speedFactor="1.00">
        <ride waitingTime="490.00" vehicle="trip_1" depart="530.00" arrival="728.00" arrivalPos="85.60" duration="198.00" routeLength="1571.30" timeLoss="23.10"/>
    </personinfo>
    <personinfo id="p7" depart="70.00" type="DEFAULT_PEDTYPE" speedFactor="1.00">
        <ride waitingTime="754.00" vehicle="trip_1" depart="824.00" arrival="943.00" arrivalPos="85.60" duration="119.00" routeLength="560.14" timeLoss="17.01"/>
    </personinfo>
    <personinfo id="p6" depart="60.00" type="DEFAULT_PEDTYPE" speedFactor="1.00">
        <ride waitingTime="732.00" vehicle="trip_0" depart="792.00" arrival="954.00" arrivalPos="285.60" duration="162.00" routeLength="1161.19" timeLoss="17.99"/>
    </personinfo>
    <personinfo id="p8" depart="80.00" type="DEFAULT_PEDTYPE" speedFactor="1.00">
        <ride waitingTime="924.00" vehicle="trip_1" depart="1004.00" arrival="1098.00" arrivalPos="85.60" duration="94.00" routeLength="270.92" timeLoss="14.34"/>
    </personinfo>
    <personinfo id="p9" depart="90.00" type="DEFAULT_PEDTYPE" speedFactor="1.00">
        <ride waitingTime="916.00" vehicle="trip_0" depart="1006.00" arrival="1201.00" arrivalPos="285.60" duration="195.00" routeLength="1570.54" timeLoss="20.74"/>
    </personinfo>
    <tripinfo id="trip_0" depart="0.00" departLane="A0B0_1" departPos="5.10" departSpeed="0.00" departDelay="0.00" arrival="-1.00" arrivalLane="" arrivalPos="-1.00" arrivalSpeed="-1.00" duration="1204.00" routeLength="8164.59" waitingTime="12.00" waitingCount="5" stopTime="446.00" timeLoss="154.26" rerouteNo="11" devices="tripinfo_trip_0 routing_trip_0 taxi_trip_0 person_trip_0" vType="taxi" speedFactor="1.00" vaporized="">
        <taxi customers="5" occupiedDistance="5034.41" occupiedTime="473.00"/>
    </tripinfo>
    <tripinfo id="trip_1" depart="0.00" departLane="A2B2_1" departPos="5.10" departSpeed="0.00" departDelay="0.00" arrival="-1.00" arrivalLane="" arrivalPos="-1.00" arrivalSpeed="-1.00" duration="1204.00" routeLength="7071.13" waitingTime="19.00" waitingCount="7" stopTime="534.00" timeLoss="141.40" rerouteNo="11" devices="tripinfo_trip_1 routing_trip_1 taxi_trip_1 person_trip_1" vType="taxi" speedFactor="1.00" vaporized="">
        <taxi customers="5" occupiedDistance="4047.70" occupiedTime="405.00"/>
    </tripinfo>
</tripinfos>
