<?xml version="1.0" encoding="UTF-8"?>

<!-- generated on 2026-01-26T12:35:28.357980+01:00 by Eclipse SUMO sumo v1_25_0+1190-edacecdbf3b
<sumoConfiguration xmlns:xsi="http://www.w3.org/2001/XMLSchema-instance" xsi:noNamespaceSchemaLocation="http://sumo.dlr.de/xsd/sumoConfiguration.xsd">

    <input>
        <net-file value="input_net.net.xml"/>
        <additional-files value="input_additional.add.xml"/>
        <load-state value="state.xml"/>
    </input>

    <output>
        <tripinfo-output value="tripinfo2.xml"/>
    </output>

    <report>
        <duration-log.disable value="true"/>
        <no-step-log value="true"/>
    </report>

</sumoConfiguration>
-->

<tripinfos xmlns:xsi="http://www.w3.org/2001/XMLSchema-instance" xsi:noNamespaceSchemaLocation="http://sumo.dlr.de/xsd/tripinfo_file.xsd">
    <tripinfo id="v.19" depart="190.00" departLane="E0_0" departPos="5.10" departSpeed="13.89" departDelay="0.00" arrival="205.00" arrivalLane="E1_0" arrivalPos="100.00" arrivalSpeed="13.89" duration="15.00" routeLength="194.90" waitingTime="0.00" waitingCount="0" stopTime="0.00" timeLoss="0.00" rerouteNo="0" devices="tripinfo_v.19" vType="DEFAULT_VEHTYPE" speedFactor="1.00" vaporized=""/>
    <tripinfo id="v.20" depart="200.00" departLane="E0_0" departPos="5.10" departSpeed="13.89" departDelay="0.00" arrival="309.00" arrivalLane="E1_0" arrivalPos="100.00" arrivalSpeed="13.89" duration="109.00" routeLength="194.90" waitingTime="91.00" waitingCount="1" stopTime="0.00" timeLoss="94.43" rerouteNo="0" devices="tripinfo_v.20" vType="DEFAULT_VEHTYPE" speedFactor="1.00" vaporized=""/>
    <tripinfo id="v.21" depart="210.00" departLane="E0_0" departPos="5.10" departSpeed="13.89" departDelay="0.00" arrival="310.00" arrivalLane="E1_0" arrivalPos="100.00" arrivalSpeed="13.89" duration="100.00" routeLength="194.90" waitingTime="82.00" waitingCount="1" stopTime="0.00" timeLoss="85.97" rerouteNo="0" devices="tripinfo_v.21" vType="DEFAULT_VEHTYPE" speedFactor="1.00" vaporized=""/>
    <tripinfo id="v.22" depart="220.00" departLane="E0_0" departPos="5.10" departSpeed="13.89" departDelay="0.00" arrival="312.00" arrivalLane="E1_0" arrivalPos="100.00" arrivalSpeed="13.89" duration="92.00" routeLength="194.90" waitingTime="74.00" waitingCount="1" stopTime="0.00" timeLoss="77.51" rerouteNo="0" devices="tripinfo_v.22" vType="DEFAULT_VEHTYPE" speedFactor="1.00" vaporized=""/>
    <tripinfo id="v.23" depart="230.00" departLane="E0_0" departPos="5.10" departSpeed="13.89" departDelay="0.00" arrival="314.00" arrivalLane="E1_0" arrivalPos="100.00" arrivalSpeed="13.89" duration="84.00" routeLength="194.90" waitingTime="65.00" waitingCount="1" stopTime="0.00" timeLoss="69.05" rerouteNo="0" devices="tripinfo_v.23" vType="DEFAULT_VEHTYPE" speedFactor="1.00" vaporized=""/>
    <tripinfo id="v.24" depart="240.00" departLane="E0_0" departPos="5.10" departSpeed="13.89" departDelay="0.00" arrival="315.00" arrivalLane="E1_0" arrivalPos="100.00" arrivalSpeed="13.89" duration="75.00" routeLength="194.90" waitingTime="57.00" waitingCount="1" stopTime="0.00" timeLoss="60.59" rerouteNo="0" devices="tripinfo_v.24" vType="DEFAULT_VEHTYPE" speedFactor="1.00" vaporized=""/>
    <tripinfo id="v.25" depart="250.00" departLane="E0_0" departPos="5.10" departSpeed="13.89" departDelay="0.00" arrival="317.00" arrivalLane="E1_0" arrivalPos="100.00" arrivalSpeed="13.89" duration="67.00" routeLength="194.90" waitingTime="48.00" waitingCount="1" stopTime="0.00" timeLoss="52.13" rerouteNo="0" devices="tripinfo_v.25" vType="DEFAULT_VEHTYPE" speedFactor="1.00" vaporized=""/>
    <tripinfo id="v.26" depart="260.00" departLane="E0_0" departPos="5.10" departSpeed="13.89" departDelay="0.00" arrival="318.00" arrivalLane="E1_0" arrivalPos="100.00" arrivalSpeed="13.89" duration="58.00" routeLength="194.90" waitingTime="40.00" waitingCount="1" stopTime="0.00" timeLoss="43.67" rerouteNo="0" devices="tripinfo_v.26" vType="DEFAULT_VEHTYPE" speedFactor="1.00" vaporized=""/>
    <tripinfo id="v.27" depart="270.00" departLane="E0_0" departPos="5.10" departSpeed="13.89" departDelay="0.00" arrival="320.00" arrivalLane="E1_0" arrivalPos="100.00" arrivalSpeed="13.89" duration="50.00" routeLength="194.90" waitingTime="31.00" waitingCount="1" stopTime="0.00" timeLoss="35.21" rerouteNo="0" devices="tripinfo_v.27" vType="DEFAULT_VEHTYPE" speedFactor="1.00" vaporized=""/>
    <tripinfo id="v.28" depart="280.00" departLane="E0_0" departPos="5.10" departSpeed="13.89" departDelay="0.00" arrival="321.00" arrivalLane="E1_0" arrivalPos="100.00" arrivalSpeed="13.89" duration="41.00" routeLength="194.90" waitingTime="23.00" waitingCount="1" stopTime="0.00" timeLoss="26.75" rerouteNo="0" devices="tripinfo_v.28" vType="DEFAULT_VEHTYPE" speedFactor="1.00" vaporized=""/>
    <tripinfo id="v.29" depart="290.00" departLane="E0_0" departPos="5.10" departSpeed="13.30" departDelay="0.00" arrival="323.00" arrivalLane="E1_0" arrivalPos="100.00" arrivalSpeed="13.89" duration="33.00" routeLength="194.90" waitingTime="15.00" waitingCount="1" stopTime="0.00" timeLoss="18.29" rerouteNo="0" devices="tripinfo_v.29" vType="DEFAULT_VEHTYPE" speedFactor="1.00" vaporized=""/>
</tripinfos>
