<?xml version="1.0" encoding="UTF-8"?>

<!-- generated on 2024-08-26 15:32:54 by Eclipse SUMO sumo Version v1_20_0+1721-016cfd09667
This data file and the accompanying materials
are made available under the terms of the Eclipse Public License v2.0
which accompanies this distribution, and is available at
http://www.eclipse.org/legal/epl-v20.html
This file may also be made available under the following Secondary
Licenses when the conditions for such availability set forth in the Eclipse
Public License 2.0 are satisfied: GNU General Public License, version 2
or later which is available at
https://www.gnu.org/licenses/old-licenses/gpl-2.0-standalone.html
SPDX-License-Identifier: EPL-2.0 OR GPL-2.0-or-later
<sumoConfiguration xmlns:xsi="http://www.w3.org/2001/XMLSchema-instance" xsi:noNamespaceSchemaLocation="http://sumo.dlr.de/xsd/sumoConfiguration.xsd">

    <input>
        <net-file value="net.net.xml"/>
        <route-files value="input_routes.rou.xml"/>
    </input>

    <output>
        <write-license value="true"/>
        <tripinfo-output value="tripinfos.xml"/>
    </output>

    <processing>
        <default.speeddev value="0"/>
    </processing>

    <report>
        <xml-validation value="never"/>
        <no-step-log value="true"/>
    </report>

    <mesoscopic>
        <mesosim value="true"/>
        <meso-junction-control value="true"/>
    </mesoscopic>

</sumoConfiguration>
-->

<tripinfos xmlns:xsi="http://www.w3.org/2001/XMLSchema-instance" xsi:noNamespaceSchemaLocation="http://sumo.dlr.de/xsd/tripinfo_file.xsd">
    <tripinfo id="trip_2" depart="0.00" departLane="NC_0" departPos="0.00" departSpeed="13.89" departDelay="0.00" arrival="14.00" arrivalLane="CE_0" arrivalPos="92.80" arrivalSpeed="13.89" duration="14.00" routeLength="185.60" waitingTime="0.00" waitingCount="0" stopTime="0.00" timeLoss="0.00" rerouteNo="0" devices="tripinfo_trip_2 routing_trip_2" vType="DEFAULT_VEHTYPE" speedFactor="1.00" vaporized=""/>
    <tripinfo id="trip_1" depart="0.00" departLane="EC_0" departPos="0.00" departSpeed="13.89" departDelay="0.00" arrival="15.00" arrivalLane="CW_0" arrivalPos="92.80" arrivalSpeed="13.89" duration="15.00" routeLength="185.60" waitingTime="1.00" waitingCount="0" stopTime="0.00" timeLoss="1.00" rerouteNo="0" devices="tripinfo_trip_1 routing_trip_1" vType="DEFAULT_VEHTYPE" speedFactor="1.00" vaporized=""/>
    <tripinfo id="trip_0" depart="0.00" departLane="SC_0" departPos="0.00" departSpeed="13.89" departDelay="0.00" arrival="17.00" arrivalLane="CW_0" arrivalPos="92.80" arrivalSpeed="13.89" duration="17.00" routeLength="185.60" waitingTime="2.67" waitingCount="0" stopTime="0.00" timeLoss="2.67" rerouteNo="0" devices="tripinfo_trip_0 routing_trip_0" vType="DEFAULT_VEHTYPE" speedFactor="1.00" vaporized=""/>
    <tripinfo id="trip_3" depart="0.00" departLane="SC_0" departPos="0.00" departSpeed="11.11" departDelay="0.00" arrival="18.00" arrivalLane="CN_0" arrivalPos="92.80" arrivalSpeed="13.89" duration="18.00" routeLength="185.60" waitingTime="0.00" waitingCount="0" stopTime="0.00" timeLoss="4.34" rerouteNo="0" devices="tripinfo_trip_3 routing_trip_3" vType="DEFAULT_VEHTYPE" speedFactor="1.00" vaporized=""/>
</tripinfos>
