<?xml version="1.0" encoding="UTF-8"?>

<!-- generated on 2026-04-24T14:46:34.768997+01:00 by Eclipse SUMO sumo v1_26_0+1377-d88e2a935fc
This data file and the accompanying materials
are made available under the terms of the Eclipse Public License v2.0
which accompanies this distribution, and is available at
http://www.eclipse.org/legal/epl-v20.html
This file may also be made available under the following Secondary
Licenses when the conditions for such availability set forth in the Eclipse
Public License 2.0 are satisfied: GNU General Public License, version 2
or later which is available at
https://www.gnu.org/licenses/old-licenses/gpl-2.0-standalone.html
SPDX-License-Identifier: EPL-2.0 OR GPL-2.0-or-later
<sumoConfiguration xmlns:xsi="http://www.w3.org/2001/XMLSchema-instance" xsi:noNamespaceSchemaLocation="http://sumo.dlr.de/xsd/sumoConfiguration.xsd">

    <input>
        <net-file value="motorway.net.xml"/>
        <route-files value="input_routes.rou.xml"/>
    </input>

    <output>
        <write-license value="true"/>
        <fcd-output value="fcd.xml"/>
        <tripinfo-output value="tripinfos.xml"/>
        <vehroute-output value="vehroutes.xml"/>
    </output>

    <processing>
        <default.departspeed value="0"/>
        <default.departlane value="first"/>
        <default.speeddev value="0"/>
    </processing>

    <report>
        <xml-validation value="never"/>
        <duration-log.disable value="true"/>
        <no-step-log value="true"/>
    </report>

    <fcd_device>
        <device.fcd.period value="10"/>
    </fcd_device>

    <mesoscopic>
        <mesosim value="true"/>
    </mesoscopic>

</sumoConfiguration>
-->

<fcd-export xmlns:xsi="http://www.w3.org/2001/XMLSchema-instance" xsi:noNamespaceSchemaLocation="http://sumo.dlr.de/xsd/fcd_file.xsd">
    <timestep time="0.00">
        <vehicle id="v0" x="4.00" y="-1.60" angle="90.00" type="DEFAULT_VEHTYPE" speed="35.99" pos="0.00" edge="merge" slope="0.00"/>
    </timestep>
    <timestep time="10.00">
        <vehicle id="v0" x="304.00" y="0.00" angle="90.00" type="DEFAULT_VEHTYPE" speed="35.99" pos="0.00" edge="end2" slope="0.00"/>
    </timestep>
    <timestep time="20.00">
        <vehicle id="v0" x="690.58" y="0.00" angle="90.00" type="DEFAULT_VEHTYPE" speed="35.99" pos="386.58" edge="end2" slope="0.00"/>
    </timestep>
    <timestep time="30.00">
        <vehicle id="v0" x="1077.16" y="0.00" angle="90.00" type="DEFAULT_VEHTYPE" speed="35.99" pos="773.16" edge="end2" slope="0.00"/>
    </timestep>
    <timestep time="40.00">
        <vehicle id="v0" x="1367.10" y="0.00" angle="90.00" type="DEFAULT_VEHTYPE" speed="35.99" pos="1063.10" edge="end2" slope="0.00"/>
    </timestep>
    <timestep time="50.00">
        <vehicle id="v0" x="1753.68" y="0.00" angle="90.00" type="DEFAULT_VEHTYPE" speed="35.99" pos="1449.68" edge="end2" slope="0.00"/>
    </timestep>
    <timestep time="60.00">
        <vehicle id="v0" x="2140.26" y="0.00" angle="90.00" type="DEFAULT_VEHTYPE" speed="35.99" pos="1836.26" edge="end2" slope="0.00"/>
    </timestep>
    <timestep time="70.00">
        <vehicle id="v0" x="2430.19" y="0.00" angle="90.00" type="DEFAULT_VEHTYPE" speed="35.99" pos="2126.19" edge="end2" slope="0.00"/>
    </timestep>
    <timestep time="80.00">
        <vehicle id="v0" x="2816.77" y="0.00" angle="90.00" type="DEFAULT_VEHTYPE" speed="35.99" pos="2512.77" edge="end2" slope="0.00"/>
    </timestep>
    <timestep time="90.00">
        <vehicle id="v0" x="3203.35" y="0.00" angle="90.00" type="DEFAULT_VEHTYPE" speed="35.99" pos="2899.35" edge="end2" slope="0.00"/>
    </timestep>
</fcd-export>
