<?xml version="1.0" encoding="UTF-8"?>

<!-- generated on Mon Oct 12 11:59:25 2020 by Eclipse SUMO sumo Version v1_7_0+0588-e883836b67
This data file and the accompanying materials
are made available under the terms of the Eclipse Public License v2.0
which accompanies this distribution, and is available at
http://www.eclipse.org/legal/epl-v20.html
SPDX-License-Identifier: EPL-2.0
<configuration xmlns:xsi="http://www.w3.org/2001/XMLSchema-instance" xsi:noNamespaceSchemaLocation="http://sumo.dlr.de/xsd/sumoConfiguration.xsd">

    <input>
        <net-file value="motorway.net.xml"/>
        <route-files value="input_routes.rou.xml"/>
    </input>

    <output>
        <write-license value="true"/>
        <fcd-output value="fcd.xml"/>
        <tripinfo-output value="tripinfos.xml"/>
        <vehroute-output value="vehroutes.xml"/>
    </output>

    <processing>
        <default.speeddev value="0"/>
        <pedestrian.model value="nonInteracting"/>
    </processing>

    <report>
        <xml-validation value="never"/>
        <xml-validation.routes value="never"/>
        <duration-log.disable value="true"/>
        <no-step-log value="true"/>
    </report>

    <fcd_device>
        <device.fcd.period value="10"/>
    </fcd_device>

    <mesoscopic>
        <mesosim value="true"/>
    </mesoscopic>

</configuration>
-->

<fcd-export xmlns:xsi="http://www.w3.org/2001/XMLSchema-instance" xsi:noNamespaceSchemaLocation="http://sumo.dlr.de/xsd/fcd_file.xsd">
    <timestep time="0.00">
        <vehicle id="v0" x="4.00" y="-4.80" angle="90.00" type="DEFAULT_VEHTYPE" speed="35.99" pos="0.00" edge="merge" slope="0.00"/>
    </timestep>
    <timestep time="10.00">
        <vehicle id="v0" x="304.00" y="0.00" angle="90.00" type="DEFAULT_VEHTYPE" speed="35.99" pos="0.00" edge="end2" slope="0.00"/>
    </timestep>
    <timestep time="20.00">
        <vehicle id="v0" x="690.58" y="0.00" angle="90.00" type="DEFAULT_VEHTYPE" speed="35.99" pos="386.58" edge="end2" slope="0.00"/>
    </timestep>
    <timestep time="30.00">
        <vehicle id="v0" x="1077.16" y="0.00" angle="90.00" type="DEFAULT_VEHTYPE" speed="35.99" pos="773.16" edge="end2" slope="0.00"/>
    </timestep>
    <timestep time="40.00">
        <vehicle id="v0" x="1367.10" y="0.00" angle="90.00" type="DEFAULT_VEHTYPE" speed="35.99" pos="1063.10" edge="end2" slope="0.00"/>
    </timestep>
    <timestep time="50.00">
        <vehicle id="v0" x="1753.68" y="0.00" angle="90.00" type="DEFAULT_VEHTYPE" speed="35.99" pos="1449.68" edge="end2" slope="0.00"/>
    </timestep>
    <timestep time="60.00">
        <vehicle id="v0" x="2140.26" y="0.00" angle="90.00" type="DEFAULT_VEHTYPE" speed="35.99" pos="1836.26" edge="end2" slope="0.00"/>
    </timestep>
    <timestep time="70.00">
        <vehicle id="v0" x="2526.84" y="0.00" angle="90.00" type="DEFAULT_VEHTYPE" speed="35.99" pos="2222.84" edge="end2" slope="0.00"/>
    </timestep>
    <timestep time="80.00">
        <vehicle id="v0" x="2816.77" y="0.00" angle="90.00" type="DEFAULT_VEHTYPE" speed="35.99" pos="2512.77" edge="end2" slope="0.00"/>
    </timestep>
    <timestep time="90.00">
        <vehicle id="v0" x="3203.35" y="0.00" angle="90.00" type="DEFAULT_VEHTYPE" speed="35.99" pos="2899.35" edge="end2" slope="0.00"/>
    </timestep>
</fcd-export>
