<?xml version="1.0" encoding="UTF-8"?>

<!-- generated on Thu Mar 12 08:40:58 2020 by Eclipse SUMO Version v1_5_0+0668-3019609
This data file and the accompanying materials
are made available under the terms of the Eclipse Public License v2.0
which accompanies this distribution, and is available at
http://www.eclipse.org/legal/epl-v20.html
SPDX-License-Identifier: EPL-2.0
<configuration xmlns:xsi="http://www.w3.org/2001/XMLSchema-instance" xsi:noNamespaceSchemaLocation="http://sumo.dlr.de/xsd/sumoConfiguration.xsd">

    <input>
        <net-file value="net.net.xml"/>
        <route-files value="input_routes.rou.xml"/>
        <additional-files value="input_additional.add.xml"/>
    </input>

    <output>
        <write-license value="true"/>
        <vehroute-output value="vehroutes.xml"/>
    </output>

    <processing>
        <default.speeddev value="0"/>
    </processing>

    <report>
        <xml-validation value="never"/>
        <duration-log.disable value="true"/>
        <no-step-log value="true"/>
    </report>

</configuration>
-->

<routes xmlns:xsi="http://www.w3.org/2001/XMLSchema-instance" xsi:noNamespaceSchemaLocation="http://sumo.dlr.de/xsd/routes_file.xsd">
    <vehicle id="0" depart="0.00" arrivalPos="160.00" arrival="48.00">
        <routeDistribution>
            <route replacedOnEdge="a" reason="rr:parkingAreaReroute" replacedAtTime="0.00" probability="0" edges="a"/>
            <route edges="a b"/>
        </routeDistribution>
        <stop parkingArea="ParkAreaB" duration="10.00"/>
    </vehicle>

</routes>
