<?xml version="1.0"?>

<!-- generated on 07/15/08 14:30:50 by SUMO sumo Version dev-SVN-r5691
<configuration>

   <input>
      <net-file>net.net.xml</net-file>
      <route-files>routes.rou.xml</route-files>
   </input>

   <output>
      <netstate-dump>netstate_dump.xml</netstate-dump>
   </output>

   <processing>
      <no-step-log>true</no-step-log>
   </processing>

   <traci_server>
      <remote-port>8844</remote-port>
      <penetration>1</penetration>
   </traci_server>

</configuration>
-->

<sumo-netstate>
   <timestep time="0.00">
   </timestep>
   <timestep time="1.00">
   </timestep>
   <timestep time="2.00">
   </timestep>
</sumo-netstate>
