<?xml version="1.0"?>

<!-- generated on 02/04/10 11:27:33 by SUMO sumo Version dev-SVN-r8214
<configuration>

    <input>
        <net-file value="three_split.net.xml"/>
        <additional-files value="input_routes.rou.xml,input_additional.add.xml"/>
    </input>

    <output>
        <vehroute-output value="vehroutes.xml"/>
    </output>

    <report>
        <no-duration-log value="true"/>
        <no-step-log value="true"/>
    </report>

</configuration>
-->

<routes>
    <vehicle id="0.0" depart="0" arrival="168">
        <replacedRoute replacedOnEdge="beg" replacedAtTime="0" edges="beg middle end rend"/>
        <route edges="beg beg2left left left2end end"/>
   </vehicle>

    <vehicle id="0.20" depart="20" arrival="188">
        <replacedRoute replacedOnEdge="beg" replacedAtTime="20" edges="beg middle end rend"/>
        <route edges="beg beg2left left left2end end"/>
   </vehicle>

    <vehicle id="0.40" depart="40" arrival="208">
        <replacedRoute replacedOnEdge="beg" replacedAtTime="40" edges="beg middle end rend"/>
        <route edges="beg beg2left left left2end end"/>
   </vehicle>

    <vehicle id="0.60" depart="60" arrival="228">
        <replacedRoute replacedOnEdge="beg" replacedAtTime="60" edges="beg middle end rend"/>
        <route edges="beg beg2left left left2end end"/>
   </vehicle>

    <vehicle id="0.80" depart="80" arrival="248">
        <replacedRoute replacedOnEdge="beg" replacedAtTime="80" edges="beg middle end rend"/>
        <route edges="beg beg2left left left2end end"/>
   </vehicle>

    <vehicle id="0.100" depart="100" arrival="268">
        <replacedRoute replacedOnEdge="beg" replacedAtTime="100" edges="beg middle end rend"/>
        <route edges="beg beg2left left left2end end"/>
   </vehicle>

    <vehicle id="0.120" depart="120" arrival="288">
        <replacedRoute replacedOnEdge="beg" replacedAtTime="120" edges="beg middle end rend"/>
        <route edges="beg beg2left left left2end end"/>
   </vehicle>

    <vehicle id="0.140" depart="140" arrival="308">
        <replacedRoute replacedOnEdge="beg" replacedAtTime="140" edges="beg middle end rend"/>
        <route edges="beg beg2left left left2end end"/>
   </vehicle>

    <vehicle id="0.160" depart="160" arrival="328">
        <replacedRoute replacedOnEdge="beg" replacedAtTime="160" edges="beg middle end rend"/>
        <route edges="beg beg2left left left2end end"/>
   </vehicle>

    <vehicle id="0.180" depart="180" arrival="348">
        <replacedRoute replacedOnEdge="beg" replacedAtTime="180" edges="beg middle end rend"/>
        <route edges="beg beg2left left left2end end"/>
   </vehicle>

    <vehicle id="0.200" depart="200" arrival="368">
        <replacedRoute replacedOnEdge="beg" replacedAtTime="200" edges="beg middle end rend"/>
        <route edges="beg beg2left left left2end end"/>
   </vehicle>

</routes>
