<?xml version="1.0" encoding="UTF-8"?>

<!-- generated on 05/18/16 15:20:11 by SUMO Version dev-SVN-r20731
<?xml version="1.0" encoding="UTF-8"?>

<configuration xmlns:xsi="http://www.w3.org/2001/XMLSchema-instance" xsi:noNamespaceSchemaLocation="http://sumo.dlr.de/xsd/sumoConfiguration.xsd">

    <input>
        <net-file value="three_split.net.xml"/>
        <route-files value="input_routes.rou.xml"/>
    </input>

    <output>
        <fcd-output value="fcd.xml"/>
        <tripinfo-output value="tripinfos.xml"/>
    </output>

    <time>
        <end value="150"/>
    </time>

    <processing>
        <pedestrian.model value="nonInteracting"/>
    </processing>

    <report>
        <xml-validation value="never"/>
        <duration-log.disable value="true"/>
        <no-step-log value="true"/>
    </report>

</configuration>
-->

<tripinfos xmlns:xsi="http://www.w3.org/2001/XMLSchema-instance" xsi:noNamespaceSchemaLocation="http://sumo.dlr.de/xsd/tripinfo_file.xsd">
    <personinfo id="p1" depart="20.00">
        <ride depart="39.00" arrival="137.00"/>
    </personinfo>
    <personinfo id="p2" depart="20.00">
        <ride depart="86.00" arrival="137.00"/>
    </personinfo>
    <tripinfo id="bus.0" depart="0.00" departLane="beg_0" departPos="0.00" departSpeed="0.00" departDelay="0.00" arrival="137.00" arrivalLane="beg2left_0" arrivalPos="503.09" arrivalSpeed="13.90" duration="137.00" routeLength="1003.09" waitSteps="2" timeLoss="20.37" rerouteNo="0" devices="tripinfo_bus.0 person_bus.0" vType="DEFAULT_VEHTYPE" vaporized=""/>
</tripinfos>
