<?xml version="1.0" encoding="UTF-8"?>

<!-- generated on Fri Jun 19 14:32:20 2020 by Eclipse SUMO Version v1_6_0+0844-cb75be6503
This data file and the accompanying materials
are made available under the terms of the Eclipse Public License v2.0
which accompanies this distribution, and is available at
http://www.eclipse.org/legal/epl-v20.html
SPDX-License-Identifier: EPL-2.0
<configuration xmlns:xsi="http://www.w3.org/2001/XMLSchema-instance" xsi:noNamespaceSchemaLocation="http://sumo.dlr.de/xsd/sumoConfiguration.xsd">

    <input>
        <net-file value="net3.net.xml"/>
        <route-files value="input_routes.rou.xml"/>
    </input>

    <output>
        <write-license value="true"/>
        <fcd-output value="fcd.xml"/>
        <vehroute-output value="vehroutes.xml"/>
    </output>

    <processing>
        <default.speeddev value="0"/>
        <pedestrian.model value="nonInteracting"/>
    </processing>

    <report>
        <xml-validation value="never"/>
        <duration-log.disable value="true"/>
        <no-step-log value="true"/>
    </report>

</configuration>
-->

<fcd-export xmlns:xsi="http://www.w3.org/2001/XMLSchema-instance" xsi:noNamespaceSchemaLocation="http://sumo.dlr.de/xsd/fcd_file.xsd">
    <timestep time="0.00">
        <person id="down" x="111.60" y="95.35" angle="180.00" speed="1.39" pos="3.00" edge=":C_c1" slope="0.00"/>
        <person id="up" x="111.60" y="97.35" angle="180.00" speed="1.39" pos="5.00" edge=":C_c1" slope="0.00"/>
    </timestep>
    <timestep time="1.00">
        <person id="down" x="111.60" y="94.40" angle="180.00" speed="1.39" pos="2.05" edge=":C_c1" slope="0.00"/>
        <person id="up" x="111.60" y="96.26" angle="180.00" speed="1.39" pos="3.91" edge=":C_c1" slope="0.00"/>
    </timestep>
    <timestep time="2.00">
        <person id="down" x="111.60" y="93.45" angle="180.00" speed="1.39" pos="1.10" edge=":C_c1" slope="0.00"/>
        <person id="up" x="111.60" y="95.18" angle="180.00" speed="1.39" pos="2.83" edge=":C_c1" slope="0.00"/>
    </timestep>
    <timestep time="3.00">
        <person id="up" x="111.60" y="94.09" angle="180.00" speed="1.39" pos="1.74" edge=":C_c1" slope="0.00"/>
        <person id="down" x="110.85" y="85.40" angle="180.00" speed="1.39" pos="85.40" edge="SC" slope="0.00"/>
    </timestep>
    <timestep time="4.00">
        <person id="up" x="110.85" y="113.10" angle="0.00" speed="1.39" pos="0.00" edge="CN" slope="0.00"/>
        <person id="down" x="110.85" y="84.05" angle="180.00" speed="1.39" pos="84.05" edge="SC" slope="0.00"/>
    </timestep>
    <timestep time="5.00">
        <person id="up" x="110.85" y="114.45" angle="0.00" speed="1.39" pos="1.35" edge="CN" slope="0.00"/>
        <person id="down" x="110.85" y="82.71" angle="180.00" speed="1.39" pos="82.71" edge="SC" slope="0.00"/>
    </timestep>
    <timestep time="6.00">
        <person id="up" x="110.85" y="115.79" angle="0.00" speed="1.39" pos="2.69" edge="CN" slope="0.00"/>
        <person id="down" x="110.85" y="81.36" angle="180.00" speed="1.39" pos="81.36" edge="SC" slope="0.00"/>
    </timestep>
    <timestep time="7.00">
        <person id="up" x="110.85" y="117.14" angle="0.00" speed="1.39" pos="4.04" edge="CN" slope="0.00"/>
        <person id="down" x="110.85" y="80.02" angle="180.00" speed="1.39" pos="80.02" edge="SC" slope="0.00"/>
    </timestep>
    <timestep time="8.00">
        <person id="up" x="110.85" y="118.48" angle="0.00" speed="1.39" pos="5.38" edge="CN" slope="0.00"/>
        <person id="down" x="110.85" y="78.67" angle="180.00" speed="1.39" pos="78.67" edge="SC" slope="0.00"/>
    </timestep>
    <timestep time="9.00">
        <person id="up" x="110.85" y="119.83" angle="0.00" speed="1.39" pos="6.73" edge="CN" slope="0.00"/>
        <person id="down" x="110.85" y="77.33" angle="180.00" speed="1.39" pos="77.33" edge="SC" slope="0.00"/>
    </timestep>
    <timestep time="10.00">
        <person id="up" x="110.85" y="121.18" angle="0.00" speed="1.39" pos="8.08" edge="CN" slope="0.00"/>
        <person id="down" x="110.85" y="75.98" angle="180.00" speed="1.39" pos="75.98" edge="SC" slope="0.00"/>
    </timestep>
    <timestep time="11.00">
        <person id="up" x="110.85" y="122.52" angle="0.00" speed="1.39" pos="9.42" edge="CN" slope="0.00"/>
        <person id="down" x="110.85" y="74.64" angle="180.00" speed="1.39" pos="74.64" edge="SC" slope="0.00"/>
    </timestep>
    <timestep time="12.00">
        <person id="up" x="110.85" y="123.87" angle="0.00" speed="1.39" pos="10.77" edge="CN" slope="0.00"/>
        <person id="down" x="110.85" y="73.29" angle="180.00" speed="1.39" pos="73.29" edge="SC" slope="0.00"/>
    </timestep>
    <timestep time="13.00">
        <person id="up" x="110.85" y="125.21" angle="0.00" speed="1.39" pos="12.11" edge="CN" slope="0.00"/>
        <person id="down" x="110.85" y="71.95" angle="180.00" speed="1.39" pos="71.95" edge="SC" slope="0.00"/>
    </timestep>
    <timestep time="14.00">
        <person id="up" x="110.85" y="126.56" angle="0.00" speed="1.39" pos="13.46" edge="CN" slope="0.00"/>
        <person id="down" x="110.85" y="70.60" angle="180.00" speed="1.39" pos="70.60" edge="SC" slope="0.00"/>
    </timestep>
    <timestep time="15.00">
        <person id="up" x="110.85" y="127.90" angle="0.00" speed="1.39" pos="14.80" edge="CN" slope="0.00"/>
        <person id="down" x="110.85" y="69.26" angle="180.00" speed="1.39" pos="69.26" edge="SC" slope="0.00"/>
    </timestep>
    <timestep time="16.00">
        <person id="up" x="110.85" y="129.25" angle="0.00" speed="1.39" pos="16.15" edge="CN" slope="0.00"/>
        <person id="down" x="110.85" y="67.91" angle="180.00" speed="1.39" pos="67.91" edge="SC" slope="0.00"/>
    </timestep>
    <timestep time="17.00">
        <person id="up" x="110.85" y="130.60" angle="0.00" speed="1.39" pos="17.50" edge="CN" slope="0.00"/>
        <person id="down" x="110.85" y="66.57" angle="180.00" speed="1.39" pos="66.57" edge="SC" slope="0.00"/>
    </timestep>
    <timestep time="18.00">
        <person id="up" x="110.85" y="131.94" angle="0.00" speed="1.39" pos="18.84" edge="CN" slope="0.00"/>
        <person id="down" x="110.85" y="65.22" angle="180.00" speed="1.39" pos="65.22" edge="SC" slope="0.00"/>
    </timestep>
    <timestep time="19.00">
        <person id="up" x="110.85" y="133.29" angle="0.00" speed="1.39" pos="20.19" edge="CN" slope="0.00"/>
        <person id="down" x="110.85" y="63.88" angle="180.00" speed="1.39" pos="63.88" edge="SC" slope="0.00"/>
    </timestep>
    <timestep time="20.00">
        <person id="up" x="110.85" y="134.63" angle="0.00" speed="1.39" pos="21.53" edge="CN" slope="0.00"/>
        <person id="down" x="110.85" y="62.53" angle="180.00" speed="1.39" pos="62.53" edge="SC" slope="0.00"/>
    </timestep>
    <timestep time="21.00">
        <person id="up" x="110.85" y="135.98" angle="0.00" speed="1.39" pos="22.88" edge="CN" slope="0.00"/>
        <person id="down" x="110.85" y="61.19" angle="180.00" speed="1.39" pos="61.19" edge="SC" slope="0.00"/>
    </timestep>
    <timestep time="22.00">
        <person id="up" x="110.85" y="137.33" angle="0.00" speed="1.39" pos="24.23" edge="CN" slope="0.00"/>
        <person id="down" x="110.85" y="59.84" angle="180.00" speed="1.39" pos="59.84" edge="SC" slope="0.00"/>
    </timestep>
    <timestep time="23.00">
        <person id="up" x="110.85" y="138.67" angle="0.00" speed="1.39" pos="25.57" edge="CN" slope="0.00"/>
        <person id="down" x="110.85" y="58.50" angle="180.00" speed="1.39" pos="58.50" edge="SC" slope="0.00"/>
    </timestep>
    <timestep time="24.00">
        <person id="up" x="110.85" y="140.02" angle="0.00" speed="1.39" pos="26.92" edge="CN" slope="0.00"/>
        <person id="down" x="110.85" y="57.15" angle="180.00" speed="1.39" pos="57.15" edge="SC" slope="0.00"/>
    </timestep>
    <timestep time="25.00">
        <person id="up" x="110.85" y="141.36" angle="0.00" speed="1.39" pos="28.26" edge="CN" slope="0.00"/>
        <person id="down" x="110.85" y="55.81" angle="180.00" speed="1.39" pos="55.81" edge="SC" slope="0.00"/>
    </timestep>
    <timestep time="26.00">
        <person id="up" x="110.85" y="142.71" angle="0.00" speed="1.39" pos="29.61" edge="CN" slope="0.00"/>
        <person id="down" x="110.85" y="54.46" angle="180.00" speed="1.39" pos="54.46" edge="SC" slope="0.00"/>
    </timestep>
    <timestep time="27.00">
        <person id="up" x="110.85" y="144.05" angle="0.00" speed="1.39" pos="30.95" edge="CN" slope="0.00"/>
        <person id="down" x="110.85" y="53.12" angle="180.00" speed="1.39" pos="53.12" edge="SC" slope="0.00"/>
    </timestep>
    <timestep time="28.00">
        <person id="up" x="110.85" y="145.40" angle="0.00" speed="1.39" pos="32.30" edge="CN" slope="0.00"/>
        <person id="down" x="110.85" y="51.77" angle="180.00" speed="1.39" pos="51.77" edge="SC" slope="0.00"/>
    </timestep>
    <timestep time="29.00">
        <person id="up" x="110.85" y="146.75" angle="0.00" speed="1.39" pos="33.65" edge="CN" slope="0.00"/>
        <person id="down" x="110.85" y="50.43" angle="180.00" speed="1.39" pos="50.43" edge="SC" slope="0.00"/>
    </timestep>
    <timestep time="30.00">
        <person id="up" x="110.85" y="148.09" angle="0.00" speed="1.39" pos="34.99" edge="CN" slope="0.00"/>
        <person id="down" x="110.85" y="49.08" angle="180.00" speed="1.39" pos="49.08" edge="SC" slope="0.00"/>
    </timestep>
    <timestep time="31.00">
        <person id="up" x="110.85" y="149.44" angle="0.00" speed="1.39" pos="36.34" edge="CN" slope="0.00"/>
        <person id="down" x="110.85" y="47.74" angle="180.00" speed="1.39" pos="47.74" edge="SC" slope="0.00"/>
    </timestep>
    <timestep time="32.00">
        <person id="up" x="110.85" y="150.78" angle="0.00" speed="1.39" pos="37.68" edge="CN" slope="0.00"/>
        <person id="down" x="110.85" y="46.39" angle="180.00" speed="1.39" pos="46.39" edge="SC" slope="0.00"/>
    </timestep>
    <timestep time="33.00">
        <person id="up" x="110.85" y="152.13" angle="0.00" speed="1.39" pos="39.03" edge="CN" slope="0.00"/>
        <person id="down" x="110.85" y="45.05" angle="180.00" speed="1.39" pos="45.05" edge="SC" slope="0.00"/>
    </timestep>
    <timestep time="34.00">
        <person id="up" x="110.85" y="153.48" angle="0.00" speed="1.39" pos="40.38" edge="CN" slope="0.00"/>
    </timestep>
    <timestep time="35.00">
        <person id="up" x="110.85" y="154.82" angle="0.00" speed="1.39" pos="41.72" edge="CN" slope="0.00"/>
    </timestep>
    <timestep time="36.00"/>
</fcd-export>
