<?xml version="1.0" encoding="UTF-8"?>

<!-- generated on 2023-06-17 11:56:57 by Eclipse SUMO sumo Version v1_17_0+1046-56b811b0aed
This data file and the accompanying materials
are made available under the terms of the Eclipse Public License v2.0
which accompanies this distribution, and is available at
http://www.eclipse.org/legal/epl-v20.html
This file may also be made available under the following Secondary
Licenses when the conditions for such availability set forth in the Eclipse
Public License 2.0 are satisfied: GNU General Public License, version 2
or later which is available at
https://www.gnu.org/licenses/old-licenses/gpl-2.0-standalone.html
SPDX-License-Identifier: EPL-2.0 OR GPL-2.0-or-later
<configuration xmlns:xsi="http://www.w3.org/2001/XMLSchema-instance" xsi:noNamespaceSchemaLocation="http://sumo.dlr.de/xsd/sumoConfiguration.xsd">

    <input>
        <net-file value="net.net.xml"/>
        <route-files value="input_routes.rou.xml"/>
    </input>

    <output>
        <write-license value="true"/>
        <fcd-output value="fcd.xml"/>
        <tripinfo-output value="tripinfos.xml"/>
    </output>

    <processing>
        <default.speeddev value="0"/>
        <pedestrian.model value="jupedsim"/>
    </processing>

    <report>
        <xml-validation value="never"/>
        <no-step-log value="true"/>
    </report>

    <fcd_device>
        <device.fcd.period value="10"/>
    </fcd_device>

</configuration>
-->

<fcd-export xmlns:xsi="http://www.w3.org/2001/XMLSchema-instance" xsi:noNamespaceSchemaLocation="http://sumo.dlr.de/xsd/fcd_file.xsd">
    <timestep time="0.00">
        <person id="0" x="1802.04" y="2068.48" angle="343.90" speed="0.00" pos="0.00" edge="1464" slope="0.00"/>
    </timestep>
    <timestep time="10.00">
        <person id="0" x="1792.86" y="2064.67" angle="248.98" speed="0.00" pos="0.00" edge="-1388" slope="0.00"/>
        <person id="6" x="1782.79" y="2060.30" angle="253.79" speed="0.00" pos="0.00" edge="-1388" slope="0.00"/>
        <person id="1" x="1658.43" y="2002.07" angle="73.79" speed="0.00" pos="0.00" edge="1388" slope="0.00"/>
        <person id="5" x="1654.60" y="2000.93" angle="74.10" speed="0.00" pos="0.00" edge="1388" slope="0.00"/>
        <person id="8" x="1651.71" y="2000.11" angle="74.10" speed="0.00" pos="0.00" edge="1388" slope="0.00"/>
        <person id="4" x="1791.48" y="1904.92" angle="5.29" speed="0.00" pos="0.00" edge="1391" slope="0.00"/>
        <person id="2" x="1799.82" y="2076.16" angle="343.90" speed="0.00" pos="0.00" edge="1464" slope="0.00"/>
        <person id="7" x="1802.21" y="2065.49" angle="176.75" speed="0.00" pos="0.00" edge="1464" slope="0.00"/>
        <person id="3" x="1599.44" y="1895.65" angle="24.72" speed="0.00" pos="0.00" edge="533" slope="0.00"/>
        <person id="9" x="1596.93" y="1890.20" angle="24.72" speed="0.00" pos="0.00" edge="533" slope="0.00"/>
    </timestep>
    <timestep time="20.00">
        <person id="0" x="1783.54" y="2061.09" angle="253.17" speed="0.00" pos="0.00" edge="-1388" slope="0.00"/>
        <person id="6" x="1773.19" y="2057.50" angle="253.79" speed="0.00" pos="0.00" edge="-1388" slope="0.00"/>
        <person id="1" x="1668.04" y="2004.86" angle="73.79" speed="0.00" pos="0.00" edge="1388" slope="0.00"/>
        <person id="5" x="1664.22" y="2003.67" angle="74.10" speed="0.00" pos="0.00" edge="1388" slope="0.00"/>
        <person id="8" x="1661.33" y="2002.84" angle="74.10" speed="0.00" pos="0.00" edge="1388" slope="0.00"/>
        <person id="4" x="1792.41" y="1914.88" angle="5.29" speed="0.00" pos="0.00" edge="1391" slope="0.00"/>
        <person id="2" x="1797.05" y="2085.76" angle="343.90" speed="0.00" pos="0.00" edge="1464" slope="0.00"/>
        <person id="7" x="1802.78" y="2055.51" angle="176.75" speed="0.00" pos="0.00" edge="1464" slope="0.00"/>
        <person id="3" x="1603.63" y="1904.73" angle="24.72" speed="0.00" pos="0.00" edge="533" slope="0.00"/>
        <person id="9" x="1601.12" y="1899.28" angle="24.72" speed="0.00" pos="0.00" edge="533" slope="0.00"/>
    </timestep>
    <timestep time="30.00">
        <person id="0" x="1773.97" y="2058.22" angle="253.35" speed="0.00" pos="0.00" edge="-1388" slope="0.00"/>
        <person id="6" x="1763.58" y="2054.71" angle="253.79" speed="0.00" pos="0.00" edge="-1388" slope="0.00"/>
        <person id="1" x="1677.64" y="2007.65" angle="73.79" speed="0.00" pos="0.00" edge="1388" slope="0.00"/>
        <person id="5" x="1673.83" y="2006.41" angle="74.10" speed="0.00" pos="0.00" edge="1388" slope="0.00"/>
        <person id="8" x="1670.95" y="2005.58" angle="74.10" speed="0.00" pos="0.00" edge="1388" slope="0.00"/>
        <person id="4" x="1793.33" y="1924.84" angle="5.29" speed="0.00" pos="0.00" edge="1391" slope="0.00"/>
        <person id="7" x="1803.34" y="2045.53" angle="176.75" speed="0.00" pos="0.00" edge="1391" slope="0.00"/>
        <person id="2" x="1794.28" y="2095.37" angle="343.90" speed="0.00" pos="0.00" edge="1464" slope="0.00"/>
        <person id="3" x="1607.81" y="1913.82" angle="24.72" speed="0.00" pos="0.00" edge="533" slope="0.00"/>
        <person id="9" x="1605.30" y="1908.37" angle="24.72" speed="0.00" pos="0.00" edge="533" slope="0.00"/>
    </timestep>
    <timestep time="40.00">
        <person id="0" x="1764.38" y="2055.35" angle="253.35" speed="0.00" pos="0.00" edge="-1388" slope="0.00"/>
        <person id="6" x="1753.98" y="2051.92" angle="253.79" speed="0.00" pos="0.00" edge="-1388" slope="0.00"/>
        <person id="1" x="1687.24" y="2010.44" angle="73.79" speed="0.00" pos="0.00" edge="1388" slope="0.00"/>
        <person id="5" x="1683.45" y="2009.14" angle="74.10" speed="0.00" pos="0.00" edge="1388" slope="0.00"/>
        <person id="8" x="1680.57" y="2008.32" angle="74.10" speed="0.00" pos="0.00" edge="1388" slope="0.00"/>
        <person id="4" x="1794.25" y="1934.80" angle="5.29" speed="0.00" pos="0.00" edge="1391" slope="0.00"/>
        <person id="7" x="1803.86" y="2035.62" angle="184.86" speed="0.00" pos="0.00" edge="1391" slope="0.00"/>
        <person id="2" x="1791.50" y="2104.98" angle="343.90" speed="0.00" pos="0.00" edge="1464" slope="0.00"/>
        <person id="3" x="1611.99" y="1922.90" angle="24.72" speed="0.00" pos="0.00" edge="533" slope="0.00"/>
        <person id="9" x="1609.48" y="1917.45" angle="24.72" speed="0.00" pos="0.00" edge="533" slope="0.00"/>
    </timestep>
    <timestep time="50.00">
        <person id="0" x="1754.80" y="2052.49" angle="253.35" speed="0.00" pos="0.00" edge="-1388" slope="0.00"/>
        <person id="6" x="1744.38" y="2049.13" angle="253.79" speed="0.00" pos="0.00" edge="-1388" slope="0.00"/>
        <person id="1" x="1696.84" y="2013.23" angle="73.79" speed="0.00" pos="0.00" edge="1388" slope="0.00"/>
        <person id="5" x="1693.07" y="2011.88" angle="74.10" speed="0.00" pos="0.00" edge="1388" slope="0.00"/>
        <person id="8" x="1690.18" y="2011.06" angle="74.10" speed="0.00" pos="0.00" edge="1388" slope="0.00"/>
        <person id="4" x="1795.17" y="1944.75" angle="5.29" speed="0.00" pos="0.00" edge="1391" slope="0.00"/>
        <person id="7" x="1802.97" y="2025.66" angle="185.17" speed="0.00" pos="0.00" edge="1391" slope="0.00"/>
        <person id="3" x="1616.17" y="1931.98" angle="24.72" speed="0.00" pos="0.00" edge="533" slope="0.00"/>
        <person id="9" x="1613.66" y="1926.53" angle="24.72" speed="0.00" pos="0.00" edge="533" slope="0.00"/>
    </timestep>
    <timestep time="60.00">
        <person id="0" x="1745.22" y="2049.62" angle="253.35" speed="0.00" pos="0.00" edge="-1388" slope="0.00"/>
        <person id="6" x="1734.78" y="2046.34" angle="253.79" speed="0.00" pos="0.00" edge="-1388" slope="0.00"/>
        <person id="1" x="1706.45" y="2016.03" angle="73.79" speed="0.00" pos="0.00" edge="1388" slope="0.00"/>
        <person id="5" x="1702.69" y="2014.62" angle="74.10" speed="0.00" pos="0.00" edge="1388" slope="0.00"/>
        <person id="8" x="1699.80" y="2013.80" angle="74.10" speed="0.00" pos="0.00" edge="1388" slope="0.00"/>
        <person id="4" x="1796.10" y="1954.71" angle="5.29" speed="0.00" pos="0.00" edge="1391" slope="0.00"/>
        <person id="7" x="1802.07" y="2015.70" angle="185.17" speed="0.00" pos="0.00" edge="1391" slope="0.00"/>
        <person id="3" x="1620.35" y="1941.07" angle="24.72" speed="0.00" pos="0.00" edge="533" slope="0.00"/>
        <person id="9" x="1617.84" y="1935.62" angle="24.72" speed="0.00" pos="0.00" edge="533" slope="0.00"/>
    </timestep>
    <timestep time="70.00">
        <person id="0" x="1735.64" y="2046.76" angle="253.35" speed="0.00" pos="0.00" edge="-1388" slope="0.00"/>
        <person id="6" x="1725.17" y="2043.55" angle="253.79" speed="0.00" pos="0.00" edge="-1388" slope="0.00"/>
        <person id="1" x="1716.05" y="2018.82" angle="73.79" speed="0.00" pos="0.00" edge="1388" slope="0.00"/>
        <person id="5" x="1712.30" y="2017.36" angle="74.10" speed="0.00" pos="0.00" edge="1388" slope="0.00"/>
        <person id="8" x="1709.42" y="2016.54" angle="74.10" speed="0.00" pos="0.00" edge="1388" slope="0.00"/>
        <person id="4" x="1797.02" y="1964.67" angle="5.30" speed="0.00" pos="0.00" edge="1391" slope="0.00"/>
        <person id="7" x="1801.17" y="2005.74" angle="185.17" speed="0.00" pos="0.00" edge="1391" slope="0.00"/>
        <person id="3" x="1624.54" y="1950.15" angle="24.72" speed="0.00" pos="0.00" edge="533" slope="0.00"/>
        <person id="9" x="1622.03" y="1944.70" angle="24.72" speed="0.00" pos="0.00" edge="533" slope="0.00"/>
    </timestep>
    <timestep time="80.00">
        <person id="0" x="1726.06" y="2043.89" angle="253.35" speed="0.00" pos="0.00" edge="-1388" slope="0.00"/>
        <person id="5" x="1721.92" y="2020.10" angle="74.10" speed="0.00" pos="0.00" edge="1388" slope="0.00"/>
        <person id="8" x="1719.04" y="2019.28" angle="74.10" speed="0.00" pos="0.00" edge="1388" slope="0.00"/>
        <person id="4" x="1797.94" y="1974.63" angle="5.30" speed="0.00" pos="0.00" edge="1391" slope="0.00"/>
        <person id="7" x="1800.27" y="1995.78" angle="185.17" speed="0.00" pos="0.00" edge="1391" slope="0.00"/>
        <person id="3" x="1628.72" y="1959.23" angle="24.75" speed="0.00" pos="0.00" edge="533" slope="0.00"/>
        <person id="9" x="1626.21" y="1953.78" angle="24.73" speed="0.00" pos="0.00" edge="533" slope="0.00"/>
    </timestep>
    <timestep time="90.00">
        <person id="0" x="1716.48" y="2041.03" angle="253.35" speed="0.00" pos="0.00" edge="-1388" slope="0.00"/>
        <person id="5" x="1731.54" y="2022.84" angle="74.10" speed="0.00" pos="0.00" edge="1388" slope="0.00"/>
        <person id="8" x="1728.65" y="2022.02" angle="74.10" speed="0.00" pos="0.00" edge="1388" slope="0.00"/>
        <person id="4" x="1798.87" y="1984.57" angle="5.27" speed="0.00" pos="0.00" edge="1391" slope="0.00"/>
        <person id="7" x="1799.37" y="1985.84" angle="185.12" speed="0.00" pos="0.00" edge="1391" slope="0.00"/>
        <person id="3" x="1632.92" y="1968.31" angle="24.98" speed="0.00" pos="0.00" edge="533" slope="0.00"/>
        <person id="9" x="1630.40" y="1962.86" angle="24.81" speed="0.00" pos="0.00" edge="533" slope="0.00"/>
    </timestep>
    <timestep time="100.00">
        <person id="5" x="1741.16" y="2025.58" angle="74.08" speed="0.00" pos="0.00" edge="1388" slope="0.00"/>
        <person id="8" x="1738.27" y="2024.76" angle="74.09" speed="0.00" pos="0.00" edge="1388" slope="0.00"/>
        <person id="4" x="1799.72" y="1993.76" angle="5.65" speed="0.00" pos="0.00" edge="1391" slope="0.00"/>
        <person id="7" x="1798.74" y="1976.56" angle="186.66" speed="0.00" pos="0.00" edge="1391" slope="0.00"/>
        <person id="3" x="1637.15" y="1977.37" angle="25.06" speed="0.00" pos="0.00" edge="533" slope="0.00"/>
        <person id="9" x="1634.61" y="1971.93" angle="25.04" speed="0.00" pos="0.00" edge="533" slope="0.00"/>
    </timestep>
    <timestep time="110.00">
        <person id="5" x="1750.77" y="2028.33" angle="73.94" speed="0.00" pos="0.00" edge="1388" slope="0.00"/>
        <person id="8" x="1747.89" y="2027.50" angle="74.00" speed="0.00" pos="0.00" edge="1388" slope="0.00"/>
        <person id="4" x="1800.70" y="2003.71" angle="5.61" speed="0.00" pos="0.00" edge="1391" slope="0.00"/>
        <person id="3" x="1641.39" y="1986.43" angle="25.02" speed="0.00" pos="0.00" edge="533" slope="0.00"/>
        <person id="9" x="1638.85" y="1980.99" angle="25.05" speed="0.00" pos="0.00" edge="533" slope="0.00"/>
    </timestep>
    <timestep time="120.00">
        <person id="5" x="1760.38" y="2031.11" angle="73.83" speed="0.00" pos="0.00" edge="1388" slope="0.00"/>
        <person id="8" x="1757.50" y="2030.28" angle="73.85" speed="0.00" pos="0.00" edge="1388" slope="0.00"/>
        <person id="4" x="1801.68" y="2013.67" angle="5.60" speed="0.00" pos="0.00" edge="1391" slope="0.00"/>
        <person id="3" x="1645.60" y="1995.50" angle="24.58" speed="0.00" pos="0.00" edge="533" slope="0.00"/>
        <person id="9" x="1643.08" y="1990.05" angle="24.98" speed="0.00" pos="0.00" edge="533" slope="0.00"/>
    </timestep>
    <timestep time="130.00">
        <person id="5" x="1769.98" y="2033.90" angle="73.84" speed="0.00" pos="0.00" edge="1388" slope="0.00"/>
        <person id="8" x="1767.10" y="2033.06" angle="73.83" speed="0.00" pos="0.00" edge="1388" slope="0.00"/>
        <person id="4" x="1802.65" y="2023.62" angle="5.57" speed="0.00" pos="0.00" edge="1391" slope="0.00"/>
        <person id="3" x="1645.59" y="2005.27" angle="353.69" speed="0.00" pos="0.00" edge="533" slope="0.00"/>
        <person id="9" x="1646.25" y="1999.31" angle="353.69" speed="0.00" pos="0.00" edge="533" slope="0.00"/>
    </timestep>
    <timestep time="140.00">
        <person id="5" x="1779.59" y="2036.68" angle="73.87" speed="0.00" pos="0.00" edge="1388" slope="0.00"/>
        <person id="8" x="1776.70" y="2035.84" angle="73.86" speed="0.00" pos="0.00" edge="1388" slope="0.00"/>
        <person id="4" x="1803.61" y="2033.57" angle="5.39" speed="0.00" pos="0.00" edge="1391" slope="0.00"/>
        <person id="3" x="1644.49" y="2015.21" angle="353.69" speed="0.00" pos="0.00" edge="533" slope="0.00"/>
        <person id="9" x="1645.15" y="2009.25" angle="353.69" speed="0.00" pos="0.00" edge="533" slope="0.00"/>
    </timestep>
    <timestep time="150.00">
        <person id="3" x="1649.84" y="2021.09" angle="73.30" speed="0.00" pos="0.00" edge="-1388" slope="0.00"/>
        <person id="5" x="1789.20" y="2039.44" angle="74.13" speed="0.00" pos="0.00" edge="1388" slope="0.00"/>
        <person id="8" x="1786.31" y="2038.62" angle="73.96" speed="0.00" pos="0.00" edge="1388" slope="0.00"/>
        <person id="4" x="1799.09" y="2040.90" angle="300.40" speed="0.00" pos="0.00" edge="1391" slope="0.00"/>
        <person id="9" x="1644.28" y="2019.11" angle="19.93" speed="0.00" pos="0.00" edge="533" slope="0.00"/>
    </timestep>
    <timestep time="160.00">
        <person id="3" x="1659.42" y="2023.96" angle="73.35" speed="0.00" pos="0.00" edge="-1388" slope="0.00"/>
        <person id="9" x="1653.67" y="2022.24" angle="73.34" speed="0.00" pos="0.00" edge="-1388" slope="0.00"/>
        <person id="5" x="1798.97" y="2039.06" angle="100.40" speed="0.00" pos="0.00" edge="1388" slope="0.00"/>
        <person id="8" x="1796.02" y="2039.61" angle="100.41" speed="0.00" pos="0.00" edge="1388" slope="0.00"/>
        <person id="4" x="1793.04" y="2048.27" angle="333.55" speed="0.00" pos="0.00" edge="1391" slope="0.00"/>
    </timestep>
    <timestep time="170.00">
        <person id="3" x="1669.00" y="2026.83" angle="73.35" speed="0.00" pos="0.00" edge="-1388" slope="0.00"/>
        <person id="9" x="1663.25" y="2025.11" angle="73.35" speed="0.00" pos="0.00" edge="-1388" slope="0.00"/>
        <person id="4" x="1788.58" y="2057.22" angle="333.55" speed="0.00" pos="0.00" edge="1391" slope="0.00"/>
        <person id="5" x="1803.64" y="2033.07" angle="185.09" speed="0.00" pos="0.00" edge="1391" slope="0.00"/>
        <person id="8" x="1803.90" y="2036.06" angle="184.74" speed="0.00" pos="0.00" edge="1391" slope="0.00"/>
    </timestep>
    <timestep time="180.00">
        <person id="3" x="1678.58" y="2029.69" angle="73.35" speed="0.00" pos="0.00" edge="-1388" slope="0.00"/>
        <person id="4" x="1780.85" y="2059.19" angle="254.28" speed="0.00" pos="0.00" edge="-1388" slope="0.00"/>
        <person id="9" x="1672.83" y="2027.97" angle="73.35" speed="0.00" pos="0.00" edge="-1388" slope="0.00"/>
        <person id="5" x="1802.74" y="2023.11" angle="185.17" speed="0.00" pos="0.00" edge="1391" slope="0.00"/>
        <person id="8" x="1803.01" y="2026.10" angle="185.17" speed="0.00" pos="0.00" edge="1391" slope="0.00"/>
    </timestep>
    <timestep time="190.00">
        <person id="3" x="1688.16" y="2032.56" angle="73.35" speed="0.00" pos="0.00" edge="-1388" slope="0.00"/>
        <person id="4" x="1771.23" y="2056.47" angle="254.23" speed="0.00" pos="0.00" edge="-1388" slope="0.00"/>
        <person id="9" x="1682.41" y="2030.84" angle="73.35" speed="0.00" pos="0.00" edge="-1388" slope="0.00"/>
        <person id="5" x="1801.84" y="2013.15" angle="185.17" speed="0.00" pos="0.00" edge="1391" slope="0.00"/>
        <person id="8" x="1802.11" y="2016.14" angle="185.17" speed="0.00" pos="0.00" edge="1391" slope="0.00"/>
    </timestep>
    <timestep time="200.00">
        <person id="3" x="1697.74" y="2035.42" angle="73.35" speed="0.00" pos="0.00" edge="-1388" slope="0.00"/>
        <person id="4" x="1761.60" y="2053.75" angle="254.23" speed="0.00" pos="0.00" edge="-1388" slope="0.00"/>
        <person id="9" x="1691.99" y="2033.70" angle="73.35" speed="0.00" pos="0.00" edge="-1388" slope="0.00"/>
        <person id="5" x="1800.94" y="2003.19" angle="185.17" speed="0.00" pos="0.00" edge="1391" slope="0.00"/>
        <person id="8" x="1801.21" y="2006.18" angle="185.17" speed="0.00" pos="0.00" edge="1391" slope="0.00"/>
    </timestep>
    <timestep time="210.00">
        <person id="3" x="1707.32" y="2038.29" angle="73.35" speed="0.00" pos="0.00" edge="-1388" slope="0.00"/>
        <person id="4" x="1751.98" y="2051.03" angle="254.23" speed="0.00" pos="0.00" edge="-1388" slope="0.00"/>
        <person id="9" x="1701.57" y="2036.57" angle="73.35" speed="0.00" pos="0.00" edge="-1388" slope="0.00"/>
        <person id="5" x="1800.04" y="1993.23" angle="185.17" speed="0.00" pos="0.00" edge="1391" slope="0.00"/>
        <person id="8" x="1800.31" y="1996.22" angle="185.17" speed="0.00" pos="0.00" edge="1391" slope="0.00"/>
    </timestep>
    <timestep time="220.00">
        <person id="4" x="1742.36" y="2048.32" angle="254.23" speed="0.00" pos="0.00" edge="-1388" slope="0.00"/>
        <person id="9" x="1711.15" y="2039.43" angle="73.35" speed="0.00" pos="0.00" edge="-1388" slope="0.00"/>
        <person id="5" x="1799.13" y="1983.27" angle="185.17" speed="0.00" pos="0.00" edge="1391" slope="0.00"/>
        <person id="8" x="1799.41" y="1986.26" angle="185.17" speed="0.00" pos="0.00" edge="1391" slope="0.00"/>
    </timestep>
    <timestep time="230.00">
        <person id="4" x="1732.73" y="2045.60" angle="254.23" speed="0.00" pos="0.00" edge="-1388" slope="0.00"/>
        <person id="5" x="1798.23" y="1973.31" angle="185.17" speed="0.00" pos="0.00" edge="1391" slope="0.00"/>
        <person id="8" x="1798.50" y="1976.30" angle="185.17" speed="0.00" pos="0.00" edge="1391" slope="0.00"/>
    </timestep>
    <timestep time="240.00">
        <person id="4" x="1723.11" y="2042.88" angle="254.23" speed="0.00" pos="0.00" edge="-1388" slope="0.00"/>
    </timestep>
</fcd-export>
